Title
42773
    1SAPS     N    1   4.835   2.441   6.978 -0.0748 -0.0271 -0.4276
    1SAPS   HN1    2   4.787   2.375   7.043 -0.2939  0.3032 -0.2499
    1SAPS   HN2    3   4.778   2.479   6.900  1.1729 -0.9056 -1.8159
    1SAPS   HN3    4   4.908   2.378   6.941 -0.7501 -0.8227 -0.4351
    1SAPS   C12    5   4.884   2.557   7.053 -0.2527 -0.6660  0.3481
    1SAPS  H12A    6   4.807   2.630   7.074 -0.7660 -1.3092  0.7088
    1SAPS   C13    7   4.954   2.524   7.181 -0.1813 -0.6383  0.1033
    1SAPS  O13A    8   4.938   2.413   7.232 -0.3705  0.3300  0.2082
    1SAPS  O13B    9   5.004   2.626   7.240  0.0915  0.1050 -0.1555
    1SAPS   C11   10   4.983   2.641   6.958 -0.5459  0.3356  0.1957
    1SAPS  H11A   11   5.006   2.729   7.021 -0.0807 -1.1186  2.1628
    1SAPS  H11B   12   4.929   2.661   6.863 -0.6161 -2.8878 -0.5897
    1SAPS     P   13   5.157   2.505   6.811 -0.2040 -0.1420  0.2159
    1SAPS   O13   14   5.303   2.495   6.802  0.4179 -0.1685  0.0955
    1SAPS   O14   15   5.086   2.373   6.829  0.2186 -0.2039 -0.5687
    1SAPS   O12   16   5.117   2.588   6.935 -0.1500 -0.5564  0.1236
    1SAPS   O11   17   5.094   2.583   6.690 -0.3721 -0.0190 -0.9464
    1SAPS    C1   18   5.161   2.701   6.631  0.0556  1.1561  0.3007
    1SAPS    HA   19   5.270   2.690   6.616 -0.3461 -0.7804 -1.7861
    1SAPS    HB   20   5.134   2.702   6.523 -0.3605 -3.6169  0.1634
    1SAPS    C2   21   5.112   2.829   6.702 -0.3559  0.0167 -0.3101
    1SAPS    HS   22   5.132   2.834   6.811  2.5923 -1.1941 -0.6968
    1SAPS   O21   23   4.964   2.843   6.687  0.1970  0.7746 -0.1548
    1SAPS   C21   24   4.911   2.938   6.755 -0.8045  0.0309 -0.1494
    1SAPS   O22   25   4.966   3.016   6.829 -0.3298 -0.7357 -0.6213
    1SAPS   C22   26   4.766   2.937   6.735  0.4950 -0.1079  0.2166
    1SAPS   H2R   27   4.724   2.900   6.832  1.4857  1.4495  1.2894
    1SAPS   H2S   28   4.729   3.041   6.724  2.8053  0.8363  0.7841
    1SAPS    C3   29   5.180   2.960   6.629  0.8603  0.1394 -0.6807
    1SAPS    HX   30   5.289   2.961   6.653  0.1201  3.1700  3.7542
    1SAPS    HY   31   5.147   3.051   6.683  0.3338  0.8694 -2.1592
    1SAPS   O31   32   5.153   2.949   6.481 -0.0584 -0.1127 -0.1029
    1SAPS   C31   33   5.068   3.046   6.444  0.0052 -0.4654 -0.5526
    1SAPS   O32   34   5.017   3.126   6.521 -0.1534 -0.4420 -0.2181
    1SAPS   C32   35   5.044   3.035   6.297 -0.1569  0.4410 -0.2660
    1SAPS   H2X   36   4.998   2.935   6.284 -1.2451  0.5429  2.2239
    1SAPS   H2Y   37   5.147   3.031   6.256 -0.1846  1.7682 -0.5355
    1SAPS   C23   38   4.702   2.845   6.623 -0.3439 -0.7334  0.3328
    1SAPS   H3R   39   4.595   2.821   6.645 -0.7516 -1.2859 -2.0352
    1SAPS   H3S   40   4.758   2.749   6.624  0.3546 -0.3336  0.7157
    1SAPS   C24   41   4.715   2.909   6.484  0.5083 -0.0111  0.4045
    1SAPS   H4R   42   4.706   2.821   6.416  1.8971  1.0029 -1.1754
    1SAPS   H4S   43   4.818   2.947   6.469 -0.6844  2.7246 -1.4689
    1SAPS   C25   44   4.615   3.018   6.463  0.3822  0.0701  0.3923
    1SAPS   H5R   45   4.595   3.085   6.548  2.3303 -1.1403  1.8968
    1SAPS   C26   46   4.554   3.035   6.346  0.1024 -0.6366 -0.4284
    1SAPS   H6R   47   4.485   3.120   6.332  1.7126  0.6454 -0.9019
    1SAPS   C27   48   4.594   2.960   6.220 -0.1054  0.6252  0.3459
    1SAPS   H7R   49   4.549   2.859   6.227 -0.4881  0.7217 -0.5246
    1SAPS   H7S   50   4.704   2.948   6.224 -0.1915 -0.2141  4.2177
    1SAPS   C28   51   4.557   3.034   6.088  0.1292  0.1811  0.0946
    1SAPS   H8R   52   4.593   3.138   6.085 -1.9026  0.9237  0.2016
    1SAPS   C29   53   4.487   2.986   5.980  0.5237  0.4335  0.2885
    1SAPS   H9R   54   4.472   3.059   5.899  1.1973  1.5896  1.1820
    1SAPS  C210   55   4.439   2.847   5.975  0.1029 -0.3690 -0.3727
    1SAPS  H10R   56   4.340   2.837   5.927  0.1679  2.6928 -1.3683
    1SAPS  H10S   57   4.420   2.801   6.074 -1.9553  1.7725  0.3230
    1SAPS  C211   58   4.536   2.763   5.898  0.3612  1.4298 -0.4878
    1SAPS  H11R   59   4.610   2.716   5.964 -1.7906 -0.3790  0.7523
    1SAPS  C212   60   4.532   2.723   5.771  0.3476 -0.2586 -0.4778
    1SAPS  H12R   61   4.599   2.642   5.742  0.2932 -1.5314  2.5584
    1SAPS  C213   62   4.423   2.769   5.668 -0.5449  0.0478  0.2227
    1SAPS  H13R   63   4.359   2.846   5.716  1.5403  1.3957  0.9932
    1SAPS  H13S   64   4.353   2.689   5.635 -1.8315  1.4160 -0.4650
    1SAPS  C214   65   4.482   2.824   5.538 -0.2562 -0.7865 -0.6862
    1SAPS  H14R   66   4.490   2.934   5.538  0.3716 -0.7490  2.7495
    1SAPS  C215   67   4.496   2.749   5.432 -0.4257  0.6592 -0.1488
    1SAPS  H15R   68   4.528   2.783   5.333  2.0023  2.7895  1.2293
    1SAPS  C216   69   4.465   2.601   5.426 -0.5147  0.2014  0.2327
    1SAPS  H16R   70   4.464   2.550   5.524 -4.4701  3.6139  2.2930
    1SAPS  H16S   71   4.538   2.554   5.357 -1.6718  1.4372 -1.9484
    1SAPS  C217   72   4.331   2.590   5.350 -0.4009  0.1056  0.7404
    1SAPS  H17R   73   4.349   2.629   5.247  1.9477  1.8258  1.7067
    1SAPS  H17S   74   4.252   2.659   5.387 -1.9053 -0.7106 -0.8083
    1SAPS  C218   75   4.309   2.442   5.338  0.1120 -0.3115 -0.9449
    1SAPS  H18R   76   4.280   2.405   5.438 -2.0941 -1.4926 -1.9350
    1SAPS  H18S   77   4.402   2.386   5.313  0.8333  0.9618 -1.1715
    1SAPS  C219   78   4.206   2.397   5.236  0.3348 -0.5462 -0.2298
    1SAPS  H19R   79   4.225   2.429   5.131  1.4191  0.1603  0.1700
    1SAPS  H19S   80   4.118   2.456   5.269  1.8684  1.2712  0.7442
    1SAPS  C220   81   4.176   2.248   5.241 -0.1923  0.2705 -0.9864
    1SAPS  H20R   82   4.156   2.204   5.341 -0.5471  0.7080 -0.8634
    1SAPS  H20S   83   4.252   2.193   5.181 -0.9916 -1.7432 -0.2371
    1SAPS  H20T   84   4.089   2.226   5.176 -2.0718  1.2025  1.0688
    1SAPS   C33   85   4.981   3.159   6.227  0.5088  0.2144  0.3555
    1SAPS   H3X   86   5.031   3.245   6.275 -0.4797  2.0150 -1.6816
    1SAPS   H3Y   87   4.871   3.171   6.239  0.0283 -0.5929 -2.5201
    1SAPS   C34   88   5.004   3.142   6.075 -0.0539 -0.2209 -0.4455
    1SAPS   H4X   89   5.112   3.139   6.051 -0.1108 -0.5350 -0.6779
    1SAPS   H4Y   90   4.967   3.227   6.013  0.2752  1.0221  1.0048
    1SAPS   C35   91   4.937   3.012   6.022  0.4155  0.4623 -0.0668
    1SAPS   H5X   92   4.837   3.006   6.070  0.4291  1.4548  0.1041
    1SAPS   H5Y   93   4.997   2.927   6.063  0.1562 -0.9998 -2.5224
    1SAPS   C36   94   4.931   3.000   5.868  0.2057 -0.0211 -0.1875
    1SAPS   H6X   95   4.888   2.899   5.850  1.1021 -0.6700  1.1490
    1SAPS   H6Y   96   5.038   2.988   5.842  0.4206 -4.5632  1.7711
    1SAPS   C37   97   4.868   3.100   5.781  0.3875  0.0242  0.6637
    1SAPS   H7X   98   4.929   3.192   5.793  0.9691 -0.0750 -1.3022
    1SAPS   H7Y   99   4.764   3.121   5.815 -0.7516 -2.9521 -0.6673
    1SAPS   C38  100   4.863   3.062   5.632 -0.0931  0.0278  0.0675
    1SAPS   H8X  101   4.830   2.956   5.632  2.0414 -0.7250  1.8404
    1SAPS   H8Y  102   4.964   3.073   5.588 -0.2738 -1.2934 -0.7472
    1SAPS   C39  103   4.773   3.154   5.547 -0.2127 -0.0748 -0.3119
    1SAPS   H9X  104   4.798   3.260   5.568 -0.9157  0.4500 -1.9779
    1SAPS   H9Y  105   4.665   3.146   5.572  0.0270  1.8373  1.6329
    1SAPS  C310  106   4.792   3.104   5.397 -0.0022 -0.7583 -0.6662
    1SAPS  H10X  107   4.764   2.996   5.402  1.1518 -1.0369  0.5550
    1SAPS  H10Y  108   4.899   3.116   5.369  0.5952 -1.4232  1.1223
    1SAPS  C311  109   4.694   3.174   5.299  0.6073 -1.1436  0.2948
    1SAPS  H11X  110   4.746   3.270   5.276 -1.2110 -0.0943  0.4119
    1SAPS  H11Y  111   4.596   3.206   5.340  1.1000  3.2008 -1.3562
    1SAPS  C312  112   4.670   3.099   5.171 -0.8683 -1.0244 -0.4093
    1SAPS  H12X  113   4.654   2.989   5.180  0.7671 -1.3010 -0.4962
    1SAPS  H12Y  114   4.769   3.097   5.120 -0.7515 -1.4565 -0.1718
    1SAPS  C313  115   4.577   3.174   5.072 -0.4248  0.0531 -0.0021
    1SAPS  H13X  116   4.606   3.276   5.039 -2.1159  0.6980  0.3755
    1SAPS  H13Y  117   4.474   3.182   5.113 -1.0024 -3.4074 -0.5302
    1SAPS  C314  118   4.562   3.102   4.942  0.3389 -0.2940 -0.5048
    1SAPS  H14X  119   4.569   2.993   4.959 -0.2530 -0.5975 -2.0188
    1SAPS  H14Y  120   4.652   3.120   4.878 -0.2088 -1.8814 -1.7845
    1SAPS  C315  121   4.427   3.127   4.878  0.1669  0.8738 -0.6549
    1SAPS  H15X  122   4.408   3.235   4.859 -0.5234  0.7696 -0.5935
    1SAPS  H15Y  123   4.354   3.103   4.958  2.2825  1.0393  1.4140
    1SAPS  C316  124   4.398   3.044   4.753  0.8192 -0.4095 -0.2397
    1SAPS  H16X  125   4.457   3.086   4.668  2.0380 -0.0763  0.7459
    1SAPS  H16Y  126   4.291   3.060   4.729  0.6875 -2.5108 -1.3667
    1SAPS  C317  127   4.410   2.894   4.768  0.7491 -0.0044 -0.4676
    1SAPS  H17X  128   4.366   2.871   4.868 -0.6281  2.3767 -0.4463
    1SAPS  H17Y  129   4.507   2.841   4.765  0.9506  0.3230  0.0979
    1SAPS  C318  130   4.324   2.821   4.664 -0.2519  0.9896  0.6277
    1SAPS  H18X  131   4.303   2.713   4.683 -0.0472  0.7556 -0.3959
    1SAPS  H18Y  132   4.365   2.829   4.561 -1.5764  0.5081  0.0314
    1SAPS  H18Z  133   4.222   2.864   4.660 -0.9986 -0.7460 -0.2527
    2SAPS     N  134   4.805   6.146   7.307 -0.1117 -0.1413  0.0631
    2SAPS   HN1  135   4.832   6.244   7.283  0.8945 -0.2790  0.5729
    2SAPS   HN2  136   4.775   6.092   7.223 -0.3023  0.7307 -0.4429
    2SAPS   HN3  137   4.724   6.151   7.372 -0.2298  0.2425 -0.1111
    2SAPS   C12  138   4.905   6.083   7.385  0.3472  0.1055  0.6089
    2SAPS  H12A  139   4.979   6.040   7.320 -0.5027 -2.9348  1.4732
    2SAPS   C13  140   4.977   6.168   7.494 -0.7905  0.5251  0.6769
    2SAPS  O13A  141   4.952   6.289   7.502 -0.5790  0.0881  0.2580
    2SAPS  O13B  142   5.068   6.124   7.573  0.0567 -0.0728 -0.0765
    2SAPS   C11  143   4.859   5.953   7.464  0.0126 -0.1436 -0.4308
    2SAPS  H11A  144   4.776   5.982   7.532  1.8098 -0.7280  2.1516
    2SAPS  H11B  145   4.940   5.923   7.535  0.1302 -1.8313 -1.2297
    2SAPS     P  146   4.929   5.734   7.322 -0.1696  0.5995 -0.0117
    2SAPS   O13  147   5.012   5.668   7.424 -0.1613  0.2077 -0.2598
    2SAPS   O14  148   4.849   5.639   7.241  0.3692  0.2346 -0.0973
    2SAPS   O12  149   4.824   5.839   7.389 -0.6538 -0.4965  0.6497
    2SAPS   O11  150   5.021   5.816   7.231 -0.2666  0.0120  0.7544
    2SAPS    C1  151   5.147   5.764   7.180  0.2755  0.6682 -0.2811
    2SAPS    HA  152   5.217   5.842   7.216 -1.4481  1.4393  1.6024
    2SAPS    HB  153   5.184   5.675   7.235  1.2913  0.4210 -1.3200
    2SAPS    C2  154   5.152   5.743   7.028  0.4519  0.5732  0.3318
    2SAPS    HS  155   5.258   5.717   7.005  0.5265 -0.2950  1.5825
    2SAPS   O21  156   5.101   5.858   6.949 -0.4147 -0.4347 -0.0188
    2SAPS   C21  157   5.168   5.970   6.976  0.1187  0.5105 -0.0702
    2SAPS   O22  158   5.265   5.980   7.046  0.3120  1.1764 -0.6176
    2SAPS   C22  159   5.108   6.090   6.901 -0.0863  0.0392  0.3859
    2SAPS   H2R  160   5.186   6.143   6.842 -0.5585  0.1063 -0.1841
    2SAPS   H2S  161   5.019   6.059   6.842  0.2428  1.8288 -1.1560
    2SAPS    C3  162   5.078   5.614   6.978  0.2555  0.0376  0.4482
    2SAPS    HX  163   4.967   5.623   6.980  0.3637  2.0704 -0.5128
    2SAPS    HY  164   5.116   5.537   7.048 -0.5053  0.7371  1.6777
    2SAPS   O31  165   5.120   5.594   6.841 -0.1030  0.1740  0.1823
    2SAPS   C31  166   5.067   5.487   6.787  0.9699  0.4263 -0.6029
    2SAPS   O32  167   4.972   5.422   6.837 -0.1031 -0.2357 -0.4837
    2SAPS   C32  168   5.146   5.453   6.668 -0.5888 -0.0204 -0.3733
    2SAPS   H2X  169   5.076   5.457   6.582  2.0420  3.2395 -2.6426
    2SAPS   H2Y  170   5.184   5.349   6.676 -1.4315 -0.2871  0.3300
    2SAPS   C23  171   5.057   6.192   7.002  0.2869 -0.4437 -0.5273
    2SAPS   H3R  172   5.137   6.237   7.063 -0.5355  1.9090 -1.0512
    2SAPS   H3S  173   4.980   6.132   7.055 -1.2799  0.3567 -1.7841
    2SAPS   C24  174   5.000   6.327   6.941 -0.5650  0.2440 -0.7263
    2SAPS   H4R  175   4.927   6.365   7.015  0.1898 -0.0765  0.2019
    2SAPS   H4S  176   4.935   6.284   6.861  0.8912  0.7371 -2.2359
    2SAPS   C25  177   5.104   6.429   6.899 -0.1196  0.3275  0.0413
    2SAPS   H5R  178   5.157   6.478   6.982 -0.8545  0.6132  0.3571
    2SAPS   C26  179   5.157   6.454   6.777 -0.1150  0.5643 -0.6115
    2SAPS   H6R  180   5.230   6.536   6.770  0.4573  0.3724  2.0466
    2SAPS   C27  181   5.114   6.395   6.652  0.7628 -0.3946 -0.0014
    2SAPS   H7R  182   5.021   6.339   6.675 -0.4038  0.3881 -2.4653
    2SAPS   H7S  183   5.181   6.311   6.624 -0.8699 -1.2275 -1.6924
    2SAPS   C28  184   5.090   6.493   6.541  0.4480 -0.3388 -0.7153
    2SAPS   H8R  185   5.063   6.596   6.570  1.3160 -0.3054  0.0435
    2SAPS   C29  186   5.071   6.450   6.416 -0.1561 -0.3062  0.7307
    2SAPS   H9R  187   5.049   6.525   6.338 -0.1730 -0.7145  0.3421
    2SAPS  C210  188   5.083   6.307   6.362 -0.7621 -0.4016 -0.2088
    2SAPS  H10R  189   4.983   6.274   6.325 -1.7175 -1.2329  2.7799
    2SAPS  H10S  190   5.108   6.230   6.439 -1.0078 -1.4028 -1.0977
    2SAPS  C211  191   5.175   6.304   6.238  0.1966  0.2970  0.1476
    2SAPS  H11R  192   5.274   6.261   6.256  0.0971  0.6451  1.6682
    2SAPS  C212  193   5.137   6.338   6.118 -0.6259 -0.7447 -0.2593
    2SAPS  H12R  194   5.214   6.321   6.042  1.7120 -1.9834  2.2313
    2SAPS  C213  195   5.008   6.406   6.062 -1.3508 -0.6369 -0.4200
    2SAPS  H13R  196   5.016   6.517   6.067 -0.4354 -0.6518 -1.2362
    2SAPS  H13S  197   4.922   6.386   6.129 -0.0260 -1.3437  1.1586
    2SAPS  C214  198   4.968   6.375   5.921  0.0923 -0.3656  0.6280
    2SAPS  H14R  199   4.982   6.273   5.885 -1.4004 -0.7314  0.9963
    2SAPS  C215  200   4.928   6.470   5.827 -0.4631 -0.9175  0.1508
    2SAPS  H15R  201   4.914   6.429   5.726 -0.4845  0.8828 -0.6148
    2SAPS  C216  202   4.888   6.613   5.844 -0.0351 -0.4385 -0.0332
    2SAPS  H16R  203   4.855   6.625   5.950 -1.5284  0.4743 -0.5610
    2SAPS  H16S  204   4.802   6.641   5.780  0.3166  1.5896  0.3091
    2SAPS  C217  205   5.004   6.703   5.816  0.2335 -0.5533 -0.0362
    2SAPS  H17R  206   5.092   6.685   5.880 -1.4270 -1.0274  2.2375
    2SAPS  H17S  207   4.972   6.808   5.833  0.0994 -0.0882 -2.7073
    2SAPS  C218  208   5.058   6.710   5.676  0.6534  0.4030 -0.3722
    2SAPS  H18R  209   5.104   6.611   5.659 -0.0170  0.1570 -0.8177
    2SAPS  H18S  210   5.146   6.779   5.677  0.2485  0.9785 -1.7646
    2SAPS  C219  211   4.956   6.759   5.575 -0.4455 -0.2599 -0.6422
    2SAPS  H19R  212   4.922   6.863   5.597 -0.0089 -0.2601  0.0831
    2SAPS  H19S  213   4.871   6.688   5.573  1.1973 -2.3613  0.0903
    2SAPS  C220  214   5.026   6.754   5.430  0.5416 -0.1552 -0.5710
    2SAPS  H20R  215   5.120   6.808   5.451  0.9209 -1.0988  0.2426
    2SAPS  H20S  216   4.972   6.816   5.356  0.1156 -0.2717 -0.3653
    2SAPS  H20T  217   5.058   6.653   5.396  1.2834 -0.1849  0.1931
    2SAPS   C33  218   5.272   5.546   6.640 -0.4535  0.5427 -0.4119
    2SAPS   H3X  219   5.330   5.543   6.735 -1.9753  2.4219  0.6555
    2SAPS   H3Y  220   5.242   5.653   6.634  0.4771  0.7125 -3.6676
    2SAPS   C34  221   5.359   5.507   6.519  0.6034 -0.4292  0.0750
    2SAPS   H4X  222   5.364   5.396   6.508  1.3530 -0.2655 -1.6043
    2SAPS   H4Y  223   5.459   5.552   6.536  0.3415  0.9879 -1.8484
    2SAPS   C35  224   5.295   5.552   6.384 -0.5482  0.0976  0.1375
    2SAPS   H5X  225   5.274   5.661   6.387  1.5620  0.5858 -0.8078
    2SAPS   H5Y  226   5.202   5.493   6.377  0.4528 -1.3314 -2.0925
    2SAPS   C36  227   5.384   5.497   6.271 -0.1065  0.0474 -0.2702
    2SAPS   H6X  228   5.391   5.387   6.284 -0.6194  0.1470  0.9155
    2SAPS   H6Y  229   5.480   5.550   6.291 -1.3882  1.5539  2.4846
    2SAPS   C37  230   5.313   5.540   6.142  0.3696 -0.5177 -0.1619
    2SAPS   H7X  231   5.297   5.650   6.143 -0.6782 -0.6559 -0.6060
    2SAPS   H7Y  232   5.217   5.488   6.129  1.2737 -1.7739 -2.4224
    2SAPS   C38  233   5.405   5.493   6.026 -0.5137  0.0389  0.6425
    2SAPS   H8X  234   5.424   5.384   6.025 -2.6074 -0.4052 -2.0657
    2SAPS   H8Y  235   5.502   5.546   6.039 -0.4988  0.3390 -0.5310
    2SAPS   C39  236   5.353   5.519   5.885 -0.0517 -0.2834  0.1136
    2SAPS   H9X  237   5.321   5.625   5.885  2.4417  0.5291 -0.1559
    2SAPS   H9Y  238   5.260   5.459   5.876 -0.4161  0.5278 -2.3082
    2SAPS  C310  239   5.439   5.477   5.771 -0.3152 -0.0150 -0.0419
    2SAPS  H10X  240   5.452   5.367   5.766 -1.2209 -0.0790 -1.7802
    2SAPS  H10Y  241   5.543   5.515   5.784 -0.0610 -0.7653  0.1190
    2SAPS  C311  242   5.370   5.528   5.636  0.6153  0.0820  0.4653
    2SAPS  H11X  243   5.362   5.638   5.650  2.3911  0.1806  0.8868
    2SAPS  H11Y  244   5.265   5.490   5.633  0.2666  1.0048 -1.8281
    2SAPS  C312  245   5.455   5.491   5.510 -0.2771  0.3898 -0.2786
    2SAPS  H12X  246   5.418   5.549   5.423  1.0472 -1.3044 -2.0631
    2SAPS  H12Y  247   5.429   5.384   5.495  1.8004 -0.3497  1.0091
    2SAPS  C313  248   5.602   5.513   5.529  0.3559 -0.1318 -0.3208
    2SAPS  H13X  249   5.646   5.442   5.602 -0.7014  0.7664  1.2395
    2SAPS  H13Y  250   5.613   5.616   5.568  1.7766 -0.2261 -0.4162
    2SAPS  C314  251   5.691   5.484   5.402  0.0218  0.3920  0.0074
    2SAPS  H14X  252   5.795   5.477   5.440 -0.2766  1.3035  1.0597
    2SAPS  H14Y  253   5.673   5.565   5.328 -3.9005  0.1417  0.4530
    2SAPS  C315  254   5.659   5.351   5.327  0.6116  0.0009 -0.6807
    2SAPS  H15X  255   5.551   5.365   5.304  0.4976 -0.9981 -0.7959
    2SAPS  H15Y  256   5.660   5.262   5.394 -0.4485  2.0996  2.3458
    2SAPS  C316  257   5.734   5.334   5.198 -0.1346  0.0518  0.2058
    2SAPS  H16X  258   5.844   5.337   5.215 -0.1064  1.6215 -0.1342
    2SAPS  H16Y  259   5.705   5.415   5.128 -2.6766 -2.5635 -2.0736
    2SAPS  C317  260   5.692   5.199   5.140 -0.5013  0.0362 -0.0375
    2SAPS  H17X  261   5.582   5.207   5.129 -0.6696 -2.9174 -1.2137
    2SAPS  H17Y  262   5.711   5.107   5.200 -1.6061 -0.5254 -0.5328
    2SAPS  C318  263   5.743   5.183   5.001  0.2233  0.3256 -0.3861
    2SAPS  H18X  264   5.702   5.096   4.945  1.0762 -0.4166  0.0988
    2SAPS  H18Y  265   5.853   5.174   5.012  0.3488 -1.1422 -2.2596
    2SAPS  H18Z  266   5.724   5.279   4.949  0.6751  0.1576 -0.8734
    3SAPS     N  267   5.769   5.583   7.321 -0.5774  1.0205 -0.2642
    3SAPS   HN1  268   5.713   5.557   7.405  1.8385  1.3339  1.5769
    3SAPS   HN2  269   5.816   5.674   7.338  0.1038  0.4680  0.9451
    3SAPS   HN3  270   5.702   5.587   7.242  0.0329 -0.7823 -0.9241
    3SAPS   C12  271   5.866   5.476   7.287  0.3690  0.2331 -0.1511
    3SAPS  H12A  272   5.938   5.522   7.222  1.1503  1.1902  1.3446
    3SAPS   C13  273   5.943   5.428   7.415 -0.9212 -0.2479  0.0019
    3SAPS  O13A  274   5.911   5.458   7.530 -0.5125 -0.4313 -0.0254
    3SAPS  O13B  275   6.046   5.359   7.393  0.2253 -0.1968  0.3015
    3SAPS   C11  276   5.808   5.351   7.216  0.2696  0.2262  0.1605
    3SAPS  H11A  277   5.743   5.286   7.280  1.9530 -1.6841  0.0238
    3SAPS  H11B  278   5.891   5.283   7.188 -0.1059 -1.1413  2.1401
    3SAPS     P  279   5.671   5.283   7.009 -0.0937 -0.5125  0.1347
    3SAPS   O13  280   5.781   5.235   6.926 -0.8834  0.0585 -0.0215
    3SAPS   O14  281   5.596   5.186   7.091 -0.0209  0.3032 -0.0525
    3SAPS   O12  282   5.735   5.395   7.100  0.4929  0.1499  0.0110
    3SAPS   O11  283   5.566   5.360   6.910 -0.0180  0.0759  0.0514
    3SAPS    C1  284   5.618   5.439   6.794 -0.6096 -0.0796  0.5117
    3SAPS    HA  285   5.722   5.413   6.765  0.0286  1.4074  1.3669
    3SAPS    HB  286   5.544   5.418   6.715  0.4739  3.0726 -1.5018
    3SAPS    C2  287   5.615   5.590   6.830  0.0432 -0.9565  0.2618
    3SAPS    HS  288   5.546   5.591   6.917  0.5785  0.0625  0.6944
    3SAPS   O21  289   5.568   5.666   6.723  0.0199 -0.4361  0.7341
    3SAPS   C21  290   5.532   5.796   6.753 -1.0054  0.3370  0.1055
    3SAPS   O22  291   5.519   5.833   6.867 -0.3765 -0.8957  0.0563
    3SAPS   C22  292   5.498   5.869   6.621 -0.4091 -0.1593  0.1950
    3SAPS   H2R  293   5.595   5.894   6.573 -0.3098  0.1992  0.5720
    3SAPS   H2S  294   5.438   5.806   6.552 -0.2435 -0.1631  0.0540
    3SAPS    C3  295   5.745   5.649   6.890  0.1128 -0.1350  0.7184
    3SAPS    HX  296   5.796   5.577   6.958 -0.4491 -0.6392  0.6177
    3SAPS    HY  297   5.718   5.737   6.952 -0.3990  1.1670 -1.2293
    3SAPS   O31  298   5.829   5.720   6.793 -0.0830  0.1388  0.2471
    3SAPS   C31  299   5.923   5.650   6.729 -0.5115 -0.2546  0.4646
    3SAPS   O32  300   5.949   5.536   6.739  0.1127 -0.6148  0.6101
    3SAPS   C32  301   5.993   5.735   6.627  0.0969  0.2579 -0.3197
    3SAPS   H2X  302   6.070   5.686   6.564  0.3612  0.1141  0.1160
    3SAPS   H2Y  303   6.056   5.806   6.684 -0.0168  0.2252 -0.1503
    3SAPS   C23  304   5.420   6.000   6.654 -0.6090 -0.3302  0.4291
    3SAPS   H3R  305   5.482   6.059   6.725  0.0270 -1.0665  0.5053
    3SAPS   H3S  306   5.334   5.961   6.712  0.1690 -2.7077  0.0947
    3SAPS   C24  307   5.374   6.088   6.546  0.2388 -0.0351  0.1420
    3SAPS   H4R  308   5.318   6.172   6.592 -0.7857  0.0199 -1.1347
    3SAPS   H4S  309   5.293   6.037   6.489  1.5620 -0.6021 -1.2962
    3SAPS   C25  310   5.474   6.141   6.447  0.0137  0.2551 -0.7791
    3SAPS   H5R  311   5.527   6.229   6.486 -2.0618  1.7819 -1.2280
    3SAPS   C26  312   5.513   6.084   6.331 -0.1905  0.3468 -1.1548
    3SAPS   H6R  313   5.591   6.137   6.275 -0.3713  1.7328 -0.1568
    3SAPS   C27  314   5.456   5.960   6.269  0.5616 -0.6312  0.4017
    3SAPS   H7R  315   5.388   5.907   6.338 -0.1202 -0.6361 -0.2601
    3SAPS   H7S  316   5.547   5.895   6.263  0.3107 -1.1522  1.8921
    3SAPS   C28  317   5.376   5.984   6.148 -0.2674 -0.2117  0.1977
    3SAPS   H8R  318   5.280   6.038   6.155  0.5507  1.3400 -0.0787
    3SAPS   C29  319   5.415   5.947   6.021 -0.2149 -0.3489  0.3380
    3SAPS   H9R  320   5.347   5.955   5.935  1.3566 -0.7123 -0.9990
    3SAPS  C210  321   5.530   5.867   5.984 -0.5172 -0.0306  0.7818
    3SAPS  H10R  322   5.506   5.787   5.911 -1.2687 -0.4655  1.4833
    3SAPS  H10S  323   5.568   5.819   6.077 -0.5673  0.7779  1.2290
    3SAPS  C211  324   5.652   5.951   5.927 -0.7750 -0.1371  0.2180
    3SAPS  H11R  325   5.694   6.012   6.009 -0.2503 -0.5792  0.2819
    3SAPS  C212  326   5.710   5.943   5.807 -0.4959  0.6564  0.6863
    3SAPS  H12R  327   5.795   6.008   5.781  1.2263 -1.4309  0.8172
    3SAPS  C213  328   5.655   5.863   5.687 -0.0298 -0.0726 -0.0752
    3SAPS  H13R  329   5.547   5.836   5.693 -0.4242  1.1283 -1.2809
    3SAPS  H13S  330   5.715   5.771   5.671  2.4260  1.4098  0.1025
    3SAPS  C214  331   5.676   5.946   5.561  0.1916  0.3498  0.8844
    3SAPS  H14R  332   5.767   6.007   5.555  1.3557 -1.2819  1.2702
    3SAPS  C215  333   5.594   5.939   5.450 -0.8608  0.5726 -0.2879
    3SAPS  H15R  334   5.621   6.006   5.366 -0.0319  1.1856  0.4475
    3SAPS  C216  335   5.472   5.854   5.420 -0.1578 -0.1397  0.2013
    3SAPS  H16R  336   5.446   5.777   5.496  0.6045 -0.4992  0.1065
    3SAPS  H16S  337   5.491   5.794   5.328 -1.2527  0.2696 -0.3112
    3SAPS  C217  338   5.351   5.950   5.407 -0.5915 -0.3112  0.3350
    3SAPS  H17R  339   5.262   5.898   5.366 -0.5537  0.9705 -1.5086
    3SAPS  H17S  340   5.369   6.018   5.321 -1.8390 -0.9890 -0.5067
    3SAPS  C218  341   5.332   6.042   5.527  0.1153  0.8763 -0.0975
    3SAPS  H18R  342   5.421   6.108   5.536  1.6375 -1.1955  0.8082
    3SAPS  H18S  343   5.323   5.973   5.613  1.1846  0.2766 -0.4445
    3SAPS  C219  344   5.215   6.139   5.528 -0.4149  0.3576 -0.1522
    3SAPS  H19R  345   5.217   6.199   5.434 -2.8887 -0.8134 -1.0538
    3SAPS  H19S  346   5.130   6.070   5.506  0.9777 -1.2464 -0.6925
    3SAPS  C220  347   5.200   6.218   5.661 -0.3432 -0.3134 -0.0023
    3SAPS  H20R  348   5.278   6.295   5.677 -1.5418  0.7099  1.2387
    3SAPS  H20S  349   5.206   6.149   5.748 -1.7083 -1.3913 -0.7175
    3SAPS  H20T  350   5.099   6.263   5.669 -1.4138 -2.4525 -0.5948
    3SAPS   C33  351   5.898   5.812   6.538  0.2387  0.6559 -0.5928
    3SAPS   H3X  352   5.844   5.891   6.594 -1.2542 -0.2125 -0.7361
    3SAPS   H3Y  353   5.824   5.748   6.485  1.3634 -0.4345 -0.8885
    3SAPS   C34  354   5.982   5.886   6.439 -0.4787 -0.2431 -0.1009
    3SAPS   H4X  355   6.051   5.818   6.384  1.1768  1.4899 -0.2619
    3SAPS   H4Y  356   6.050   5.952   6.497 -0.2182 -0.6818  0.1032
    3SAPS   C35  357   5.908   5.981   6.348  0.2577 -0.5242  0.7310
    3SAPS   H5X  358   5.832   5.928   6.287  2.7804 -2.0213 -1.3184
    3SAPS   H5Y  359   5.866   6.060   6.414  0.5941  0.3814 -0.1095
    3SAPS   C36  360   6.012   6.061   6.266 -0.4764  0.6093 -0.4911
    3SAPS   H6X  361   6.091   6.084   6.341 -0.7643  0.1765 -0.0476
    3SAPS   H6Y  362   5.965   6.160   6.244 -0.9342  0.8229  1.2148
    3SAPS   C37  363   6.065   5.996   6.140 -0.1957 -0.8438 -0.0144
    3SAPS   H7X  364   5.982   5.951   6.082 -0.3547 -2.7742  1.6272
    3SAPS   H7Y  365   6.127   5.911   6.174  3.2872  1.3232 -0.3865
    3SAPS   C38  366   6.172   6.077   6.065  0.3816  0.3211  0.0305
    3SAPS   H8X  367   6.217   6.017   5.983 -1.8131 -1.8974  0.3264
    3SAPS   H8Y  368   6.245   6.099   6.146  1.3154 -0.8280 -0.4575
    3SAPS   C39  369   6.131   6.220   6.018  0.1875  0.3501  0.0556
    3SAPS   H9X  370   6.226   6.269   5.988  1.4543 -0.5855  2.3369
    3SAPS   H9Y  371   6.088   6.287   6.096  0.1011  2.5149 -1.7471
    3SAPS  C310  372   6.016   6.216   5.910 -0.8107 -0.2709 -0.3008
    3SAPS  H10X  373   5.922   6.199   5.966 -0.2637 -0.1716  0.6944
    3SAPS  H10Y  374   6.032   6.134   5.837 -1.0611 -0.7746  0.1989
    3SAPS  C311  375   6.019   6.346   5.832 -0.1613  0.0356  0.4096
    3SAPS  H11X  376   6.126   6.359   5.804  0.4225 -1.4598  1.7517
    3SAPS  H11Y  377   5.987   6.422   5.907 -1.3277 -1.0082  1.0044
    3SAPS  C312  378   5.921   6.341   5.714 -0.2224 -0.0927  0.9061
    3SAPS  H12X  379   5.819   6.319   5.754 -1.0136 -0.0489 -0.9603
    3SAPS  H12Y  380   5.947   6.253   5.651 -3.8077 -1.3261  0.8984
    3SAPS  C313  381   5.931   6.471   5.626  0.0022  0.0509  0.3932
    3SAPS  H13X  382   6.037   6.505   5.622  0.8091 -2.2818 -3.6442
    3SAPS  H13Y  383   5.869   6.550   5.674 -1.6125 -0.0084 -1.4718
    3SAPS  C314  384   5.892   6.442   5.482  0.4515  0.1576 -0.2336
    3SAPS  H14X  385   5.784   6.415   5.478  0.7246 -1.6577  2.2517
    3SAPS  H14Y  386   5.947   6.351   5.449 -1.8986 -1.2508 -0.5061
    3SAPS  C315  387   5.926   6.558   5.388  0.1173  0.7256 -0.5172
    3SAPS  H15X  388   6.037   6.565   5.392  0.3728 -2.5805  0.8754
    3SAPS  H15Y  389   5.882   6.642   5.446 -0.5935  0.3158 -0.4585
    3SAPS  C316  390   5.882   6.547   5.243  0.0076 -0.3636 -0.6719
    3SAPS  H16X  391   5.773   6.534   5.233 -0.0502 -0.3355 -0.1034
    3SAPS  H16Y  392   5.936   6.459   5.204 -0.0484  1.0002 -4.1644
    3SAPS  C317  393   5.923   6.676   5.171  0.3309 -0.7853  0.1784
    3SAPS  H17X  394   5.865   6.756   5.221 -0.0829 -0.8349 -0.2178
    3SAPS  H17Y  395   5.888   6.675   5.065  1.1094  0.6428 -0.1308
    3SAPS  C318  396   6.067   6.718   5.157  0.0708 -0.2912  0.0264
    3SAPS  H18X  397   6.074   6.809   5.093 -1.1036 -1.8526 -2.5039
    3SAPS  H18Y  398   6.123   6.635   5.108 -0.1412 -0.5539  0.2249
    3SAPS  H18Z  399   6.120   6.739   5.252  1.6201 -2.7281 -0.2110
    4SAPS     N  400   4.059   2.303   7.186 -0.6665 -0.1871 -0.1408
    4SAPS   HN1  401   4.073   2.239   7.106 -0.6835  1.6531 -1.7000
    4SAPS   HN2  402   3.989   2.261   7.251 -1.7669 -0.3150 -1.3741
    4SAPS   HN3  403   4.014   2.384   7.138  1.7373 -0.9024 -3.9331
    4SAPS   C12  404   4.184   2.324   7.253 -0.1646  0.1371 -0.0768
    4SAPS  H12A  405   4.262   2.360   7.187  0.2216 -1.5542 -0.5866
    4SAPS   C13  406   4.183   2.424   7.371  0.6041 -0.1995 -0.0311
    4SAPS  O13A  407   4.090   2.501   7.398 -0.0239 -0.2082 -0.3517
    4SAPS  O13B  408   4.295   2.448   7.423  0.2182  0.1515  0.3493
    4SAPS   C11  409   4.238   2.184   7.305 -0.6656  0.4149  0.1259
    4SAPS  H11A  410   4.164   2.146   7.379 -0.1414 -0.2941  0.3019
    4SAPS  H11B  411   4.333   2.198   7.361  0.2106 -0.3917 -1.1040
    4SAPS     P  412   4.373   2.072   7.115  0.0487 -0.3644 -0.1771
    4SAPS   O13  413   4.438   2.197   7.068  0.6495  0.3782  0.2130
    4SAPS   O14  414   4.457   1.980   7.197  0.1934  0.1032 -0.3451
    4SAPS   O12  415   4.240   2.098   7.194 -0.0749 -0.2135 -0.3255
    4SAPS   O11  416   4.317   1.994   6.997  0.0846 -0.4292 -0.9954
    4SAPS    C1  417   4.406   1.907   6.920 -0.1367 -0.4344 -0.2996
    4SAPS    HA  418   4.507   1.893   6.963  0.0214  0.6557 -0.2710
    4SAPS    HB  419   4.358   1.808   6.906 -1.5289  0.2972 -0.8886
    4SAPS    C2  420   4.441   1.969   6.781  0.9147 -0.2263 -0.0554
    4SAPS    HS  421   4.516   2.049   6.798 -0.3958  1.0098  0.1433
    4SAPS   O21  422   4.316   2.020   6.718  0.1975 -0.0950  0.7871
    4SAPS   C21  423   4.329   2.114   6.635  0.8840 -0.1913 -0.2686
    4SAPS   O22  424   4.435   2.181   6.629  0.7703  0.1326 -0.3168
    4SAPS   C22  425   4.194   2.134   6.576 -0.4768 -0.1356  0.1265
    4SAPS   H2R  426   4.132   2.043   6.561 -0.0859 -0.4064  0.1602
    4SAPS   H2S  427   4.141   2.204   6.644  1.0671 -1.1212  2.4482
    4SAPS    C3  428   4.510   1.862   6.693 -0.1443  0.0462 -0.6412
    4SAPS    HX  429   4.463   1.761   6.696 -0.1219 -0.0630 -2.8105
    4SAPS    HY  430   4.607   1.833   6.739 -0.5727 -0.7794 -0.2144
    4SAPS   O31  431   4.515   1.895   6.555  0.0097 -1.0815 -0.4470
    4SAPS   C31  432   4.635   1.942   6.514 -0.3201  0.1947 -0.2246
    4SAPS   O32  433   4.733   1.956   6.586 -0.4931  0.2254 -0.3255
    4SAPS   C32  434   4.643   1.963   6.361  0.6385 -0.1935  0.5684
    4SAPS   H2X  435   4.750   1.950   6.333  0.6277  1.4161 -0.2902
    4SAPS   H2Y  436   4.590   2.055   6.328 -1.6935 -1.3228  0.9133
    4SAPS   C23  437   4.204   2.192   6.431  0.3548 -0.4844 -0.3587
    4SAPS   H3R  438   4.273   2.279   6.426 -1.4910  1.0200 -0.6845
    4SAPS   H3S  439   4.107   2.239   6.402 -0.6831 -0.1069  3.2042
    4SAPS   C24  440   4.249   2.087   6.335 -0.4280 -0.4740  0.3323
    4SAPS   H4R  441   4.190   1.995   6.354 -1.0591 -0.0379  0.4856
    4SAPS   H4S  442   4.355   2.062   6.357  0.9637  2.8507 -1.8365
    4SAPS   C25  443   4.253   2.135   6.191  0.0746  0.2658  0.5573
    4SAPS   H5R  444   4.271   2.243   6.183  0.3839  0.1641 -0.2627
    4SAPS   C26  445   4.228   2.055   6.087  0.2665 -0.0893  0.5240
    4SAPS   H6R  446   4.250   2.080   5.982 -0.8628 -0.1359  0.2600
    4SAPS   C27  447   4.190   1.910   6.094  0.0191 -0.4022  0.6022
    4SAPS   H7R  448   4.243   1.858   6.177 -1.1039 -1.1744  0.8467
    4SAPS   H7S  449   4.225   1.865   5.999 -0.3890  0.1615  0.1797
    4SAPS   C28  450   4.042   1.882   6.114 -0.1204 -0.5050  0.7465
    4SAPS   H8R  451   3.976   1.958   6.069  0.4302 -0.8312 -0.6411
    4SAPS   C29  452   3.994   1.778   6.184  0.5202  0.2365 -0.5539
    4SAPS   H9R  453   3.885   1.765   6.197  0.8940 -1.6211  1.2203
    4SAPS  C210  454   4.078   1.662   6.235 -0.2386 -0.3593  0.0744
    4SAPS  H10R  455   4.071   1.662   6.346 -2.0630  0.5823  0.0035
    4SAPS  H10S  456   4.183   1.659   6.201 -0.3502 -0.3897 -0.2735
    4SAPS  C211  457   4.019   1.533   6.179  0.0497 -0.0208  0.3635
    4SAPS  H11R  458   3.913   1.516   6.206 -0.0346 -1.4369 -0.7508
    4SAPS  C212  459   4.071   1.434   6.106  0.1349 -0.3941  0.1966
    4SAPS  H12R  460   4.002   1.359   6.066 -0.1930  1.0137 -2.0507
    4SAPS  C213  461   4.212   1.443   6.047 -0.0609 -0.2536 -0.3570
    4SAPS  H13R  462   4.273   1.374   6.110 -0.1204  1.0138  1.1654
    4SAPS  H13S  463   4.264   1.541   6.051 -0.2938 -0.0861 -1.2067
    4SAPS  C214  464   4.201   1.406   5.900 -0.5903 -0.3657 -0.0614
    4SAPS  H14R  465   4.172   1.495   5.841 -0.2841  0.7247  1.3676
    4SAPS  C215  466   4.235   1.291   5.840 -0.8055  0.3344  0.5858
    4SAPS  H15R  467   4.216   1.287   5.732 -1.5384 -2.4289  0.7274
    4SAPS  C216  468   4.296   1.172   5.912  0.3855  0.5081  0.8713
    4SAPS  H16R  469   4.215   1.140   5.980 -0.3275 -0.1292 -0.2416
    4SAPS  H16S  470   4.389   1.196   5.967  0.1997 -2.9670  2.9891
    4SAPS  C217  471   4.347   1.073   5.814 -0.3105 -0.0915  0.4078
    4SAPS  H17R  472   4.257   1.043   5.756 -0.5791 -1.5840  1.5263
    4SAPS  H17S  473   4.371   0.975   5.860 -0.0800  0.3354  1.2117
    4SAPS  C218  474   4.454   1.113   5.714  0.2449  0.0047  0.4931
    4SAPS  H18R  475   4.542   1.048   5.728  0.3580 -0.7528 -2.8217
    4SAPS  H18S  476   4.487   1.219   5.724 -1.8942  0.7046  0.6965
    4SAPS  C219  477   4.408   1.094   5.569  0.1032 -0.2233 -0.3901
    4SAPS  H19R  478   4.308   1.141   5.574 -1.1283 -2.8020  1.5033
    4SAPS  H19S  479   4.404   0.986   5.540  0.9483 -0.0627 -1.1663
    4SAPS  C220  480   4.485   1.173   5.462  0.5326 -1.0484 -0.0573
    4SAPS  H20R  481   4.436   1.159   5.363 -0.8310 -1.4434  0.6451
    4SAPS  H20S  482   4.594   1.157   5.470  1.2487  2.6727 -0.5984
    4SAPS  H20T  483   4.468   1.279   5.489  3.1550 -0.6781  0.4004
    4SAPS   C33  484   4.563   1.849   6.287 -0.2882  0.0906 -0.5612
    4SAPS   H3X  485   4.454   1.847   6.309 -0.0734 -0.8612  0.5175
    4SAPS   H3Y  486   4.598   1.751   6.326  0.0893  1.7052  3.7596
    4SAPS   C34  487   4.587   1.864   6.139 -0.9964  1.1876  0.1104
    4SAPS   H4X  488   4.696   1.881   6.127 -0.4345  0.2352  3.0872
    4SAPS   H4Y  489   4.522   1.946   6.099 -0.1310  2.3936  1.0911
    4SAPS   C35  490   4.549   1.735   6.060 -0.0751  0.2489  0.7563
    4SAPS   H5X  491   4.452   1.690   6.089  0.3469 -1.7469 -0.7012
    4SAPS   H5Y  492   4.625   1.656   6.077  0.0089  0.0103 -0.6190
    4SAPS   C36  493   4.526   1.765   5.908  0.2259 -0.1399  0.6956
    4SAPS   H6X  494   4.603   1.835   5.869 -1.8452  1.4430 -0.7794
    4SAPS   H6Y  495   4.427   1.811   5.891 -2.3074 -4.7895  1.1427
    4SAPS   C37  496   4.526   1.634   5.830  0.1772 -0.0386  0.6068
    4SAPS   H7X  497   4.429   1.582   5.848 -0.7560  1.5843  0.4896
    4SAPS   H7Y  498   4.610   1.572   5.866  0.8171  1.0779  1.0773
    4SAPS   C38  499   4.541   1.662   5.688 -0.1759 -0.1066  0.9248
    4SAPS   H8X  500   4.634   1.719   5.667 -0.9616  0.5643 -1.0011
    4SAPS   H8Y  501   4.451   1.718   5.654 -0.2966 -0.8896 -0.1046
    4SAPS   C39  502   4.548   1.539   5.591 -0.5173  0.3008 -0.3820
    4SAPS   H9X  503   4.442   1.508   5.579  0.2793 -3.4180  0.8713
    4SAPS   H9Y  504   4.608   1.460   5.641 -0.9610 -0.3478 -0.8547
    4SAPS  C310  505   4.607   1.567   5.456  0.3364  0.5547 -0.0129
    4SAPS  H10X  506   4.646   1.480   5.399 -2.9572 -0.7438 -0.5043
    4SAPS  H10Y  507   4.685   1.644   5.474 -0.1775  0.7741  1.4491
    4SAPS  C311  508   4.503   1.641   5.368 -0.3007 -0.7426  0.0992
    4SAPS  H11X  509   4.483   1.731   5.430  1.6325  0.1608 -0.5179
    4SAPS  H11Y  510   4.411   1.581   5.348 -1.7076  1.1203  0.6444
    4SAPS  C312  511   4.550   1.699   5.234 -0.5747  0.5334  0.9195
    4SAPS  H12X  512   4.646   1.755   5.243  0.0116  0.2069 -2.1405
    4SAPS  H12Y  513   4.476   1.768   5.189 -0.0294  0.7447  0.3240
    4SAPS  C313  514   4.552   1.577   5.131 -0.4206 -0.0682  0.3068
    4SAPS  H13X  515   4.450   1.533   5.125 -0.6834  0.4284  1.1212
    4SAPS  H13Y  516   4.614   1.499   5.180 -1.4170 -0.2482  1.3206
    4SAPS  C314  517   4.613   1.597   4.993  0.5164  0.0534  0.0393
    4SAPS  H14X  518   4.723   1.606   4.991  0.4641  0.7588 -0.1199
    4SAPS  H14Y  519   4.576   1.696   4.957 -0.6510 -0.4041 -0.0790
    4SAPS  C315  520   4.574   1.484   4.899  0.2151 -0.0467  0.0337
    4SAPS  H15X  521   4.617   1.519   4.803 -0.8456  0.1828 -0.3681
    4SAPS  H15Y  522   4.464   1.477   4.888  0.2214 -3.3998  1.0650
    4SAPS  C316  523   4.629   1.353   4.948 -0.2894 -0.0383  0.1217
    4SAPS  H16X  524   4.563   1.305   5.023 -1.7559  0.2426 -0.9316
    4SAPS  H16Y  525   4.735   1.362   4.979 -0.1793 -0.9480  0.0362
    4SAPS  C317  526   4.625   1.251   4.832  0.2045  0.2261  0.1158
    4SAPS  H17X  527   4.711   1.286   4.771 -0.1260 -0.3051 -0.6777
    4SAPS  H17Y  528   4.535   1.261   4.768 -0.6246 -1.1645  0.9945
    4SAPS  C318  529   4.644   1.106   4.875 -0.4264  0.2331 -0.2399
    4SAPS  H18X  530   4.564   1.085   4.948 -1.4692  2.1388 -0.7512
    4SAPS  H18Y  531   4.745   1.076   4.909 -0.4777  0.2398 -0.0819
    4SAPS  H18Z  532   4.623   1.045   4.785  2.7957 -2.1021  0.4024
    5SAPS     N  533   6.696   6.595   7.163 -0.5349  0.3391  0.3680
    5SAPS   HN1  534   6.618   6.606   7.231  1.9185 -1.3822  3.7667
    5SAPS   HN2  535   6.767   6.665   7.192 -1.6973  0.9653  1.8156
    5SAPS   HN3  536   6.662   6.615   7.066 -0.7294 -0.2477  0.3142
    5SAPS   C12  537   6.744   6.455   7.178 -0.0019  0.3490 -0.5724
    5SAPS  H12A  538   6.807   6.446   7.266 -0.4167 -1.2077 -0.4030
    5SAPS   C13  539   6.626   6.351   7.191  0.2618 -0.3076  0.3311
    5SAPS  O13A  540   6.506   6.374   7.210 -0.1152  0.0258  0.4378
    5SAPS  O13B  541   6.668   6.235   7.181  0.6230 -0.3618 -0.2775
    5SAPS   C11  542   6.830   6.428   7.049  0.3114 -0.1701 -0.3658
    5SAPS  H11A  543   6.762   6.439   6.962  0.9907  0.2754 -0.8470
    5SAPS  H11B  544   6.860   6.321   7.045 -2.7835 -1.2546  1.5467
    5SAPS     P  545   6.998   6.557   6.892 -0.3077  0.0456 -0.1770
    5SAPS   O13  546   6.920   6.679   6.864 -0.5259 -0.4218 -0.1572
    5SAPS   O14  547   7.143   6.558   6.890 -0.9162 -0.5347  0.2752
    5SAPS   O12  548   6.954   6.496   7.035  0.4472  0.1766  0.4669
    5SAPS   O11  549   6.944   6.449   6.795 -0.3750  0.0158  0.1081
    5SAPS    C1  550   7.044   6.344   6.777  0.3724 -0.3639 -0.4204
    5SAPS    HA  551   7.147   6.368   6.745  1.6186 -3.2185  1.0835
    5SAPS    HB  552   7.060   6.291   6.874  1.1107  0.5367 -0.0348
    5SAPS    C2  553   6.988   6.231   6.680 -0.9664  0.5497 -0.2810
    5SAPS    HS  554   7.030   6.131   6.704  0.8171  0.4776 -3.1582
    5SAPS   O21  555   7.012   6.259   6.539  0.1895 -0.5618 -0.2543
    5SAPS   C21  556   7.137   6.233   6.502 -0.5362 -0.7199  0.8857
    5SAPS   O22  557   7.228   6.200   6.578  0.0107 -0.1194  0.0955
    5SAPS   C22  558   7.170   6.270   6.354  0.2965 -0.0581 -0.0797
    5SAPS   H2R  559   7.223   6.368   6.351  0.5753 -0.2233 -0.7839
    5SAPS   H2S  560   7.249   6.200   6.320  1.9274  0.6747  1.9930
    5SAPS    C3  561   6.829   6.221   6.699 -0.3562 -0.2411 -0.0363
    5SAPS    HX  562   6.791   6.316   6.657 -2.3000 -1.4246 -1.1366
    5SAPS    HY  563   6.803   6.225   6.807  1.7626  1.4011  0.4633
    5SAPS   O31  564   6.773   6.114   6.616 -0.5624 -0.2516  0.2381
    5SAPS   C31  565   6.662   6.072   6.661 -0.2419 -0.5216 -0.3877
    5SAPS   O32  566   6.604   6.109   6.762  0.3715 -0.2673 -0.0179
    5SAPS   C32  567   6.589   5.971   6.577  0.3543 -0.4555 -0.2174
    5SAPS   H2X  568   6.508   5.913   6.627 -1.7477  1.0780 -1.6605
    5SAPS   H2Y  569   6.656   5.890   6.541 -0.5031 -1.0343 -0.5450
    5SAPS   C23  570   7.056   6.255   6.255 -0.2067  0.0554  1.0943
    5SAPS   H3R  571   6.970   6.319   6.285 -1.6883 -2.2743  2.0913
    5SAPS   H3S  572   7.011   6.154   6.249  0.7911 -0.4715  2.1371
    5SAPS   C24  573   7.096   6.303   6.114 -0.5519  1.1328 -0.1824
    5SAPS   H4R  574   7.179   6.235   6.084 -1.0240  0.3241  0.2897
    5SAPS   H4S  575   7.153   6.397   6.127 -0.0267  0.9051 -0.7600
    5SAPS   C25  576   6.986   6.311   6.014 -0.6069  0.4360 -0.1091
    5SAPS   H5R  577   6.970   6.414   5.980  0.5541  0.0743 -1.8943
    5SAPS   C26  578   6.938   6.212   5.940 -0.5482  0.4251  0.2727
    5SAPS   H6R  579   6.862   6.230   5.862 -0.4165 -0.9047 -0.1896
    5SAPS   C27  580   6.979   6.062   5.951 -0.4314 -0.0435 -0.3432
    5SAPS   H7R  581   6.942   6.023   6.049  1.9863 -0.0701  0.6434
    5SAPS   H7S  582   7.089   6.080   5.941 -0.6626  1.6557 -0.1713
    5SAPS   C28  583   6.932   5.960   5.856 -0.8666  0.4661  0.5577
    5SAPS   H8R  584   6.860   5.894   5.908  0.6745  0.0752  2.3340
    5SAPS   C29  585   6.951   5.951   5.718  0.3034 -0.7241 -0.0909
    5SAPS   H9R  586   6.905   5.865   5.667  1.2100 -0.0426 -2.1738
    5SAPS  C210  587   7.051   6.041   5.653  0.0711  0.2911 -0.0194
    5SAPS  H10R  588   7.094   6.126   5.709 -0.2597 -0.4863  1.4560
    5SAPS  H10S  589   6.999   6.089   5.568  0.0817 -1.0139 -0.8017
    5SAPS  C211  590   7.166   5.966   5.594 -0.1465  0.3760 -1.3701
    5SAPS  H11R  591   7.208   5.891   5.662  2.8463  0.9764 -2.3856
    5SAPS  C212  592   7.219   5.969   5.475  0.1185 -0.3718  0.1035
    5SAPS  H12R  593   7.285   5.883   5.457  0.0469 -0.9862  2.4969
    5SAPS  C213  594   7.186   6.061   5.359 -0.0635  0.0039  0.3358
    5SAPS  H13R  595   7.118   6.142   5.393 -1.3681 -1.0753  0.3988
    5SAPS  H13S  596   7.128   5.995   5.291  0.9116  0.1928 -0.7038
    5SAPS  C214  597   7.311   6.112   5.298  0.6874 -0.3744  0.0110
    5SAPS  H14R  598   7.399   6.121   5.364  1.5837 -3.6634 -0.5222
    5SAPS  C215  599   7.337   6.147   5.168  0.1956  0.1088 -0.6959
    5SAPS  H15R  600   7.436   6.190   5.143  0.9995  0.4779  2.6471
    5SAPS  C216  601   7.231   6.164   5.064 -0.0334 -0.2646  0.7123
    5SAPS  H16R  602   7.236   6.267   5.022 -0.0175 -0.6718 -0.3112
    5SAPS  H16S  603   7.126   6.154   5.100 -0.0017 -1.9521  0.3876
    5SAPS  C217  604   7.241   6.068   4.946  0.8689  0.2603 -0.3356
    5SAPS  H17R  605   7.216   5.964   4.976 -0.3186  0.3274 -1.0475
    5SAPS  H17S  606   7.344   6.068   4.904  0.9086  1.2589 -0.2497
    5SAPS  C218  607   7.156   6.114   4.826 -0.4620  0.0276 -0.1791
    5SAPS  H18R  608   7.190   6.051   4.741  1.5240  0.4851  0.2164
    5SAPS  H18S  609   7.181   6.220   4.802  0.9721 -0.4551 -0.9805
    5SAPS  C219  610   7.008   6.098   4.849 -0.4229 -0.3032 -0.1889
    5SAPS  H19R  611   6.945   6.137   4.766 -1.4149 -2.6393 -0.6299
    5SAPS  H19S  612   6.973   6.158   4.935 -0.8295  0.5489 -0.9332
    5SAPS  C220  613   6.962   5.953   4.878  0.5390 -0.2334  0.2491
    5SAPS  H20R  614   6.877   5.957   4.949  0.5804 -0.2121  0.2971
    5SAPS  H20S  615   7.038   5.888   4.927 -1.3496 -0.3509  3.2552
    5SAPS  H20T  616   6.930   5.900   4.786 -2.0620 -0.8916  1.4627
    5SAPS   C33  617   6.521   6.029   6.448 -0.4457  0.0099  0.2980
    5SAPS   H3X  618   6.500   6.138   6.454 -0.8651  0.1062 -1.8877
    5SAPS   H3Y  619   6.423   5.977   6.440  0.1619 -1.2297  0.6365
    5SAPS   C34  620   6.605   6.002   6.332 -0.1240 -0.4231 -0.3219
    5SAPS   H4X  621   6.643   5.898   6.334  1.2403  0.0707  0.8874
    5SAPS   H4Y  622   6.687   6.073   6.307 -2.3826  2.1903 -0.8626
    5SAPS   C35  623   6.514   5.994   6.204  0.6011  0.9867 -0.0041
    5SAPS   H5X  624   6.478   6.099   6.192  4.0293  2.2273 -0.3550
    5SAPS   H5Y  625   6.434   5.922   6.231  0.0805  2.2579  2.0744
    5SAPS   C36  626   6.601   5.950   6.089 -0.8439 -0.4271  0.3506
    5SAPS   H6X  627   6.631   5.843   6.092  2.4875  0.3856  0.1004
    5SAPS   H6Y  628   6.702   5.996   6.086 -1.2570  0.4774 -0.1239
    5SAPS   C37  629   6.539   5.983   5.950 -0.2002  0.4297  0.2420
    5SAPS   H7X  630   6.433   5.952   5.940  0.1036 -0.3171 -0.9558
    5SAPS   H7Y  631   6.601   5.925   5.878  3.2231 -2.8005  5.2142
    5SAPS   C38  632   6.542   6.133   5.920 -0.7808 -0.0634  1.1863
    5SAPS   H8X  633   6.644   6.172   5.942 -0.5785 -1.1128  2.2578
    5SAPS   H8Y  634   6.471   6.186   5.987 -0.2674  1.5972  0.4661
    5SAPS   C39  635   6.501   6.172   5.772  0.3305  0.8939  0.4393
    5SAPS   H9X  636   6.391   6.172   5.764  0.2586 -0.0793  1.2257
    5SAPS   H9Y  637   6.535   6.087   5.709 -0.8091 -0.3724  1.4554
    5SAPS  C310  638   6.568   6.291   5.709  0.1791 -0.2171  0.8139
    5SAPS  H10X  639   6.676   6.275   5.689  0.4202  0.8546  1.2006
    5SAPS  H10Y  640   6.559   6.377   5.780 -1.2795  0.5588 -0.2530
    5SAPS  C311  641   6.497   6.347   5.587  0.4239  0.3756  0.2957
    5SAPS  H11X  642   6.398   6.385   5.618  1.3481  2.2158  1.2148
    5SAPS  H11Y  643   6.492   6.279   5.499 -0.0211 -0.0724  0.6629
    5SAPS  C312  644   6.557   6.481   5.540 -0.2638  0.4381 -0.0241
    5SAPS  H12X  645   6.663   6.464   5.511 -0.8040  0.2259 -1.9994
    5SAPS  H12Y  646   6.561   6.553   5.624 -1.1849  0.0457  0.3788
    5SAPS  C313  647   6.477   6.544   5.431 -0.1851  0.4102 -0.4966
    5SAPS  H13X  648   6.390   6.589   5.485  0.4047 -0.5268  1.3283
    5SAPS  H13Y  649   6.443   6.456   5.373  1.5403 -0.4473 -0.2573
    5SAPS  C314  650   6.554   6.644   5.343  0.1682 -0.6363  0.9538
    5SAPS  H14X  651   6.664   6.635   5.346  0.3707  1.2279  0.2871
    5SAPS  H14Y  652   6.542   6.746   5.386 -0.4965 -0.6363  0.7799
    5SAPS  C315  653   6.501   6.641   5.196  0.3557  0.5035 -0.4969
    5SAPS  H15X  654   6.393   6.668   5.202  0.3573  0.8229 -1.6980
    5SAPS  H15Y  655   6.504   6.536   5.162 -0.8215  0.9736 -2.1445
    5SAPS  C316  656   6.571   6.739   5.102 -0.8148 -0.5980 -0.0700
    5SAPS  H16X  657   6.679   6.714   5.105 -1.2741 -2.7427  0.2337
    5SAPS  H16Y  658   6.557   6.837   5.153 -2.3733 -0.5794 -0.4787
    5SAPS  C317  659   6.509   6.741   4.959 -0.1904  0.2460 -0.0604
    5SAPS  H17X  660   6.413   6.797   4.957 -1.7884 -2.2910  0.5921
    5SAPS  H17Y  661   6.472   6.636   4.953  2.1461 -0.5546 -2.2512
    5SAPS  C318  662   6.601   6.759   4.840 -0.4685  0.3253 -0.1296
    5SAPS  H18X  663   6.546   6.744   4.745 -0.2013  3.0169 -0.7853
    5SAPS  H18Y  664   6.676   6.677   4.849 -0.9933 -0.1810 -0.3172
    5SAPS  H18Z  665   6.655   6.856   4.845 -1.2269  0.7289  0.4266
    6SAPS     N  666   4.400   3.631   7.048 -0.0105  0.2320  0.7089
    6SAPS   HN1  667   4.441   3.719   7.010  0.7597 -0.7440 -0.8020
    6SAPS   HN2  668   4.307   3.658   7.087 -0.9802 -0.7587 -0.8249
    6SAPS   HN3  669   4.457   3.593   7.126  0.5977  1.2485  0.7783
    6SAPS   C12  670   4.361   3.538   6.937 -0.3844 -0.3091 -0.1622
    6SAPS  H12A  671   4.452   3.494   6.899  1.3377  1.4108  1.7244
    6SAPS   C13  672   4.279   3.412   6.977 -0.1951 -0.5997  0.1790
    6SAPS  O13A  673   4.234   3.411   7.100 -0.0187  0.2646  0.5246
    6SAPS  O13B  674   4.264   3.310   6.901  0.3421 -0.6738  0.4538
    6SAPS   C11  675   4.275   3.605   6.819  0.1140 -0.1652  0.5405
    6SAPS  H11A  676   4.223   3.527   6.760 -3.2925  1.3327  1.2836
    6SAPS  H11B  677   4.355   3.664   6.768  0.8381  1.1477  3.0180
    6SAPS     P  678   4.118   3.803   6.787 -0.3436 -0.0146 -0.0527
    6SAPS   O13  679   4.005   3.865   6.855  0.2124 -0.3777 -0.2706
    6SAPS   O14  680   4.226   3.892   6.746 -0.3749 -0.0258 -0.4054
    6SAPS   O12  681   4.177   3.687   6.879 -0.7736 -0.3834 -0.4854
    6SAPS   O11  682   4.079   3.711   6.662  0.3390  0.9503 -0.0806
    6SAPS    C1  683   3.958   3.630   6.675 -0.1508 -0.9005 -0.4294
    6SAPS    HA  684   3.969   3.552   6.754 -2.9269 -0.3153  0.6470
    6SAPS    HB  685   3.869   3.688   6.707 -0.3182 -1.7820  0.7956
    6SAPS    C2  686   3.922   3.565   6.537 -0.7110  0.0146 -0.0280
    6SAPS    HS  687   3.824   3.512   6.549  0.0865 -1.1431  1.8154
    6SAPS   O21  688   4.024   3.470   6.500 -0.3239  0.5052 -0.3915
    6SAPS   C21  689   3.997   3.337   6.491 -0.2981 -0.2894  0.4815
    6SAPS   O22  690   3.888   3.289   6.521 -0.1721 -0.2024  0.1157
    6SAPS   C22  691   4.112   3.267   6.421  0.2627 -0.2068 -0.2173
    6SAPS   H2R  692   4.193   3.342   6.407  2.1272 -1.4936  2.5543
    6SAPS   H2S  693   4.158   3.204   6.501  1.7603  1.7650  0.5962
    6SAPS    C3  694   3.921   3.684   6.429  0.0706  0.4430  0.3362
    6SAPS    HX  695   4.021   3.729   6.442  1.8282 -2.5691 -1.4314
    6SAPS    HY  696   3.837   3.743   6.470 -2.0671 -1.2913 -1.2544
    6SAPS   O31  697   3.896   3.650   6.290  0.0956  0.7378 -0.0230
    6SAPS   C31  698   3.998   3.649   6.206  1.2057  0.0823 -0.1787
    6SAPS   O32  699   4.115   3.657   6.233 -0.4210 -0.0737 -0.4460
    6SAPS   C32  700   3.929   3.638   6.071 -0.3700 -0.9290  0.4093
    6SAPS   H2X  701   3.832   3.693   6.067  0.5008  0.5661 -0.7806
    6SAPS   H2Y  702   3.917   3.528   6.058  0.3823 -0.7388 -2.3961
    6SAPS   C23  703   4.063   3.180   6.300 -0.2275 -0.0322 -0.1345
    6SAPS   H3R  704   3.974   3.124   6.335 -0.1563  1.2354  2.2680
    6SAPS   H3S  705   4.135   3.103   6.265 -0.9801 -0.6480 -0.3518
    6SAPS   C24  706   4.023   3.266   6.177  0.4989  0.0799  0.3070
    6SAPS   H4R  707   3.952   3.348   6.202  1.1497  0.5293  0.7034
    6SAPS   H4S  708   3.976   3.197   6.105 -0.9493  0.1648  1.1187
    6SAPS   C25  709   4.141   3.336   6.113  0.2737 -0.3289 -0.4530
    6SAPS   H5R  710   4.184   3.419   6.170  1.8485 -1.4902  0.1368
    6SAPS   C26  711   4.182   3.309   5.993 -0.0001 -0.7241  0.2756
    6SAPS   H6R  712   4.270   3.365   5.956 -0.5151 -1.0891 -1.5939
    6SAPS   C27  713   4.126   3.216   5.894  0.2411  0.5649 -0.0772
    6SAPS   H7R  714   4.039   3.258   5.839 -1.6759 -1.0816  1.5336
    6SAPS   H7S  715   4.086   3.131   5.953  1.4927 -1.0027 -1.3812
    6SAPS   C28  716   4.220   3.157   5.791 -0.3772  0.0626  0.4492
    6SAPS   H8R  717   4.243   3.050   5.802 -1.6023 -0.5537 -2.2697
    6SAPS   C29  718   4.276   3.215   5.684  0.0740  0.0748 -0.0871
    6SAPS   H9R  719   4.346   3.156   5.623  0.3313 -1.0810  1.2697
    6SAPS  C210  720   4.265   3.360   5.635 -0.3913  0.0746 -0.4754
    6SAPS  H10R  721   4.348   3.393   5.569  1.3322  0.0224  1.5406
    6SAPS  H10S  722   4.260   3.420   5.729  0.7889 -2.6440  1.4852
    6SAPS  C211  723   4.125   3.377   5.573  0.3531  0.1937  0.9468
    6SAPS  H11R  724   4.045   3.413   5.639  0.3124  2.0205 -0.0646
    6SAPS  C212  725   4.095   3.365   5.441 -0.0722  0.1967  0.9165
    6SAPS  H12R  726   3.991   3.377   5.407  0.3492  2.2799  0.2172
    6SAPS  C213  727   4.196   3.353   5.328 -0.2187  0.4674  0.0570
    6SAPS  H13R  728   4.278   3.282   5.353 -1.0662 -0.8665 -0.8051
    6SAPS  H13S  729   4.241   3.452   5.304 -1.4857  0.6460 -1.8460
    6SAPS  C214  730   4.126   3.300   5.205 -0.2301 -0.3178 -0.0805
    6SAPS  H14R  731   4.064   3.376   5.155  0.8922  0.5351 -0.2047
    6SAPS  C215  732   4.143   3.174   5.154  0.4120  1.0258 -0.1800
    6SAPS  H15R  733   4.074   3.149   5.072 -0.4920  4.0396 -0.4576
    6SAPS  C216  734   4.227   3.059   5.218 -0.4008 -0.2132  0.6591
    6SAPS  H16R  735   4.288   3.093   5.305 -0.3127 -0.0663  0.5413
    6SAPS  H16S  736   4.297   3.011   5.146 -0.4610  0.3829  0.1994
    6SAPS  C217  737   4.152   2.942   5.287  0.1679 -0.0322 -0.3518
    6SAPS  H17R  738   4.231   2.878   5.332 -1.9019 -1.3383  1.6337
    6SAPS  H17S  739   4.108   2.878   5.208 -1.2533  0.2373  0.1810
    6SAPS  C218  740   4.062   2.982   5.401  0.4260  0.6188 -0.7666
    6SAPS  H18R  741   3.977   3.036   5.354  0.5404  0.2722 -1.3758
    6SAPS  H18S  742   4.116   3.047   5.473  1.8825 -1.0945 -0.2525
    6SAPS  C219  743   4.005   2.856   5.463 -0.0450  0.1633 -0.4705
    6SAPS  H19R  744   4.079   2.785   5.505  0.0250  0.7794  0.4779
    6SAPS  H19S  745   3.944   2.808   5.383  0.2571 -0.2730 -0.4439
    6SAPS  C220  746   3.912   2.888   5.581 -0.0087 -0.6192  0.6051
    6SAPS  H20R  747   3.980   2.931   5.656  0.8558  2.9900 -1.9893
    6SAPS  H20S  748   3.875   2.794   5.629  0.1320 -1.2651 -0.5095
    6SAPS  H20T  749   3.830   2.961   5.563  1.6940  1.4100  0.7143
    6SAPS   C33  750   4.005   3.706   5.955 -0.3566 -0.7018  0.2456
    6SAPS   H3X  751   4.114   3.684   5.960  0.8085  3.5982 -1.3391
    6SAPS   H3Y  752   4.002   3.817   5.959  0.8404 -0.6349 -0.1960
    6SAPS   C34  753   3.962   3.666   5.810  0.0038 -0.1656  0.0410
    6SAPS   H4X  754   3.856   3.698   5.816  0.1660  0.1701  3.0614
    6SAPS   H4Y  755   3.978   3.556   5.803 -0.8290 -0.2119 -1.2988
    6SAPS   C35  756   4.038   3.721   5.693  0.4347  0.5798  0.1617
    6SAPS   H5X  757   4.129   3.659   5.678  1.0170  1.3945  0.2160
    6SAPS   H5Y  758   4.078   3.821   5.721  0.4623 -0.2970  3.7775
    6SAPS   C36  759   3.945   3.730   5.572  0.1650 -0.6080  1.2053
    6SAPS   H6X  760   3.850   3.786   5.587 -1.0465 -2.1590 -0.2099
    6SAPS   H6Y  761   3.920   3.626   5.542 -1.4252  0.0547  0.0835
    6SAPS   C37  762   4.030   3.797   5.456 -0.1719  0.3839  0.0855
    6SAPS   H7X  763   4.118   3.731   5.440 -0.8772 -0.6717  0.5147
    6SAPS   H7Y  764   4.063   3.898   5.490 -1.0293  1.0837 -1.0893
    6SAPS   C38  765   3.963   3.815   5.316  0.6695  1.1418 -0.2401
    6SAPS   H8X  766   4.045   3.857   5.254  1.5169 -0.0093  0.0544
    6SAPS   H8Y  767   3.885   3.892   5.329 -1.6660 -1.2832  1.2246
    6SAPS   C39  768   3.909   3.683   5.262 -0.7118 -0.3900  0.4907
    6SAPS   H9X  769   3.834   3.647   5.335  0.8221  3.1546  4.2377
    6SAPS   H9Y  770   3.991   3.609   5.273 -0.6626 -0.5512 -0.8828
    6SAPS  C310  771   3.849   3.688   5.122 -0.2363 -0.6512 -0.1722
    6SAPS  H10X  772   3.930   3.723   5.054 -0.6422 -2.1602 -1.4941
    6SAPS  H10Y  773   3.767   3.762   5.122  1.5038  1.4030  0.9611
    6SAPS  C311  774   3.793   3.561   5.064 -0.0316  0.3802 -0.2598
    6SAPS  H11X  775   3.692   3.536   5.102 -0.4045 -0.3839 -1.6601
    6SAPS  H11Y  776   3.851   3.471   5.091 -0.9418  0.0284  0.5581
    6SAPS  C312  777   3.762   3.564   4.911  0.5066 -0.6341  0.0857
    6SAPS  H12X  778   3.854   3.583   4.852 -0.8149 -2.0421 -2.6196
    6SAPS  H12Y  779   3.690   3.644   4.884  1.2955  0.0821  0.0724
    6SAPS  C313  780   3.711   3.432   4.858 -0.8364  0.0684  0.2417
    6SAPS  H13X  781   3.650   3.448   4.766 -0.9684 -3.1610 -0.3621
    6SAPS  H13Y  782   3.637   3.381   4.924 -0.8779  0.2167  0.3095
    6SAPS  C314  783   3.815   3.326   4.835 -0.1799  0.0647  0.7744
    6SAPS  H14X  784   3.858   3.292   4.931 -2.4958 -0.0789  1.8147
    6SAPS  H14Y  785   3.899   3.363   4.772  0.0493 -2.9261 -0.8572
    6SAPS  C315  786   3.760   3.204   4.772 -0.3153 -0.0770  0.3985
    6SAPS  H15X  787   3.753   3.216   4.662 -1.4338  0.9625  0.5561
    6SAPS  H15Y  788   3.657   3.186   4.809 -1.4521  2.0645 -1.4734
    6SAPS  C316  789   3.826   3.073   4.800 -0.3844 -0.0647  0.3461
    6SAPS  H16X  790   3.777   2.995   4.738  0.9088 -0.4565 -0.2098
    6SAPS  H16Y  791   3.817   3.049   4.908  0.6539 -2.0393  0.0440
    6SAPS  C317  792   3.979   3.071   4.774 -0.2087 -0.6285  0.6269
    6SAPS  H17X  793   4.027   2.975   4.804  1.9545 -0.2789 -1.4312
    6SAPS  H17Y  794   4.031   3.148   4.835  1.7318  1.2034 -3.0419
    6SAPS  C318  795   4.014   3.098   4.628  0.2999 -0.2666  0.9724
    6SAPS  H18X  796   4.123   3.118   4.623  0.1159  0.5532 -1.4275
    6SAPS  H18Y  797   3.963   3.189   4.588  1.0666  0.6664  2.0451
    6SAPS  H18Z  798   3.993   3.015   4.558  1.0763  0.8574 -0.6697
    7SAPS     N  799   4.410   6.014   7.276 -0.7793 -0.0031 -0.6697
    7SAPS   HN1  800   4.336   5.958   7.228  0.2008  1.5514 -4.3331
    7SAPS   HN2  801   4.438   6.098   7.221  0.4565  0.0822  0.0614
    7SAPS   HN3  802   4.495   5.955   7.279 -0.6157  0.1641 -1.6719
    7SAPS   C12  803   4.370   6.028   7.421 -0.9281 -0.0146  0.0116
    7SAPS  H12A  804   4.381   5.931   7.467 -2.7344 -0.2206  0.1122
    7SAPS   C13  805   4.478   6.114   7.502  0.3527 -0.9429  0.1142
    7SAPS  O13A  806   4.585   6.143   7.445 -0.7285  0.1650 -0.1439
    7SAPS  O13B  807   4.455   6.141   7.623  0.0919  0.2705 -0.5240
    7SAPS   C11  808   4.226   6.083   7.437  0.1417  0.2573  0.0242
    7SAPS  H11A  809   4.226   6.194   7.445 -2.3431  0.2574  0.8333
    7SAPS  H11B  810   4.170   6.067   7.532 -1.1844 -0.7538 -0.8862
    7SAPS     P  811   4.086   5.907   7.275  0.2100  0.0567 -0.1532
    7SAPS   O13  812   4.206   5.823   7.238  0.6774  0.5746 -0.5662
    7SAPS   O14  813   3.986   5.851   7.376  0.2670  0.8287  0.4277
    7SAPS   O12  814   4.138   6.049   7.324 -0.0710  0.9698  0.3189
    7SAPS   O11  815   4.018   5.937   7.133  0.0490  0.1277  0.3715
    7SAPS    C1  816   3.939   6.058   7.113  0.1460  0.2873  0.8925
    7SAPS    HA  817   3.836   6.018   7.101  0.8971 -1.1949 -1.0241
    7SAPS    HB  818   3.940   6.128   7.200 -1.9386  0.5647  0.7442
    7SAPS    C2  819   3.984   6.129   6.982 -0.1688  0.3291  0.9341
    7SAPS    HS  820   3.959   6.234   7.010 -2.1672 -0.6528  3.2641
    7SAPS   O21  821   3.915   6.087   6.862 -0.3554  0.0850  1.1344
    7SAPS   C21  822   3.789   6.123   6.862 -0.1613 -0.0894 -0.5370
    7SAPS   O22  823   3.738   6.208   6.939  0.1285  0.1003  0.2687
    7SAPS   C22  824   3.721   6.055   6.746  0.0331 -0.1653  0.4448
    7SAPS   H2R  825   3.782   6.072   6.655 -0.9543  2.3049  0.1769
    7SAPS   H2S  826   3.699   5.949   6.772  1.5680 -0.1749  1.9594
    7SAPS    C3  827   4.134   6.121   6.955  0.4442 -0.4153 -0.9149
    7SAPS    HX  828   4.170   6.017   6.943  1.0644 -0.3011 -0.1323
    7SAPS    HY  829   4.180   6.154   7.051 -0.2931  1.0149 -1.0166
    7SAPS   O31  830   4.178   6.205   6.846  0.4322 -0.7218  0.6618
    7SAPS   C31  831   4.311   6.206   6.829 -0.2587 -0.0300 -0.1558
    7SAPS   O32  832   4.386   6.132   6.893  0.1494 -0.1779  0.6098
    7SAPS   C32  833   4.345   6.291   6.710 -0.4399  0.3684  0.3345
    7SAPS   H2X  834   4.370   6.388   6.759  0.5058 -0.2000  1.0115
    7SAPS   H2Y  835   4.252   6.308   6.652  1.0532  1.0085 -1.9982
    7SAPS   C23  836   3.583   6.122   6.737 -0.3371 -0.3890 -0.4888
    7SAPS   H3R  837   3.538   6.119   6.838  2.2918 -0.5597  0.7516
    7SAPS   H3S  838   3.505   6.063   6.685 -0.6654  0.6345 -1.1958
    7SAPS   C24  839   3.584   6.261   6.675  0.1940 -0.0106 -0.4014
    7SAPS   H4R  840   3.627   6.244   6.574  0.2508 -3.5139  0.0776
    7SAPS   H4S  841   3.648   6.331   6.733  0.2107 -1.6148  1.6613
    7SAPS   C25  842   3.440   6.316   6.674  0.3976  0.2434 -0.4665
    7SAPS   H5R  843   3.420   6.370   6.768  0.3053  0.6775 -0.7322
    7SAPS   C26  844   3.344   6.308   6.576 -0.5524  0.3490 -0.1193
    7SAPS   H6R  845   3.250   6.356   6.605  0.2663  0.7473  2.1201
    7SAPS   C27  846   3.347   6.247   6.434 -0.6652 -0.3790 -0.0566
    7SAPS   H7R  847   3.302   6.146   6.435  0.3256 -0.8797  2.8183
    7SAPS   H7S  848   3.455   6.241   6.408 -1.0190  0.3169 -1.8593
    7SAPS   C28  849   3.272   6.341   6.334 -0.0340  1.1977  0.3031
    7SAPS   H8R  850   3.181   6.393   6.366 -1.5667  0.2837 -2.2675
    7SAPS   C29  851   3.316   6.370   6.211 -0.6993 -0.7205  0.1904
    7SAPS   H9R  852   3.265   6.444   6.148  2.4417  1.5695  0.1162
    7SAPS  C210  853   3.443   6.323   6.143  0.1122 -0.7008 -0.0327
    7SAPS  H10R  854   3.523   6.304   6.219  1.8652 -1.5137 -1.9942
    7SAPS  H10S  855   3.483   6.403   6.077  1.9408  0.1490  1.9682
    7SAPS  C211  856   3.415   6.197   6.075 -0.4850  1.0892 -0.1195
    7SAPS  H11R  857   3.393   6.113   6.144  0.6178  0.5491 -0.4153
    7SAPS  C212  858   3.430   6.176   5.946  0.0498 -0.5006 -0.2376
    7SAPS  H12R  859   3.398   6.078   5.907 -0.3678  0.0419 -1.2925
    7SAPS  C213  860   3.439   6.285   5.843  0.0038  0.0489  0.5743
    7SAPS  H13R  861   3.498   6.249   5.756 -0.6151  1.5783 -0.5214
    7SAPS  H13S  862   3.506   6.365   5.881  1.8193 -1.6735  1.1700
    7SAPS  C214  863   3.302   6.335   5.808  0.0539  0.2719  0.2251
    7SAPS  H14R  864   3.232   6.317   5.890  0.8950  0.4935  1.0059
    7SAPS  C215  865   3.268   6.400   5.695 -0.3111 -0.9156 -0.8530
    7SAPS  H15R  866   3.169   6.440   5.668 -0.5395  0.5457  1.8188
    7SAPS  C216  867   3.357   6.408   5.577  0.2403  0.4724 -0.0599
    7SAPS  H16R  868   3.454   6.359   5.596  0.2676  0.8672  0.8797
    7SAPS  H16S  869   3.382   6.512   5.550 -1.1795  1.2378  1.4020
    7SAPS  C217  870   3.296   6.313   5.465 -0.0018  0.0781 -0.0423
    7SAPS  H17R  871   3.282   6.217   5.519  0.8808 -0.3795 -0.6031
    7SAPS  H17S  872   3.355   6.291   5.374 -0.6480 -1.4281 -0.1315
    7SAPS  C218  873   3.159   6.341   5.418 -0.1604 -0.1879  0.0246
    7SAPS  H18R  874   3.086   6.351   5.502  1.7464  0.2162  1.7226
    7SAPS  H18S  875   3.129   6.251   5.361  0.2788  0.3990 -1.1626
    7SAPS  C219  876   3.143   6.466   5.325  0.3972 -0.0212  0.1600
    7SAPS  H19R  877   3.184   6.547   5.389 -0.4359  0.0612  0.6081
    7SAPS  H19S  878   3.032   6.471   5.317  0.3290 -0.8355  0.5593
    7SAPS  C220  879   3.203   6.450   5.184  0.5616  0.5812  0.0419
    7SAPS  H20R  880   3.186   6.546   5.130  1.4993  1.1422  0.6943
    7SAPS  H20S  881   3.165   6.356   5.139 -0.1933  1.0287 -0.2753
    7SAPS  H20T  882   3.312   6.428   5.178 -0.1513 -3.1751 -2.4169
    7SAPS   C33  883   4.470   6.253   6.637 -0.5165 -0.4622 -0.6553
    7SAPS   H3X  884   4.466   6.146   6.604 -0.8699 -0.5584 -0.3035
    7SAPS   H3Y  885   4.552   6.276   6.709 -0.6188  1.7303 -1.1935
    7SAPS   C34  886   4.495   6.342   6.510 -0.2053  0.8730  0.1200
    7SAPS   H4X  887   4.471   6.448   6.533  0.1408  1.0063 -0.1259
    7SAPS   H4Y  888   4.419   6.309   6.436 -0.1844 -0.7424  0.7800
    7SAPS   C35  889   4.636   6.331   6.442 -0.6547 -0.1722  0.6612
    7SAPS   H5X  890   4.644   6.225   6.408  0.4983  0.3422 -0.7349
    7SAPS   H5Y  891   4.714   6.341   6.519  0.0501 -0.1799 -0.0406
    7SAPS   C36  892   4.665   6.417   6.316 -0.9051 -0.2209 -0.3071
    7SAPS   H6X  893   4.764   6.384   6.277 -1.3603 -2.6598  0.4042
    7SAPS   H6Y  894   4.673   6.519   6.359 -2.2016 -0.3644  0.3219
    7SAPS   C37  895   4.553   6.398   6.211  0.0434 -0.0177  0.7105
    7SAPS   H7X  896   4.453   6.436   6.242  0.1739 -0.4176  1.6404
    7SAPS   H7Y  897   4.542   6.293   6.179  0.2849  0.1152  0.1690
    7SAPS   C38  898   4.599   6.466   6.077  0.6947 -0.4763 -1.0137
    7SAPS   H8X  899   4.698   6.427   6.044  1.7017  2.3820 -1.6687
    7SAPS   H8Y  900   4.616   6.573   6.103 -0.6497 -0.9060  2.0914
    7SAPS   C39  901   4.495   6.446   5.976 -0.5622  0.3833  0.3281
    7SAPS   H9X  902   4.392   6.484   5.996 -0.7325 -1.4368  3.4221
    7SAPS   H9Y  903   4.486   6.336   5.962 -1.7240  0.7091 -2.1129
    7SAPS  C310  904   4.539   6.502   5.839 -1.1957  0.1295 -0.4345
    7SAPS  H10X  905   4.642   6.462   5.825  0.6697  3.1760  2.9213
    7SAPS  H10Y  906   4.555   6.611   5.842  1.0836 -0.0976 -2.0061
    7SAPS  C311  907   4.449   6.456   5.722 -0.4078 -0.0686 -0.3866
    7SAPS  H11X  908   4.351   6.506   5.736  0.0697  0.8545 -0.2752
    7SAPS  H11Y  909   4.428   6.347   5.723 -3.1479  0.3778 -0.8574
    7SAPS  C312  910   4.497   6.488   5.577  0.1803  0.7685  0.0804
    7SAPS  H12X  911   4.480   6.597   5.567 -0.0498  0.8142  0.9133
    7SAPS  H12Y  912   4.430   6.439   5.503  0.8268  0.2159 -0.1431
    7SAPS  C313  913   4.639   6.454   5.554 -0.0677  0.3886 -0.5218
    7SAPS  H13X  914   4.659   6.352   5.594 -0.3525  0.6503  0.3098
    7SAPS  H13Y  915   4.707   6.525   5.607  1.5503  1.6057 -3.9079
    7SAPS  C314  916   4.673   6.458   5.406  0.2448 -0.1248 -0.0333
    7SAPS  H14X  917   4.655   6.560   5.367  2.3435  1.8968  3.6378
    7SAPS  H14Y  918   4.625   6.379   5.344 -1.5575  2.4413 -2.0873
    7SAPS  C315  919   4.824   6.436   5.387  0.2453  0.0732 -0.2687
    7SAPS  H15X  920   4.849   6.333   5.418  1.2115  1.1620  2.9604
    7SAPS  H15Y  921   4.881   6.491   5.465  0.9550 -1.3755  0.2578
    7SAPS  C316  922   4.880   6.462   5.242 -0.2713 -0.3682 -0.1197
    7SAPS  H16X  923   4.991   6.451   5.234 -0.4344 -2.1046 -0.3822
    7SAPS  H16Y  924   4.849   6.563   5.209 -2.4339 -1.2443 -0.9237
    7SAPS  C317  925   4.808   6.380   5.132 -0.1430 -0.0925 -1.0555
    7SAPS  H17X  926   4.700   6.381   5.158 -0.0423 -0.5072 -0.6075
    7SAPS  H17Y  927   4.855   6.280   5.133  1.3731  0.5997 -0.0476
    7SAPS  C318  928   4.840   6.435   4.994 -0.9306  0.3160  0.3886
    7SAPS  H18X  929   4.800   6.377   4.909  2.4703  1.5307 -2.2515
    7SAPS  H18Y  930   4.950   6.430   4.977 -0.5538 -1.6180  2.7890
    7SAPS  H18Z  931   4.807   6.541   4.988 -1.1352  0.4035  2.4271
    8SAPS     N  932   3.359   0.452   7.016 -0.4739 -0.2181  0.0417
    8SAPS   HN1  933   3.291   0.520   7.057 -1.7030 -1.1820 -0.3450
    8SAPS   HN2  934   3.423   0.491   6.945 -0.2957 -0.7101 -0.0721
    8SAPS   HN3  935   3.303   0.377   6.971  1.5185 -0.0034 -3.0690
    8SAPS   C12  936   3.442   0.402   7.135  0.9407 -0.3105 -0.9044
    8SAPS  H12A  937   3.527   0.343   7.102  0.1278 -1.5302 -0.8659
    8SAPS   C13  938   3.503   0.514   7.219  0.7395 -0.2707 -0.5712
    8SAPS  O13A  939   3.468   0.634   7.201  0.2958  0.0737 -0.4350
    8SAPS  O13B  940   3.574   0.481   7.319 -0.5116  0.8026 -0.5111
    8SAPS   C11  941   3.354   0.301   7.217  0.2933 -1.1487 -0.7856
    8SAPS  H11A  942   3.258   0.346   7.248  1.0198 -0.4507  0.5349
    8SAPS  H11B  943   3.396   0.280   7.317 -0.8654 -0.5618 -0.1624
    8SAPS     P  944   3.396   0.047   7.138  0.0639  0.0929  0.2903
    8SAPS   O13  945   3.429   0.008   7.278 -0.6682 -0.1915 -0.4767
    8SAPS   O14  946   3.313  -0.047   7.056 -0.0904 -0.4522  0.2268
    8SAPS   O12  947   3.326   0.188   7.135 -0.5374 -0.0697 -0.4499
    8SAPS   O11  948   3.540   0.070   7.074 -0.1025 -0.5855  0.3330
    8SAPS    C1  949   3.548   0.049   6.932 -0.1707  0.4061 -0.0724
    8SAPS    HA  950   3.523  -0.057   6.910 -1.3705  0.9124 -1.2528
    8SAPS    HB  951   3.474   0.115   6.881 -0.2441 -0.2977 -0.8959
    8SAPS    C2  952   3.682   0.085   6.853  0.4456 -0.3845  0.1825
    8SAPS    HS  953   3.656   0.110   6.748  1.3450  2.2217  0.4947
    8SAPS   O21  954   3.781  -0.022   6.855 -0.3757 -0.3744  0.4112
    8SAPS   C21  955   3.741  -0.125   6.776 -0.5208 -0.5193  0.0334
    8SAPS   O22  956   3.644  -0.122   6.702  0.3214  0.2535 -0.3731
    8SAPS   C22  957   3.824  -0.250   6.800 -0.0810 -0.2729  0.0559
    8SAPS   H2R  958   3.919  -0.206   6.837 -0.0269  0.4074 -0.8710
    8SAPS   H2S  959   3.774  -0.312   6.877 -0.3172 -2.1790 -1.5641
    8SAPS    C3  960   3.742   0.216   6.898  0.1459  1.1132  0.9263
    8SAPS    HX  961   3.785   0.199   6.999 -1.2211 -0.4815  1.2696
    8SAPS    HY  962   3.673   0.303   6.910 -0.3194  0.6358  1.7645
    8SAPS   O31  963   3.854   0.258   6.815 -0.0944  0.2267 -0.2602
    8SAPS   C31  964   3.811   0.326   6.708  0.1983 -0.1100 -0.6068
    8SAPS   O32  965   3.696   0.346   6.673 -0.6128 -0.2346 -0.7653
    8SAPS   C32  966   3.947   0.368   6.636 -0.1893 -0.6680 -0.3547
    8SAPS   H2X  967   3.991   0.275   6.594 -0.6380 -0.6024 -0.9951
    8SAPS   H2Y  968   3.998   0.410   6.725 -1.4248 -1.4442  0.7472
    8SAPS   C23  969   3.849  -0.328   6.672 -0.8235 -1.0623 -0.0660
    8SAPS   H3R  970   3.750  -0.347   6.626 -0.4914  0.1885 -1.3917
    8SAPS   H3S  971   3.884  -0.429   6.704  2.0659 -0.3566 -0.6651
    8SAPS   C24  972   3.952  -0.281   6.563 -0.0271 -0.6767  0.6770
    8SAPS   H4R  973   4.023  -0.210   6.612  0.0305 -1.1176  1.2337
    8SAPS   H4S  974   3.895  -0.221   6.489 -0.5160 -1.2993  0.5422
    8SAPS   C25  975   4.012  -0.403   6.491 -0.1046 -0.6807 -0.2307
    8SAPS   H5R  976   4.089  -0.444   6.558  0.6599 -1.3620 -1.4833
    8SAPS   C26  977   3.988  -0.450   6.363  0.0109  0.3008 -0.4178
    8SAPS   H6R  978   4.038  -0.546   6.342 -2.9945 -1.1165 -1.7336
    8SAPS   C27  979   3.898  -0.389   6.263  0.1174  0.0539  0.2245
    8SAPS   H7R  980   3.943  -0.296   6.225  0.1999  0.2668  0.8315
    8SAPS   H7S  981   3.804  -0.360   6.315 -0.8353 -1.7638 -0.3799
    8SAPS   C28  982   3.862  -0.488   6.152 -0.0348 -0.4582 -0.3203
    8SAPS   H8R  983   3.849  -0.594   6.179 -0.0459 -0.8716 -1.8887
    8SAPS   C29  984   3.886  -0.462   6.020 -1.2133  0.3287  0.2519
    8SAPS   H9R  985   3.851  -0.540   5.950  1.9802 -0.9937 -0.0890
    8SAPS  C210  986   3.926  -0.328   5.954  0.6052  0.4947 -0.4184
    8SAPS  H10R  987   4.015  -0.346   5.890  0.4487 -1.4565 -0.1393
    8SAPS  H10S  988   3.937  -0.243   6.024  1.5293 -1.5575  2.1001
    8SAPS  C211  989   3.811  -0.295   5.865  0.1718  0.5472 -0.7809
    8SAPS  H11R  990   3.743  -0.222   5.912  1.0914  0.4138  0.8729
    8SAPS  C212  991   3.796  -0.336   5.739 -0.8804 -0.0417 -0.2520
    8SAPS  H12R  992   3.708  -0.304   5.681 -0.3307 -0.5678 -1.4122
    8SAPS  C213  993   3.885  -0.430   5.660 -0.2051 -0.2629  0.5093
    8SAPS  H13R  994   3.825  -0.474   5.578  0.3206 -0.5188  0.2607
    8SAPS  H13S  995   3.911  -0.519   5.722 -1.2371 -0.6990  0.3269
    8SAPS  C214  996   4.009  -0.356   5.610  0.0802 -0.2360 -0.2685
    8SAPS  H14R  997   4.060  -0.281   5.672  1.6819 -2.5117  1.3262
    8SAPS  C215  998   4.065  -0.394   5.494 -0.5111 -0.0055 -0.1756
    8SAPS  H15R  999   4.159  -0.342   5.469  0.4174 -1.7440 -0.5189
    8SAPS  C216 1000   4.024  -0.507   5.399  0.3520 -0.2910 -0.2744
    8SAPS  H16R 1001   3.915  -0.525   5.408  0.0222  1.8475  0.5316
    8SAPS  H16S 1002   4.079  -0.594   5.440  1.7564 -0.2385 -1.8920
    8SAPS  C217 1003   4.075  -0.493   5.247  0.7907 -0.1530 -0.2677
    8SAPS  H17R 1004   4.054  -0.584   5.187  0.4324  0.2780 -0.8065
    8SAPS  H17S 1005   4.183  -0.467   5.249  0.5841  0.7016  0.6047
    8SAPS  C218 1006   4.002  -0.374   5.177 -0.7750 -0.2224  1.0665
    8SAPS  H18R 1007   3.898  -0.342   5.202  0.2504  1.6255  3.3653
    8SAPS  H18S 1008   4.019  -0.401   5.071  0.5085  1.9925  0.6428
    8SAPS  C219 1009   4.076  -0.239   5.188 -0.9193 -0.6961  0.5096
    8SAPS  H19R 1010   4.179  -0.246   5.145 -0.7497  0.8517  0.6124
    8SAPS  H19S 1011   4.084  -0.233   5.299 -0.7688 -0.5248  0.4907
    8SAPS  C220 1012   4.008  -0.108   5.137  0.0070  0.3917  0.3238
    8SAPS  H20R 1013   4.001  -0.127   5.028 -2.6191 -2.2540  0.7983
    8SAPS  H20S 1014   4.058  -0.017   5.175  1.4685 -0.0146 -0.5591
    8SAPS  H20T 1015   3.908  -0.101   5.187  0.4167  0.0409  1.2154
    8SAPS   C33 1016   3.931   0.482   6.536  0.6087 -0.4367 -0.8586
    8SAPS   H3X 1017   4.035   0.522   6.529  0.4018  0.2239 -0.3161
    8SAPS   H3Y 1018   3.866   0.556   6.588 -2.4284 -2.3602 -1.7153
    8SAPS   C34 1019   3.885   0.427   6.402  0.4172  0.3418  1.1460
    8SAPS   H4X 1020   3.786   0.376   6.406  0.1500  0.7725  0.3129
    8SAPS   H4Y 1021   3.961   0.358   6.360 -1.5269  0.4653 -3.1099
    8SAPS   C35 1022   3.885   0.541   6.290 -0.4161  0.4055  0.2673
    8SAPS   H5X 1023   3.992   0.560   6.272 -0.3989 -0.1263 -0.2071
    8SAPS   H5Y 1024   3.841   0.633   6.335 -0.6950 -0.1501  1.1709
    8SAPS   C36 1025   3.829   0.495   6.158 -0.3649  0.4812 -0.7929
    8SAPS   H6X 1026   3.720   0.479   6.173 -0.3651  1.9945  1.3160
    8SAPS   H6Y 1027   3.878   0.398   6.132  1.8592  1.3000  0.0774
    8SAPS   C37 1028   3.854   0.593   6.046  0.1533 -0.5913  0.2960
    8SAPS   H7X 1029   3.964   0.603   6.034  0.1873 -0.1778  0.9321
    8SAPS   H7Y 1030   3.802   0.687   6.076 -0.8437 -1.0911  0.1624
    8SAPS   C38 1031   3.800   0.551   5.908  0.0110 -0.2478  0.8487
    8SAPS   H8X 1032   3.692   0.528   5.913  0.3576 -2.5880 -0.9146
    8SAPS   H8Y 1033   3.843   0.452   5.885  0.0917 -0.0938  0.3304
    8SAPS   C39 1034   3.832   0.646   5.792  0.7851  0.6642  0.0303
    8SAPS   H9X 1035   3.942   0.662   5.791  1.1672 -1.7409 -0.9945
    8SAPS   H9Y 1036   3.781   0.744   5.805  2.6252  1.8673 -1.3762
    8SAPS  C310 1037   3.777   0.583   5.662  0.3082  0.5002  0.3570
    8SAPS  H10X 1038   3.676   0.544   5.685  0.0020  0.2323 -1.3307
    8SAPS  H10Y 1039   3.843   0.502   5.625  0.5903  0.9979 -0.2422
    8SAPS  C311 1040   3.758   0.685   5.547 -0.0549  0.0090 -0.2417
    8SAPS  H11X 1041   3.688   0.766   5.579  0.4101  0.7264 -1.0035
    8SAPS  H11Y 1042   3.696   0.632   5.471 -0.1158 -0.1901 -0.0539
    8SAPS  C312 1043   3.890   0.727   5.482  0.4955 -0.2509 -0.4296
    8SAPS  H12X 1044   3.952   0.647   5.436 -2.2332 -1.2128 -2.7178
    8SAPS  H12Y 1045   3.949   0.781   5.559 -0.1564 -0.2288  0.0603
    8SAPS  C313 1046   3.864   0.830   5.369 -0.0494  0.5090 -0.7003
    8SAPS  H13X 1047   3.965   0.863   5.336  0.2328 -0.5244 -0.8790
    8SAPS  H13Y 1048   3.806   0.920   5.399 -0.7401 -0.4526  1.0013
    8SAPS  C314 1049   3.800   0.767   5.249  0.1652 -0.2466  0.1023
    8SAPS  H14X 1050   3.698   0.736   5.277  0.3741 -0.3085  0.8159
    8SAPS  H14Y 1051   3.849   0.673   5.217 -0.4265  0.1779 -2.2125
    8SAPS  C315 1052   3.793   0.862   5.122 -0.9192  0.2314 -0.0890
    8SAPS  H15X 1053   3.899   0.894   5.106 -0.0756 -2.4213 -0.3103
    8SAPS  H15Y 1054   3.736   0.949   5.160 -1.1412 -0.9526  2.4860
    8SAPS  C316 1055   3.726   0.781   5.003  0.2228  0.4401 -0.2654
    8SAPS  H16X 1056   3.643   0.724   5.051  1.5349 -0.5466  0.9571
    8SAPS  H16Y 1057   3.798   0.704   4.967  0.4068  1.0770 -1.2690
    8SAPS  C317 1058   3.666   0.869   4.893 -0.0140  0.0375  0.0647
    8SAPS  H17X 1059   3.586   0.934   4.934 -0.8903 -0.2437 -1.1760
    8SAPS  H17Y 1060   3.611   0.804   4.822  0.3651 -2.2698  1.7408
    8SAPS  C318 1061   3.776   0.954   4.822 -0.7107 -0.2718 -0.4056
    8SAPS  H18X 1062   3.736   0.998   4.729  0.5765  4.5636  1.0320
    8SAPS  H18Y 1063   3.864   0.896   4.786 -0.6036 -0.6588  0.4339
    8SAPS  H18Z 1064   3.809   1.032   4.894  0.2315  0.0084 -1.1195
    9SAPS     N 1065   0.331   0.069   7.159  0.5281 -0.9923 -0.3491
    9SAPS   HN1 1066   0.272   0.153   7.161  1.6360 -0.1835 -0.5332
    9SAPS   HN2 1067   0.430   0.103   7.164  0.3227 -0.0737 -1.8788
    9SAPS   HN3 1068   0.322   0.017   7.069  0.3844 -1.2732 -0.1761
    9SAPS   C12 1069   0.294  -0.016   7.266  0.1456  0.0115  0.1281
    9SAPS  H12A 1070   0.325   0.034   7.356 -2.3282  0.6857  0.6937
    9SAPS   C13 1071   0.138  -0.060   7.267 -0.1804 -0.5765  0.7934
    9SAPS  O13A 1072   0.058  -0.010   7.183  0.8187  0.2983  0.3329
    9SAPS  O13B 1073   0.099  -0.129   7.371  0.2022 -0.1675  0.6104
    9SAPS   C11 1074   0.379  -0.148   7.275  0.0229  0.7043  0.2898
    9SAPS  H11A 1075   0.356  -0.219   7.192 -0.8788  3.3563 -1.8886
    9SAPS  H11B 1076   0.359  -0.207   7.367  1.9939 -0.0141  0.3125
    9SAPS     P 1077   0.627  -0.229   7.287 -0.3823 -0.2671 -0.5149
    9SAPS   O13 1078   0.762  -0.170   7.302  0.1391 -0.0529 -0.6926
    9SAPS   O14 1079   0.588  -0.334   7.380 -0.4726 -0.7979  0.0803
    9SAPS   O12 1080   0.517  -0.114   7.282  0.3123  0.4963  0.5733
    9SAPS   O11 1081   0.612  -0.280   7.139 -0.7901  0.4381 -0.5957
    9SAPS    C1 1082   0.730  -0.322   7.065  0.2041 -0.1337  0.4990
    9SAPS    HA 1083   0.804  -0.369   7.134 -0.7802  2.0114  3.2032
    9SAPS    HB 1084   0.701  -0.399   6.991  1.4215 -0.2757  0.1380
    9SAPS    C2 1085   0.804  -0.202   6.997  0.1697  0.1870  0.1616
    9SAPS    HS 1086   0.781  -0.108   7.052  0.7904  0.4911 -0.0813
    9SAPS   O21 1087   0.755  -0.199   6.856  0.0657 -0.5496 -0.5275
    9SAPS   C21 1088   0.760  -0.083   6.802  0.4843  0.2349  0.2995
    9SAPS   O22 1089   0.796   0.022   6.857  0.1161  0.0868  0.3834
    9SAPS   C22 1090   0.703  -0.085   6.656  0.6479  0.1089 -0.0058
    9SAPS   H2R 1091   0.702   0.015   6.608 -0.3146 -0.1551 -0.5713
    9SAPS   H2S 1092   0.771  -0.141   6.589  0.7752 -1.0819  1.0713
    9SAPS    C3 1093   0.957  -0.230   6.984  0.2726  0.6124 -0.1373
    9SAPS    HX 1094   0.973  -0.252   7.092 -1.0364  0.2301 -0.0121
    9SAPS    HY 1095   1.019  -0.141   6.958  0.5614  1.4681  3.0407
    9SAPS   O31 1096   0.993  -0.351   6.917  0.1417  0.1784 -0.3993
    9SAPS   C31 1097   1.036  -0.327   6.788  0.4023 -0.1916 -0.0806
    9SAPS   O32 1098   1.047  -0.218   6.739 -0.2590  0.6469 -0.8239
    9SAPS   C32 1099   1.092  -0.456   6.742 -0.4697  0.0980 -0.7185
    9SAPS   H2X 1100   1.173  -0.487   6.811  3.3118  2.8715 -3.4812
    9SAPS   H2Y 1101   1.146  -0.447   6.645 -0.3753 -1.2411 -0.7982
    9SAPS   C23 1102   0.555  -0.141   6.638 -0.4435  0.4530  0.6686
    9SAPS   H3R 1103   0.485  -0.071   6.688 -1.2610 -0.6449  1.0942
    9SAPS   H3S 1104   0.546  -0.240   6.686 -2.7711  1.1280  1.7703
    9SAPS   C24 1105   0.530  -0.139   6.483 -0.4773  0.4834  0.5845
    9SAPS   H4R 1106   0.613  -0.201   6.444 -1.2613 -0.2381  0.0155
    9SAPS   H4S 1107   0.540  -0.036   6.443  0.9236 -0.7813 -2.6105
    9SAPS   C25 1108   0.399  -0.203   6.449  0.3183  0.1638  0.6671
    9SAPS   H5R 1109   0.352  -0.271   6.521 -1.1489 -2.1301 -2.2385
    9SAPS   C26 1110   0.330  -0.187   6.332 -0.3462  0.0509 -0.7577
    9SAPS   H6R 1111   0.239  -0.246   6.310 -0.5872  0.1485 -0.0482
    9SAPS   C27 1112   0.385  -0.111   6.211 -0.2382  0.4855  0.4528
    9SAPS   H7R 1113   0.493  -0.133   6.193  0.3841  1.5160  2.5571
    9SAPS   H7S 1114   0.392  -0.002   6.229 -0.9799  0.9577 -1.8080
    9SAPS   C28 1115   0.297  -0.127   6.087 -0.0083  0.6284  0.3690
    9SAPS   H8R 1116   0.206  -0.187   6.102 -0.1631  0.3497 -1.4868
    9SAPS   C29 1117   0.316  -0.066   5.968  0.2792 -0.7156  0.7901
    9SAPS   H9R 1118   0.246  -0.091   5.887  0.9011 -3.1937  0.9587
    9SAPS  C210 1119   0.416   0.036   5.925 -0.3845 -0.1503 -0.5291
    9SAPS  H10R 1120   0.454   0.091   6.013 -0.2868 -0.7385 -0.1965
    9SAPS  H10S 1121   0.379   0.108   5.850 -2.3031 -1.7255 -1.1797
    9SAPS  C211 1122   0.539  -0.043   5.883  0.2996 -0.2763 -0.1726
    9SAPS  H11R 1123   0.576  -0.126   5.944 -0.8918  0.2559  1.3274
    9SAPS  C212 1124   0.624  -0.014   5.784 -0.3982  0.3774  0.7652
    9SAPS  H12R 1125   0.721  -0.063   5.772 -0.2351  1.3445 -3.1302
    9SAPS  C213 1126   0.614   0.102   5.688 -0.6633 -0.2332  0.1541
    9SAPS  H13R 1127   0.718   0.139   5.676 -0.5765 -1.0518 -2.1342
    9SAPS  H13S 1128   0.557   0.187   5.733 -0.7270 -0.6936  0.9607
    9SAPS  C214 1129   0.563   0.074   5.546  0.1932 -0.3783 -0.2371
    9SAPS  H14R 1130   0.512  -0.022   5.537 -0.9366  0.2070 -0.2254
    9SAPS  C215 1131   0.615   0.122   5.434 -0.3860 -0.1150 -0.2301
    9SAPS  H15R 1132   0.572   0.090   5.338 -0.1738 -0.0764 -0.3392
    9SAPS  C216 1133   0.724   0.227   5.422  0.0619 -0.5789  0.5872
    9SAPS  H16R 1134   0.822   0.178   5.406  0.1793 -0.4237  0.8174
    9SAPS  H16S 1135   0.730   0.288   5.514 -0.4974 -2.4080  1.9082
    9SAPS  C217 1136   0.720   0.330   5.305  0.7813 -0.0576  0.1409
    9SAPS  H17R 1137   0.737   0.295   5.201 -1.5487  1.2263 -0.7444
    9SAPS  H17S 1138   0.791   0.415   5.321  0.5144  0.2991 -0.5128
    9SAPS  C218 1139   0.579   0.405   5.313 -0.5004  0.7347  0.1491
    9SAPS  H18R 1140   0.553   0.401   5.420  0.5650 -0.7288  0.3973
    9SAPS  H18S 1141   0.505   0.343   5.257 -0.3522  1.1742 -0.5464
    9SAPS  C219 1142   0.579   0.551   5.254  0.0519 -0.5398  0.1507
    9SAPS  H19R 1143   0.556   0.551   5.145  2.5523  0.4470 -0.4340
    9SAPS  H19S 1144   0.678   0.600   5.267 -0.6398  1.3217 -1.2155
    9SAPS  C220 1145   0.487   0.641   5.333 -0.0361 -0.1737  0.7953
    9SAPS  H20R 1146   0.490   0.746   5.296 -0.2825 -0.8778 -1.3781
    9SAPS  H20S 1147   0.500   0.640   5.443 -2.3024 -0.8910  1.1076
    9SAPS  H20T 1148   0.382   0.609   5.318 -0.2500 -0.4692  2.6671
    9SAPS   C33 1149   0.983  -0.569   6.735 -0.4741  0.3744  0.2570
    9SAPS   H3X 1150   0.905  -0.552   6.813 -0.5187 -2.0458  0.8274
    9SAPS   H3Y 1151   1.035  -0.666   6.752 -0.9016  0.1621  0.3826
    9SAPS   C34 1152   0.914  -0.573   6.597 -0.2323 -0.7352 -0.8992
    9SAPS   H4X 1153   0.853  -0.666   6.598 -1.1679 -0.3225  3.7509
    9SAPS   H4Y 1154   0.994  -0.567   6.520  0.0650 -2.4630 -0.7635
    9SAPS   C35 1155   0.810  -0.463   6.583  0.5336 -0.5702 -0.2726
    9SAPS   H5X 1156   0.870  -0.371   6.562 -0.3480 -0.2615 -1.5141
    9SAPS   H5Y 1157   0.749  -0.444   6.674  1.7898  1.4607  0.2294
    9SAPS   C36 1158   0.715  -0.475   6.464 -0.2071 -0.6488  0.5786
    9SAPS   H6X 1159   0.622  -0.419   6.486 -0.3843 -1.0094  0.7491
    9SAPS   H6Y 1160   0.687  -0.581   6.449  0.6917 -1.5003  4.0752
    9SAPS   C37 1161   0.771  -0.430   6.324  0.5664 -0.0161  0.3879
    9SAPS   H7X 1162   0.860  -0.491   6.299  0.9269  0.5640  0.2332
    9SAPS   H7Y 1163   0.798  -0.322   6.325  1.6348 -0.1586  4.2631
    9SAPS   C38 1164   0.666  -0.454   6.215  0.3349 -0.0275  1.0373
    9SAPS   H8X 1165   0.574  -0.395   6.234  2.2359  3.1947  1.0454
    9SAPS   H8Y 1166   0.633  -0.560   6.214 -0.5362  0.2310 -0.0162
    9SAPS   C39 1167   0.731  -0.411   6.082  0.3621 -0.1345 -0.1275
    9SAPS   H9X 1168   0.827  -0.463   6.061  0.5391 -0.1481  0.6987
    9SAPS   H9Y 1169   0.756  -0.303   6.086  2.4097 -0.5993  1.7792
    9SAPS  C310 1170   0.628  -0.430   5.975 -0.5255 -0.1929  0.3894
    9SAPS  H10X 1171   0.538  -0.370   5.999 -0.1017  0.1295  1.2031
    9SAPS  H10Y 1172   0.597  -0.536   5.965  1.6903 -0.8288 -0.6262
    9SAPS  C311 1173   0.688  -0.396   5.839  0.3863 -0.4152 -0.2919
    9SAPS  H11X 1174   0.775  -0.464   5.833 -0.7209 -1.8787 -0.2911
    9SAPS  H11Y 1175   0.728  -0.293   5.828  0.3079 -0.6121 -2.8450
    9SAPS  C312 1176   0.604  -0.419   5.719  0.5009  0.1624  0.3147
    9SAPS  H12X 1177   0.500  -0.414   5.759 -0.2110  0.3678 -1.4721
    9SAPS  H12Y 1178   0.605  -0.524   5.683  0.1154  0.2871 -0.0772
    9SAPS  C313 1179   0.631  -0.319   5.606 -0.1075 -0.0235 -0.5773
    9SAPS  H13X 1180   0.739  -0.291   5.604  0.6091 -2.4460 -3.9099
    9SAPS  H13Y 1181   0.578  -0.224   5.629  1.6982  0.5623  1.4421
    9SAPS  C314 1182   0.596  -0.375   5.466  0.4744 -0.0579 -0.2459
    9SAPS  H14X 1183   0.496  -0.424   5.457  1.7883 -2.8837 -0.5244
    9SAPS  H14Y 1184   0.663  -0.461   5.441  1.0578 -0.4385  2.4013
    9SAPS  C315 1185   0.603  -0.278   5.340 -0.2066  0.9005  0.7726
    9SAPS  H15X 1186   0.526  -0.198   5.350 -0.0288  1.0597  0.8880
    9SAPS  H15Y 1187   0.573  -0.346   5.258 -2.0422  0.4629  1.7399
    9SAPS  C316 1188   0.743  -0.222   5.309  0.4024  0.2367  0.9732
    9SAPS  H16X 1189   0.820  -0.300   5.328 -0.6968 -1.2150 -0.2744
    9SAPS  H16Y 1190   0.760  -0.135   5.375  2.6524  0.7514 -0.1791
    9SAPS  C317 1191   0.758  -0.179   5.160  0.2632  0.3474 -0.3111
    9SAPS  H17X 1192   0.674  -0.117   5.123  1.9077  2.5734 -0.4990
    9SAPS  H17Y 1193   0.756  -0.261   5.085  0.4693 -1.3408  1.4449
    9SAPS  C318 1194   0.882  -0.094   5.130 -0.6395 -0.0314 -0.4980
    9SAPS  H18X 1195   0.974  -0.157   5.135  1.4012  2.7095 -1.1986
    9SAPS  H18Y 1196   0.893  -0.009   5.200  0.6767 -0.2563 -0.4112
    9SAPS  H18Z 1197   0.877  -0.053   5.027 -0.4309  1.9570  0.2402
   10SAPS     N 1198   3.164   5.764   7.553 -0.2413  0.1607  0.1457
   10SAPS   HN1 1199   3.219   5.843   7.593  0.4724 -0.3651  0.2279
   10SAPS   HN2 1200   3.124   5.779   7.458  0.9656 -0.9553 -0.5714
   10SAPS   HN3 1201   3.086   5.741   7.618  0.2049 -1.5512  0.1312
   10SAPS   C12 1202   3.246   5.641   7.553  0.6475 -0.3224 -0.6602
   10SAPS  H12A 1203   3.299   5.642   7.647 -1.3456  0.0019  0.5000
   10SAPS   C13 1204   3.167   5.504   7.569 -0.5439  0.5812  0.4505
   10SAPS  O13A 1205   3.053   5.514   7.615 -0.1464 -0.0516  0.1893
   10SAPS  O13B 1206   3.231   5.396   7.575  0.9719  0.1410  0.0505
   10SAPS   C11 1207   3.330   5.643   7.421 -0.3387  0.0996 -0.5315
   10SAPS  H11A 1208   3.410   5.567   7.430 -1.0194 -0.6623 -0.7699
   10SAPS  H11B 1209   3.386   5.738   7.405  1.7696 -0.8792  0.7148
   10SAPS     P 1210   3.317   5.541   7.188 -0.0992 -0.0864 -0.2007
   10SAPS   O13 1211   3.423   5.622   7.130  0.9359 -1.0849 -0.0740
   10SAPS   O14 1212   3.346   5.406   7.229  0.1458  0.1518 -0.5422
   10SAPS   O12 1213   3.250   5.624   7.308  0.2124 -0.1552 -0.5005
   10SAPS   O11 1214   3.199   5.525   7.087  0.2726 -0.4108 -0.3882
   10SAPS    C1 1215   3.144   5.651   7.032 -0.6057  0.0584 -0.1182
   10SAPS    HA 1216   3.045   5.665   7.080 -1.1295  1.2133 -1.4485
   10SAPS    HB 1217   3.195   5.746   7.060  3.9563 -1.6609 -1.6719
   10SAPS    C2 1218   3.145   5.656   6.873  0.7650  0.2814  0.2226
   10SAPS    HS 1219   3.132   5.757   6.830  0.2035 -1.4252 -4.1943
   10SAPS   O21 1220   3.034   5.573   6.837 -0.4065 -0.1675  0.6213
   10SAPS   C21 1221   2.988   5.587   6.707  0.1094  0.0678 -0.0900
   10SAPS   O22 1222   3.034   5.673   6.636  0.0326  0.0320  0.1896
   10SAPS   C22 1223   2.892   5.476   6.664 -0.0500  0.0919  0.1708
   10SAPS   H2R 1224   2.949   5.381   6.675  2.2447  1.2930 -0.6903
   10SAPS   H2S 1225   2.817   5.473   6.747  1.9798 -0.8043  2.0766
   10SAPS    C3 1226   3.279   5.598   6.812  0.0295  0.2391 -0.7663
   10SAPS    HX 1227   3.273   5.492   6.843  1.8399 -0.9028 -3.8219
   10SAPS    HY 1228   3.358   5.644   6.875 -0.6595  1.1744 -0.5590
   10SAPS   O31 1229   3.300   5.613   6.671  0.1975 -0.3474 -0.2612
   10SAPS   C31 1230   3.320   5.732   6.629 -0.5245 -0.6255 -0.8042
   10SAPS   O32 1231   3.317   5.837   6.695  0.2950  0.1781 -0.0339
   10SAPS   C32 1232   3.369   5.719   6.484 -0.0287 -0.4353 -0.1798
   10SAPS   H2X 1233   3.281   5.702   6.418 -0.3406  1.3383 -0.2719
   10SAPS   H2Y 1234   3.438   5.635   6.461 -1.9313 -1.8924 -0.7866
   10SAPS   C23 1235   2.838   5.480   6.524  0.6563  0.4409 -0.7800
   10SAPS   H3R 1236   2.918   5.449   6.454  0.6447  1.8616 -1.4691
   10SAPS   H3S 1237   2.818   5.589   6.512 -0.9926  0.0571 -1.8873
   10SAPS   C24 1238   2.720   5.383   6.493  0.4678  0.0862  0.2243
   10SAPS   H4R 1239   2.689   5.403   6.388  1.5879  0.2527 -0.0900
   10SAPS   H4S 1240   2.638   5.420   6.557  2.0388  3.7936  0.3048
   10SAPS   C25 1241   2.760   5.242   6.516 -0.4251  0.1192 -0.0610
   10SAPS   H5R 1242   2.744   5.195   6.614 -1.0783 -1.9917 -1.1257
   10SAPS   C26 1243   2.801   5.157   6.415 -0.3622 -1.0511 -0.3688
   10SAPS   H6R 1244   2.829   5.055   6.443 -1.6073 -1.5548 -0.9018
   10SAPS   C27 1245   2.823   5.200   6.269 -0.1204 -0.6471 -0.3348
   10SAPS   H7R 1246   2.833   5.310   6.256  0.8083 -0.7816 -0.8179
   10SAPS   H7S 1247   2.736   5.166   6.208  0.4915 -1.8709 -0.5551
   10SAPS   C28 1248   2.954   5.151   6.215  0.6622 -0.6091 -0.0067
   10SAPS   H8R 1249   3.012   5.081   6.277  0.0362 -1.0846  0.0521
   10SAPS   C29 1250   2.989   5.163   6.092  0.1349 -0.5036  0.1679
   10SAPS   H9R 1251   3.089   5.128   6.060  1.6605  1.6680  2.2100
   10SAPS  C210 1252   2.922   5.248   5.986 -0.3834  0.9776 -0.3015
   10SAPS  H10R 1253   2.811   5.251   5.996 -0.5426 -1.7627 -0.5908
   10SAPS  H10S 1254   2.936   5.211   5.882  1.5313  0.7893 -0.0039
   10SAPS  C211 1255   2.987   5.390   5.991  0.1782  0.4253 -1.0255
   10SAPS  H11R 1256   3.001   5.443   6.087 -1.7651  0.7345 -0.8660
   10SAPS  C212 1257   3.038   5.451   5.886 -0.3423  0.1917 -0.7562
   10SAPS  H12R 1258   3.080   5.552   5.901 -0.6409 -0.0091  1.8428
   10SAPS  C213 1259   3.077   5.405   5.746 -0.1455  0.8693  0.4547
   10SAPS  H13R 1260   3.130   5.309   5.757  0.0088  0.9532  0.4441
   10SAPS  H13S 1261   3.157   5.472   5.708 -0.7609  3.1798  2.9396
   10SAPS  C214 1262   2.967   5.402   5.639  1.0665 -0.3162  0.5404
   10SAPS  H14R 1263   2.880   5.459   5.675  2.9277  2.0760  1.5524
   10SAPS  C215 1264   2.961   5.337   5.523  0.1798  0.2272  0.3889
   10SAPS  H15R 1265   2.871   5.352   5.460  0.0665 -1.0705  0.2172
   10SAPS  C216 1266   3.074   5.271   5.447  0.3051  0.0856 -0.2303
   10SAPS  H16R 1267   3.029   5.202   5.373  1.5829 -1.9403  0.7939
   10SAPS  H16S 1268   3.145   5.214   5.511 -3.8390 -0.3919  4.6232
   10SAPS  C217 1269   3.140   5.382   5.363  0.3386 -0.2854 -0.0111
   10SAPS  H17R 1270   3.245   5.357   5.336 -0.3773 -1.3782 -1.9486
   10SAPS  H17S 1271   3.147   5.470   5.430 -1.9417  0.2376 -0.3978
   10SAPS  C218 1272   3.067   5.413   5.232  0.2525  0.5869 -0.1618
   10SAPS  H18R 1273   2.973   5.462   5.262  1.0548  1.5338  0.9045
   10SAPS  H18S 1274   3.045   5.317   5.180 -0.7357  0.3088  0.7458
   10SAPS  C219 1275   3.146   5.503   5.144  0.1327 -0.6756  0.0293
   10SAPS  H19R 1276   3.242   5.449   5.129  0.4703 -0.7970  2.2807
   10SAPS  H19S 1277   3.163   5.594   5.206  2.0424 -0.1759 -1.1525
   10SAPS  C220 1278   3.072   5.540   5.016  0.1771  0.3858  0.3543
   10SAPS  H20R 1279   2.969   5.578   5.038 -0.3491 -1.2477  0.8213
   10SAPS  H20S 1280   3.072   5.445   4.959  1.6043 -1.5927  3.4547
   10SAPS  H20T 1281   3.134   5.618   4.966 -1.1701  1.1488 -0.2149
   10SAPS   C33 1282   3.450   5.847   6.429  0.4787  0.0846 -0.2644
   10SAPS   H3X 1283   3.537   5.847   6.498  0.2614 -2.1202  0.0732
   10SAPS   H3Y 1284   3.387   5.938   6.440  0.8315  0.1905  1.1006
   10SAPS   C34 1285   3.505   5.824   6.288  0.2000 -0.1743  0.5217
   10SAPS   H4X 1286   3.567   5.732   6.284 -0.4996 -0.6003 -1.2609
   10SAPS   H4Y 1287   3.569   5.912   6.264  2.4116 -1.5646  1.0878
   10SAPS   C35 1288   3.395   5.793   6.174 -0.5445 -0.1586 -0.8972
   10SAPS   H5X 1289   3.315   5.868   6.186 -2.2773 -1.1873 -4.5914
   10SAPS   H5Y 1290   3.347   5.693   6.186  0.2910 -0.4596  0.1371
   10SAPS   C36 1291   3.464   5.791   6.042 -0.1454 -0.2728  0.6687
   10SAPS   H6X 1292   3.521   5.696   6.033 -0.9525 -0.8211  1.1600
   10SAPS   H6Y 1293   3.531   5.878   6.025  2.6679 -2.3270  0.5761
   10SAPS   C37 1294   3.358   5.793   5.927 -0.2502  0.6353  0.1081
   10SAPS   H7X 1295   3.298   5.885   5.941  1.0081  1.3686  0.8674
   10SAPS   H7Y 1296   3.292   5.703   5.925  0.3574  0.1684 -1.9641
   10SAPS   C38 1297   3.433   5.794   5.793  0.1834 -0.0875 -0.3256
   10SAPS   H8X 1298   3.488   5.699   5.775 -1.9024 -0.8496 -3.5751
   10SAPS   H8Y 1299   3.509   5.876   5.795  1.0675 -0.8945  0.1289
   10SAPS   C39 1300   3.338   5.810   5.675 -0.3184 -0.2398 -0.8200
   10SAPS   H9X 1301   3.288   5.908   5.693  2.3538  1.0816 -0.0445
   10SAPS   H9Y 1302   3.256   5.735   5.674  0.8056 -1.5159 -0.1285
   10SAPS  C310 1303   3.420   5.812   5.542  0.0530 -0.5623 -0.1972
   10SAPS  H10X 1304   3.477   5.717   5.535  1.3726  0.2217 -0.3714
   10SAPS  H10Y 1305   3.487   5.900   5.544 -0.3556 -0.2461 -0.1438
   10SAPS  C311 1306   3.324   5.816   5.414 -0.2240 -0.0966 -0.4626
   10SAPS  H11X 1307   3.260   5.907   5.414 -1.4334 -0.8463  2.3321
   10SAPS  H11Y 1308   3.262   5.725   5.405 -2.3627  1.0798  1.4874
   10SAPS  C312 1309   3.401   5.819   5.287  0.2503 -0.2046  0.5374
   10SAPS  H12X 1310   3.444   5.718   5.269  2.5897  0.2930  2.7179
   10SAPS  H12Y 1311   3.482   5.895   5.291  1.2840 -1.1881 -0.8890
   10SAPS  C313 1312   3.322   5.848   5.161  0.0811 -0.1381  0.6566
   10SAPS  H13X 1313   3.293   5.955   5.169  2.3062  0.5216  0.7063
   10SAPS  H13Y 1314   3.232   5.786   5.142 -1.0053  1.8919 -1.2673
   10SAPS  C314 1315   3.410   5.842   5.035 -0.3365 -0.4087 -0.0158
   10SAPS  H14X 1316   3.422   5.734   5.015 -1.0259 -0.5844  0.4780
   10SAPS  H14Y 1317   3.507   5.893   5.050 -1.3912  1.1409  2.1619
   10SAPS  C315 1318   3.346   5.899   4.908  0.5861 -0.1948 -0.1563
   10SAPS  H15X 1319   3.329   6.008   4.918  0.5451  0.0328 -2.2818
   10SAPS  H15Y 1320   3.243   5.856   4.902  0.9856 -1.4637  1.2658
   10SAPS  C316 1321   3.428   5.866   4.785 -0.5884  0.4942 -0.6525
   10SAPS  H16X 1322   3.454   5.759   4.796  0.4471  0.9847  2.7604
   10SAPS  H16Y 1323   3.521   5.925   4.794  1.4725 -2.6227 -0.0693
   10SAPS  C317 1324   3.353   5.897   4.662  0.3155  0.1238 -0.0491
   10SAPS  H17X 1325   3.320   6.002   4.678  0.8722  0.3441 -0.3288
   10SAPS  H17Y 1326   3.272   5.824   4.640  1.3845 -0.7736 -1.1373
   10SAPS  C318 1327   3.454   5.896   4.545  0.1566 -0.3197  0.7923
   10SAPS  H18X 1328   3.527   5.980   4.551 -0.2853  0.2479 -1.1594
   10SAPS  H18Y 1329   3.391   5.913   4.455  0.8953  3.5689  0.8178
   10SAPS  H18Z 1330   3.506   5.799   4.549 -0.6945 -0.7566  1.9803
   11SAPS     N 1331   2.610   4.837   2.257 -0.5291  0.1581 -0.1123
   11SAPS   HN1 1332   2.540   4.892   2.311  0.3755  0.5289  0.7252
   11SAPS   HN2 1333   2.569   4.793   2.173 -1.4927  1.8274 -0.5628
   11SAPS   HN3 1334   2.647   4.774   2.331 -0.5314  0.0162 -0.2332
   11SAPS   C12 1335   2.729   4.914   2.207 -0.4728 -0.0069 -0.4257
   11SAPS  H12A 1336   2.810   4.852   2.170 -0.8181 -0.3138 -0.6687
   11SAPS   C13 1337   2.698   5.009   2.086  0.9414 -0.1365 -0.5409
   11SAPS  O13A 1338   2.584   5.004   2.036 -0.0093  0.6950  0.4767
   11SAPS  O13B 1339   2.784   5.091   2.047  0.2398 -0.0605  0.0441
   11SAPS   C11 1340   2.796   4.992   2.323 -0.0794 -0.0238  0.3762
   11SAPS  H11A 1341   2.723   5.070   2.354 -0.1463  0.3431 -0.6460
   11SAPS  H11B 1342   2.886   5.052   2.297 -0.3350 -0.3009 -1.2790
   11SAPS     P 1343   2.941   4.882   2.520 -0.0631  0.0949  0.0159
   11SAPS   O13 1344   2.914   4.768   2.608 -0.3057  0.2522 -0.4853
   11SAPS   O14 1345   3.056   4.864   2.427  0.3415  0.2554 -0.4072
   11SAPS   O12 1346   2.808   4.903   2.432 -0.2927  0.0025 -0.0276
   11SAPS   O11 1347   2.953   5.019   2.605  0.1960  0.4235  0.3246
   11SAPS    C1 1348   2.826   5.097   2.639 -0.3317  0.0956  0.0972
   11SAPS    HA 1349   2.811   5.168   2.555 -0.6052 -0.2757 -0.1720
   11SAPS    HB 1350   2.742   5.025   2.646 -2.0273  1.9588 -0.1718
   11SAPS    C2 1351   2.844   5.152   2.785  0.2156 -1.0925 -0.2257
   11SAPS    HS 1352   2.742   5.168   2.828 -0.0427 -0.0719 -1.1825
   11SAPS   O21 1353   2.902   5.284   2.790  0.2539  0.6485 -1.1849
   11SAPS   C21 1354   2.837   5.380   2.732  0.1520  0.0484  0.2985
   11SAPS   O22 1355   2.722   5.360   2.690  1.0347 -0.3029  0.1154
   11SAPS   C22 1356   2.910   5.507   2.705  0.3369 -0.4453  0.2324
   11SAPS   H2R 1357   2.964   5.499   2.608  0.2450  1.2686  0.0146
   11SAPS   H2S 1358   2.842   5.595   2.709 -0.2446 -0.8696 -0.0913
   11SAPS    C3 1359   2.901   5.041   2.870 -0.8480  0.0096  0.5187
   11SAPS    HX 1360   3.008   5.022   2.845 -2.0012 -3.2594 -2.8821
   11SAPS    HY 1361   2.849   4.944   2.853  1.6856 -1.5205  0.9292
   11SAPS   O31 1362   2.883   5.065   3.010  0.3650 -0.0287  0.2894
   11SAPS   C31 1363   2.964   5.158   3.067 -0.3961 -0.3702 -0.2778
   11SAPS   O32 1364   3.073   5.190   3.031 -0.1922  0.4964  1.0990
   11SAPS   C32 1365   2.903   5.212   3.194 -0.1263  0.2577 -0.0506
   11SAPS   H2X 1366   2.800   5.172   3.205  0.1893 -0.6639 -0.3371
   11SAPS   H2Y 1367   2.892   5.322   3.186  1.9396  0.4715 -0.7440
   11SAPS   C23 1368   3.011   5.539   2.823 -0.0307  0.3144  0.4503
   11SAPS   H3R 1369   3.083   5.617   2.791 -1.1360  0.3597 -2.2208
   11SAPS   H3S 1370   3.085   5.457   2.813 -0.4594  0.1949 -3.4704
   11SAPS   C24 1371   2.939   5.564   2.956 -0.4008 -0.0379 -1.0559
   11SAPS   H4R 1372   3.012   5.556   3.040  0.3287  2.9181 -1.3018
   11SAPS   H4S 1373   2.872   5.478   2.977 -1.4872  1.1911  0.8406
   11SAPS   C25 1374   2.863   5.693   2.962 -0.8331 -0.4013 -0.3486
   11SAPS   H5R 1375   2.857   5.747   2.866  2.8053 -1.0304 -1.0780
   11SAPS   C26 1376   2.805   5.740   3.079  0.2898  0.3633  0.3571
   11SAPS   H6R 1377   2.751   5.836   3.069 -0.2690 -0.0162 -0.3159
   11SAPS   C27 1378   2.814   5.692   3.217 -0.1123 -0.0186 -0.8857
   11SAPS   H7R 1379   2.810   5.582   3.202  3.4192 -0.3100 -0.4087
   11SAPS   H7S 1380   2.726   5.718   3.280 -0.0490 -0.6773 -0.5153
   11SAPS   C28 1381   2.948   5.721   3.279  0.4089 -0.5999  0.0010
   11SAPS   H8R 1382   3.032   5.741   3.212 -0.1089 -0.9924 -0.7844
   11SAPS   C29 1383   2.976   5.703   3.410 -0.0262  0.4744 -0.6288
   11SAPS   H9R 1384   3.081   5.718   3.437  0.2848  0.1617 -1.6127
   11SAPS  C210 1385   2.881   5.670   3.522  0.1774 -0.5683  0.9208
   11SAPS  H10R 1386   2.904   5.574   3.573 -4.0315 -0.4768  3.4573
   11SAPS  H10S 1387   2.781   5.647   3.478 -0.3224 -1.0110  2.2517
   11SAPS  C211 1388   2.861   5.778   3.618  0.0203 -0.0327 -0.3038
   11SAPS  H11R 1389   2.785   5.853   3.592 -0.0734  0.9161  2.4253
   11SAPS  C212 1390   2.925   5.776   3.740  0.6965 -0.9140 -0.5619
   11SAPS  H12R 1391   2.905   5.861   3.806 -0.5904 -1.7463  0.1546
   11SAPS  C213 1392   3.039   5.686   3.787 -0.4497 -0.1712  0.2912
   11SAPS  H13R 1393   3.111   5.754   3.838  0.1144 -0.1386 -0.5252
   11SAPS  H13S 1394   3.099   5.647   3.702 -0.1496 -2.1003  1.3422
   11SAPS  C214 1395   2.976   5.576   3.874  0.3611 -0.8738 -1.0609
   11SAPS  H14R 1396   2.918   5.500   3.820 -0.1016 -0.3224 -1.3499
   11SAPS  C215 1397   2.972   5.572   4.008 -0.1118 -0.0144 -0.8240
   11SAPS  H15R 1398   2.953   5.477   4.060 -1.0069  1.6656  2.1791
   11SAPS  C216 1399   3.038   5.677   4.102  0.0816  0.3247 -0.4124
   11SAPS  H16R 1400   2.967   5.762   4.116 -1.1071 -0.5875 -0.7244
   11SAPS  H16S 1401   3.130   5.714   4.052 -1.4189  1.0569 -2.8261
   11SAPS  C217 1402   3.047   5.601   4.237  0.2336  0.2616  0.1790
   11SAPS  H17R 1403   3.087   5.499   4.223  0.5925  0.6141 -1.7360
   11SAPS  H17S 1404   2.945   5.596   4.281 -0.0445 -0.3871 -0.5330
   11SAPS  C218 1405   3.125   5.679   4.334  0.0192 -0.4260 -0.0912
   11SAPS  H18R 1406   3.069   5.769   4.366 -1.6499 -1.7861  1.0566
   11SAPS  H18S 1407   3.219   5.708   4.283 -0.4795  0.1293 -0.7134
   11SAPS  C219 1408   3.156   5.589   4.460 -1.0385  0.1189  0.8245
   11SAPS  H19R 1409   3.228   5.645   4.523 -1.5184 -1.4657  2.8664
   11SAPS  H19S 1410   3.206   5.496   4.425  1.7045  2.8409 -3.4824
   11SAPS  C220 1411   3.032   5.554   4.555 -0.5430  0.1385  0.3233
   11SAPS  H20R 1412   2.991   5.652   4.589  0.0800  0.7468 -0.6297
   11SAPS  H20S 1413   3.072   5.503   4.645  0.7452 -1.0738 -0.8913
   11SAPS  H20T 1414   2.949   5.495   4.512  0.5104 -1.9882  1.0815
   11SAPS   C33 1415   2.993   5.186   3.319  0.1306  0.2504  0.1293
   11SAPS   H3X 1416   2.979   5.262   3.399 -0.9112 -0.5099  0.7108
   11SAPS   H3Y 1417   3.100   5.173   3.293  0.0532 -1.0081  0.3414
   11SAPS   C34 1418   2.944   5.060   3.392  0.0272 -0.3775  0.5473
   11SAPS   H4X 1419   2.960   4.970   3.328  0.7154 -1.3627  2.0632
   11SAPS   H4Y 1420   2.833   5.058   3.396 -0.1475 -0.4064 -2.0232
   11SAPS   C35 1421   3.004   5.031   3.530 -0.1907 -0.7146 -0.3763
   11SAPS   H5X 1422   3.111   5.058   3.524 -0.1942 -0.8935 -1.5532
   11SAPS   H5Y 1423   2.979   4.924   3.550  1.1025 -0.7849  1.0543
   11SAPS   C36 1424   2.947   5.116   3.651 -0.2231  0.4541  0.0106
   11SAPS   H6X 1425   2.838   5.098   3.665 -0.4418  2.2538  0.9389
   11SAPS   H6Y 1426   2.951   5.226   3.639  0.1722  0.2445 -2.1367
   11SAPS   C37 1427   3.020   5.072   3.785  0.1344 -0.8603  1.4742
   11SAPS   H7X 1428   3.124   5.109   3.775  0.4776 -2.2291 -0.7152
   11SAPS   H7Y 1429   3.016   4.961   3.775  0.0527 -0.8119  0.9195
   11SAPS   C38 1430   2.958   5.119   3.914  0.1518  0.2665  0.1691
   11SAPS   H8X 1431   2.853   5.083   3.923  0.3145 -0.8956 -1.8129
   11SAPS   H8Y 1432   2.950   5.229   3.918  1.3372  0.3539  0.4908
   11SAPS   C39 1433   3.045   5.062   4.033  0.9958  0.5384  0.5712
   11SAPS   H9X 1434   3.145   5.031   3.997 -0.0760  0.3448 -2.5361
   11SAPS   H9Y 1435   3.005   4.965   4.070 -0.6845  0.0069 -2.3448
   11SAPS  C310 1436   3.060   5.156   4.158 -0.2841 -0.4697  0.0178
   11SAPS  H10X 1437   3.123   5.246   4.143 -1.0882 -0.0115 -0.6986
   11SAPS  H10Y 1438   3.118   5.091   4.227 -2.8480 -2.4948  0.4502
   11SAPS  C311 1439   2.915   5.194   4.213 -0.2559 -0.4616 -0.3789
   11SAPS  H11X 1440   2.852   5.104   4.230  0.6379 -0.9357  0.4727
   11SAPS  H11Y 1441   2.872   5.260   4.134  1.3462 -0.1083 -0.9897
   11SAPS  C312 1442   2.928   5.270   4.348 -0.1229 -0.0126  0.8846
   11SAPS  H12X 1443   2.827   5.304   4.377  0.7484  3.6464  0.1094
   11SAPS  H12Y 1444   2.989   5.363   4.351 -0.9049  0.4805  2.1523
   11SAPS  C313 1445   2.987   5.168   4.458 -0.1621  0.2194  0.2971
   11SAPS  H13X 1446   3.075   5.218   4.502 -0.5777  2.8077 -1.5777
   11SAPS  H13Y 1447   3.022   5.077   4.404 -0.9765  0.7738 -1.2331
   11SAPS  C314 1448   2.878   5.115   4.552  0.1736  0.4449 -0.1135
   11SAPS  H14X 1449   2.798   5.070   4.490  0.0484  1.5313 -0.7598
   11SAPS  H14Y 1450   2.838   5.202   4.609  0.4884  1.2239 -1.0632
   11SAPS  C315 1451   2.931   5.014   4.656  0.2182 -0.4007 -0.3774
   11SAPS  H15X 1452   3.037   5.034   4.685 -0.7396  0.6906  2.8830
   11SAPS  H15Y 1453   2.947   4.922   4.596  2.3147 -0.7086  0.5522
   11SAPS  C316 1454   2.847   4.986   4.785  0.4515 -0.3088  0.1606
   11SAPS  H16X 1455   2.808   5.089   4.802  0.9781  0.2157 -1.6022
   11SAPS  H16Y 1456   2.907   4.949   4.871 -2.3346 -1.0590  1.9196
   11SAPS  C317 1457   2.737   4.884   4.765  0.7373  0.1991  0.2028
   11SAPS  H17X 1458   2.674   4.906   4.676  0.3846 -1.3868  0.0236
   11SAPS  H17Y 1459   2.671   4.888   4.854  3.6292 -2.8207  2.7642
   11SAPS  C318 1460   2.794   4.742   4.753  0.1474 -0.4334  0.8270
   11SAPS  H18X 1461   2.819   4.717   4.647 -0.4480 -1.7451  0.9787
   11SAPS  H18Y 1462   2.723   4.659   4.772 -0.2430 -0.4416 -0.5332
   11SAPS  H18Z 1463   2.887   4.729   4.811  0.7066  1.1222  0.3390
   12SAPS     N 1464   5.892   2.886   2.317  0.3775 -0.3764 -0.0107
   12SAPS   HN1 1465   5.927   2.868   2.414  1.8499 -2.4195 -0.8567
   12SAPS   HN2 1466   5.788   2.889   2.319  0.2275  0.7106 -3.4305
   12SAPS   HN3 1467   5.932   2.813   2.255  0.4830 -1.0312  0.8135
   12SAPS   C12 1468   5.922   3.021   2.252 -0.8182 -0.5535  0.3566
   12SAPS  H12A 1469   6.029   3.026   2.242 -0.7304 -1.7407  0.5993
   12SAPS   C13 1470   5.872   3.037   2.104  0.1021  0.2002  0.2677
   12SAPS  O13A 1471   5.824   2.934   2.046 -0.5099  0.0103  0.3871
   12SAPS  O13B 1472   5.900   3.140   2.037  0.0401 -0.3841  0.1042
   12SAPS   C11 1473   5.877   3.139   2.344 -0.7677 -0.1044 -0.5236
   12SAPS  H11A 1474   5.908   3.239   2.306 -2.9256  0.7083 -0.3013
   12SAPS  H11B 1475   5.921   3.132   2.446  0.2980 -0.3015 -0.9823
   12SAPS     P 1476   5.659   3.233   2.436 -0.3197  0.0840  0.6329
   12SAPS   O13 1477   5.680   3.369   2.380  0.4907 -0.0494  0.1287
   12SAPS   O14 1478   5.524   3.183   2.454  0.2205  0.0431  0.3648
   12SAPS   O12 1479   5.736   3.136   2.351 -0.3314  0.3185 -0.3822
   12SAPS   O11 1480   5.736   3.228   2.568  0.2466 -0.1521  0.2737
   12SAPS    C1 1481   5.713   3.108   2.648  0.7364 -0.3669  0.0661
   12SAPS    HA 1482   5.604   3.090   2.661  0.3008  0.1129 -2.4362
   12SAPS    HB 1483   5.769   3.026   2.600 -0.8124 -0.9093 -0.8921
   12SAPS    C2 1484   5.772   3.118   2.798  0.1791  0.5534  0.3447
   12SAPS    HS 1485   5.756   3.021   2.849  0.6273  0.2689 -0.0484
   12SAPS   O21 1486   5.718   3.226   2.871  0.6264  0.0236  0.1453
   12SAPS   C21 1487   5.595   3.209   2.912  0.2010 -0.5086 -0.0151
   12SAPS   O22 1488   5.519   3.118   2.893 -0.4498  0.0592  0.0253
   12SAPS   C22 1489   5.557   3.343   2.976  0.2262  0.2256  0.2600
   12SAPS   H2R 1490   5.639   3.396   3.028 -1.1582  2.1923  0.5483
   12SAPS   H2S 1491   5.523   3.417   2.901  0.6881  1.0141  0.8219
   12SAPS    C3 1492   5.920   3.144   2.797  0.1954  0.6719  0.1873
   12SAPS    HX 1493   5.937   3.249   2.763  0.5669  0.0897 -1.5459
   12SAPS    HY 1494   5.974   3.082   2.722 -1.5478  1.4432 -1.8224
   12SAPS   O31 1495   5.975   3.114   2.924  0.3229  0.2062  0.1421
   12SAPS   C31 1496   5.980   3.204   3.018  0.6126 -0.1704  0.0082
   12SAPS   O32 1497   5.940   3.320   3.012  0.2151  0.3009  0.2263
   12SAPS   C32 1498   6.078   3.148   3.122  0.0855 -0.0452 -0.3541
   12SAPS   H2X 1499   6.154   3.229   3.128 -0.5812  0.6097 -0.5515
   12SAPS   H2Y 1500   6.120   3.055   3.080 -1.9926 -1.3458  0.2769
   12SAPS   C23 1501   5.455   3.340   3.092  0.3939  0.1782 -0.7053
   12SAPS   H3R 1502   5.361   3.292   3.058 -0.3696  1.7039 -0.8592
   12SAPS   H3S 1503   5.434   3.445   3.123  1.0840  0.5267 -1.3865
   12SAPS   C24 1504   5.504   3.254   3.213  0.7176  0.1193 -0.4733
   12SAPS   H4R 1505   5.600   3.302   3.242 -0.9429  2.4968  1.4622
   12SAPS   H4S 1506   5.527   3.151   3.176  0.2954  0.0357 -0.5147
   12SAPS   C25 1507   5.405   3.255   3.327  0.0483 -0.1204 -0.7471
   12SAPS   H5R 1508   5.335   3.170   3.318 -0.7082  0.4106  0.0010
   12SAPS   C26 1509   5.371   3.347   3.416  0.6967 -0.5744 -0.1258
   12SAPS   H6R 1510   5.281   3.322   3.473  2.0622 -0.8516  2.0065
   12SAPS   C27 1511   5.434   3.483   3.439 -0.0854  0.1176  0.6371
   12SAPS   H7R 1512   5.353   3.558   3.448 -0.9256 -0.8054  0.9866
   12SAPS   H7S 1513   5.492   3.510   3.348 -0.2108  0.5394  0.6825
   12SAPS   C28 1514   5.526   3.483   3.560  0.3162  0.1083  0.4352
   12SAPS   H8R 1515   5.491   3.437   3.654  0.5596  1.5102  1.2391
   12SAPS   C29 1516   5.643   3.543   3.572 -0.4082 -0.7649 -0.5610
   12SAPS   H9R 1517   5.707   3.545   3.661  1.6193  1.1731 -1.9305
   12SAPS  C210 1518   5.712   3.628   3.464 -0.9230  0.4670 -0.6061
   12SAPS  H10R 1519   5.795   3.694   3.497 -0.4876 -0.4257  0.1367
   12SAPS  H10S 1520   5.634   3.691   3.416 -0.5147  1.6767  0.2595
   12SAPS  C211 1521   5.777   3.545   3.355 -0.1327 -0.1132  0.5660
   12SAPS  H11R 1522   5.755   3.440   3.377  1.0387 -0.3873  0.5263
   12SAPS  C212 1523   5.873   3.584   3.265  0.7752  0.1458  0.2048
   12SAPS  H12R 1524   5.904   3.518   3.182  0.4881  1.0394 -0.6377
   12SAPS  C213 1525   5.926   3.731   3.257  0.3961 -0.8129 -0.4953
   12SAPS  H13R 1526   5.996   3.729   3.172  1.6135  2.9560  0.2091
   12SAPS  H13S 1527   5.994   3.743   3.344 -1.7747  2.6377  0.9800
   12SAPS  C214 1528   5.843   3.853   3.242  0.4668  0.3187  0.4762
   12SAPS  H14R 1529   5.737   3.841   3.213 -0.0860  0.4422  2.2944
   12SAPS  C215 1530   5.880   3.975   3.284 -0.0639  0.3141 -0.5826
   12SAPS  H15R 1531   5.821   4.063   3.256  0.0746 -0.0248 -2.0477
   12SAPS  C216 1532   6.005   4.019   3.351 -1.0499  1.0778 -0.5370
   12SAPS  H16R 1533   6.049   4.094   3.282  0.3786  2.2427  1.5348
   12SAPS  H16S 1534   6.067   3.929   3.370  0.4895  1.1410 -4.4598
   12SAPS  C217 1535   5.991   4.071   3.490  0.7896 -0.4167 -0.1615
   12SAPS  H17R 1536   5.907   4.143   3.481  0.2137 -1.2036 -1.2846
   12SAPS  H17S 1537   6.079   4.134   3.518 -0.2762  1.2313 -0.3787
   12SAPS  C218 1538   5.968   3.971   3.599 -0.3715  0.4504 -0.3667
   12SAPS  H18R 1539   6.036   3.884   3.592 -1.4406 -0.3050 -1.9248
   12SAPS  H18S 1540   5.866   3.938   3.572  0.0309 -0.5123 -0.7489
   12SAPS  C219 1541   5.980   4.036   3.738  0.2615  0.8703 -0.9791
   12SAPS  H19R 1542   5.896   4.105   3.761 -1.8694 -1.3540 -1.7031
   12SAPS  H19S 1543   6.077   4.091   3.738  0.7765  0.4013  3.7999
   12SAPS  C220 1544   5.986   3.938   3.859 -0.5643 -0.0563  0.3144
   12SAPS  H20R 1545   6.032   3.992   3.945 -1.0885  2.0745 -0.6731
   12SAPS  H20S 1546   6.053   3.851   3.844 -1.0192 -0.3325 -0.1305
   12SAPS  H20T 1547   5.886   3.897   3.887  0.1443 -1.3782  1.0221
   12SAPS   C33 1548   6.018   3.128   3.263  0.2782  0.6564  0.3966
   12SAPS   H3X 1549   5.976   3.228   3.288 -0.3320 -0.0121  2.1942
   12SAPS   H3Y 1550   6.092   3.100   3.341 -0.4488  0.7350  1.1244
   12SAPS   C34 1551   5.889   3.049   3.264 -0.7683  0.3805  0.1946
   12SAPS   H4X 1552   5.898   2.946   3.223  1.7526  0.9765 -0.9378
   12SAPS   H4Y 1553   5.816   3.097   3.195 -2.0976 -0.5192  0.9384
   12SAPS   C35 1554   5.813   3.049   3.393 -0.1211 -0.6026 -0.2960
   12SAPS   H5X 1555   5.767   2.948   3.400 -1.4168  0.0046  0.3777
   12SAPS   H5Y 1556   5.735   3.128   3.402  0.0675 -0.4760  0.2792
   12SAPS   C36 1557   5.903   3.068   3.518  0.2624 -0.0349 -0.2720
   12SAPS   H6X 1558   5.943   3.171   3.510 -0.5704  0.3204 -0.0189
   12SAPS   H6Y 1559   5.996   3.010   3.501 -0.7152 -1.4949 -0.8278
   12SAPS   C37 1560   5.837   3.039   3.649  0.2754 -0.0346 -0.0248
   12SAPS   H7X 1561   5.802   2.933   3.652 -0.7668  0.2378 -1.4727
   12SAPS   H7Y 1562   5.755   3.113   3.659  2.0464  2.2394 -1.2801
   12SAPS   C38 1563   5.943   3.047   3.765  0.0118  0.1374  0.0830
   12SAPS   H8X 1564   5.985   3.149   3.757  0.2411  0.1582  1.3635
   12SAPS   H8Y 1565   6.015   2.963   3.750 -0.7946 -1.1135  2.6370
   12SAPS   C39 1566   5.870   3.042   3.898 -0.1845 -0.2873  0.3214
   12SAPS   H9X 1567   5.788   2.968   3.886  0.5532 -0.9684 -0.6538
   12SAPS   H9Y 1568   5.818   3.138   3.919 -1.8923 -0.9005 -0.8767
   12SAPS  C310 1569   5.958   3.002   4.016  0.3413 -0.2105 -0.1086
   12SAPS  H10X 1570   6.048   3.066   4.030  0.5513 -0.7276  1.0099
   12SAPS  H10Y 1571   6.012   2.909   3.990  1.2724 -0.0167  1.0613
   12SAPS  C311 1572   5.876   2.988   4.144  0.4322 -0.0905 -0.3296
   12SAPS  H11X 1573   5.818   2.893   4.154  0.4059 -0.0862 -0.4400
   12SAPS  H11Y 1574   5.797   3.066   4.144 -0.7195 -1.2095  0.6230
   12SAPS  C312 1575   5.959   2.989   4.272 -0.5064 -0.4805 -0.4162
   12SAPS  H12X 1576   6.029   3.075   4.269  0.2500 -1.1098 -1.7085
   12SAPS  H12Y 1577   6.025   2.900   4.269 -0.1635 -0.2653  0.4683
   12SAPS  C313 1578   5.860   2.985   4.395  0.4419 -0.5818  0.3107
   12SAPS  H13X 1579   5.774   2.920   4.371  0.8196 -1.4814  1.3088
   12SAPS  H13Y 1580   5.808   3.082   4.412 -0.6654 -0.9786 -0.6647
   12SAPS  C314 1581   5.914   2.931   4.526 -0.9653  0.0813  0.1353
   12SAPS  H14X 1582   5.969   3.009   4.582  0.7201 -1.4790  0.7477
   12SAPS  H14Y 1583   5.980   2.846   4.498  0.1178  1.2816 -1.0697
   12SAPS  C315 1584   5.800   2.878   4.623  0.2258 -0.1833 -0.5096
   12SAPS  H15X 1585   5.746   2.798   4.568 -0.6208  1.5187 -2.3132
   12SAPS  H15Y 1586   5.725   2.960   4.629  1.0114  0.5225 -0.1436
   12SAPS  C316 1587   5.847   2.835   4.759  0.2886  0.2042 -0.0451
   12SAPS  H16X 1588   5.876   2.932   4.804  0.5484  0.6527 -1.1451
   12SAPS  H16Y 1589   5.937   2.771   4.750 -0.3402 -0.9774  1.3977
   12SAPS  C317 1590   5.749   2.772   4.863  0.5591 -0.5206  0.1369
   12SAPS  H17X 1591   5.805   2.732   4.951 -0.4642 -0.3590  0.8763
   12SAPS  H17Y 1592   5.699   2.681   4.825 -0.6009  1.4840 -3.6882
   12SAPS  C318 1593   5.643   2.869   4.910  0.1271  0.5132 -0.0406
   12SAPS  H18X 1594   5.583   2.899   4.821 -1.9763 -2.5925  0.1885
   12SAPS  H18Y 1595   5.689   2.959   4.957 -0.3066  1.1411 -0.8019
   12SAPS  H18Z 1596   5.581   2.812   4.982  0.2633 -0.7895 -0.9147
   13SAPS     N 1597   4.948   4.144   2.812  0.0559 -0.4535 -0.1758
   13SAPS   HN1 1598   4.928   4.054   2.763 -1.7640 -0.1738  0.0033
   13SAPS   HN2 1599   4.892   4.128   2.898  1.7152 -1.1163  0.8487
   13SAPS   HN3 1600   4.912   4.231   2.770 -0.3136  0.2000  1.4427
   13SAPS   C12 1601   5.100   4.164   2.831  0.0785 -0.1123 -0.3904
   13SAPS  H12A 1602   5.152   4.118   2.748  0.4268 -0.5859  0.0857
   13SAPS   C13 1603   5.136   4.314   2.823  0.5398  0.3505 -1.1855
   13SAPS  O13A 1604   5.047   4.392   2.782 -0.0242 -0.5170  0.5317
   13SAPS  O13B 1605   5.256   4.356   2.846  0.4750 -0.4768  0.2374
   13SAPS   C11 1606   5.150   4.089   2.956  0.0220 -0.2817 -0.0606
   13SAPS  H11A 1607   5.087   4.117   3.044  1.4086 -1.1142  1.2493
   13SAPS  H11B 1608   5.253   4.128   2.968  0.3515 -0.2145 -2.5949
   13SAPS     P 1609   5.279   3.867   2.892 -0.2302 -0.1864  0.6574
   13SAPS   O13 1610   5.231   3.790   2.774  0.3353 -0.3581 -0.3510
   13SAPS   O14 1611   5.398   3.948   2.864 -0.6700 -0.1901  0.4858
   13SAPS   O12 1612   5.151   3.952   2.931 -0.2773 -0.3303  0.2655
   13SAPS   O11 1613   5.308   3.778   3.014 -0.2399  0.4683  0.0091
   13SAPS    C1 1614   5.208   3.713   3.092  0.1885  0.1088 -0.0722
   13SAPS    HA 1615   5.124   3.672   3.032  0.0773 -1.0706  0.8363
   13SAPS    HB 1616   5.253   3.620   3.132  1.1337  0.2330 -0.8192
   13SAPS    C2 1617   5.157   3.801   3.207 -0.1197 -0.0608 -0.3743
   13SAPS    HS 1618   5.139   3.906   3.175  0.2939  0.0500 -0.2405
   13SAPS   O21 1619   5.259   3.784   3.314  0.6672 -0.0637  0.3781
   13SAPS   C21 1620   5.271   3.893   3.385  0.5501 -0.2013 -0.2711
   13SAPS   O22 1621   5.213   3.999   3.372 -0.3332  0.4439  0.3456
   13SAPS   C22 1622   5.365   3.862   3.502 -0.4201  0.0356 -1.1137
   13SAPS   H2R 1623   5.434   3.781   3.470 -0.3827 -0.2349 -0.3758
   13SAPS   H2S 1624   5.421   3.956   3.519 -0.5537 -0.2912  1.6430
   13SAPS    C3 1625   5.020   3.744   3.260 -0.9073 -1.0209  0.0339
   13SAPS    HX 1626   5.039   3.638   3.287 -0.1279 -1.1235 -0.8440
   13SAPS    HY 1627   4.937   3.726   3.188 -1.0631  0.9473 -0.3368
   13SAPS   O31 1628   4.976   3.805   3.384 -0.1908  0.2526 -0.2705
   13SAPS   C31 1629   4.913   3.916   3.373  0.3820  0.1144  0.4981
   13SAPS   O32 1630   4.891   3.978   3.269 -0.1634 -0.0462 -0.0544
   13SAPS   C32 1631   4.873   3.964   3.516  0.3278  0.1510 -0.5356
   13SAPS   H2X 1632   4.935   4.047   3.557  2.5062 -1.9458  0.6038
   13SAPS   H2Y 1633   4.877   3.876   3.583  0.2593  1.3881  1.1768
   13SAPS   C23 1634   5.289   3.838   3.636 -0.1461 -0.0698 -0.8408
   13SAPS   H3R 1635   5.264   3.730   3.640  1.6338 -0.4621  1.4191
   13SAPS   H3S 1636   5.194   3.894   3.622 -0.1765 -0.1928 -1.1497
   13SAPS   C24 1637   5.362   3.863   3.772  0.1617 -0.0978  0.3924
   13SAPS   H4R 1638   5.294   3.817   3.846 -0.4488  0.1127 -0.0270
   13SAPS   H4S 1639   5.349   3.972   3.785  1.6479  0.2666 -0.8463
   13SAPS   C25 1640   5.507   3.816   3.782  0.0432 -0.7538  0.2258
   13SAPS   H5R 1641   5.574   3.834   3.697 -2.9792  1.4562 -1.8814
   13SAPS   C26 1642   5.563   3.758   3.892 -0.1197 -0.3371 -0.0763
   13SAPS   H6R 1643   5.672   3.743   3.899  0.0755  0.4615 -1.1381
   13SAPS   C27 1644   5.489   3.705   4.011  0.9466  0.4726 -0.2420
   13SAPS   H7R 1645   5.514   3.599   4.034  1.7905  0.8701  0.7244
   13SAPS   H7S 1646   5.379   3.715   4.000  0.5587 -0.8181  1.8257
   13SAPS   C28 1647   5.526   3.773   4.143  0.5842  0.1712  0.0143
   13SAPS   H8R 1648   5.628   3.811   4.161 -0.2053  2.2151  0.4300
   13SAPS   C29 1649   5.449   3.771   4.254 -0.6986 -0.9260 -0.0715
   13SAPS   H9R 1650   5.483   3.826   4.343 -0.5444 -1.4378  0.1839
   13SAPS  C210 1651   5.310   3.709   4.266  0.2424 -0.1914  0.0601
   13SAPS  H10R 1652   5.287   3.654   4.172  0.7945 -0.1089 -0.1257
   13SAPS  H10S 1653   5.231   3.787   4.267 -2.2209 -2.5379  0.8047
   13SAPS  C211 1654   5.294   3.614   4.378 -0.5442 -0.5764  0.7006
   13SAPS  H11R 1655   5.334   3.513   4.360  0.0711 -0.7100  2.6385
   13SAPS  C212 1656   5.243   3.625   4.499  0.7510 -0.2127 -0.0316
   13SAPS  H12R 1657   5.248   3.541   4.570  0.3004  0.2484  0.5511
   13SAPS  C213 1658   5.162   3.747   4.554  0.1705 -0.3373  0.0379
   13SAPS  H13R 1659   5.078   3.762   4.483 -1.5981 -1.6667  1.7326
   13SAPS  H13S 1660   5.223   3.840   4.550 -0.2839 -0.0252  0.2588
   13SAPS  C214 1661   5.094   3.723   4.690  0.1311  0.2486  0.5362
   13SAPS  H14R 1662   4.989   3.696   4.672 -0.1633  1.3480  0.5649
   13SAPS  C215 1663   5.157   3.716   4.808 -0.4394 -0.6663 -0.0605
   13SAPS  H15R 1664   5.111   3.688   4.904  1.6220  0.4112  1.3199
   13SAPS  C216 1665   5.304   3.740   4.843 -0.0517  0.0932 -0.2153
   13SAPS  H16R 1666   5.317   3.833   4.902  1.4941 -0.2628  0.0502
   13SAPS  H16S 1667   5.359   3.749   4.747 -0.7208 -1.7619 -0.8187
   13SAPS  C217 1668   5.372   3.629   4.928 -0.1923 -0.5285 -0.0745
   13SAPS  H17R 1669   5.322   3.619   5.026  2.9996  0.3599  1.7730
   13SAPS  H17S 1670   5.476   3.659   4.952  1.3784 -2.9977 -2.9567
   13SAPS  C218 1671   5.383   3.495   4.865 -0.4282 -0.0784 -0.1319
   13SAPS  H18R 1672   5.283   3.462   4.828 -0.7617  0.6802  0.0927
   13SAPS  H18S 1673   5.397   3.420   4.946 -2.2101 -0.1538  0.1516
   13SAPS  C219 1674   5.482   3.474   4.745  0.5269 -0.3896  0.2412
   13SAPS  H19R 1675   5.584   3.507   4.774  1.0915  0.1072 -2.0453
   13SAPS  H19S 1676   5.456   3.535   4.656  0.3971 -0.2697  0.3627
   13SAPS  C220 1677   5.495   3.328   4.712 -0.3437  0.5323 -0.3480
   13SAPS  H20R 1678   5.391   3.291   4.696  0.0818 -1.4750  1.0866
   13SAPS  H20S 1679   5.544   3.267   4.791  1.4023 -1.6841 -2.9781
   13SAPS  H20T 1680   5.546   3.314   4.615 -0.5076  1.5303 -0.5868
   13SAPS   C33 1681   4.721   4.019   3.524  0.1552  0.0529  0.1184
   13SAPS   H3X 1682   4.661   3.981   3.439  0.2669 -0.5613  0.3055
   13SAPS   H3Y 1683   4.717   4.130   3.513  0.7052  0.0877  0.2349
   13SAPS   C34 1684   4.643   3.983   3.655  0.0615  0.3358  0.5078
   13SAPS   H4X 1685   4.695   4.009   3.749 -0.8055 -1.6320  1.5903
   13SAPS   H4Y 1686   4.635   3.872   3.665 -0.0179  0.2272 -0.5797
   13SAPS   C35 1687   4.500   4.037   3.669  0.8278 -0.3815  0.3574
   13SAPS   H5X 1688   4.444   4.020   3.575  1.7822  0.1741 -0.3197
   13SAPS   H5Y 1689   4.504   4.148   3.679  3.9825 -0.4233  0.4830
   13SAPS   C36 1690   4.418   3.970   3.771  1.1113  0.2040 -0.3426
   13SAPS   H6X 1691   4.419   3.859   3.771 -1.8984  0.0861 -0.4886
   13SAPS   H6Y 1692   4.310   3.996   3.761  0.4623 -1.0142  2.4001
   13SAPS   C37 1693   4.467   4.016   3.905 -0.1059 -0.3830  0.5066
   13SAPS   H7X 1694   4.437   4.123   3.910 -2.7757 -1.0552  0.6819
   13SAPS   H7Y 1695   4.578   4.013   3.915  0.0076  1.4820  0.2093
   13SAPS   C38 1696   4.394   3.957   4.025 -0.7967  0.1260 -0.4859
   13SAPS   H8X 1697   4.290   3.993   4.012 -0.0414  2.4730 -0.6443
   13SAPS   H8Y 1698   4.436   3.999   4.119  0.2992 -1.1143 -0.3911
   13SAPS   C39 1699   4.398   3.798   4.040  0.0516 -0.0374  0.1712
   13SAPS   H9X 1700   4.505   3.772   4.031  0.6758  1.8877  1.3150
   13SAPS   H9Y 1701   4.345   3.752   3.954 -3.2198  0.2331  1.9016
   13SAPS  C310 1702   4.342   3.755   4.181  0.1391 -0.8065  0.6791
   13SAPS  H10X 1703   4.395   3.811   4.261  0.5829 -0.0568 -0.1287
   13SAPS  H10Y 1704   4.366   3.648   4.198  1.7320 -1.0318 -2.3102
   13SAPS  C311 1705   4.188   3.782   4.188  0.2111  0.5381 -0.8158
   13SAPS  H11X 1706   4.145   3.739   4.095  4.1218  0.1540 -2.6794
   13SAPS  H11Y 1707   4.184   3.893   4.192  0.4048  0.5409  2.9382
   13SAPS  C312 1708   4.120   3.733   4.320  0.0859 -0.8812  0.1854
   13SAPS  H12X 1709   4.048   3.811   4.353 -0.3527 -0.8794 -0.7337
   13SAPS  H12Y 1710   4.198   3.737   4.398 -0.2602  0.0579  0.4974
   13SAPS  C313 1711   4.057   3.592   4.305  0.1387  0.0065  0.1815
   13SAPS  H13X 1712   4.127   3.516   4.261  0.0222  0.6046 -1.0955
   13SAPS  H13Y 1713   3.982   3.607   4.224  0.3783  1.1903  0.1679
   13SAPS  C314 1714   4.000   3.524   4.437 -0.2855  0.3790 -0.4716
   13SAPS  H14X 1715   4.085   3.510   4.507 -0.0008  1.8868 -0.4845
   13SAPS  H14Y 1716   3.968   3.424   4.401 -0.1371 -0.2322  1.0242
   13SAPS  C315 1717   3.902   3.608   4.511  0.1134 -0.2258 -0.2137
   13SAPS  H15X 1718   3.940   3.712   4.523 -3.1626  1.0144  0.5822
   13SAPS  H15Y 1719   3.874   3.563   4.608 -2.6709 -0.7199 -1.1516
   13SAPS  C316 1720   3.767   3.605   4.441  0.2528 -0.5080 -0.1149
   13SAPS  H16X 1721   3.738   3.506   4.399 -3.0688  0.5541 -0.6219
   13SAPS  H16Y 1722   3.773   3.671   4.352  0.1169 -1.5836 -0.9316
   13SAPS  C317 1723   3.663   3.660   4.539  0.3934  0.2650  0.1978
   13SAPS  H17X 1724   3.690   3.766   4.561  1.8798 -0.2891  1.2425
   13SAPS  H17Y 1725   3.674   3.613   4.639  0.4249  0.6621  0.3866
   13SAPS  C318 1726   3.517   3.649   4.491 -0.5198 -0.1242  1.0269
   13SAPS  H18X 1727   3.499   3.710   4.399  0.1547 -0.2624  0.8010
   13SAPS  H18Y 1728   3.441   3.682   4.565 -2.0534 -0.4206 -0.3549
   13SAPS  H18Z 1729   3.492   3.544   4.466 -1.0823  0.5114 -1.4315
   14SAPS     N 1730   5.006   3.633   2.768 -0.2432 -1.0142  0.6784
   14SAPS   HN1 1731   5.039   3.545   2.813  0.0913 -0.3146  1.8269
   14SAPS   HN2 1732   4.976   3.609   2.671  1.5026 -0.4222 -0.0390
   14SAPS   HN3 1733   5.088   3.697   2.769 -0.3746 -0.8491  1.1477
   14SAPS   C12 1734   4.892   3.686   2.845 -0.8582 -0.0296  0.2782
   14SAPS  H12A 1735   4.931   3.690   2.946  0.3059  3.2306 -0.1932
   14SAPS   C13 1736   4.852   3.827   2.789 -0.1756  0.0090 -1.2153
   14SAPS  O13A 1737   4.757   3.887   2.855 -0.0160 -0.4175 -0.2150
   14SAPS  O13B 1738   4.907   3.887   2.695  0.7288  0.2432  0.1747
   14SAPS   C11 1739   4.770   3.585   2.822 -0.1206 -0.7927 -0.6164
   14SAPS  H11A 1740   4.757   3.581   2.712  1.7181 -3.1472 -0.8258
   14SAPS  H11B 1741   4.684   3.637   2.869  0.9922  0.4339  0.1333
   14SAPS     P 1742   4.703   3.351   2.918  0.8583  0.2443 -0.0402
   14SAPS   O13 1743   4.626   3.314   2.796  0.3600  0.1838 -0.2026
   14SAPS   O14 1744   4.773   3.240   2.986 -0.3521 -0.2182  0.6282
   14SAPS   O12 1745   4.805   3.459   2.879 -0.7675 -0.3257  0.3056
   14SAPS   O11 1746   4.617   3.422   3.035 -0.3910  0.2497 -0.1265
   14SAPS    C1 1747   4.681   3.491   3.142 -0.5252  0.2897  0.2884
   14SAPS    HA 1748   4.781   3.450   3.166 -0.5551 -0.0185 -0.1118
   14SAPS    HB 1749   4.687   3.599   3.114  0.2394  0.0594 -0.4798
   14SAPS    C2 1750   4.601   3.460   3.268 -0.3209 -0.3268  0.0467
   14SAPS    HS 1751   4.627   3.353   3.284 -0.5773 -0.3878  0.0540
   14SAPS   O21 1752   4.460   3.473   3.244  0.3488  0.1383 -0.1297
   14SAPS   C21 1753   4.382   3.393   3.321  0.4193 -0.2368 -0.0604
   14SAPS   O22 1754   4.423   3.296   3.382 -0.0055 -0.1334  0.0159
   14SAPS   C22 1755   4.235   3.438   3.316 -0.3378  0.0241  0.0953
   14SAPS   H2R 1756   4.233   3.548   3.309 -3.4235  0.1630  1.6277
   14SAPS   H2S 1757   4.198   3.406   3.216 -0.2653 -0.2114  0.1406
   14SAPS    C3 1758   4.638   3.558   3.384  0.7288  0.0749  0.5111
   14SAPS    HX 1759   4.567   3.539   3.468 -3.0720  1.8120 -2.0480
   14SAPS    HY 1760   4.615   3.662   3.353  1.5127  0.8768  2.4586
   14SAPS   O31 1761   4.773   3.552   3.425  0.1762 -0.9078  0.2773
   14SAPS   C31 1762   4.809   3.449   3.501 -0.5239  0.2605  0.3631
   14SAPS   O32 1763   4.734   3.353   3.519 -0.4130 -0.4634 -0.9056
   14SAPS   C32 1764   4.953   3.476   3.550 -0.5531  0.0352  0.5528
   14SAPS   H2X 1765   4.979   3.565   3.488 -2.1378  0.0681 -0.1020
   14SAPS   H2Y 1766   5.011   3.391   3.508 -1.8361  0.1558 -1.6640
   14SAPS   C23 1767   4.154   3.377   3.431 -0.0728  0.4548 -0.0125
   14SAPS   H3R 1768   4.218   3.315   3.497  1.3581  2.8630  0.9973
   14SAPS   H3S 1769   4.073   3.308   3.397 -0.3693  0.9267 -0.2664
   14SAPS   C24 1770   4.069   3.481   3.510 -0.3276 -0.0593  0.4841
   14SAPS   H4R 1771   4.007   3.544   3.443 -0.3008 -0.7080 -0.1567
   14SAPS   H4S 1772   4.137   3.539   3.576 -0.9168  0.5300  0.5715
   14SAPS   C25 1773   3.969   3.412   3.605 -0.0358 -0.3326  0.2416
   14SAPS   H5R 1774   3.874   3.374   3.565  0.4833 -0.1612 -1.2140
   14SAPS   C26 1775   3.997   3.371   3.727 -0.8627 -0.0584 -0.3613
   14SAPS   H6R 1776   3.921   3.311   3.780 -0.4519 -1.5851 -1.4425
   14SAPS   C27 1777   4.126   3.378   3.792 -0.7830  0.2478 -0.2731
   14SAPS   H7R 1778   4.135   3.453   3.874  0.3230 -0.6749  0.4862
   14SAPS   H7S 1779   4.208   3.412   3.726 -0.0240  0.1271  0.5807
   14SAPS   C28 1780   4.179   3.241   3.839  0.5011  0.3041 -0.2660
   14SAPS   H8R 1781   4.185   3.162   3.761  0.1917  2.1344 -2.2335
   14SAPS   C29 1782   4.222   3.213   3.960  0.4392 -0.2799 -0.2675
   14SAPS   H9R 1783   4.255   3.110   3.979  1.1138  0.2288  1.5086
   14SAPS  C210 1784   4.235   3.315   4.073 -0.6494 -0.3547  0.4379
   14SAPS  H10R 1785   4.150   3.387   4.071  1.0120  1.6659 -1.3276
   14SAPS  H10S 1786   4.328   3.374   4.062 -0.9096 -0.4716 -4.0138
   14SAPS  C211 1787   4.246   3.232   4.205  0.1086 -0.7361  0.2828
   14SAPS  H11R 1788   4.167   3.156   4.209 -1.9674  1.2262 -1.1626
   14SAPS  C212 1789   4.337   3.241   4.306 -1.1253 -0.1110 -0.7096
   14SAPS  H12R 1790   4.313   3.171   4.388 -1.5512 -1.6046 -2.0528
   14SAPS  C213 1791   4.445   3.348   4.329  0.4103 -0.7606 -0.4340
   14SAPS  H13R 1792   4.429   3.400   4.426 -0.5671 -1.3748 -0.2560
   14SAPS  H13S 1793   4.442   3.427   4.251  2.5070  1.0000  1.1230
   14SAPS  C214 1794   4.578   3.278   4.317 -0.3928 -0.5185  0.1250
   14SAPS  H14R 1795   4.619   3.212   4.395  0.5440 -0.9423 -0.6936
   14SAPS  C215 1796   4.672   3.299   4.226 -0.7291  0.6341  0.0386
   14SAPS  H15R 1797   4.764   3.238   4.227 -0.9897  0.2437  0.4881
   14SAPS  C216 1798   4.668   3.376   4.098  0.6197 -0.2558 -0.6602
   14SAPS  H16R 1799   4.764   3.427   4.073 -0.9666  2.9418 -0.6246
   14SAPS  H16S 1800   4.599   3.462   4.111 -1.2412 -1.9310  1.2413
   14SAPS  C217 1801   4.617   3.292   3.974 -0.2452  0.1740  0.1382
   14SAPS  H17R 1802   4.515   3.250   3.992 -0.1322 -0.6111 -0.9603
   14SAPS  H17S 1803   4.693   3.217   3.944  0.0247  0.6515 -0.3823
   14SAPS  C218 1804   4.607   3.382   3.851 -0.1735  0.2550 -0.0561
   14SAPS  H18R 1805   4.581   3.311   3.769  1.8100  0.5460 -1.0071
   14SAPS  H18S 1806   4.702   3.434   3.828  0.3997 -0.2662  1.0552
   14SAPS  C219 1807   4.487   3.479   3.858  0.0679 -0.4758 -0.0319
   14SAPS  H19R 1808   4.508   3.554   3.937 -1.4575 -0.3658  0.2930
   14SAPS  H19S 1809   4.398   3.423   3.893 -1.1702  1.8489  0.7604
   14SAPS  C220 1810   4.461   3.555   3.722 -0.4760  0.3917 -0.1808
   14SAPS  H20R 1811   4.558   3.586   3.677  0.6431 -2.0649  0.3536
   14SAPS  H20S 1812   4.401   3.648   3.731 -0.3378  0.7460 -2.3257
   14SAPS  H20T 1813   4.408   3.481   3.658 -1.4623 -0.4799  1.5888
   14SAPS   C33 1814   4.987   3.491   3.701 -0.6026 -0.2288  0.1812
   14SAPS   H3X 1815   5.098   3.492   3.707 -0.6078 -1.3336  0.8306
   14SAPS   H3Y 1816   4.960   3.401   3.761  2.4731  0.1471  2.3584
   14SAPS   C34 1817   4.927   3.624   3.757  0.0115  0.4812 -0.4694
   14SAPS   H4X 1818   4.828   3.635   3.708  0.7169  1.1989 -1.7987
   14SAPS   H4Y 1819   4.995   3.703   3.718  0.7936  0.7533  1.3659
   14SAPS   C35 1820   4.917   3.639   3.909 -0.3563 -0.1456 -0.0244
   14SAPS   H5X 1821   5.020   3.653   3.948  0.2965  1.0292 -2.0297
   14SAPS   H5Y 1822   4.871   3.546   3.947  3.1813 -2.0489 -0.0088
   14SAPS   C36 1823   4.834   3.752   3.956 -0.0622 -0.6163 -0.0354
   14SAPS   H6X 1824   4.815   3.737   4.064 -2.5887  1.1607 -0.1400
   14SAPS   H6Y 1825   4.734   3.766   3.908 -0.9373 -2.3039  1.1645
   14SAPS   C37 1826   4.900   3.888   3.925  0.2550  0.3952 -0.7053
   14SAPS   H7X 1827   4.828   3.966   3.955  1.5601  1.3173  0.1276
   14SAPS   H7Y 1828   4.920   3.890   3.816  0.4483  1.2880 -0.6575
   14SAPS   C38 1829   5.026   3.913   4.013 -1.0179  0.4161 -0.6751
   14SAPS   H8X 1830   5.112   3.854   3.975 -0.2819  0.8634  0.2528
   14SAPS   H8Y 1831   5.007   3.865   4.112  0.9251 -1.3068 -1.0678
   14SAPS   C39 1832   5.071   4.055   4.003 -0.6296  0.1691  0.7315
   14SAPS   H9X 1833   4.982   4.119   4.023 -1.0443  1.1665 -3.4438
   14SAPS   H9Y 1834   5.114   4.068   3.902 -0.3454 -1.7460  0.5879
   14SAPS  C310 1835   5.190   4.081   4.089  0.3616 -0.3925 -0.3960
   14SAPS  H10X 1836   5.280   4.030   4.050 -0.1231 -2.4090  0.9184
   14SAPS  H10Y 1837   5.175   4.058   4.197 -0.1685 -0.2503 -0.4358
   14SAPS  C311 1838   5.228   4.230   4.108 -0.1556 -0.0199  0.4031
   14SAPS  H11X 1839   5.313   4.232   4.180 -0.1782 -3.3736  0.6498
   14SAPS  H11Y 1840   5.144   4.276   4.163 -0.3381  1.3258 -0.9267
   14SAPS  C312 1841   5.272   4.308   3.982 -0.7121 -0.1316  0.4041
   14SAPS  H12X 1842   5.194   4.294   3.904 -0.1643 -1.2951  0.0305
   14SAPS  H12Y 1843   5.364   4.265   3.939 -1.2907  0.8260 -1.9175
   14SAPS  C313 1844   5.285   4.459   4.006  0.1996 -0.5121 -0.3470
   14SAPS  H13X 1845   5.387   4.486   3.971 -0.1405  0.6861 -0.4833
   14SAPS  H13Y 1846   5.282   4.487   4.114  1.7678  1.5373 -0.7750
   14SAPS  C314 1847   5.189   4.547   3.927 -0.7060  0.2377 -0.0383
   14SAPS  H14X 1848   5.084   4.532   3.961 -1.8641  0.8777 -3.0725
   14SAPS  H14Y 1849   5.190   4.504   3.825  0.7051 -1.6702  0.7132
   14SAPS  C315 1850   5.227   4.694   3.921  0.1024  0.4952 -0.0235
   14SAPS  H15X 1851   5.329   4.703   3.878  0.2671 -1.4402 -0.1250
   14SAPS  H15Y 1852   5.245   4.720   4.028  1.8290 -0.7888  0.0376
   14SAPS  C316 1853   5.126   4.787   3.859 -0.2028 -1.0507  0.2099
   14SAPS  H16X 1854   5.030   4.784   3.916 -2.7869  3.3801 -3.2712
   14SAPS  H16Y 1855   5.100   4.748   3.758 -0.2417  1.0229 -0.6149
   14SAPS  C317 1856   5.185   4.920   3.834 -0.4154  0.0963 -0.6756
   14SAPS  H17X 1857   5.106   4.988   3.794 -1.6279 -1.3791 -0.9048
   14SAPS  H17Y 1858   5.269   4.915   3.762 -0.5393 -1.2051 -0.7587
   14SAPS  C318 1859   5.233   4.997   3.953 -0.1735  0.0865  0.9683
   14SAPS  H18X 1860   5.300   4.936   4.018 -1.1343  0.4993  2.3886
   14SAPS  H18Y 1861   5.156   5.021   4.028  1.1785 -1.4982  2.9673
   14SAPS  H18Z 1862   5.286   5.094   3.938 -1.4983  0.3088 -4.3222
   15SAPS     N 1863   5.348   5.189   2.729 -0.1210 -0.8373  0.2939
   15SAPS   HN1 1864   5.318   5.236   2.817 -1.3302 -1.9450  0.5147
   15SAPS   HN2 1865   5.281   5.110   2.718 -0.9412 -0.5958  2.9221
   15SAPS   HN3 1866   5.445   5.155   2.742 -0.2623 -0.8935  1.3163
   15SAPS   C12 1867   5.344   5.268   2.600 -0.1972 -0.3116  0.0957
   15SAPS  H12A 1868   5.447   5.289   2.576  0.2460 -1.2117  1.1422
   15SAPS   C13 1869   5.276   5.210   2.477  0.2877  0.5967 -0.1091
   15SAPS  O13A 1870   5.269   5.085   2.472 -0.4298 -0.4369 -0.3972
   15SAPS  O13B 1871   5.284   5.284   2.377  0.0880  0.3971 -0.0101
   15SAPS   C11 1872   5.257   5.397   2.628  0.5531  0.1326 -0.1996
   15SAPS  H11A 1873   5.152   5.363   2.644  1.1531 -1.3374  0.9404
   15SAPS  H11B 1874   5.254   5.454   2.533 -2.5210  0.0056 -0.2895
   15SAPS     P 1875   5.430   5.588   2.711 -0.2101 -0.1790  0.2904
   15SAPS   O13 1876   5.545   5.502   2.730  0.3732  0.3122  0.3614
   15SAPS   O14 1877   5.421   5.675   2.590 -0.0518  0.7512 -0.3225
   15SAPS   O12 1878   5.306   5.493   2.724  0.3563  0.3397  0.4300
   15SAPS   O11 1879   5.412   5.682   2.842  0.3781 -0.3696 -0.4608
   15SAPS    C1 1880   5.355   5.627   2.962  0.2142 -0.5614 -0.0636
   15SAPS    HA 1881   5.341   5.517   2.959  0.1593 -0.6112  1.4682
   15SAPS    HB 1882   5.430   5.647   3.042  0.2143 -1.0088  0.0506
   15SAPS    C2 1883   5.227   5.703   3.012  0.0467 -0.1988  0.0966
   15SAPS    HS 1884   5.243   5.807   2.977  0.3992 -0.0766  0.6005
   15SAPS   O21 1885   5.197   5.692   3.154  0.1391  0.4032  0.7796
   15SAPS   C21 1886   5.106   5.788   3.195 -0.4529  1.1576  0.6694
   15SAPS   O22 1887   5.067   5.878   3.121  0.3608  0.0036  0.0866
   15SAPS   C22 1888   5.056   5.758   3.340 -0.1609  0.5590 -0.6972
   15SAPS   H2R 1889   5.134   5.695   3.390 -1.3174  0.5210  1.1680
   15SAPS   H2S 1890   5.057   5.865   3.371 -0.4344  1.1152 -2.5299
   15SAPS    C3 1891   5.107   5.648   2.940  0.4112  0.4575  0.1413
   15SAPS    HX 1892   5.141   5.643   2.834 -0.0781 -0.6363  0.0276
   15SAPS    HY 1893   5.027   5.725   2.941 -0.2185 -0.1373 -1.4516
   15SAPS   O31 1894   5.070   5.513   2.987 -0.4700 -0.2398 -0.0498
   15SAPS   C31 1895   4.950   5.514   3.043 -0.6346  0.6436  0.2801
   15SAPS   O32 1896   4.875   5.609   3.056 -0.5468  0.7684 -0.4798
   15SAPS   C32 1897   4.925   5.374   3.100 -0.2861  0.4689  0.0220
   15SAPS   H2X 1898   5.021   5.358   3.154  0.0922  1.7363 -0.2506
   15SAPS   H2Y 1899   4.921   5.311   3.008  2.2774  1.4994 -0.8756
   15SAPS   C23 1900   4.907   5.701   3.354 -0.5143  0.4739 -0.0043
   15SAPS   H3R 1901   4.916   5.598   3.312 -0.0468  1.0090 -1.2618
   15SAPS   H3S 1902   4.835   5.758   3.292 -2.3540  2.6628  3.8036
   15SAPS   C24 1903   4.855   5.707   3.502  0.4517 -0.2096  0.0397
   15SAPS   H4R 1904   4.745   5.694   3.513  0.4160 -0.8240 -0.9390
   15SAPS   H4S 1905   4.863   5.809   3.546  0.6287 -0.0778 -0.2959
   15SAPS   C25 1906   4.927   5.606   3.587 -0.5154  0.4619 -0.0777
   15SAPS   H5R 1907   4.961   5.518   3.530  2.2285  1.3166  0.0865
   15SAPS   C26 1908   4.981   5.635   3.704 -0.6257  0.8396  0.4203
   15SAPS   H6R 1909   5.030   5.549   3.752  0.8284  1.5380  0.2560
   15SAPS   C27 1910   4.964   5.760   3.779 -0.0815  0.3835 -0.6093
   15SAPS   H7R 1911   4.961   5.853   3.718  2.5097  2.1996  1.7409
   15SAPS   H7S 1912   5.053   5.780   3.844 -0.8441  4.0630 -0.4639
   15SAPS   C28 1913   4.846   5.757   3.871  0.2621  1.0564  0.1526
   15SAPS   H8R 1914   4.749   5.781   3.826  0.0811  0.0806 -0.0115
   15SAPS   C29 1915   4.845   5.752   4.008  0.6324 -0.0578  0.4581
   15SAPS   H9R 1916   4.753   5.761   4.067  0.6230 -0.7758  0.5674
   15SAPS  C210 1917   4.966   5.704   4.088 -0.1122 -0.2463  0.2950
   15SAPS  H10R 1918   5.019   5.780   4.149 -0.8374 -0.6758  1.5041
   15SAPS  H10S 1919   5.049   5.660   4.030 -1.2461 -1.5453 -0.4177
   15SAPS  C211 1920   4.927   5.599   4.180 -0.1549 -0.0368 -0.2926
   15SAPS  H11R 1921   4.903   5.509   4.122 -2.0895  1.2678 -1.6380
   15SAPS  C212 1922   4.918   5.603   4.314 -0.1851 -0.1665 -0.0977
   15SAPS  H12R 1923   4.875   5.523   4.376 -1.3436  0.7586  0.3224
   15SAPS  C213 1924   4.937   5.713   4.407 -0.6881 -0.5432 -0.2278
   15SAPS  H13R 1925   4.851   5.782   4.411  0.9353  1.7965 -2.5762
   15SAPS  H13S 1926   5.018   5.776   4.364 -0.2189 -0.8683  0.1584
   15SAPS  C214 1927   4.987   5.672   4.548  0.1140 -0.1325  0.2326
   15SAPS  H14R 1928   5.095   5.675   4.568 -0.0771  0.4535  1.1996
   15SAPS  C215 1929   4.910   5.650   4.651 -0.6244  0.2098 -0.0044
   15SAPS  H15R 1930   4.957   5.623   4.746  0.6765 -0.9440 -0.9271
   15SAPS  C216 1931   4.763   5.663   4.652 -0.3249 -0.0273 -0.2079
   15SAPS  H16R 1932   4.713   5.595   4.725  0.2349 -0.5752 -0.3245
   15SAPS  H16S 1933   4.729   5.630   4.551 -1.3120 -3.4720  1.0851
   15SAPS  C217 1934   4.706   5.810   4.684  0.3696 -0.2979 -0.0066
   15SAPS  H17R 1935   4.597   5.807   4.701 -0.2775  2.1510 -2.8693
   15SAPS  H17S 1936   4.744   5.879   4.606  1.9055  0.3004  1.2125
   15SAPS  C218 1937   4.763   5.863   4.816  0.6167 -0.1816 -0.1086
   15SAPS  H18R 1938   4.873   5.879   4.817  0.2141  3.3069  0.5254
   15SAPS  H18S 1939   4.746   5.780   4.888  1.0658  1.0912  1.5295
   15SAPS  C219 1940   4.709   6.002   4.859 -0.2939  0.3280  0.4965
   15SAPS  H19R 1941   4.757   6.025   4.956  0.2878  2.5609 -0.2637
   15SAPS  H19S 1942   4.599   6.001   4.877 -0.7028 -0.2620 -1.6706
   15SAPS  C220 1943   4.734   6.121   4.753 -0.8203  0.2568  0.1741
   15SAPS  H20R 1944   4.691   6.100   4.652 -0.7409  2.6363 -0.4259
   15SAPS  H20S 1945   4.844   6.135   4.755 -0.4455 -2.2663 -0.1245
   15SAPS  H20T 1946   4.677   6.210   4.789 -0.3154  0.2082  1.1184
   15SAPS   C33 1947   4.802   5.366   3.183  0.2354  0.8938 -0.3041
   15SAPS   H3X 1948   4.776   5.461   3.234 -2.0115  0.1923 -0.0334
   15SAPS   H3Y 1949   4.812   5.285   3.259 -0.3540 -0.8290 -1.9754
   15SAPS   C34 1950   4.677   5.334   3.096  0.0395 -0.4247 -0.3063
   15SAPS   H4X 1951   4.682   5.233   3.050  1.4530 -0.6406  0.2976
   15SAPS   H4Y 1952   4.686   5.407   3.012 -1.0915 -0.8395 -0.8131
   15SAPS   C35 1953   4.540   5.369   3.161 -0.2542  0.3730 -0.2543
   15SAPS   H5X 1954   4.458   5.312   3.112  0.7014 -0.5927 -0.7616
   15SAPS   H5Y 1955   4.512   5.477   3.161 -1.2836  0.1998  2.6456
   15SAPS   C36 1956   4.538   5.335   3.310  0.2218 -0.1416  0.3326
   15SAPS   H6X 1957   4.591   5.414   3.368 -0.1501 -0.9876  1.8935
   15SAPS   H6Y 1958   4.592   5.240   3.332  0.3035 -0.2713 -0.4009
   15SAPS   C37 1959   4.398   5.333   3.366 -0.2673  0.4882 -0.2843
   15SAPS   H7X 1960   4.338   5.256   3.312  0.1364  1.0773 -1.6113
   15SAPS   H7Y 1961   4.362   5.432   3.331 -1.1085  0.9227  1.6709
   15SAPS   C38 1962   4.378   5.316   3.523 -0.0258 -0.2519  0.3126
   15SAPS   H8X 1963   4.402   5.211   3.548  0.2475 -0.0085  1.0818
   15SAPS   H8Y 1964   4.271   5.340   3.540  0.2309  0.5288  0.9024
   15SAPS   C39 1965   4.450   5.422   3.601  0.4892 -0.0019 -0.1275
   15SAPS   H9X 1966   4.423   5.520   3.558  1.2187  0.9865  1.5725
   15SAPS   H9Y 1967   4.560   5.412   3.584  0.0924 -0.8386 -2.6455
   15SAPS  C310 1968   4.428   5.395   3.750  0.8838  0.1996 -0.1036
   15SAPS  H10X 1969   4.478   5.302   3.785  1.5898  1.4980  2.6775
   15SAPS  H10Y 1970   4.321   5.365   3.761  1.0868 -0.9988 -1.2131
   15SAPS  C311 1971   4.470   5.508   3.847  0.0939 -0.1029  0.3810
   15SAPS  H11X 1972   4.412   5.595   3.811 -0.5551 -0.4651  0.5253
   15SAPS  H11Y 1973   4.576   5.532   3.823 -0.1066  0.8709  0.4432
   15SAPS  C312 1974   4.444   5.481   3.992 -0.6932  0.4577 -0.7732
   15SAPS  H12X 1975   4.520   5.408   4.027 -1.8719 -0.5432 -0.2159
   15SAPS  H12Y 1976   4.340   5.446   4.009  0.2063 -1.7934  0.4918
   15SAPS  C313 1977   4.472   5.612   4.073 -0.3472 -0.3992 -0.3492
   15SAPS  H13X 1978   4.396   5.688   4.044  0.3449 -0.2067 -1.7467
   15SAPS  H13Y 1979   4.572   5.653   4.047 -0.1244 -1.2039 -0.8259
   15SAPS  C314 1980   4.481   5.601   4.226  0.5582  0.4040  0.0092
   15SAPS  H14X 1981   4.484   5.702   4.272 -1.2256  1.0459 -1.1561
   15SAPS  H14Y 1982   4.569   5.545   4.264 -0.7732 -0.4176  2.1082
   15SAPS  C315 1983   4.350   5.526   4.276  0.4546 -0.1465 -0.0266
   15SAPS  H15X 1984   4.354   5.416   4.258 -1.0225  0.1747 -3.0928
   15SAPS  H15Y 1985   4.259   5.565   4.225 -0.9034 -1.1791  1.4872
   15SAPS  C316 1986   4.318   5.554   4.428  0.1958  0.9591 -0.2727
   15SAPS  H16X 1987   4.239   5.633   4.433  0.5645  1.3788 -0.9140
   15SAPS  H16Y 1988   4.417   5.595   4.454 -0.3002  2.1237 -0.1580
   15SAPS  C317 1989   4.277   5.442   4.522 -0.1527  0.1652 -0.2843
   15SAPS  H17X 1990   4.335   5.351   4.495 -0.4618  0.0194 -0.4598
   15SAPS  H17Y 1991   4.168   5.420   4.518 -0.1692 -0.6350  2.3389
   15SAPS  C318 1992   4.328   5.478   4.666 -0.3545  0.0158 -0.6794
   15SAPS  H18X 1993   4.283   5.407   4.739  0.8226  1.3939  1.4788
   15SAPS  H18Y 1994   4.294   5.580   4.693 -0.6963  0.2670 -1.9824
   15SAPS  H18Z 1995   4.439   5.481   4.676 -0.3273 -1.8154  0.0367
   16SAPS     N 1996   5.010   4.595   2.943  0.4619  0.0139 -0.6505
   16SAPS   HN1 1997   5.080   4.640   3.006  0.7790  0.9184 -1.6176
   16SAPS   HN2 1998   4.946   4.533   2.996 -1.7437  1.3259 -1.6336
   16SAPS   HN3 1999   5.054   4.526   2.880  1.1323 -1.8572  1.7217
   16SAPS   C12 2000   4.928   4.697   2.874  0.1182 -0.8145 -0.0065
   16SAPS  H12A 2001   4.873   4.758   2.944  0.2669 -1.8479  1.0423
   16SAPS   C13 2002   5.019   4.782   2.776  0.2229 -0.3004 -0.0689
   16SAPS  O13A 2003   5.129   4.739   2.742  0.1613  0.1949  0.0154
   16SAPS  O13B 2004   4.964   4.883   2.725 -0.2270 -0.5990  0.4118
   16SAPS   C11 2005   4.815   4.633   2.789 -0.6099  0.3815 -0.4373
   16SAPS  H11A 2006   4.851   4.580   2.698 -0.9627  2.3012 -1.7579
   16SAPS  H11B 2007   4.758   4.723   2.756 -0.2955  0.8605  0.2994
   16SAPS     P 2008   4.635   4.446   2.812  0.0931 -0.0998  0.3063
   16SAPS   O13 2009   4.561   4.521   2.710  0.3116  0.4039 -0.5560
   16SAPS   O14 2010   4.702   4.324   2.763  0.0756 -0.1168 -0.1056
   16SAPS   O12 2011   4.735   4.549   2.875 -0.3361  0.5494 -0.0456
   16SAPS   O11 2012   4.538   4.412   2.922  0.1483 -0.3840  0.1312
   16SAPS    C1 2013   4.540   4.449   3.058 -0.0001  0.6870 -0.3195
   16SAPS    HA 2014   4.626   4.515   3.084 -1.1082  2.3230 -0.5975
   16SAPS    HB 2015   4.445   4.502   3.080 -1.0499 -0.9234 -0.8671
   16SAPS    C2 2016   4.565   4.324   3.136 -0.0693  0.1925  0.1080
   16SAPS    HS 2017   4.621   4.251   3.074 -1.7412 -2.3578  1.4325
   16SAPS   O21 2018   4.439   4.268   3.163 -0.1739 -0.8101  0.2230
   16SAPS   C21 2019   4.443   4.138   3.207  0.5408  0.1037  0.1803
   16SAPS   O22 2020   4.538   4.063   3.207 -0.4664  0.5740 -0.7401
   16SAPS   C22 2021   4.293   4.105   3.234 -0.1278 -0.0607  0.6440
   16SAPS   H2R 2022   4.247   4.173   3.310 -1.6081 -2.2223  1.8123
   16SAPS   H2S 2023   4.234   4.121   3.141  0.2542 -0.4129  0.3382
   16SAPS    C3 2024   4.645   4.353   3.268  0.5873  0.4115  0.5663
   16SAPS    HX 2025   4.743   4.391   3.231  1.6509 -1.6602  1.1297
   16SAPS    HY 2026   4.654   4.260   3.328  0.4935 -0.7301 -1.1199
   16SAPS   O31 2027   4.579   4.460   3.332  0.2161 -0.6447  0.0768
   16SAPS   C31 2028   4.477   4.420   3.415  0.3592 -0.4887 -0.2514
   16SAPS   O32 2029   4.454   4.307   3.447 -0.3947 -0.4642  0.2915
   16SAPS   C32 2030   4.403   4.546   3.469 -0.1777  0.1328 -0.6510
   16SAPS   H2X 2031   4.344   4.587   3.384  0.8493  0.1875 -1.3563
   16SAPS   H2Y 2032   4.484   4.617   3.493  0.4703 -0.9601  0.5555
   16SAPS   C23 2033   4.275   3.954   3.267 -0.4207 -0.6805 -0.0356
   16SAPS   H3R 2034   4.337   3.933   3.357  1.2253  0.7498 -0.7886
   16SAPS   H3S 2035   4.313   3.894   3.182  1.1682 -0.3924  0.4436
   16SAPS   C24 2036   4.124   3.917   3.290  0.6031  0.7852 -0.6411
   16SAPS   H4R 2037   4.112   3.807   3.295  0.0556  0.9019  1.2877
   16SAPS   H4S 2038   4.064   3.937   3.198  0.7820  0.2832 -0.8689
   16SAPS   C25 2039   4.050   3.990   3.397  0.1333  0.0383 -0.1314
   16SAPS   H5R 2040   4.009   4.087   3.365 -0.6482 -0.1447  0.2953
   16SAPS   C26 2041   4.011   3.939   3.522 -0.1244 -0.7395 -0.3624
   16SAPS   H6R 2042   3.962   4.009   3.591 -0.1806  0.7719 -1.8518
   16SAPS   C27 2043   4.057   3.808   3.579  0.1589  0.0914  0.0073
   16SAPS   H7R 2044   4.151   3.773   3.530  0.4035 -1.0120  1.2088
   16SAPS   H7S 2045   3.978   3.731   3.570 -0.6165  0.7907  0.6633
   16SAPS   C28 2046   4.101   3.809   3.724 -0.0655 -0.4797 -0.6664
   16SAPS   H8R 2047   4.209   3.816   3.737 -0.2000 -0.7370  0.7261
   16SAPS   C29 2048   4.005   3.796   3.825 -0.6786  0.0839  0.0907
   16SAPS   H9R 2049   4.052   3.801   3.925 -1.0061 -0.4422  0.2708
   16SAPS  C210 2050   3.854   3.772   3.817  0.4830 -0.3546 -0.0218
   16SAPS  H10R 2051   3.815   3.755   3.714 -2.3107  0.3984  0.8371
   16SAPS  H10S 2052   3.805   3.868   3.843 -1.3229 -1.5149  1.0246
   16SAPS  C211 2053   3.815   3.666   3.922 -0.5806  0.3854 -0.4334
   16SAPS  H11R 2054   3.850   3.565   3.894  1.5118  0.7147  0.7785
   16SAPS  C212 2055   3.753   3.673   4.045  0.6068 -1.0489 -0.3551
   16SAPS  H12R 2056   3.717   3.588   4.104  1.6708 -1.7119 -0.6232
   16SAPS  C213 2057   3.699   3.806   4.098 -0.2929  0.3905 -0.3925
   16SAPS  H13R 2058   3.737   3.892   4.039 -0.9351  1.0475  0.1407
   16SAPS  H13S 2059   3.742   3.813   4.201 -1.7987 -0.7055  0.3490
   16SAPS  C214 2060   3.547   3.807   4.116  0.0683  0.1595  0.8982
   16SAPS  H14R 2061   3.511   3.737   4.192  0.1931  1.2211  1.9530
   16SAPS  C215 2062   3.460   3.859   4.025  0.1232  0.0408 -0.5590
   16SAPS  H15R 2063   3.351   3.849   4.032  0.2993 -1.2522  0.5940
   16SAPS  C216 2064   3.503   3.949   3.909 -0.3630  0.5885 -0.0450
   16SAPS  H16R 2065   3.600   4.001   3.927  0.0821  0.5350 -2.0507
   16SAPS  H16S 2066   3.435   4.036   3.894  0.8028  1.5905  0.3097
   16SAPS  C217 2067   3.505   3.879   3.777 -0.1186 -0.0125 -0.4559
   16SAPS  H17R 2068   3.416   3.814   3.760  0.4454 -1.5367  1.9418
   16SAPS  H17S 2069   3.587   3.805   3.775 -1.0235 -1.0989  1.0884
   16SAPS  C218 2070   3.515   3.981   3.654  0.3285 -0.0224 -0.3307
   16SAPS  H18R 2071   3.441   4.064   3.656 -1.0870 -1.1926  3.1604
   16SAPS  H18S 2072   3.499   3.929   3.557  1.4773 -0.4640 -0.2943
   16SAPS  C219 2073   3.657   4.044   3.650  0.3535  0.0116  0.4598
   16SAPS  H19R 2074   3.734   3.965   3.663  0.0905 -0.4485 -0.6251
   16SAPS  H19S 2075   3.677   4.110   3.737  1.6785  1.5018 -0.9011
   16SAPS  C220 2076   3.680   4.125   3.520 -0.6804 -0.0338 -0.4065
   16SAPS  H20R 2077   3.606   4.206   3.500  0.3300  0.8620 -0.6401
   16SAPS  H20S 2078   3.670   4.052   3.438 -0.8073 -0.2371 -0.2118
   16SAPS  H20T 2079   3.783   4.166   3.530 -1.1270  0.7838  1.3571
   16SAPS   C33 2080   4.303   4.548   3.586  0.3043  0.2741  0.2368
   16SAPS   H3X 2081   4.231   4.465   3.570  1.1880 -1.5986  4.4983
   16SAPS   H3Y 2082   4.263   4.652   3.593 -0.3230 -0.0608  2.7642
   16SAPS   C34 2083   4.376   4.522   3.721  0.7586  0.4141  0.3656
   16SAPS   H4X 2084   4.486   4.532   3.710  0.7682  0.4219  0.4710
   16SAPS   H4Y 2085   4.352   4.420   3.758  0.5006 -0.2025 -1.4088
   16SAPS   C35 2086   4.333   4.629   3.821  0.4636 -0.2403 -0.8298
   16SAPS   H5X 2087   4.224   4.621   3.840  0.3268  2.7416  0.2359
   16SAPS   H5Y 2088   4.347   4.732   3.783  4.1204  0.8759  2.8363
   16SAPS   C36 2089   4.397   4.619   3.965 -0.0065 -0.4516  0.8335
   16SAPS   H6X 2090   4.375   4.701   4.037  2.6128 -0.4137  1.6900
   16SAPS   H6Y 2091   4.507   4.611   3.957 -0.1260 -1.6594 -0.0480
   16SAPS   C37 2092   4.342   4.488   4.028  0.4483  0.1191  0.2626
   16SAPS   H7X 2093   4.387   4.395   3.987  1.2864 -0.3648  2.1859
   16SAPS   H7Y 2094   4.231   4.482   4.024  0.4144 -3.9418  2.1397
   16SAPS   C38 2095   4.373   4.490   4.182 -0.2719 -0.8596 -0.1305
   16SAPS   H8X 2096   4.335   4.582   4.231 -1.4020 -0.3790 -1.8054
   16SAPS   H8Y 2097   4.481   4.480   4.205 -0.6908  0.6445  3.0258
   16SAPS   C39 2098   4.299   4.371   4.248  0.5330  0.1161  0.1160
   16SAPS   H9X 2099   4.296   4.282   4.182  0.4441  0.4944 -0.4066
   16SAPS   H9Y 2100   4.196   4.407   4.268  0.2198 -0.1617 -0.9137
   16SAPS  C310 2101   4.353   4.321   4.380 -0.1367 -0.2773 -0.3975
   16SAPS  H10X 2102   4.357   4.412   4.444  0.8160 -0.3284 -0.3838
   16SAPS  H10Y 2103   4.455   4.284   4.360 -0.2171 -0.8878  0.2876
   16SAPS  C311 2104   4.260   4.220   4.444  0.0075  0.2106  0.1733
   16SAPS  H11X 2105   4.219   4.149   4.369  1.6243  2.0698 -2.6542
   16SAPS  H11Y 2106   4.175   4.275   4.490  0.1380  1.8376 -1.4236
   16SAPS  C312 2107   4.322   4.125   4.545 -0.0910 -0.2432 -0.1760
   16SAPS  H12X 2108   4.365   4.194   4.621 -1.3761  0.3825 -0.0082
   16SAPS  H12Y 2109   4.402   4.075   4.485  0.6547  1.0488 -0.2847
   16SAPS  C313 2110   4.236   4.017   4.603  0.3264 -0.3255 -0.2151
   16SAPS  H13X 2111   4.186   3.957   4.524 -2.3162  3.7509 -2.0194
   16SAPS  H13Y 2112   4.154   4.075   4.651  0.1386 -0.0880 -0.8162
   16SAPS  C314 2113   4.302   3.932   4.713  0.5873  0.1051 -0.3658
   16SAPS  H14X 2114   4.328   3.991   4.803 -0.8826 -1.5738  1.2542
   16SAPS  H14Y 2115   4.396   3.903   4.661  0.4200  1.1121 -1.2377
   16SAPS  C315 2116   4.209   3.810   4.758 -0.2080  0.2066  0.5604
   16SAPS  H15X 2117   4.161   3.759   4.672 -2.0962  0.3724  1.4740
   16SAPS  H15Y 2118   4.117   3.837   4.814 -0.2424 -2.0951  1.7617
   16SAPS  C316 2119   4.292   3.700   4.821  0.1571  1.5799 -0.7544
   16SAPS  H16X 2120   4.319   3.724   4.926 -0.6857  1.3566 -0.4727
   16SAPS  H16Y 2121   4.389   3.696   4.768  2.1128  2.8861  2.4426
   16SAPS  C317 2122   4.217   3.569   4.820 -0.2754 -0.2374  0.4559
   16SAPS  H17X 2123   4.183   3.548   4.716 -1.7001 -0.0898  0.8598
   16SAPS  H17Y 2124   4.123   3.559   4.879 -0.4973 -0.2827  0.1008
   16SAPS  C318 2125   4.297   3.446   4.867 -0.2419 -0.5624  0.4087
   16SAPS  H18X 2126   4.231   3.360   4.891 -0.0713 -0.2976  1.9039
   16SAPS  H18Y 2127   4.356   3.480   4.955 -0.3404  2.7455 -0.6489
   16SAPS  H18Z 2128   4.371   3.423   4.787 -0.3015  0.9481 -0.1093
   17SAPS     N 2129   2.331   4.213   2.503 -0.4478  0.2629  0.0748
   17SAPS   HN1 2130   2.285   4.270   2.577  0.0520  1.7110 -0.6874
   17SAPS   HN2 2131   2.284   4.123   2.483 -0.7402  0.4323  0.0023
   17SAPS   HN3 2132   2.431   4.198   2.529  0.1858 -2.8105 -3.2611
   17SAPS   C12 2133   2.333   4.293   2.381 -0.3951 -0.5949 -0.1806
   17SAPS  H12A 2134   2.401   4.249   2.309  0.7811 -1.4516  1.3911
   17SAPS   C13 2135   2.190   4.315   2.315 -0.6511 -0.1271  0.0099
   17SAPS  O13A 2136   2.097   4.245   2.358 -0.4429  0.9370 -0.6339
   17SAPS  O13B 2137   2.189   4.365   2.196 -0.4666 -0.0196 -0.2327
   17SAPS   C11 2138   2.394   4.432   2.416 -0.4809 -0.2187 -0.0874
   17SAPS  H11A 2139   2.326   4.484   2.487 -0.4232 -0.8307  0.4318
   17SAPS  H11B 2140   2.392   4.491   2.322 -1.2485 -1.2527 -0.7440
   17SAPS     P 2141   2.616   4.532   2.526  0.2893 -0.3483  0.1439
   17SAPS   O13 2142   2.704   4.485   2.637 -0.9009 -0.2933  0.4484
   17SAPS   O14 2143   2.673   4.601   2.406 -0.1412 -0.3494 -0.8272
   17SAPS   O12 2144   2.529   4.416   2.470 -0.2445 -0.2425 -0.0373
   17SAPS   O11 2145   2.509   4.632   2.595  0.1680 -0.2287  0.6475
   17SAPS    C1 2146   2.445   4.597   2.717  1.0325  0.2949  0.1996
   17SAPS    HA 2147   2.348   4.651   2.720  1.0117  0.4219 -1.6169
   17SAPS    HB 2148   2.424   4.488   2.722  1.1014  0.3097  1.0151
   17SAPS    C2 2149   2.538   4.627   2.838 -0.6653 -0.7206 -0.6273
   17SAPS    HS 2150   2.613   4.545   2.847 -0.6593 -0.5645  0.9661
   17SAPS   O21 2151   2.462   4.648   2.961  0.0832  0.4700  0.2535
   17SAPS   C21 2152   2.392   4.546   3.005  0.5999  0.1821  0.1292
   17SAPS   O22 2153   2.411   4.431   2.967  0.4580 -0.3843  0.1854
   17SAPS   C22 2154   2.295   4.582   3.118 -0.3482  0.2642  0.7102
   17SAPS   H2R 2155   2.206   4.638   3.084 -0.3038  0.7347  1.3362
   17SAPS   H2S 2156   2.257   4.486   3.160 -1.3906 -0.9684 -2.6942
   17SAPS    C3 2157   2.634   4.753   2.825  1.0844  0.8050  0.7913
   17SAPS    HX 2158   2.563   4.834   2.798  1.2376  0.5478 -0.4454
   17SAPS    HY 2159   2.701   4.749   2.736 -1.3519  1.1720 -1.2026
   17SAPS   O31 2160   2.709   4.778   2.949 -0.3861 -0.7120  0.1972
   17SAPS   C31 2161   2.800   4.692   2.975 -0.1931 -0.4473 -0.2637
   17SAPS   O32 2162   2.844   4.607   2.899 -0.1430  0.1396 -0.5887
   17SAPS   C32 2163   2.861   4.714   3.119  0.2277 -0.4644  0.1732
   17SAPS   H2X 2164   2.768   4.716   3.180 -0.1693  2.0275 -0.4199
   17SAPS   H2Y 2165   2.915   4.810   3.127 -0.0376 -0.2419 -0.5831
   17SAPS   C23 2166   2.378   4.655   3.224 -0.6360 -0.4962  0.2032
   17SAPS   H3R 2167   2.313   4.659   3.314 -0.5707 -1.5238  0.3065
   17SAPS   H3S 2168   2.395   4.759   3.189 -0.3436 -0.7173 -0.3150
   17SAPS   C24 2169   2.505   4.583   3.273  0.5271 -0.5704  0.1185
   17SAPS   H4R 2170   2.547   4.640   3.359  2.2222 -1.8317  0.1720
   17SAPS   H4S 2171   2.584   4.578   3.195 -1.3419 -2.0957 -1.7968
   17SAPS   C25 2172   2.484   4.442   3.322 -0.0720 -0.5028 -0.0255
   17SAPS   H5R 2173   2.477   4.382   3.231  0.7759  0.0937 -0.4945
   17SAPS   C26 2174   2.482   4.391   3.443  0.3017 -0.1326 -0.5562
   17SAPS   H6R 2175   2.496   4.282   3.451 -2.5109 -0.5217  0.2738
   17SAPS   C27 2176   2.502   4.462   3.579  0.3936 -0.2117  0.9780
   17SAPS   H7R 2177   2.463   4.565   3.571 -2.3586 -1.1678  1.1722
   17SAPS   H7S 2178   2.612   4.452   3.589  0.3969 -2.0149 -0.2328
   17SAPS   C28 2179   2.427   4.391   3.682 -0.3818  0.0898  0.0740
   17SAPS   H8R 2180   2.322   4.369   3.659 -1.0692  1.5999  1.5758
   17SAPS   C29 2181   2.466   4.371   3.807 -0.5671  0.3515  0.6560
   17SAPS   H9R 2182   2.402   4.312   3.875 -0.3549 -0.5318  0.1062
   17SAPS  C210 2183   2.595   4.422   3.858  0.0321 -0.1062  0.9763
   17SAPS  H10R 2184   2.638   4.495   3.786 -1.9717 -0.1696 -0.3435
   17SAPS  H10S 2185   2.664   4.335   3.851  0.9367  0.6190  0.7697
   17SAPS  C211 2186   2.578   4.483   3.999 -0.1041 -0.1470  0.4068
   17SAPS  H11R 2187   2.599   4.591   4.003  2.5677 -0.6026  4.1686
   17SAPS  C212 2188   2.573   4.417   4.108 -0.9050  0.1411 -0.4109
   17SAPS  H12R 2189   2.548   4.472   4.200 -0.1322  1.5030 -0.9847
   17SAPS  C213 2190   2.572   4.267   4.139 -0.1207 -0.4492  0.0289
   17SAPS  H13R 2191   2.576   4.205   4.047  0.1236 -1.2465  0.5685
   17SAPS  H13S 2192   2.469   4.253   4.179 -1.5537  3.9776 -1.4604
   17SAPS  C214 2193   2.689   4.200   4.206 -0.1717 -1.0153 -0.3298
   17SAPS  H14R 2194   2.766   4.168   4.133  0.5101  1.2973 -0.7039
   17SAPS  C215 2195   2.691   4.164   4.335 -0.1205  0.5200  0.2961
   17SAPS  H15R 2196   2.786   4.121   4.369 -0.6255 -0.0561  1.0174
   17SAPS  C216 2197   2.590   4.183   4.445 -0.1075  0.5797  0.4280
   17SAPS  H16R 2198   2.511   4.107   4.427 -1.5088  1.2714  3.1990
   17SAPS  H16S 2199   2.537   4.280   4.434  0.4745  0.8449 -0.1161
   17SAPS  C217 2200   2.642   4.159   4.589  0.5420  0.8902 -1.0402
   17SAPS  H17R 2201   2.680   4.055   4.599 -0.4688  0.5042 -1.0793
   17SAPS  H17S 2202   2.554   4.154   4.658 -0.3022  1.3142 -2.0613
   17SAPS  C218 2203   2.738   4.272   4.637 -0.6829 -0.0618  0.1741
   17SAPS  H18R 2204   2.683   4.361   4.673 -0.6425 -0.0197  0.1312
   17SAPS  H18S 2205   2.795   4.306   4.548 -2.0569 -1.4070 -1.3080
   17SAPS  C219 2206   2.830   4.222   4.746  0.2349 -0.1942  0.2578
   17SAPS  H19R 2207   2.911   4.297   4.748 -1.3704  1.5950  1.0150
   17SAPS  H19S 2208   2.884   4.129   4.716  0.3970 -0.0114 -0.0259
   17SAPS  C220 2209   2.765   4.218   4.885  0.5035  0.2404  0.2435
   17SAPS  H20R 2210   2.735   4.323   4.903  1.0848  0.6041 -0.8582
   17SAPS  H20S 2211   2.840   4.178   4.957  0.2991 -1.5346 -0.4892
   17SAPS  H20T 2212   2.673   4.155   4.883  0.6338  0.0609 -0.0776
   17SAPS   C33 2213   2.947   4.595   3.165  0.1224  0.2107 -0.1445
   17SAPS   H3X 2214   3.020   4.577   3.083  1.1213  2.8812  0.0384
   17SAPS   H3Y 2215   2.889   4.502   3.180 -2.0155  1.6386  0.9649
   17SAPS   C34 2216   3.023   4.626   3.294 -0.0254 -0.1698  0.1582
   17SAPS   H4X 2217   3.040   4.736   3.291 -2.8832  0.3293 -1.2480
   17SAPS   H4Y 2218   3.119   4.573   3.312  0.4847  1.7429  4.1597
   17SAPS   C35 2219   2.951   4.600   3.419  0.3284 -0.4062  0.2729
   17SAPS   H5X 2220   2.913   4.496   3.411 -5.0666  1.1867  1.1163
   17SAPS   H5Y 2221   2.854   4.653   3.409 -0.1160 -1.2239  0.1340
   17SAPS   C36 2222   3.019   4.641   3.551  0.3279 -0.1042  0.5815
   17SAPS   H6X 2223   3.038   4.750   3.548 -2.2243  0.4817  2.0720
   17SAPS   H6Y 2224   3.107   4.585   3.589 -0.6401 -0.9630  1.6351
   17SAPS   C37 2225   2.925   4.632   3.673  0.1378  0.3852  0.4608
   17SAPS   H7X 2226   2.886   4.529   3.660 -1.0593  0.9541 -0.7609
   17SAPS   H7Y 2227   2.845   4.709   3.673  1.8477  2.2843  2.1955
   17SAPS   C38 2228   3.002   4.637   3.802  0.1701  0.5194 -0.3346
   17SAPS   H8X 2229   3.053   4.736   3.812  1.0311 -0.0376  1.1665
   17SAPS   H8Y 2230   3.074   4.553   3.804 -1.6725 -1.1252 -0.8350
   17SAPS   C39 2231   2.913   4.619   3.927 -0.0961 -1.2451 -0.5322
   17SAPS   H9X 2232   2.862   4.521   3.933 -2.5227  0.0364  2.5220
   17SAPS   H9Y 2233   2.830   4.693   3.926  0.3299 -0.7513 -1.8104
   17SAPS  C310 2234   3.001   4.644   4.046  0.1207 -0.5821 -0.0152
   17SAPS  H10X 2235   3.072   4.728   4.028  0.7704 -1.3738 -1.2530
   17SAPS  H10Y 2236   3.070   4.562   4.074  1.5731  1.2744  2.1916
   17SAPS  C311 2237   2.921   4.672   4.179 -0.1141 -0.5292  0.1222
   17SAPS  H11X 2238   2.851   4.754   4.153  0.2874  0.4471  1.9171
   17SAPS  H11Y 2239   2.992   4.718   4.252 -1.0503  0.3351  0.5087
   17SAPS  C312 2240   2.863   4.552   4.262 -0.4115  0.3525 -0.7788
   17SAPS  H12X 2241   2.813   4.481   4.192 -1.1323 -0.7975  0.8516
   17SAPS  H12Y 2242   2.779   4.589   4.323  0.5752  3.9983 -1.4073
   17SAPS  C313 2243   2.975   4.475   4.349  0.0549 -0.0494  0.4034
   17SAPS  H13X 2244   3.071   4.482   4.294 -0.3082  0.3865 -0.1866
   17SAPS  H13Y 2245   2.941   4.370   4.359  1.3288 -0.5687 -0.5664
   17SAPS  C314 2246   2.997   4.534   4.497  0.3051 -0.1468  0.5119
   17SAPS  H14X 2247   2.903   4.524   4.555 -0.4629 -0.0643 -0.6851
   17SAPS  H14Y 2248   3.024   4.641   4.484 -1.4593  0.2577 -0.1343
   17SAPS  C315 2249   3.109   4.462   4.575  0.1358  0.0654  0.7219
   17SAPS  H15X 2250   3.196   4.457   4.507 -0.6302 -0.0453 -0.2807
   17SAPS  H15Y 2251   3.079   4.357   4.593  1.0245 -0.9550 -3.0253
   17SAPS  C316 2252   3.153   4.516   4.711 -0.2736 -0.0401 -0.4159
   17SAPS  H16X 2253   3.236   4.451   4.747 -2.4526 -1.3404  2.6319
   17SAPS  H16Y 2254   3.067   4.498   4.779 -0.9379  0.8091 -1.0210
   17SAPS  C317 2255   3.184   4.664   4.732 -0.0069  0.0350 -0.7796
   17SAPS  H17X 2256   3.222   4.669   4.836 -1.5372  0.9454 -0.2390
   17SAPS  H17Y 2257   3.087   4.717   4.737  0.1383  0.1599  2.3056
   17SAPS  C318 2258   3.278   4.734   4.638  0.0708  0.1340 -0.3014
   17SAPS  H18X 2259   3.376   4.689   4.611  0.9037  1.7048 -0.0238
   17SAPS  H18Y 2260   3.306   4.834   4.677  2.5927 -0.9057  0.7757
   17SAPS  H18Z 2261   3.232   4.749   4.538 -0.0720 -0.7749 -0.3825
   18SAPS     N 2262   0.427   3.953   2.335  1.0077  0.0245 -0.3747
   18SAPS   HN1 2263   0.382   4.035   2.289 -0.2606  0.0501  0.8452
   18SAPS   HN2 2264   0.373   3.909   2.412  1.0838 -1.9863 -1.4181
   18SAPS   HN3 2265   0.516   3.989   2.376  0.3001 -0.9887  2.2372
   18SAPS   C12 2266   0.465   3.855   2.230  0.3289  0.4596  0.1314
   18SAPS  H12A 2267   0.379   3.812   2.182  0.0044  2.1731 -0.9346
   18SAPS   C13 2268   0.552   3.918   2.118  0.0194 -0.3712 -0.3752
   18SAPS  O13A 2269   0.584   4.039   2.127  0.4140 -0.1116  0.2497
   18SAPS  O13B 2270   0.583   3.855   2.012  0.6761  0.0040 -0.5526
   18SAPS   C11 2271   0.556   3.748   2.284  0.2010  0.5677 -0.0240
   18SAPS  H11A 2272   0.648   3.787   2.332  0.3528  1.8311 -1.2723
   18SAPS  H11B 2273   0.608   3.687   2.207  0.5403 -0.2831  0.8529
   18SAPS     P 2274   0.438   3.520   2.334 -0.3824  0.1676  0.0412
   18SAPS   O13 2275   0.347   3.547   2.216 -0.1263  0.4935 -0.3364
   18SAPS   O14 2276   0.562   3.446   2.308 -0.2036  0.7786 -0.4647
   18SAPS   O12 2277   0.483   3.670   2.380 -0.0493  0.1413  0.1910
   18SAPS   O11 2278   0.360   3.466   2.456 -0.1160  0.0416 -0.3488
   18SAPS    C1 2279   0.234   3.499   2.501  0.5568 -0.5494  0.4498
   18SAPS    HA 2280   0.163   3.469   2.422  0.5913  0.0687  0.1787
   18SAPS    HB 2281   0.221   3.437   2.592  1.1966 -0.6807  0.4579
   18SAPS    C2 2282   0.216   3.647   2.538  0.4355  0.3759  0.5020
   18SAPS    HS 2283   0.240   3.707   2.447 -0.1916 -0.1853 -0.0476
   18SAPS   O21 2284   0.307   3.684   2.646 -0.1044  0.2603 -0.0826
   18SAPS   C21 2285   0.324   3.814   2.660 -0.2891  0.3387 -0.7094
   18SAPS   O22 2286   0.308   3.892   2.571  0.2923 -0.6625 -0.3025
   18SAPS   C22 2287   0.396   3.832   2.792 -0.7953 -0.2055  0.3361
   18SAPS   H2R 2288   0.343   3.766   2.864  0.3863 -1.0156  0.4852
   18SAPS   H2S 2289   0.494   3.781   2.780 -0.4387  0.1695  1.5263
   18SAPS    C3 2290   0.076   3.692   2.573  0.5039 -0.2347  0.2737
   18SAPS    HX 2291   0.023   3.642   2.490  2.6185 -1.5523 -0.3859
   18SAPS    HY 2292   0.060   3.799   2.550 -2.2605 -0.8017 -0.7232
   18SAPS   O31 2293   0.023   3.644   2.700 -0.9435  0.1828  0.2166
   18SAPS   C31 2294   0.026   3.732   2.801  0.2827 -0.2311 -0.3820
   18SAPS   O32 2295   0.053   3.849   2.790  0.1707  0.1127 -0.0410
   18SAPS   C32 2296  -0.011   3.659   2.929 -0.4183  0.2585  0.3561
   18SAPS   H2X 2297   0.075   3.590   2.944  0.9098  1.4704 -1.2191
   18SAPS   H2Y 2298  -0.102   3.599   2.912  1.7651 -3.5508  1.0776
   18SAPS   C23 2299   0.403   3.982   2.831  0.1138  0.5035 -0.9135
   18SAPS   H3R 2300   0.300   4.023   2.835  0.3648  1.2260 -1.6448
   18SAPS   H3S 2301   0.464   4.043   2.760  1.4651  2.0708  1.4764
   18SAPS   C24 2302   0.461   4.001   2.975 -0.4020  0.1799  0.1622
   18SAPS   H4R 2303   0.475   4.107   3.006 -0.1148  0.5862 -1.2892
   18SAPS   H4S 2304   0.561   3.952   2.980  0.4828  1.7439 -1.3428
   18SAPS   C25 2305   0.377   3.930   3.077  0.5078 -0.5756 -0.0351
   18SAPS   H5R 2306   0.279   3.980   3.087  1.3735  1.0391  0.7082
   18SAPS   C26 2307   0.399   3.819   3.157 -0.0110  0.1247 -0.0611
   18SAPS   H6R 2308   0.319   3.796   3.228 -1.0395 -1.3042 -1.6090
   18SAPS   C27 2309   0.516   3.729   3.154 -0.2988 -0.6088  0.2165
   18SAPS   H7R 2310   0.580   3.752   3.242  0.5612 -3.2666  0.3683
   18SAPS   H7S 2311   0.580   3.750   3.065  0.6597  1.3266  1.2865
   18SAPS   C28 2312   0.462   3.586   3.152  0.1224  0.2098 -0.0164
   18SAPS   H8R 2313   0.457   3.550   3.048 -3.1110  0.4413 -0.0529
   18SAPS   C29 2314   0.400   3.512   3.248  0.6063  0.2632 -0.8817
   18SAPS   H9R 2315   0.349   3.419   3.222  0.8608  0.0825 -0.7392
   18SAPS  C210 2316   0.377   3.547   3.390  0.2763  0.7165  0.3639
   18SAPS  H10R 2317   0.323   3.465   3.441  0.4139 -0.9365 -1.9741
   18SAPS  H10S 2318   0.320   3.642   3.400 -0.4822  0.1778  1.3685
   18SAPS  C211 2319   0.505   3.563   3.470 -0.2450  0.3936  0.2454
   18SAPS  H11R 2320   0.599   3.533   3.421 -1.7115 -1.0148 -1.8522
   18SAPS  C212 2321   0.517   3.581   3.600  0.3094  0.5694  0.4605
   18SAPS  H12R 2322   0.610   3.599   3.655  0.0868 -2.7034  2.1763
   18SAPS  C213 2323   0.406   3.593   3.702  0.4780  0.2836  0.1381
   18SAPS  H13R 2324   0.440   3.538   3.793 -3.8352 -0.1595  1.7081
   18SAPS  H13S 2325   0.310   3.553   3.663 -0.1598  0.8692  1.0656
   18SAPS  C214 2326   0.382   3.732   3.748 -0.2570  0.0796  0.0224
   18SAPS  H14R 2327   0.359   3.800   3.665  1.7672 -1.3996 -1.8474
   18SAPS  C215 2328   0.362   3.773   3.877  0.4970  0.1768  0.7735
   18SAPS  H15R 2329   0.324   3.876   3.889 -1.2987 -0.1469 -1.5455
   18SAPS  C216 2330   0.379   3.704   4.008  0.2273  0.3602 -0.0789
   18SAPS  H16R 2331   0.433   3.608   3.997 -3.3892 -1.9843  0.7808
   18SAPS  H16S 2332   0.283   3.674   4.055 -0.0732  0.4538 -0.6190
   18SAPS  C217 2333   0.441   3.783   4.128  0.5547  0.0836  0.0092
   18SAPS  H17R 2334   0.402   3.887   4.127 -1.8313 -0.6944  2.3153
   18SAPS  H17S 2335   0.552   3.788   4.126  0.6104 -0.4359  1.1015
   18SAPS  C218 2336   0.394   3.726   4.268  0.0865  0.0855  0.3798
   18SAPS  H18R 2337   0.285   3.737   4.284  0.0985  0.0793  0.4662
   18SAPS  H18S 2338   0.455   3.783   4.342  0.6614 -0.0564  0.0249
   18SAPS  C219 2339   0.416   3.578   4.275 -0.3296 -0.1359 -0.4262
   18SAPS  H19R 2340   0.521   3.550   4.251  0.6176  1.8328  1.1965
   18SAPS  H19S 2341   0.362   3.524   4.195 -1.3878 -1.2654  1.0063
   18SAPS  C220 2342   0.387   3.508   4.410 -0.3169 -0.9472 -0.2442
   18SAPS  H20R 2343   0.403   3.398   4.408 -0.2213 -0.9454 -2.8821
   18SAPS  H20S 2344   0.292   3.526   4.465 -0.4581 -0.2215 -0.7168
   18SAPS  H20T 2345   0.466   3.546   4.478  0.4676 -2.5467 -0.2309
   18SAPS   C33 2346  -0.022   3.751   3.050  0.7703 -0.2198 -0.2831
   18SAPS   H3X 2347  -0.117   3.808   3.058  1.1513  0.9290 -2.7747
   18SAPS   H3Y 2348   0.058   3.828   3.047 -0.1268  0.7029 -1.7621
   18SAPS   C34 2349  -0.002   3.677   3.182 -0.2468 -0.2860  0.4714
   18SAPS   H4X 2350   0.013   3.747   3.267 -0.8428 -0.8011  1.0064
   18SAPS   H4Y 2351   0.097   3.626   3.173  0.2084  0.5135  0.7813
   18SAPS   C35 2352  -0.112   3.575   3.222 -0.1849 -0.6429 -0.3055
   18SAPS   H5X 2353  -0.144   3.518   3.132  0.9369 -1.6258 -0.1088
   18SAPS   H5Y 2354  -0.197   3.642   3.247  0.6429  0.6880 -0.9868
   18SAPS   C36 2355  -0.072   3.482   3.338  0.2234 -0.2087 -0.1842
   18SAPS   H6X 2356   0.015   3.417   3.318  1.3708  0.8152  1.2322
   18SAPS   H6Y 2357  -0.157   3.416   3.366  0.6700 -1.0037 -0.6880
   18SAPS   C37 2358  -0.030   3.559   3.463  0.4002 -0.4482  0.1355
   18SAPS   H7X 2359  -0.111   3.629   3.491 -0.2179 -0.9117 -0.4777
   18SAPS   H7Y 2360   0.062   3.616   3.441  0.0167  0.0604 -0.1514
   18SAPS   C38 2361   0.009   3.469   3.574 -0.1893  0.1045 -0.0672
   18SAPS   H8X 2362   0.105   3.415   3.555  0.0482  0.3954  0.2901
   18SAPS   H8Y 2363  -0.070   3.392   3.588 -0.5413  0.6859  1.3011
   18SAPS   C39 2364   0.023   3.544   3.706 -0.2834 -0.0471  0.4024
   18SAPS   H9X 2365  -0.077   3.581   3.737 -0.3372  2.0840 -1.9314
   18SAPS   H9Y 2366   0.096   3.625   3.685  2.2170 -1.9375  1.2697
   18SAPS  C310 2367   0.073   3.456   3.822 -0.1413  0.1305  0.5207
   18SAPS  H10X 2368   0.183   3.443   3.813 -0.1666 -0.7905  1.3398
   18SAPS  H10Y 2369   0.038   3.351   3.822  0.5948 -0.1329  1.2906
   18SAPS  C311 2370   0.039   3.515   3.959 -0.6052 -0.2716 -0.2108
   18SAPS  H11X 2371  -0.066   3.549   3.961 -0.6887 -0.5245 -0.2843
   18SAPS  H11Y 2372   0.100   3.605   3.985 -3.2494  0.8141  2.8824
   18SAPS  C312 2373   0.054   3.426   4.083 -0.2701 -0.2700 -0.3208
   18SAPS  H12X 2374   0.159   3.396   4.098  0.0759 -0.3659 -2.5716
   18SAPS  H12Y 2375  -0.009   3.335   4.072  0.0365 -0.6016  0.6326
   18SAPS  C313 2376   0.013   3.500   4.210  0.0535 -0.1869  0.0823
   18SAPS  H13X 2377  -0.091   3.537   4.199 -0.5207 -1.8651 -0.4239
   18SAPS  H13Y 2378   0.088   3.582   4.216  0.5124 -0.3832 -2.0564
   18SAPS  C314 2379   0.045   3.407   4.323 -0.7093 -0.0742 -0.3668
   18SAPS  H14X 2380   0.055   3.469   4.415 -0.8252  0.8466 -0.9730
   18SAPS  H14Y 2381   0.139   3.347   4.320 -1.4642 -1.4894  1.4855
   18SAPS  C315 2382  -0.059   3.291   4.354 -0.3031 -0.1835 -0.0733
   18SAPS  H15X 2383  -0.076   3.243   4.255 -0.5232  0.8874 -0.5793
   18SAPS  H15Y 2384  -0.150   3.336   4.399 -0.5936 -1.0652  0.2409
   18SAPS  C316 2385  -0.007   3.187   4.456  0.1286 -0.0216  0.3941
   18SAPS  H16X 2386   0.081   3.145   4.403  0.8075  3.3350 -1.5045
   18SAPS  H16Y 2387  -0.076   3.101   4.470 -1.0226  0.6843 -0.6791
   18SAPS  C317 2388   0.033   3.257   4.582 -0.8876 -0.3481  0.1193
   18SAPS  H17X 2389  -0.037   3.329   4.630  0.6120  2.4547 -1.6215
   18SAPS  H17Y 2390   0.121   3.317   4.551 -1.9630  0.2218 -1.9786
   18SAPS  C318 2391   0.075   3.154   4.690  0.5119 -0.2395  0.7943
   18SAPS  H18X 2392   0.100   3.198   4.789  0.2570  1.6896  0.0331
   18SAPS  H18Y 2393   0.168   3.104   4.655  1.1117 -0.4123  2.5341
   18SAPS  H18Z 2394  -0.005   3.077   4.700 -0.4250  0.4681 -0.8342
   19SAPS     N 2395   6.791   2.486   2.040  0.1308 -0.0030  0.6471
   19SAPS   HN1 2396   6.813   2.385   2.049  1.0675  0.1129 -0.1488
   19SAPS   HN2 2397   6.838   2.528   1.957  1.1254 -1.0521  0.6481
   19SAPS   HN3 2398   6.825   2.536   2.125 -1.0299  1.4310  0.3031
   19SAPS   C12 2399   6.648   2.493   2.025  0.0327 -0.0816  0.0689
   19SAPS  H12A 2400   6.621   2.596   2.009 -0.5082 -0.3492 -0.7730
   19SAPS   C13 2401   6.585   2.421   1.902  0.1146 -0.5079  0.3223
   19SAPS  O13A 2402   6.653   2.359   1.816 -0.8603  0.1819 -0.1635
   19SAPS  O13B 2403   6.462   2.432   1.889  0.1478  0.4072 -0.3200
   19SAPS   C11 2404   6.563   2.462   2.155  0.2777  0.4251 -0.2190
   19SAPS  H11A 2405   6.555   2.351   2.165 -0.1069  0.5928  1.6868
   19SAPS  H11B 2406   6.458   2.497   2.140 -0.3618 -0.7212  1.3037
   19SAPS     P 2407   6.546   2.608   2.376 -0.5794 -0.6827  0.2978
   19SAPS   O13 2408   6.596   2.746   2.354 -0.1088 -0.1931 -0.1156
   19SAPS   O14 2409   6.399   2.590   2.362 -0.0968  0.9384 -0.0800
   19SAPS   O12 2410   6.619   2.507   2.275  0.1469  0.1330  1.3187
   19SAPS   O11 2411   6.592   2.545   2.519  0.3633 -0.3315 -0.3401
   19SAPS    C1 2412   6.729   2.515   2.545 -0.8721  0.5031 -0.3149
   19SAPS    HA 2413   6.795   2.521   2.456  2.9459  2.2670  2.3332
   19SAPS    HB 2414   6.766   2.593   2.615  0.9963  0.5107 -1.2583
   19SAPS    C2 2415   6.751   2.376   2.598 -0.5546  0.7237 -0.2946
   19SAPS    HS 2416   6.696   2.302   2.535 -0.7938  1.5037 -1.0183
   19SAPS   O21 2417   6.717   2.369   2.740 -0.2878  0.7129 -0.5172
   19SAPS   C21 2418   6.713   2.249   2.801 -0.4550 -0.0289 -0.7983
   19SAPS   O22 2419   6.720   2.141   2.741 -0.4854  0.2079  0.3892
   19SAPS   C22 2420   6.664   2.272   2.941 -0.4684 -0.7498  0.9242
   19SAPS   H2R 2421   6.719   2.359   2.983 -0.0419 -0.7842  0.4357
   19SAPS   H2S 2422   6.560   2.309   2.930  1.1872  3.9516 -1.5980
   19SAPS    C3 2423   6.906   2.327   2.574  0.2150 -0.7756 -0.2399
   19SAPS    HX 2424   6.926   2.346   2.467 -1.4924  1.6754 -0.2111
   19SAPS    HY 2425   6.905   2.216   2.587  0.0352 -0.6719  0.7758
   19SAPS   O31 2426   7.015   2.400   2.649 -0.0909  0.5303 -0.1356
   19SAPS   C31 2427   7.043   2.350   2.771 -0.8149 -0.1622  0.1637
   19SAPS   O32 2428   7.006   2.241   2.820 -0.0212  0.0060  0.4166
   19SAPS   C32 2429   7.133   2.453   2.844 -0.5864 -0.1651 -0.0893
   19SAPS   H2X 2430   7.151   2.541   2.779 -0.6676  1.1316  1.5818
   19SAPS   H2Y 2431   7.229   2.406   2.876 -1.2195 -1.3450  0.1453
   19SAPS   C23 2432   6.686   2.142   3.024 -0.2108 -0.6034  0.0902
   19SAPS   H3R 2433   6.796   2.131   3.034  0.3659  2.8273 -1.1725
   19SAPS   H3S 2434   6.648   2.050   2.975  0.3536 -1.1029  0.5700
   19SAPS   C24 2435   6.625   2.155   3.169  0.5750 -0.1453  0.2246
   19SAPS   H4R 2436   6.523   2.198   3.166 -0.2144 -1.8630  1.0953
   19SAPS   H4S 2437   6.685   2.235   3.218  0.4404  0.8973 -1.2477
   19SAPS   C25 2438   6.635   2.016   3.234  0.9981  0.4462 -0.6094
   19SAPS   H5R 2439   6.564   1.941   3.196 -0.0478  1.0451  0.1224
   19SAPS   C26 2440   6.705   1.975   3.342 -0.3678  0.2160  1.0205
   19SAPS   H6R 2441   6.705   1.868   3.364 -1.9091  0.3961  2.0390
   19SAPS   C27 2442   6.802   2.056   3.426  0.2309 -0.0428 -0.2941
   19SAPS   H7R 2443   6.758   2.097   3.519  2.3345 -0.0520  0.7644
   19SAPS   H7S 2444   6.837   2.142   3.365  0.5922  0.2783  0.3601
   19SAPS   C28 2445   6.924   1.971   3.454  0.3445  1.2145  0.9027
   19SAPS   H8R 2446   7.013   1.989   3.392  1.6956 -0.4218  2.2274
   19SAPS   C29 2447   6.955   1.916   3.571  0.5349  0.5364  0.0451
   19SAPS   H9R 2448   7.052   1.864   3.580  1.0000  1.4257  0.2636
   19SAPS  C210 2449   6.869   1.892   3.688  0.4982  0.1897  1.0782
   19SAPS  H10R 2450   6.900   1.794   3.731 -1.9021 -1.3403 -0.3809
   19SAPS  H10S 2451   6.768   1.882   3.642 -0.0452  2.2932  1.6944
   19SAPS  C211 2452   6.895   1.993   3.798  0.5277  0.0820 -0.3789
   19SAPS  H11R 2453   6.891   2.095   3.756  4.1791  0.3976 -0.3061
   19SAPS  C212 2454   6.939   1.978   3.924 -0.3427 -0.2308 -0.2201
   19SAPS  H12R 2455   6.948   2.064   3.993 -1.5987 -0.6145  0.4515
   19SAPS  C213 2456   6.973   1.852   4.000  0.3616 -0.1620 -0.7848
   19SAPS  H13R 2457   7.071   1.864   4.051 -0.3148  2.6078  0.0523
   19SAPS  H13S 2458   6.994   1.768   3.931  2.2773 -1.0108  0.7328
   19SAPS  C214 2459   6.861   1.815   4.098 -0.1278 -0.3403  1.1782
   19SAPS  H14R 2460   6.768   1.781   4.050  0.3716  0.4559 -0.4344
   19SAPS  C215 2461   6.867   1.802   4.234 -0.1724  0.5991  0.0573
   19SAPS  H15R 2462   6.781   1.773   4.296  0.0136  1.8718  0.9429
   19SAPS  C216 2463   6.993   1.831   4.319  0.1865 -0.5036 -0.0040
   19SAPS  H16R 2464   6.955   1.893   4.403  0.9641 -0.7897  0.5729
   19SAPS  H16S 2465   7.075   1.891   4.276 -0.7564  2.1675  1.6923
   19SAPS  C217 2466   7.063   1.699   4.372  0.2108 -0.4967 -0.1091
   19SAPS  H17R 2467   7.157   1.723   4.426 -0.3099 -0.7757  0.9301
   19SAPS  H17S 2468   7.092   1.624   4.295  0.3296 -0.4529 -0.1063
   19SAPS  C218 2469   6.989   1.629   4.491  1.2933  0.1948  0.3010
   19SAPS  H18R 2470   6.880   1.641   4.476  1.3092  0.6971  0.5433
   19SAPS  H18S 2471   6.998   1.686   4.587 -1.2560 -1.0501  1.3855
   19SAPS  C219 2472   7.017   1.481   4.519  0.0762  0.1485  0.5241
   19SAPS  H19R 2473   7.125   1.465   4.536 -0.3728 -1.0424  2.4921
   19SAPS  H19S 2474   6.987   1.443   4.419 -1.7641  0.9568  0.7138
   19SAPS  C220 2475   6.922   1.412   4.621 -0.2907  0.3548  0.0295
   19SAPS  H20R 2476   6.816   1.434   4.597 -0.5558  1.2264  1.8047
   19SAPS  H20S 2477   6.950   1.435   4.726  1.8947 -0.2513 -0.3631
   19SAPS  H20T 2478   6.930   1.301   4.616 -1.5020  0.2532  0.1703
   19SAPS   C33 2479   7.061   2.512   2.970  0.5632  0.6269 -0.2719
   19SAPS   H3X 2480   6.959   2.550   2.947  0.1517  0.2789  0.9050
   19SAPS   H3Y 2481   7.128   2.590   3.013  0.2579 -0.7079  2.8840
   19SAPS   C34 2482   7.034   2.411   3.082  0.1053  0.1491 -0.1239
   19SAPS   H4X 2483   7.124   2.347   3.098 -0.4788 -0.6390  0.0685
   19SAPS   H4Y 2484   6.953   2.338   3.061 -0.6085 -0.4407  3.9184
   19SAPS   C35 2485   6.984   2.476   3.219 -0.6997  0.5354  0.5324
   19SAPS   H5X 2486   6.877   2.495   3.194 -0.8123 -2.1257 -1.4700
   19SAPS   H5Y 2487   7.039   2.568   3.247 -0.3482  0.1656  1.0831
   19SAPS   C36 2488   6.994   2.391   3.348  0.4393 -0.2220  0.4259
   19SAPS   H6X 2489   7.099   2.375   3.380  0.6515  1.5104  0.6979
   19SAPS   H6Y 2490   6.931   2.300   3.336  1.2739 -1.0182  1.7899
   19SAPS   C37 2491   6.930   2.457   3.474 -1.0011 -0.0271  0.1291
   19SAPS   H7X 2492   6.821   2.466   3.456 -0.4361  2.0606 -2.9069
   19SAPS   H7Y 2493   6.968   2.560   3.486 -0.1932 -0.1829 -0.9710
   19SAPS   C38 2494   6.951   2.367   3.605 -0.7693  0.4030 -0.2860
   19SAPS   H8X 2495   7.027   2.287   3.594  1.0240  2.1891 -1.5464
   19SAPS   H8Y 2496   6.854   2.313   3.620  0.9672 -2.5877  1.0958
   19SAPS   C39 2497   6.976   2.455   3.733  0.5421  0.0620  0.2730
   19SAPS   H9X 2498   6.879   2.508   3.740 -0.5471 -1.8448  0.4615
   19SAPS   H9Y 2499   7.057   2.530   3.723  1.9167 -1.0647  2.2512
   19SAPS  C310 2500   7.003   2.380   3.867 -0.2250  0.2834 -0.7012
   19SAPS  H10X 2501   7.095   2.323   3.846  0.5414  1.7767 -1.5917
   19SAPS  H10Y 2502   6.915   2.320   3.900  0.4874 -1.8229 -2.4342
   19SAPS  C311 2503   7.036   2.487   3.977 -0.3776  0.1810  0.0398
   19SAPS  H11X 2504   6.945   2.546   4.001 -0.8865 -0.1720 -0.9569
   19SAPS  H11Y 2505   7.110   2.557   3.933 -0.1247 -0.7017 -0.9952
   19SAPS  C312 2506   7.080   2.424   4.109  0.3597 -0.0396 -0.1563
   19SAPS  H12X 2507   7.154   2.345   4.083  0.5595  0.7816 -2.2705
   19SAPS  H12Y 2508   6.994   2.380   4.164  2.3252 -1.0702  2.2987
   19SAPS  C313 2509   7.155   2.525   4.186  0.4577 -0.7559 -0.1444
   19SAPS  H13X 2510   7.089   2.612   4.207 -0.5783 -1.5208 -0.1322
   19SAPS  H13Y 2511   7.232   2.560   4.114  1.2356 -0.4296  0.8161
   19SAPS  C314 2512   7.216   2.479   4.318  0.7020 -0.0205  0.2448
   19SAPS  H14X 2513   7.284   2.562   4.348  0.0201  0.9413 -0.7988
   19SAPS  H14Y 2514   7.278   2.387   4.319  0.8215  0.0333 -0.9796
   19SAPS  C315 2515   7.115   2.454   4.424  0.9506  0.0473 -1.3425
   19SAPS  H15X 2516   7.042   2.377   4.390  1.0563  0.0699 -1.6265
   19SAPS  H15Y 2517   7.065   2.546   4.463 -2.2175 -1.5566 -1.2634
   19SAPS  C316 2518   7.192   2.393   4.550  0.4599 -0.0844  0.7033
   19SAPS  H16X 2519   7.125   2.381   4.637  0.9219 -0.3764  1.0210
   19SAPS  H16Y 2520   7.269   2.469   4.575  0.3843  1.8214 -3.8798
   19SAPS  C317 2521   7.241   2.243   4.545  0.1166 -0.0146  0.6246
   19SAPS  H17X 2522   7.304   2.228   4.635 -2.2208 -1.0588  2.1783
   19SAPS  H17Y 2523   7.306   2.220   4.457  0.9380  3.1553  0.2586
   19SAPS  C318 2524   7.129   2.140   4.556 -0.5777 -0.2334 -0.7390
   19SAPS  H18X 2525   7.160   2.038   4.526  1.3340  0.5049 -1.4239
   19SAPS  H18Y 2526   7.046   2.166   4.487 -2.1486 -0.7857  0.8771
   19SAPS  H18Z 2527   7.095   2.154   4.661 -1.8123  1.7345 -1.3447
   20SAPS     N 2528   6.755   0.514   2.406  0.5715 -0.2676  0.5395
   20SAPS   HN1 2529   6.737   0.596   2.345 -1.0576  0.4450  1.8960
   20SAPS   HN2 2530   6.672   0.460   2.374 -0.3637  1.3327  0.1708
   20SAPS   HN3 2531   6.739   0.541   2.505 -1.0926 -0.9858  0.5023
   20SAPS   C12 2532   6.876   0.433   2.387 -0.2878  0.1383 -0.7402
   20SAPS  H12A 2533   6.883   0.413   2.281 -0.4106 -0.9469 -0.5564
   20SAPS   C13 2534   7.010   0.505   2.425  0.8525  0.2216 -0.7133
   20SAPS  O13A 2535   7.003   0.614   2.480  0.3264 -0.3778 -0.6271
   20SAPS  O13B 2536   7.117   0.447   2.410 -0.1276  0.3547  0.5562
   20SAPS   C11 2537   6.881   0.299   2.473  0.0251  0.1322  0.1863
   20SAPS  H11A 2538   6.889   0.322   2.581  0.2322 -2.1370  0.6998
   20SAPS  H11B 2539   6.973   0.243   2.444  1.3409  2.9746 -1.5037
   20SAPS     P 2540   6.664   0.153   2.567 -0.0286  0.0321 -0.1117
   20SAPS   O13 2541   6.611   0.259   2.651 -0.1466 -0.3498  0.4811
   20SAPS   O14 2542   6.569   0.053   2.515 -0.4705  0.1875  0.3716
   20SAPS   O12 2543   6.764   0.217   2.450  1.3092 -0.5765 -0.0676
   20SAPS   O11 2544   6.780   0.087   2.657 -0.3996  0.2774 -0.0362
   20SAPS    C1 2545   6.855  -0.024   2.607  0.1170 -0.4878 -0.1624
   20SAPS    HA 2546   6.799  -0.117   2.588 -1.8995  0.6881 -0.2850
   20SAPS    HB 2547   6.899   0.012   2.512  1.3094 -0.3781  0.4035
   20SAPS    C2 2548   6.965  -0.052   2.713 -0.0579 -0.0392  0.0531
   20SAPS    HS 2549   7.036  -0.125   2.669 -0.8860 -0.1886 -1.0894
   20SAPS   O21 2550   6.909  -0.118   2.826  0.7222  0.6427  0.1394
   20SAPS   C21 2551   6.849  -0.229   2.794 -0.6778 -0.0756 -0.4618
   20SAPS   O22 2552   6.872  -0.300   2.700 -0.6915  0.4540  0.3853
   20SAPS   C22 2553   6.744  -0.260   2.912 -0.5797 -0.3971  0.3962
   20SAPS   H2R 2554   6.697  -0.165   2.947 -0.5608  0.5913 -2.1014
   20SAPS   H2S 2555   6.664  -0.324   2.868 -0.4754  1.0979 -2.1699
   20SAPS    C3 2556   7.057   0.068   2.756 -1.2938 -0.6040  0.2451
   20SAPS    HX 2557   6.995   0.152   2.794  0.4130  0.9174 -0.1823
   20SAPS    HY 2558   7.105   0.107   2.663  0.5694 -0.8520  1.0653
   20SAPS   O31 2559   7.171   0.022   2.835 -0.0938 -0.0305  0.3522
   20SAPS   C31 2560   7.183   0.083   2.947 -0.2436 -0.4469 -0.8050
   20SAPS   O32 2561   7.109   0.167   2.992 -0.0115  0.3334 -0.0197
   20SAPS   C32 2562   7.313   0.024   3.016 -0.3494 -0.0277  0.2616
   20SAPS   H2X 2563   7.331  -0.079   2.977 -1.0555  0.4311 -1.3644
   20SAPS   H2Y 2564   7.283  -0.005   3.118 -1.0232  1.7643  0.6096
   20SAPS   C23 2565   6.806  -0.338   3.032 -0.1359 -0.2870 -0.3741
   20SAPS   H3R 2566   6.896  -0.285   3.069  0.0735 -0.5176 -0.5507
   20SAPS   H3S 2567   6.854  -0.430   2.994  1.2902  0.4896 -0.5065
   20SAPS   C24 2568   6.717  -0.365   3.154  0.2187 -0.7939 -0.4325
   20SAPS   H4R 2569   6.634  -0.423   3.107  0.4006  0.0017 -1.7668
   20SAPS   H4S 2570   6.672  -0.270   3.188  1.0438 -0.2277 -0.8841
   20SAPS   C25 2571   6.794  -0.440   3.256 -0.3260 -0.4859  0.1805
   20SAPS   H5R 2572   6.872  -0.493   3.201 -0.5824 -0.2291 -0.4385
   20SAPS   C26 2573   6.770  -0.485   3.382 -0.4798  1.0801  0.1515
   20SAPS   H6R 2574   6.853  -0.536   3.435  0.2864  0.7553 -1.3259
   20SAPS   C27 2575   6.666  -0.443   3.480 -0.1453 -0.7644  0.4635
   20SAPS   H7R 2576   6.641  -0.520   3.556 -3.6130 -1.4543 -1.1354
   20SAPS   H7S 2577   6.567  -0.443   3.430 -1.1154  1.5971  2.1733
   20SAPS   C28 2578   6.664  -0.301   3.537 -0.0604 -0.0788 -0.4927
   20SAPS   H8R 2579   6.712  -0.224   3.475 -2.6174 -0.1658 -2.7406
   20SAPS   C29 2580   6.621  -0.265   3.664  0.1028  0.4339  0.1879
   20SAPS   H9R 2581   6.632  -0.164   3.706  0.3556  0.2310  0.6092
   20SAPS  C210 2582   6.559  -0.362   3.764 -0.2940  0.6220  0.2649
   20SAPS  H10R 2583   6.517  -0.451   3.711 -1.5037 -0.1055  2.3426
   20SAPS  H10S 2584   6.462  -0.331   3.808  0.2003  1.0151  1.1017
   20SAPS  C211 2585   6.649  -0.412   3.872 -0.1834  0.7967 -0.1983
   20SAPS  H11R 2586   6.757  -0.405   3.850 -0.3333  1.3409 -0.7979
   20SAPS  C212 2587   6.614  -0.453   3.996  0.4013 -0.0878 -0.3181
   20SAPS  H12R 2588   6.693  -0.489   4.064 -0.1328 -2.3533 -0.8427
   20SAPS  C213 2589   6.474  -0.468   4.057  0.2712  0.4171  0.1214
   20SAPS  H13R 2590   6.392  -0.439   3.987  1.5955  3.2764 -0.3992
   20SAPS  H13S 2591   6.456  -0.400   4.143  0.0835  2.2308 -1.2798
   20SAPS  C214 2592   6.453  -0.616   4.095 -0.2069 -0.3257 -1.3524
   20SAPS  H14R 2593   6.519  -0.684   4.039  0.7049 -0.8684  0.3253
   20SAPS  C215 2594   6.374  -0.651   4.204 -0.4446  0.3863  0.1794
   20SAPS  H15R 2595   6.344  -0.757   4.217 -3.1238  1.0767  0.2246
   20SAPS  C216 2596   6.295  -0.560   4.289  0.2889 -0.3751 -0.1280
   20SAPS  H16R 2597   6.191  -0.569   4.250  0.7108 -1.1061 -1.1471
   20SAPS  H16S 2598   6.328  -0.455   4.278 -1.3989  0.1149 -1.0270
   20SAPS  C217 2599   6.304  -0.613   4.433 -0.0360  0.0790  0.1115
   20SAPS  H17R 2600   6.257  -0.713   4.431 -2.3426  1.1093 -0.6466
   20SAPS  H17S 2601   6.237  -0.556   4.502 -1.2134 -1.7342  0.5253
   20SAPS  C218 2602   6.448  -0.620   4.500  0.6926 -0.3882  0.4303
   20SAPS  H18R 2603   6.511  -0.543   4.451  0.8989 -0.3739  0.7112
   20SAPS  H18S 2604   6.496  -0.717   4.477  0.5834 -0.6730  1.3402
   20SAPS  C219 2605   6.464  -0.594   4.651  0.5640  0.2391  0.0893
   20SAPS  H19R 2606   6.566  -0.618   4.688 -0.2844 -1.6101  1.3280
   20SAPS  H19S 2607   6.404  -0.664   4.713 -2.3792  1.7084 -0.9033
   20SAPS  C220 2608   6.417  -0.451   4.686 -0.2307  0.2046  0.1895
   20SAPS  H20R 2609   6.307  -0.444   4.672 -0.3815 -0.4639  0.9885
   20SAPS  H20S 2610   6.484  -0.379   4.633 -0.4336 -1.5341 -2.6552
   20SAPS  H20T 2611   6.435  -0.434   4.794 -2.4424 -0.8218  0.7604
   20SAPS   C33 2612   7.427   0.124   3.040  0.2292 -0.7001 -0.1185
   20SAPS   H3X 2613   7.385   0.218   3.079 -0.9977 -1.2375 -0.1077
   20SAPS   H3Y 2614   7.463   0.163   2.942 -0.8066  0.9939  0.1304
   20SAPS   C34 2615   7.541   0.068   3.124 -0.5186  0.5047  0.5855
   20SAPS   H4X 2616   7.637   0.122   3.112 -0.8839  0.8184 -1.1793
   20SAPS   H4Y 2617   7.564  -0.036   3.091  0.0695  0.7371  0.2626
   20SAPS   C35 2618   7.502   0.065   3.269  0.5915  0.2146  0.3013
   20SAPS   H5X 2619   7.420  -0.010   3.272  1.9033 -1.3905 -1.3359
   20SAPS   H5Y 2620   7.458   0.155   3.317 -2.0588 -0.8180  0.0038
   20SAPS   C36 2621   7.615   0.016   3.361 -0.2466  0.4581 -0.2045
   20SAPS   H6X 2622   7.702   0.084   3.355  0.4687 -0.5223 -1.6781
   20SAPS   H6Y 2623   7.652  -0.083   3.328  3.2140  1.2192  0.9988
   20SAPS   C37 2624   7.572   0.009   3.507  0.2347  1.2048 -0.0542
   20SAPS   H7X 2625   7.469  -0.033   3.508  1.4399 -2.2511  3.5252
   20SAPS   H7Y 2626   7.571   0.112   3.548  1.5754  1.3162 -0.2394
   20SAPS   C38 2627   7.643  -0.095   3.593 -0.3298  0.1337  0.4089
   20SAPS   H8X 2628   7.747  -0.068   3.623  1.1808 -2.5865 -1.8514
   20SAPS   H8Y 2629   7.662  -0.186   3.533 -2.2443  0.3222 -0.5247
   20SAPS   C39 2630   7.561  -0.124   3.717  0.2745  0.0202 -0.5760
   20SAPS   H9X 2631   7.456  -0.147   3.687  1.2982 -1.1251 -3.7867
   20SAPS   H9Y 2632   7.566  -0.034   3.783 -0.7376 -1.4395  1.5830
   20SAPS  C310 2633   7.593  -0.244   3.801  0.0777 -1.1918 -0.2062
   20SAPS  H10X 2634   7.697  -0.235   3.841  0.2514  0.1980 -0.9279
   20SAPS  H10Y 2635   7.585  -0.333   3.735  0.7798 -0.6714 -1.0126
   20SAPS  C311 2636   7.495  -0.261   3.923  0.3846  0.3099 -0.1092
   20SAPS  H11X 2637   7.525  -0.348   3.986 -0.4534  0.0405 -0.0739
   20SAPS  H11Y 2638   7.390  -0.272   3.889 -0.5370  1.9171  1.9702
   20SAPS  C312 2639   7.487  -0.133   4.008 -0.2148 -0.2165  0.5561
   20SAPS  H12X 2640   7.443  -0.050   3.948  1.4249 -0.6310 -1.3140
   20SAPS  H12Y 2641   7.588  -0.104   4.044  0.0420 -0.0168 -0.2979
   20SAPS  C313 2642   7.406  -0.140   4.138 -0.3038  0.0968 -1.1869
   20SAPS  H13X 2643   7.304  -0.177   4.113 -0.6989  0.5089 -0.2807
   20SAPS  H13Y 2644   7.392  -0.039   4.183  0.2377 -0.1810 -0.3661
   20SAPS  C314 2645   7.484  -0.226   4.239 -0.6291 -0.2016  0.4631
   20SAPS  H14X 2646   7.578  -0.171   4.261 -0.5940 -0.8907  2.2055
   20SAPS  H14Y 2647   7.512  -0.330   4.209  1.0762  0.2744  0.2908
   20SAPS  C315 2648   7.417  -0.248   4.372  0.3775 -0.6569 -0.7697
   20SAPS  H15X 2649   7.310  -0.275   4.359 -0.2598  1.0916  0.5664
   20SAPS  H15Y 2650   7.406  -0.151   4.423 -3.0555 -0.8683 -0.8956
   20SAPS  C316 2651   7.477  -0.363   4.453  0.7496  0.1620  0.5283
   20SAPS  H16X 2652   7.572  -0.330   4.501  1.0348 -1.2139  0.9447
   20SAPS  H16Y 2653   7.499  -0.450   4.388 -1.6151  0.6264 -1.0031
   20SAPS  C317 2654   7.378  -0.413   4.560 -0.6652  0.5965  0.0993
   20SAPS  H17X 2655   7.280  -0.451   4.524 -0.9963  0.6967  0.8618
   20SAPS  H17Y 2656   7.354  -0.330   4.630  1.7403  0.8036  0.7696
   20SAPS  C318 2657   7.437  -0.519   4.653 -0.1114  0.4733 -0.2783
   20SAPS  H18X 2658   7.544  -0.493   4.667 -0.3816  0.8347  1.3267
   20SAPS  H18Y 2659   7.447  -0.618   4.603 -0.7448 -0.6260  1.6391
   20SAPS  H18Z 2660   7.388  -0.524   4.753 -1.5107  1.6621 -0.8707
   21CHL1    C3 2661   2.579   4.163   6.594  0.3219 -0.2556 -0.6425
   21CHL1    H3 2662   2.682   4.121   6.592  0.2989 -0.3517  0.1727
   21CHL1    O3 2663   2.511   4.128   6.719  0.3555  0.0485  0.3388
   21CHL1   H3' 2664   2.418   4.116   6.699 -0.2493  0.4859  2.5485
   21CHL1    C4 2665   2.600   4.317   6.573  0.6008  0.3832  0.0651
   21CHL1   H4A 2666   2.500   4.363   6.590  0.7505  0.4992  0.6559
   21CHL1   H4B 2667   2.673   4.349   6.651 -0.9028 -2.6095  2.9540
   21CHL1    C5 2668   2.649   4.357   6.437  0.8788  0.1129 -0.7494
   21CHL1    C6 2669   2.756   4.437   6.421  0.2428  0.4901 -0.3580
   21CHL1    H6 2670   2.811   4.475   6.508 -1.3405 -0.1020  0.9447
   21CHL1    C7 2671   2.804   4.486   6.284  0.2258  0.8327  0.3171
   21CHL1   H7A 2672   2.823   4.595   6.287  1.0517  0.7073 -0.3144
   21CHL1   H7B 2673   2.906   4.447   6.265  0.9365  1.7643  2.0377
   21CHL1    C8 2674   2.704   4.450   6.165 -0.7374  0.2951  0.0799
   21CHL1    H8 2675   2.617   4.519   6.161 -1.1487 -0.1710  0.6115
   21CHL1   C14 2676   2.784   4.461   6.032  0.0143 -0.0542  0.5000
   21CHL1   H14 2677   2.858   4.378   6.041  0.5377  0.2542 -0.7099
   21CHL1   C15 2678   2.856   4.591   5.997 -0.0528 -0.0673  0.6434
   21CHL1  H15A 2679   2.781   4.672   6.010  0.0086  0.2267 -0.6925
   21CHL1  H15B 2680   2.949   4.617   6.053 -1.7373  1.3657  2.9700
   21CHL1   C16 2681   2.895   4.565   5.847 -0.0292  1.0620 -0.0619
   21CHL1  H16A 2682   2.866   4.661   5.799  0.2486  1.5139  0.6510
   21CHL1  H16B 2683   3.003   4.552   5.830 -0.0461  0.0301  0.5592
   21CHL1   C17 2684   2.811   4.440   5.800  0.8399  0.4045  0.1177
   21CHL1   H17 2685   2.883   4.356   5.796  0.7421  0.2679  0.9723
   21CHL1   C13 2686   2.707   4.414   5.913  0.2189  0.4147  0.1288
   21CHL1   C18 2687   2.587   4.520   5.890  0.0625 -0.5162 -0.1170
   21CHL1  H18A 2688   2.534   4.555   5.982 -0.7613 -1.5993 -0.1565
   21CHL1  H18B 2689   2.632   4.612   5.847  2.7809 -2.1296 -0.9522
   21CHL1  H18C 2690   2.505   4.479   5.826  0.8377 -0.4978 -1.1522
   21CHL1   C12 2691   2.648   4.271   5.929 -0.4270  0.5882  0.2366
   21CHL1  H12A 2692   2.588   4.245   5.840 -1.8229 -0.5431  1.4441
   21CHL1  H12B 2693   2.733   4.200   5.938 -0.7226  0.1012 -0.7274
   21CHL1   C11 2694   2.574   4.257   6.060  0.3104 -0.0899 -0.1155
   21CHL1  H11A 2695   2.483   4.320   6.047 -0.5546 -1.0108  1.1178
   21CHL1  H11B 2696   2.544   4.153   6.084 -1.3394  0.9621  3.0491
   21CHL1    C9 2697   2.650   4.309   6.189  0.0151  0.1652  0.1770
   21CHL1    H9 2698   2.743   4.249   6.196  0.7190  1.2373  0.1877
   21CHL1   C10 2699   2.571   4.294   6.321 -0.5493 -0.0840  0.6574
   21CHL1   C19 2700   2.428   4.357   6.305  0.2803  0.0755  0.0412
   21CHL1  H19A 2701   2.362   4.355   6.394 -1.3929 -2.0889 -1.1601
   21CHL1  H19B 2702   2.448   4.463   6.280 -1.3799  0.6804  1.1419
   21CHL1  H19C 2703   2.366   4.310   6.226  0.3518  0.1658 -0.0692
   21CHL1    C1 2704   2.554   4.145   6.344 -0.8584 -0.0719 -0.4705
   21CHL1   H1A 2705   2.495   4.093   6.265 -0.0106 -1.6950 -0.0743
   21CHL1   H1B 2706   2.655   4.099   6.337 -0.8973 -0.4609  1.1890
   21CHL1    C2 2707   2.491   4.102   6.476  0.6555 -0.5512 -0.1600
   21CHL1   H2A 2708   2.486   3.992   6.495 -1.2642 -0.4571  0.0629
   21CHL1   H2B 2709   2.387   4.141   6.477  0.1440 -1.7391  2.6057
   21CHL1   C20 2710   2.765   4.461   5.654 -0.4881  0.4134 -0.2979
   21CHL1   H20 2711   2.677   4.528   5.651 -1.0802 -0.3599 -0.3135
   21CHL1   C21 2712   2.722   4.320   5.596  0.6082 -0.1130 -0.8265
   21CHL1  H21A 2713   2.810   4.253   5.605 -0.2881 -1.2573 -0.3149
   21CHL1  H21B 2714   2.689   4.331   5.491 -0.7867  4.6380 -0.1230
   21CHL1  H21C 2715   2.633   4.289   5.655  1.0133  0.1839 -0.0487
   21CHL1   C22 2716   2.875   4.519   5.559 -0.4915  0.5679 -0.3772
   21CHL1  H22A 2717   2.918   4.611   5.604  2.6889 -0.5273 -0.8703
   21CHL1  H22B 2718   2.968   4.458   5.566  0.3620  1.5981 -2.0507
   21CHL1   C23 2719   2.828   4.554   5.419  0.1964  0.3187  0.4745
   21CHL1  H23A 2720   2.784   4.461   5.376 -1.5688  0.3257  2.1087
   21CHL1  H23B 2721   2.744   4.625   5.435  2.0892  2.3765  1.9624
   21CHL1   C24 2722   2.934   4.605   5.315 -0.2978  0.7501 -0.9134
   21CHL1  H24A 2723   2.949   4.715   5.322  0.5639  0.5666  0.5406
   21CHL1  H24B 2724   3.027   4.553   5.346 -1.5277 -0.4723  0.9504
   21CHL1   C25 2725   2.890   4.580   5.167 -0.1420 -0.2807  0.0084
   21CHL1   H25 2726   2.883   4.469   5.160  1.4560 -0.3069 -2.0044
   21CHL1   C26 2727   2.752   4.639   5.139  0.2206  0.0663  0.4898
   21CHL1  H26A 2728   2.721   4.635   5.033 -1.4621  1.7451  0.8709
   21CHL1  H26B 2729   2.673   4.592   5.200  0.0914  1.2925  1.3233
   21CHL1  H26C 2730   2.750   4.750   5.154  3.0207  0.6291 -2.1666
   21CHL1   C27 2731   2.992   4.623   5.067 -0.0034 -0.0557 -0.2075
   21CHL1  H27A 2732   3.086   4.568   5.087  0.0966  0.8914  2.3432
   21CHL1  H27B 2733   2.971   4.594   4.962 -1.2703  3.1411 -0.9616
   21CHL1  H27C 2734   3.014   4.731   5.078  0.2244 -0.2066  0.9685
   22CHL1    C3 2735   5.425   1.845   6.439  0.5024  0.1013  0.5182
   22CHL1    H3 2736   5.377   1.747   6.414  2.6340 -0.5439 -1.3913
   22CHL1    O3 2737   5.421   1.851   6.581 -0.3051 -0.3648  0.4577
   22CHL1   H3' 2738   5.329   1.843   6.607 -0.6004  3.5766  1.2969
   22CHL1    C4 2739   5.576   1.838   6.393 -0.4755 -0.7651 -0.5172
   22CHL1   H4A 2740   5.619   1.936   6.426 -2.2380  0.1138 -0.6870
   22CHL1   H4B 2741   5.624   1.755   6.447 -1.5913 -0.0160  1.7622
   22CHL1    C5 2742   5.572   1.834   6.241 -0.1200 -0.1316 -0.3019
   22CHL1    C6 2743   5.626   1.728   6.175  0.2265  0.9816  0.2333
   22CHL1    H6 2744   5.677   1.653   6.236  1.1249  0.3135 -1.2804
   22CHL1    C7 2745   5.633   1.720   6.022 -0.5918  0.0026  0.4158
   22CHL1   H7A 2746   5.732   1.675   5.999  0.1606  2.1955 -0.9958
   22CHL1   H7B 2747   5.553   1.652   5.987  0.2944 -0.9553  0.1823
   22CHL1    C8 2748   5.612   1.860   5.945 -0.4675  0.1451 -0.3589
   22CHL1    H8 2749   5.698   1.921   5.979  0.5769 -0.7547 -1.2861
   22CHL1   C14 2750   5.591   1.833   5.798  0.4269  0.0604 -0.5230
   22CHL1   H14 2751   5.507   1.762   5.782  1.9522 -1.6837 -1.1703
   22CHL1   C15 2752   5.701   1.764   5.720  0.0223 -0.1017  0.0235
   22CHL1  H15A 2753   5.801   1.810   5.741 -0.7154  2.0534 -0.8211
   22CHL1  H15B 2754   5.707   1.657   5.748 -0.5200  0.2350  1.5021
   22CHL1   C16 2755   5.667   1.785   5.571  0.7413 -0.0891  0.1084
   22CHL1  H16A 2756   5.759   1.825   5.523  0.8388 -1.0659 -0.5613
   22CHL1  H16B 2757   5.649   1.695   5.508  1.4814 -1.2821  1.5376
   22CHL1   C17 2758   5.554   1.893   5.576 -0.4842 -0.8841 -0.1802
   22CHL1   H17 2759   5.456   1.842   5.567 -1.6964  1.3541 -0.3101
   22CHL1   C13 2760   5.556   1.953   5.719  0.1653 -0.8913 -0.1817
   22CHL1   C18 2761   5.671   2.051   5.733 -0.6986 -0.0211  0.6324
   22CHL1  H18A 2762   5.764   2.006   5.692 -1.4529  1.2366 -2.8205
   22CHL1  H18B 2763   5.659   2.140   5.667 -0.0067  0.5860  1.2958
   22CHL1  H18C 2764   5.699   2.078   5.837  1.6749 -2.5912  0.7846
   22CHL1   C12 2765   5.425   2.013   5.780 -0.1787 -0.1656  0.0296
   22CHL1  H12A 2766   5.395   2.098   5.714 -0.7493  1.3114  2.0976
   22CHL1  H12B 2767   5.349   1.932   5.773 -0.0345 -0.2322 -1.0129
   22CHL1   C11 2768   5.447   2.049   5.929 -0.2652  0.7183  0.8122
   22CHL1  H11A 2769   5.525   2.128   5.940 -1.1003  1.6297  0.3036
   22CHL1  H11B 2770   5.351   2.092   5.965 -1.3354 -0.3498 -0.6919
   22CHL1    C9 2771   5.489   1.922   6.011 -0.8365 -0.2668 -0.0024
   22CHL1    H9 2772   5.409   1.845   6.007 -2.0745  0.9100  1.0391
   22CHL1   C10 2773   5.500   1.950   6.164 -0.7205  0.0732  0.7268
   22CHL1   C19 2774   5.584   2.075   6.192 -0.0415 -0.1861  0.1134
   22CHL1  H19A 2775   5.617   2.088   6.297  1.4042  0.2172 -0.3621
   22CHL1  H19B 2776   5.674   2.090   6.128  1.0831 -0.5023  1.5825
   22CHL1  H19C 2777   5.519   2.162   6.168 -1.4310 -1.6519 -1.7608
   22CHL1    C1 2778   5.364   1.964   6.225 -0.5778 -0.8343  0.2741
   22CHL1   H1A 2779   5.308   2.054   6.194 -4.0077 -2.1102  2.1746
   22CHL1   H1B 2780   5.306   1.879   6.183 -2.0558 -0.1877  0.9378
   22CHL1    C2 2781   5.350   1.962   6.377 -0.1280 -1.1033 -0.2850
   22CHL1   H2A 2782   5.242   1.955   6.402  0.2015  0.3023  1.7979
   22CHL1   H2B 2783   5.398   2.057   6.410  1.2450 -0.4636 -3.7342
   22CHL1   C20 2784   5.566   1.996   5.456 -0.5861  0.3189 -0.4794
   22CHL1   H20 2785   5.658   2.055   5.474  0.1222 -1.5310  2.7286
   22CHL1   C21 2786   5.446   2.090   5.461  0.4894  0.4360  0.1632
   22CHL1  H21A 2787   5.466   2.173   5.532  2.6945  0.8139 -0.8299
   22CHL1  H21B 2788   5.352   2.036   5.489 -1.6591  2.9243 -1.6942
   22CHL1  H21C 2789   5.432   2.132   5.359  1.8626 -1.1662 -0.7198
   22CHL1   C22 2790   5.582   1.931   5.317 -0.4675 -0.3470  0.1294
   22CHL1  H22A 2791   5.568   2.012   5.243  0.7725  0.6126  0.9006
   22CHL1  H22B 2792   5.682   1.884   5.304 -0.9352 -0.6828 -2.9240
   22CHL1   C23 2793   5.466   1.833   5.272  0.5811  0.2537  0.4982
   22CHL1  H23A 2794   5.450   1.755   5.350 -0.0459  0.1319  0.2506
   22CHL1  H23B 2795   5.368   1.884   5.263  0.8464  1.4852  3.3159
   22CHL1   C24 2796   5.498   1.769   5.135  0.2743  0.8473 -0.4990
   22CHL1  H24A 2797   5.479   1.827   5.043  0.8276 -0.2052 -1.3011
   22CHL1  H24B 2798   5.607   1.751   5.147  0.0090 -0.8879 -0.3738
   22CHL1   C25 2799   5.429   1.635   5.110 -0.6241 -0.7921  0.2399
   22CHL1   H25 2800   5.449   1.571   5.199  2.5207 -0.9636 -0.4885
   22CHL1   C26 2801   5.281   1.651   5.089 -0.4568  0.0228 -0.6849
   22CHL1  H26A 2802   5.252   1.729   5.016 -0.9295  0.9344  0.4439
   22CHL1  H26B 2803   5.241   1.552   5.056 -1.6616 -0.2693  1.4242
   22CHL1  H26C 2804   5.225   1.682   5.180 -0.9739 -0.5415 -0.8011
   22CHL1   C27 2805   5.502   1.561   4.995  0.5566 -0.0788 -0.1999
   22CHL1  H27A 2806   5.470   1.611   4.901 -1.0449  1.7127  1.2151
   22CHL1  H27B 2807   5.611   1.580   5.005  0.2281  4.1915 -2.4769
   22CHL1  H27C 2808   5.488   1.451   4.994  1.3446 -0.2762 -3.6529
   23CHL1    C3 2809   0.808   4.206   6.366 -0.2918  0.3021  0.0370
   23CHL1    H3 2810   0.804   4.107   6.317 -0.9419  0.9566 -1.2837
   23CHL1    O3 2811   0.760   4.198   6.496 -0.0244 -0.4986  0.6641
   23CHL1   H3' 2812   0.837   4.168   6.545 -0.5523  0.5509  2.1825
   23CHL1    C4 2813   0.951   4.253   6.365 -0.1472 -0.1240  0.1448
   23CHL1   H4A 2814   0.945   4.357   6.403  2.3437 -0.9601  3.2883
   23CHL1   H4B 2815   1.021   4.199   6.432 -0.2171 -0.1481  0.1975
   23CHL1    C5 2816   1.014   4.255   6.227 -0.0296  0.3379 -0.1231
   23CHL1    C6 2817   1.122   4.186   6.191  0.5373  0.4311 -0.4576
   23CHL1    H6 2818   1.189   4.144   6.268 -1.4091 -1.5306  0.2726
   23CHL1    C7 2819   1.177   4.187   6.052 -0.2151 -0.0133 -0.0861
   23CHL1   H7A 2820   1.286   4.203   6.060 -0.2352  1.5923 -2.0631
   23CHL1   H7B 2821   1.159   4.085   6.012 -1.1309  0.1434 -0.1107
   23CHL1    C8 2822   1.117   4.283   5.952  0.0095  0.3242 -0.4970
   23CHL1    H8 2823   1.165   4.382   5.968  1.6095 -0.5007  0.0004
   23CHL1   C14 2824   1.141   4.216   5.817  0.1121 -0.3832  0.2783
   23CHL1   H14 2825   1.089   4.118   5.810 -0.6961  0.1536 -1.7957
   23CHL1   C15 2826   1.289   4.193   5.769  0.1005 -0.3847 -0.1432
   23CHL1  H15A 2827   1.343   4.289   5.783 -0.6534 -0.1032  1.0102
   23CHL1  H15B 2828   1.336   4.106   5.820  0.8210  0.7540  1.1747
   23CHL1   C16 2829   1.280   4.170   5.621  0.8002  0.9517  0.7102
   23CHL1  H16A 2830   1.360   4.223   5.565 -1.8455  0.4396 -4.1085
   23CHL1  H16B 2831   1.296   4.062   5.605 -1.0846  0.6775  0.3640
   23CHL1   C17 2832   1.135   4.218   5.576 -0.0914  0.6528 -0.2104
   23CHL1   H17 2833   1.072   4.129   5.555  2.3282 -1.0747 -0.5423
   23CHL1   C13 2834   1.080   4.297   5.699  0.4136  0.0421 -0.2321
   23CHL1   C18 2835   1.122   4.448   5.698 -0.6512  0.0032  0.3025
   23CHL1  H18A 2836   1.059   4.501   5.623 -1.7125 -0.9582  0.4739
   23CHL1  H18B 2837   1.094   4.496   5.794 -1.1072  0.6744 -0.1596
   23CHL1  H18C 2838   1.231   4.453   5.679 -0.4196 -0.2624  1.4647
   23CHL1   C12 2839   0.925   4.291   5.718 -0.4471 -0.2990 -0.6737
   23CHL1  H12A 2840   0.865   4.357   5.651 -0.7958 -0.6532 -0.7158
   23CHL1  H12B 2841   0.902   4.184   5.705 -1.7079  0.0129 -1.1642
   23CHL1   C11 2842   0.883   4.342   5.855  1.3439  0.7276 -0.0074
   23CHL1  H11A 2843   0.891   4.452   5.867  2.6094  0.4886  1.8317
   23CHL1  H11B 2844   0.775   4.316   5.860  1.8016 -1.2457  0.7467
   23CHL1    C9 2845   0.964   4.278   5.977 -0.4964 -0.4146  0.4826
   23CHL1    H9 2846   0.933   4.173   5.958 -1.6431  0.1741 -1.1359
   23CHL1   C10 2847   0.923   4.320   6.124 -0.3591  0.3639 -0.0060
   23CHL1   C19 2848   0.941   4.473   6.138  0.2491  0.6966 -0.2209
   23CHL1  H19A 2849   0.901   4.529   6.052  0.4682  0.7104 -0.3135
   23CHL1  H19B 2850   0.895   4.505   6.234 -1.2877 -2.4078  0.2214
   23CHL1  H19C 2851   1.050   4.495   6.133  0.8885 -1.2992  2.3224
   23CHL1    C1 2852   0.768   4.284   6.143  0.0116 -0.4943  0.0914
   23CHL1   H1A 2853   0.711   4.355   6.080  0.9117 -0.4446 -0.6823
   23CHL1   H1B 2854   0.760   4.182   6.100 -1.3247 -0.9389  1.3109
   23CHL1    C2 2855   0.712   4.295   6.287 -0.1896 -0.2200  0.6159
   23CHL1   H2A 2856   0.607   4.260   6.275  0.3291 -1.3655 -0.7907
   23CHL1   H2B 2857   0.713   4.400   6.325  0.7315 -0.2323  0.6488
   23CHL1   C20 2858   1.151   4.284   5.438  0.4147 -0.8858  0.1811
   23CHL1   H20 2859   1.227   4.363   5.454  0.3988 -0.5691 -1.2150
   23CHL1   C21 2860   1.013   4.341   5.390  0.2205 -0.3351 -0.2417
   23CHL1  H21A 2861   1.032   4.439   5.340  0.0623  0.0370  0.4228
   23CHL1  H21B 2862   0.939   4.379   5.464 -1.6632 -1.3645 -1.5126
   23CHL1  H21C 2863   0.952   4.271   5.330  0.6957 -0.2434 -0.8458
   23CHL1   C22 2864   1.214   4.189   5.330  0.3823 -0.4184  0.3818
   23CHL1  H22A 2865   1.294   4.127   5.377  0.2828 -1.6417 -0.9803
   23CHL1  H22B 2866   1.139   4.119   5.289  0.0400  0.8501 -1.2936
   23CHL1   C23 2867   1.284   4.277   5.212 -0.5385  0.3496  0.8082
   23CHL1  H23A 2868   1.209   4.333   5.152  0.7478  0.2871 -0.9269
   23CHL1  H23B 2869   1.354   4.348   5.260 -2.9884  3.4986  0.0627
   23CHL1   C24 2870   1.348   4.184   5.110 -0.3136  0.0740  0.3155
   23CHL1  H24A 2871   1.419   4.111   5.156  2.6464  2.6334  0.1409
   23CHL1  H24B 2872   1.255   4.140   5.068 -0.8361  2.2540 -0.9676
   23CHL1   C25 2873   1.401   4.249   4.976 -0.5999  0.0920 -0.4053
   23CHL1   H25 2874   1.439   4.166   4.912 -1.8388  0.0105 -1.0722
   23CHL1   C26 2875   1.296   4.326   4.891  0.0237 -0.1659 -0.0100
   23CHL1  H26A 2876   1.342   4.356   4.794  1.0124  0.5009  0.6395
   23CHL1  H26B 2877   1.207   4.262   4.875 -3.0325  3.3860  1.2335
   23CHL1  H26C 2878   1.256   4.414   4.946  0.5241 -0.3581  0.6783
   23CHL1   C27 2879   1.527   4.331   4.994  0.4746 -0.1210 -0.4652
   23CHL1  H27A 2880   1.599   4.283   5.064 -1.4697  0.6695  2.2570
   23CHL1  H27B 2881   1.582   4.357   4.901  0.2905  3.4971  0.2842
   23CHL1  H27C 2882   1.497   4.428   5.040  1.8319  1.0521 -1.9169
   24CHL1    C3 2883   4.175   2.890   6.578  0.8737  0.1837  0.0566
   24CHL1    H3 2884   4.147   2.977   6.515  0.0370 -0.7324 -0.8585
   24CHL1    O3 2885   4.231   2.924   6.701  0.2599 -0.5434  0.5490
   24CHL1   H3' 2886   4.282   3.001   6.679 -0.4933 -0.9526 -3.3849
   24CHL1    C4 2887   4.057   2.784   6.589 -0.3192 -0.5346  0.2549
   24CHL1   H4A 2888   4.092   2.699   6.652 -2.4728 -0.7818  1.2129
   24CHL1   H4B 2889   3.970   2.822   6.647  0.5266  0.9253  0.6240
   24CHL1    C5 2890   4.011   2.724   6.464  0.2271 -0.1339  0.4099
   24CHL1    C6 2891   3.879   2.721   6.435  0.3806 -0.1477 -0.1720
   24CHL1    H6 2892   3.802   2.761   6.502 -0.8047 -0.6068 -1.2133
   24CHL1    C7 2893   3.832   2.669   6.300  0.1315 -0.2561 -0.3193
   24CHL1   H7A 2894   3.739   2.609   6.305  1.1686 -1.9054 -0.2483
   24CHL1   H7B 2895   3.810   2.763   6.245  1.0096  1.8478  2.6382
   24CHL1    C8 2896   3.935   2.582   6.216 -0.4509 -0.8318 -0.6149
   24CHL1    H8 2897   3.951   2.485   6.267 -1.4322 -0.4929  0.3791
   24CHL1   C14 2898   3.895   2.575   6.073  0.0524  0.1318  0.0516
   24CHL1   H14 2899   3.891   2.679   6.034 -0.5836 -0.0791 -0.4648
   24CHL1   C15 2900   3.761   2.511   6.042  0.2294 -0.0631  0.1065
   24CHL1  H15A 2901   3.762   2.408   6.083  1.3459  0.6430  1.9840
   24CHL1  H15B 2902   3.670   2.563   6.076  0.9855  0.0485  2.0873
   24CHL1   C16 2903   3.756   2.500   5.892  0.0738 -0.1642  0.7312
   24CHL1  H16A 2904   3.713   2.401   5.864 -1.4724 -0.0054  2.3395
   24CHL1  H16B 2905   3.693   2.585   5.858 -0.7058 -0.8316  0.4448
   24CHL1   C17 2906   3.904   2.522   5.850  0.0740  1.0705  0.0058
   24CHL1   H17 2907   3.910   2.627   5.814  4.0747  0.7513 -0.7219
   24CHL1   C13 2908   3.991   2.508   5.979  0.0969 -0.4748 -0.8152
   24CHL1   C18 2909   4.009   2.359   6.016  0.3259  0.0575  0.1396
   24CHL1  H18A 2910   4.092   2.318   5.954  0.8820  1.3608 -0.0096
   24CHL1  H18B 2911   4.027   2.347   6.125 -0.4552 -0.8704  0.1758
   24CHL1  H18C 2912   3.917   2.308   5.981  0.0363  0.0895  0.8286
   24CHL1   C12 2913   4.119   2.579   5.986 -0.9361 -0.4946  0.3040
   24CHL1  H12A 2914   4.198   2.531   5.924  0.3693  0.2032  1.3659
   24CHL1  H12B 2915   4.107   2.685   5.954  0.0568  0.5825  3.1471
   24CHL1   C11 2916   4.180   2.583   6.129  0.2390  0.5084 -0.4896
   24CHL1  H11A 2917   4.215   2.480   6.149  0.0402  0.1748 -1.7580
   24CHL1  H11B 2918   4.270   2.647   6.131 -0.8850  2.1298  0.3297
   24CHL1    C9 2919   4.073   2.644   6.224 -0.1013 -0.8812 -1.0703
   24CHL1    H9 2920   4.050   2.744   6.180 -2.0649 -1.5013 -1.5752
   24CHL1   C10 2921   4.118   2.680   6.369 -0.0398  0.0815  0.6995
   24CHL1   C19 2922   4.168   2.551   6.435 -0.7069 -0.4860  0.1150
   24CHL1  H19A 2923   4.100   2.464   6.420 -1.5306 -0.0483  1.1980
   24CHL1  H19B 2924   4.258   2.510   6.385  1.8663  1.4692  2.8052
   24CHL1  H19C 2925   4.188   2.570   6.542  0.4044 -1.5978  0.1216
   24CHL1    C1 2926   4.239   2.781   6.356 -0.0722 -0.2930  0.1840
   24CHL1   H1A 2927   4.326   2.722   6.320  0.5571 -0.4961  1.9551
   24CHL1   H1B 2928   4.207   2.860   6.285  1.8229  0.6993  0.3752
   24CHL1    C2 2929   4.290   2.828   6.497 -0.0552  0.0139 -0.0784
   24CHL1   H2A 2930   4.368   2.903   6.475 -0.4197  0.9662  1.6947
   24CHL1   H2B 2931   4.335   2.739   6.547  2.1380  1.3094  0.3785
   24CHL1   C20 2932   3.955   2.436   5.734  0.2651  0.2725 -0.2702
   24CHL1   H20 2933   3.931   2.336   5.777  1.5607 -0.4087 -1.0769
   24CHL1   C21 2934   4.096   2.439   5.694  0.3374  0.2792  0.0877
   24CHL1  H21A 2935   4.124   2.544   5.672  1.5727  0.0215  0.3299
   24CHL1  H21B 2936   4.127   2.371   5.611  1.5152  0.5493  0.2874
   24CHL1  H21C 2937   4.154   2.398   5.779 -1.9754 -4.7339 -0.3901
   24CHL1   C22 2938   3.867   2.446   5.604  1.1248  0.6300 -0.3664
   24CHL1  H22A 2939   3.758   2.445   5.626  1.3391  1.5865  0.8501
   24CHL1  H22B 2940   3.883   2.547   5.561  1.0097  0.9972  0.4324
   24CHL1   C23 2941   3.895   2.334   5.500 -0.0251 -0.8301 -0.1470
   24CHL1  H23A 2942   3.985   2.360   5.441  0.1955 -0.6015  0.2815
   24CHL1  H23B 2943   3.925   2.242   5.556  0.5937  0.8063  2.3755
   24CHL1   C24 2944   3.774   2.325   5.408  0.0271 -0.6739 -0.2076
   24CHL1  H24A 2945   3.690   2.269   5.455 -1.8109  1.5436 -0.6576
   24CHL1  H24B 2946   3.735   2.425   5.378  1.4582  0.6502  2.0790
   24CHL1   C25 2947   3.807   2.261   5.272  0.5823  0.1888 -0.3664
   24CHL1   H25 2948   3.884   2.315   5.214 -0.2221  0.3225 -1.3354
   24CHL1   C26 2949   3.858   2.115   5.313  0.2672  0.7006  0.2193
   24CHL1  H26A 2950   3.963   2.128   5.346  1.0453 -0.6497 -1.5801
   24CHL1  H26B 2951   3.788   2.067   5.386 -1.1376  0.9756 -0.9021
   24CHL1  H26C 2952   3.860   2.070   5.212  4.0364  2.9155 -0.8754
   24CHL1   C27 2953   3.681   2.261   5.183 -0.0415 -0.3804  0.3914
   24CHL1  H27A 2954   3.692   2.180   5.107 -1.4754  1.4836 -1.9487
   24CHL1  H27B 2955   3.589   2.232   5.240  0.0930 -1.8005 -0.0672
   24CHL1  H27C 2956   3.671   2.361   5.137 -0.2475  0.7246  2.7228
   25CHL1    C3 2957   2.048   0.235   6.255 -0.5287  0.0081  0.4273
   25CHL1    H3 2958   1.963   0.307   6.246 -0.9624 -0.5450  0.0314
   25CHL1    O3 2959   2.052   0.188   6.387 -0.1620  0.6399 -0.1308
   25CHL1   H3' 2960   2.131   0.222   6.430  0.5130 -2.9745  1.9436
   25CHL1    C4 2961   2.035   0.122   6.159 -0.3099 -0.2678 -0.0182
   25CHL1   H4A 2962   2.116   0.046   6.164 -0.4790 -0.7825 -3.0335
   25CHL1   H4B 2963   1.940   0.070   6.183 -0.4604  0.1848  0.3806
   25CHL1    C5 2964   2.033   0.184   6.018 -0.1171  0.4837  0.4030
   25CHL1    C6 2965   1.923   0.167   5.935  0.2632 -0.1229 -0.5958
   25CHL1    H6 2966   1.827   0.124   5.969  0.1948  0.7530  0.3550
   25CHL1    C7 2967   1.926   0.201   5.788  0.0449  0.0774 -0.4460
   25CHL1   H7A 2968   1.874   0.124   5.727  0.4495  0.2809 -1.0618
   25CHL1   H7B 2969   1.863   0.293   5.779 -0.7380 -0.6406 -3.8266
   25CHL1    C8 2970   2.065   0.235   5.739  0.3334 -0.4806  1.0039
   25CHL1    H8 2971   2.112   0.137   5.720 -2.6812 -1.5701 -1.7075
   25CHL1   C14 2972   2.051   0.306   5.604 -0.1271  0.0222  0.2600
   25CHL1   H14 2973   1.994   0.400   5.617 -0.8332 -0.2226 -0.9544
   25CHL1   C15 2974   1.981   0.227   5.486 -0.5954 -0.2164 -0.5120
   25CHL1  H15A 2975   2.023   0.124   5.484 -0.3704 -0.2847  2.7055
   25CHL1  H15B 2976   1.870   0.230   5.495 -0.6215  1.7869 -0.9899
   25CHL1   C16 2977   2.028   0.305   5.363  0.1074 -0.0785 -0.1427
   25CHL1  H16A 2978   2.071   0.229   5.294  0.1049  0.7925 -1.1286
   25CHL1  H16B 2979   1.953   0.356   5.299 -1.3043 -0.5525  1.0910
   25CHL1   C17 2980   2.139   0.404   5.404 -0.1139  0.4997 -0.1608
   25CHL1   H17 2981   2.092   0.504   5.415 -0.0699  0.4315  0.7750
   25CHL1   C13 2982   2.184   0.356   5.549  0.6020  0.1250  0.5747
   25CHL1   C18 2983   2.279   0.236   5.529 -0.7839  0.5490 -0.0268
   25CHL1  H18A 2984   2.235   0.153   5.469  0.4812  0.0936 -0.3483
   25CHL1  H18B 2985   2.373   0.262   5.475  0.1704 -2.4437  0.0347
   25CHL1  H18C 2986   2.302   0.183   5.624 -0.3469 -0.6448 -0.7690
   25CHL1   C12 2987   2.249   0.456   5.642 -0.5965  0.3038 -0.0377
   25CHL1  H12A 2988   2.346   0.493   5.602 -0.0373 -0.9864  0.0819
   25CHL1  H12B 2989   2.179   0.541   5.653 -1.7467 -0.8275  1.9890
   25CHL1   C11 2990   2.264   0.402   5.791 -0.6110 -0.6789  0.0471
   25CHL1  H11A 2991   2.349   0.332   5.784 -0.3661 -0.4484  0.7003
   25CHL1  H11B 2992   2.300   0.480   5.862  0.1412  0.3681 -1.4309
   25CHL1    C9 2993   2.133   0.330   5.843  0.1037  0.4221  0.2864
   25CHL1    H9 2994   2.055   0.408   5.860 -1.7209 -1.4497  0.8240
   25CHL1   C10 2995   2.154   0.253   5.974  0.2475 -0.2880  0.3224
   25CHL1   C19 2996   2.269   0.147   5.957 -0.6089  0.4612 -0.2257
   25CHL1  H19A 2997   2.366   0.201   5.948 -1.9233  3.4932  1.8447
   25CHL1  H19B 2998   2.267   0.080   6.045 -1.8666  2.2495  1.1926
   25CHL1  H19C 2999   2.252   0.080   5.870  1.8272 -1.6918  0.8333
   25CHL1    C1 3000   2.186   0.357   6.079  0.1416 -0.1439 -0.0105
   25CHL1   H1A 3001   2.291   0.393   6.070  0.7798 -1.6455  1.0197
   25CHL1   H1B 3002   2.117   0.444   6.075  0.2729  0.0698  1.7854
   25CHL1    C2 3003   2.184   0.308   6.224  0.2100 -0.0588  0.0247
   25CHL1   H2A 3004   2.209   0.385   6.301  0.3109 -2.5064  2.6218
   25CHL1   H2B 3005   2.265   0.232   6.225  1.5146  1.2197 -2.0553
   25CHL1   C20 3006   2.245   0.428   5.292 -0.3938  0.2322  0.1270
   25CHL1   H20 3007   2.326   0.353   5.297 -0.6235 -0.2466 -2.3925
   25CHL1   C21 3008   2.313   0.567   5.333  0.1320 -0.7228  0.3788
   25CHL1  H21A 3009   2.387   0.591   5.254 -0.8554  0.6917 -0.1502
   25CHL1  H21B 3010   2.367   0.561   5.430  2.5534 -2.7918 -0.9704
   25CHL1  H21C 3011   2.239   0.650   5.333  3.0199  2.1428 -2.2727
   25CHL1   C22 3012   2.185   0.449   5.151 -0.3324  0.0020  0.6143
   25CHL1  H22A 3013   2.112   0.375   5.112 -0.4196  0.7797 -0.7733
   25CHL1  H22B 3014   2.121   0.538   5.168 -1.3653 -0.8449  1.3016
   25CHL1   C23 3015   2.284   0.456   5.035 -0.2815 -0.3398  0.1531
   25CHL1  H23A 3016   2.346   0.545   5.061  0.7898 -0.7041 -1.0265
   25CHL1  H23B 3017   2.345   0.363   5.039 -0.5262 -0.5126 -0.1184
   25CHL1   C24 3018   2.211   0.456   4.899  0.4681 -0.0147 -0.3592
   25CHL1  H24A 3019   2.142   0.370   4.901  0.1904  0.1894 -1.1428
   25CHL1  H24B 3020   2.141   0.542   4.888 -0.4817 -0.8318 -0.7846
   25CHL1   C25 3021   2.296   0.426   4.771  0.1021  0.3272  0.5873
   25CHL1   H25 3022   2.379   0.360   4.802  0.2040  0.6135  0.9307
   25CHL1   C26 3023   2.200   0.364   4.667  0.4135 -0.2068  0.9045
   25CHL1  H26A 3024   2.173   0.269   4.719 -0.4095  0.0185  0.8960
   25CHL1  H26B 3025   2.109   0.427   4.656 -0.4570 -1.5124  0.3898
   25CHL1  H26C 3026   2.258   0.329   4.579 -1.0204  0.5299 -0.3659
   25CHL1   C27 3027   2.358   0.550   4.716 -0.7060 -0.1545 -0.2144
   25CHL1  H27A 3028   2.290   0.637   4.709  1.3789  1.7070  1.4262
   25CHL1  H27B 3029   2.446   0.591   4.768  0.1816 -0.5094 -1.3927
   25CHL1  H27C 3030   2.398   0.527   4.615  0.6566 -2.1329  0.7092
   26CHL1    C3 3031   5.468   2.398   6.351  0.0669 -0.0203 -0.4365
   26CHL1    H3 3032   5.461   2.290   6.326  0.3680  0.1752 -1.3941
   26CHL1    O3 3033   5.537   2.411   6.472 -0.4563  0.0215 -0.8689
   26CHL1   H3' 3034   5.495   2.350   6.533  1.9502 -0.3906  0.5088
   26CHL1    C4 3035   5.544   2.470   6.240  0.4617 -1.0136  0.3444
   26CHL1   H4A 3036   5.578   2.572   6.270  1.1222 -0.1292 -2.9361
   26CHL1   H4B 3037   5.641   2.416   6.241 -0.2070 -2.2785 -0.2612
   26CHL1    C5 3038   5.462   2.474   6.107 -0.2114 -0.2967 -0.6382
   26CHL1    C6 3039   5.517   2.425   5.996 -0.7003  0.9378  0.4649
   26CHL1    H6 3040   5.622   2.392   6.001 -0.8355  0.3075 -0.5937
   26CHL1    C7 3041   5.457   2.432   5.854 -0.1986  0.0689 -0.1186
   26CHL1   H7A 3042   5.544   2.465   5.794  1.8040 -2.0520  1.4574
   26CHL1   H7B 3043   5.426   2.329   5.824  4.4732 -2.2573  2.0348
   26CHL1    C8 3044   5.335   2.528   5.857  0.7509  0.4267  0.2951
   26CHL1    H8 3045   5.372   2.633   5.863 -2.7194  1.7166  2.4906
   26CHL1   C14 3046   5.245   2.498   5.729 -0.5976  0.4430  0.4357
   26CHL1   H14 3047   5.195   2.399   5.736 -0.7603  0.5937  1.8164
   26CHL1   C15 3048   5.316   2.489   5.595  0.3078 -0.6713  0.2178
   26CHL1  H15A 3049   5.394   2.568   5.589  0.8728 -1.2118  0.3323
   26CHL1  H15B 3050   5.367   2.390   5.590 -1.0898 -1.6899  3.4740
   26CHL1   C16 3051   5.205   2.502   5.492  0.2957  0.9866  0.0677
   26CHL1  H16A 3052   5.234   2.576   5.415  1.6030  1.3281  0.8566
   26CHL1  H16B 3053   5.179   2.401   5.451 -0.8674  0.3681  2.1648
   26CHL1   C17 3054   5.085   2.546   5.573 -0.2170 -0.0320  0.2275
   26CHL1   H17 3055   5.031   2.454   5.605  0.0000 -0.4330 -0.5029
   26CHL1   C13 3056   5.130   2.592   5.711  0.2044 -0.0586 -0.5346
   26CHL1   C18 3057   5.175   2.736   5.693 -0.4571  0.2044  0.2013
   26CHL1  H18A 3058   5.227   2.736   5.595 -0.0304 -2.0276  0.3778
   26CHL1  H18B 3059   5.088   2.804   5.701 -0.6586 -0.0095 -0.1249
   26CHL1  H18C 3060   5.245   2.752   5.777 -0.1623  0.0558 -0.0118
   26CHL1   C12 3061   5.035   2.570   5.836 -0.8077 -0.1295  0.4190
   26CHL1  H12A 3062   4.955   2.647   5.842  1.2689  2.1903  0.5234
   26CHL1  H12B 3063   4.985   2.471   5.835  2.5732 -1.9955 -1.0003
   26CHL1   C11 3064   5.113   2.586   5.965 -0.9669  0.4852 -0.0604
   26CHL1  H11A 3065   5.133   2.695   5.979  1.1648  0.0843  0.3473
   26CHL1  H11B 3066   5.044   2.560   6.048 -0.5488 -1.3231 -0.2497
   26CHL1    C9 3067   5.247   2.510   5.978 -0.4092 -0.0699 -0.8787
   26CHL1    H9 3068   5.221   2.403   5.987 -0.5427  0.1147  3.1166
   26CHL1   C10 3069   5.327   2.535   6.110 -0.1160  0.5247 -0.3577
   26CHL1   C19 3070   5.341   2.684   6.138 -0.2808 -0.8630  0.3983
   26CHL1  H19A 3071   5.414   2.701   6.219 -0.3568  0.0481  0.2869
   26CHL1  H19B 3072   5.384   2.743   6.054 -1.6604 -2.0966 -1.2516
   26CHL1  H19C 3073   5.255   2.743   6.176 -0.0451 -1.3736  1.7723
   26CHL1    C1 3074   5.248   2.473   6.234  0.1103  0.4984 -0.3069
   26CHL1   H1A 3075   5.163   2.540   6.259 -0.2597 -0.5037  1.2283
   26CHL1   H1B 3076   5.210   2.371   6.214  3.9016 -1.5612  1.8169
   26CHL1    C2 3077   5.324   2.452   6.367  0.3677 -0.2199 -0.1835
   26CHL1   H2A 3078   5.262   2.381   6.427  1.1156 -0.3016  0.5097
   26CHL1   H2B 3079   5.320   2.550   6.418  0.3787  0.5549 -1.6472
   26CHL1   C20 3080   4.983   2.630   5.492 -0.5102 -0.2444  0.2309
   26CHL1   H20 3081   5.030   2.726   5.462  0.7507 -0.5855  1.0246
   26CHL1   C21 3082   4.860   2.669   5.571 -0.3039 -0.3613 -0.4466
   26CHL1  H21A 3083   4.818   2.585   5.630 -0.8835 -1.0348 -1.7849
   26CHL1  H21B 3084   4.773   2.713   5.516  0.6773  1.0424 -0.9434
   26CHL1  H21C 3085   4.897   2.746   5.642  0.3390 -1.4102  0.3862
   26CHL1   C22 3086   4.945   2.568   5.352  0.5201 -0.4068  0.0982
   26CHL1  H22A 3087   5.036   2.568   5.289 -0.2462 -0.2360 -1.0526
   26CHL1  H22B 3088   4.916   2.463   5.375  0.9925 -0.6083 -0.2220
   26CHL1   C23 3089   4.839   2.644   5.268 -0.1600  0.6011  0.2496
   26CHL1  H23A 3090   4.735   2.648   5.308 -0.4834 -1.5371 -0.2438
   26CHL1  H23B 3091   4.874   2.749   5.264 -0.2716  0.7403  2.1453
   26CHL1   C24 3092   4.835   2.580   5.125 -0.2719  0.8293 -0.5411
   26CHL1  H24A 3093   4.935   2.562   5.082  0.3872  3.5896 -0.3674
   26CHL1  H24B 3094   4.800   2.479   5.155 -0.5314  1.4065  1.2080
   26CHL1   C25 3095   4.759   2.664   5.023  0.0928  0.4818  1.1713
   26CHL1   H25 3096   4.736   2.598   4.937 -0.3595  0.3712  1.3743
   26CHL1   C26 3097   4.611   2.705   5.071 -0.2006 -0.2524  0.5841
   26CHL1  H26A 3098   4.612   2.790   5.142  0.4532  0.5644 -0.3760
   26CHL1  H26B 3099   4.546   2.729   4.984 -1.8609 -1.3994  1.4504
   26CHL1  H26C 3100   4.579   2.614   5.126  1.3152 -2.2527 -1.6694
   26CHL1   C27 3101   4.834   2.780   4.958 -0.3951 -0.5479 -0.7514
   26CHL1  H27A 3102   4.843   2.863   5.031  0.3066 -0.8175 -0.5278
   26CHL1  H27B 3103   4.938   2.742   4.948  0.6752  1.6743  0.9803
   26CHL1  H27C 3104   4.800   2.822   4.861  1.1229 -0.0787 -1.1172
   27CHL1    C3 3105   1.950   3.890   6.353  0.2468 -0.3021 -0.0078
   27CHL1    H3 3106   1.855   3.851   6.310 -1.0646  2.1087  0.4635
   27CHL1    O3 3107   1.960   3.856   6.490  0.2726 -0.2987 -0.0159
   27CHL1   H3' 3108   2.047   3.880   6.523  0.6867 -0.5179 -0.9244
   27CHL1    C4 3109   2.065   3.818   6.281  0.8249 -0.2469  0.0169
   27CHL1   H4A 3110   2.161   3.838   6.333 -0.4566 -0.6110  2.7300
   27CHL1   H4B 3111   2.056   3.709   6.300 -1.5815 -0.1096  0.0115
   27CHL1    C5 3112   2.062   3.855   6.132 -0.0072  0.1054 -0.7879
   27CHL1    C6 3113   2.039   3.764   6.031  0.5345 -0.2723 -0.5231
   27CHL1    H6 3114   2.032   3.655   6.050 -1.2435 -0.2691 -1.0327
   27CHL1    C7 3115   2.047   3.801   5.882 -0.6665 -0.1846 -0.5952
   27CHL1   H7A 3116   2.099   3.717   5.831  2.2149  1.1121 -0.0173
   27CHL1   H7B 3117   1.944   3.817   5.843 -0.5044 -2.7544 -2.2692
   27CHL1    C8 3118   2.124   3.935   5.867 -0.2987 -0.3406 -0.2570
   27CHL1    H8 3119   2.226   3.927   5.912 -0.5593 -0.8582  0.2622
   27CHL1   C14 3120   2.131   3.972   5.720  0.0046  0.3579 -0.1276
   27CHL1   H14 3121   2.027   3.992   5.686  0.3000  1.7777 -0.2377
   27CHL1   C15 3122   2.186   3.868   5.617 -0.5014  0.6443  0.4640
   27CHL1  H15A 3123   2.279   3.825   5.659 -0.1116  1.6280  0.6354
   27CHL1  H15B 3124   2.115   3.787   5.590  0.5592  0.0773 -0.7086
   27CHL1   C16 3125   2.236   3.958   5.500 -0.2807 -0.3288  0.5015
   27CHL1  H16A 3126   2.346   3.948   5.496 -0.1085  1.3221  0.1419
   27CHL1  H16B 3127   2.197   3.925   5.402  1.7277 -2.0894  0.2279
   27CHL1   C17 3128   2.204   4.106   5.547 -0.3036 -0.3054 -0.4952
   27CHL1   H17 3129   2.105   4.137   5.505 -0.3586  1.1511  0.6039
   27CHL1   C13 3130   2.201   4.106   5.697  0.1649  0.3033  0.1860
   27CHL1   C18 3131   2.345   4.118   5.752  0.3842  1.1407  0.1443
   27CHL1  H18A 3132   2.409   4.037   5.712  0.7162  1.7500 -0.5970
   27CHL1  H18B 3133   2.391   4.215   5.725  1.8217 -0.1502 -2.3942
   27CHL1  H18C 3134   2.342   4.108   5.862 -0.7626  2.5083  0.2772
   27CHL1   C12 3135   2.100   4.207   5.767  0.1234 -0.0370 -0.2033
   27CHL1  H12A 3136   2.139   4.308   5.743  3.1455 -1.1693 -0.5044
   27CHL1  H12B 3137   1.999   4.188   5.727 -0.5767  0.3871  1.2751
   27CHL1   C11 3138   2.097   4.187   5.917  1.0711  0.0083 -0.0453
   27CHL1  H11A 3139   2.194   4.229   5.951  1.9373 -0.9004 -1.2756
   27CHL1  H11B 3140   2.009   4.253   5.932 -0.2655 -1.6203 -0.3657
   27CHL1    C9 3141   2.060   4.039   5.955 -0.1603  0.6672  0.0207
   27CHL1    H9 3142   1.955   4.018   5.923  0.2980  1.6704 -2.3606
   27CHL1   C10 3143   2.077   4.009   6.108 -0.2763  1.0755 -0.2497
   27CHL1   C19 3144   2.222   4.062   6.154  0.0748  0.0315  0.4755
   27CHL1  H19A 3145   2.229   4.171   6.136 -4.0977  0.1343 -1.8206
   27CHL1  H19B 3146   2.226   4.056   6.265 -0.8558 -1.6355  0.4623
   27CHL1  H19C 3147   2.307   4.001   6.119  0.1703 -0.2539  1.1805
   27CHL1    C1 3148   1.968   4.083   6.185  0.1689  0.0697 -0.2575
   27CHL1   H1A 3149   1.985   4.192   6.178  0.8806  0.0488  0.8334
   27CHL1   H1B 3150   1.875   4.041   6.141  0.4613  0.2890 -1.0982
   27CHL1    C2 3151   1.955   4.044   6.333 -0.4287  0.0766 -0.0689
   27CHL1   H2A 3152   1.861   4.093   6.368 -0.2452  0.1680  0.3066
   27CHL1   H2B 3153   2.037   4.091   6.392  0.8899  0.3937 -2.0696
   27CHL1   C20 3154   2.302   4.209   5.487  0.2950  0.4141 -0.3440
   27CHL1   H20 3155   2.405   4.189   5.524  0.0511 -0.9972 -0.3704
   27CHL1   C21 3156   2.263   4.358   5.519  0.6230  0.1911  0.1757
   27CHL1  H21A 3157   2.297   4.399   5.617 -1.3663  0.3863  0.8281
   27CHL1  H21B 3158   2.157   4.382   5.500  0.8493 -0.0889 -1.6154
   27CHL1  H21C 3159   2.323   4.419   5.448  1.8090 -0.1458  0.8502
   27CHL1   C22 3160   2.315   4.200   5.331  0.1854 -0.4468 -0.2586
   27CHL1  H22A 3161   2.316   4.095   5.294  1.9985 -0.0437 -1.4870
   27CHL1  H22B 3162   2.226   4.249   5.286  0.1652 -1.9825 -2.0232
   27CHL1   C23 3163   2.437   4.261   5.261 -0.6933 -0.1105 -0.0431
   27CHL1  H23A 3164   2.470   4.360   5.300  0.2836 -0.8247  1.0088
   27CHL1  H23B 3165   2.515   4.189   5.293 -2.4460 -1.0549  2.4156
   27CHL1   C24 3166   2.427   4.252   5.105  0.9100  0.5420 -0.3439
   27CHL1  H24A 3167   2.526   4.272   5.058  3.4253 -3.5091  2.5178
   27CHL1  H24B 3168   2.403   4.146   5.079  0.5021 -0.9243  4.8324
   27CHL1   C25 3169   2.311   4.328   5.043 -0.2929  0.5118  0.1391
   27CHL1   H25 3170   2.219   4.306   5.100  0.2353  1.2138  1.3075
   27CHL1   C26 3171   2.334   4.476   5.056  0.4398  0.2094 -0.1987
   27CHL1  H26A 3172   2.420   4.519   5.000  2.7501 -3.1074  0.5317
   27CHL1  H26B 3173   2.236   4.521   5.030 -0.8892 -1.3903  1.8090
   27CHL1  H26C 3174   2.343   4.503   5.163  2.3559  3.6123 -1.0626
   27CHL1   C27 3175   2.293   4.290   4.896  0.1191 -1.1500 -0.0428
   27CHL1  H27A 3176   2.389   4.306   4.841 -0.6479  0.8803 -0.8877
   27CHL1  H27B 3177   2.221   4.360   4.849  0.6259 -0.8174 -0.3361
   27CHL1  H27C 3178   2.265   4.183   4.882 -2.2151 -0.3250 -2.8235
   28CHL1    C3 3179   6.435   1.336   6.666 -0.0848  0.7716  0.2999
   28CHL1    H3 3180   6.327   1.363   6.668  0.0835  1.4345  1.1550
   28CHL1    O3 3181   6.488   1.328   6.795  0.1316  0.0189  0.8181
   28CHL1   H3' 3182   6.578   1.295   6.784  0.4355  0.9360  0.5077
   28CHL1    C4 3183   6.453   1.194   6.603 -0.4468 -0.3292 -0.6903
   28CHL1   H4A 3184   6.560   1.166   6.602 -0.3136 -0.0470  1.2432
   28CHL1   H4B 3185   6.404   1.117   6.667  0.5645 -0.6597 -0.2958
   28CHL1    C5 3186   6.396   1.206   6.463 -0.2241 -0.0728 -0.4750
   28CHL1    C6 3187   6.301   1.115   6.426 -0.7680  0.2731  0.2839
   28CHL1    H6 3188   6.268   1.034   6.492  2.2389 -0.9662  0.3792
   28CHL1    C7 3189   6.247   1.091   6.284 -0.7612  0.0505 -0.1073
   28CHL1   H7A 3190   6.234   0.983   6.258  0.5912 -0.8607  2.6329
   28CHL1   H7B 3191   6.145   1.134   6.289 -0.9677 -0.5012  0.5913
   28CHL1    C8 3192   6.336   1.166   6.177  0.6308  0.0432  0.1592
   28CHL1    H8 3193   6.417   1.092   6.161 -1.8749 -2.8774  0.0188
   28CHL1   C14 3194   6.264   1.182   6.041  0.3312 -1.0133  0.7788
   28CHL1   H14 3195   6.181   1.253   6.060  0.0898 -1.4092  1.2056
   28CHL1   C15 3196   6.201   1.060   5.981 -0.8160  0.7315 -0.3138
   28CHL1  H15A 3197   6.274   0.977   5.978 -1.6908 -0.3574  3.5744
   28CHL1  H15B 3198   6.106   1.034   6.031  0.5985 -0.8609  1.6858
   28CHL1   C16 3199   6.175   1.097   5.830 -0.1851 -0.3310  0.4587
   28CHL1  H16A 3200   6.225   1.017   5.771 -0.4415  0.8345 -1.4137
   28CHL1  H16B 3201   6.072   1.101   5.788  1.1925 -0.4315 -3.3908
   28CHL1   C17 3202   6.235   1.237   5.816  0.3161  0.1987 -0.1927
   28CHL1   H17 3203   6.161   1.310   5.854  2.7855  1.5931  2.3669
   28CHL1   C13 3204   6.341   1.243   5.926 -0.4671  0.2125  0.0085
   28CHL1   C18 3205   6.473   1.168   5.891 -0.4674 -0.0275  0.0649
   28CHL1  H18A 3206   6.534   1.213   5.810 -0.5369 -2.2214 -1.2728
   28CHL1  H18B 3207   6.533   1.160   5.984 -0.7937  1.4163  0.4229
   28CHL1  H18C 3208   6.454   1.063   5.860  2.0319  0.0739 -2.1088
   28CHL1   C12 3209   6.373   1.393   5.979 -0.0116 -0.1054 -0.0201
   28CHL1  H12A 3210   6.445   1.431   5.904  1.7273 -1.3441  0.9395
   28CHL1  H12B 3211   6.278   1.449   5.977  0.9312  1.5199 -1.1298
   28CHL1   C11 3212   6.445   1.394   6.108 -0.3736  0.4975  0.2324
   28CHL1  H11A 3213   6.547   1.352   6.092 -0.1072  0.9742  0.6464
   28CHL1  H11B 3214   6.457   1.495   6.153 -1.0045  0.4246  0.5733
   28CHL1    C9 3215   6.387   1.302   6.221 -0.2253 -0.3444 -0.5053
   28CHL1    H9 3216   6.292   1.359   6.234  0.6920  0.9503  0.8613
   28CHL1   C10 3217   6.454   1.302   6.362  0.1570  0.6581  0.0308
   28CHL1   C19 3218   6.601   1.268   6.340 -1.0579  0.0451 -0.2947
   28CHL1  H19A 3219   6.648   1.347   6.278 -2.0636  1.1109  0.2584
   28CHL1  H19B 3220   6.655   1.264   6.437 -2.0676  0.1269  0.2899
   28CHL1  H19C 3221   6.609   1.170   6.288 -0.4451 -0.5898  0.9554
   28CHL1    C1 3222   6.446   1.442   6.437  0.3036  0.3453  0.4405
   28CHL1   H1A 3223   6.504   1.509   6.369 -0.8930 -0.8123 -1.8380
   28CHL1   H1B 3224   6.338   1.468   6.434 -0.6017 -3.0012  0.1336
   28CHL1    C2 3225   6.507   1.450   6.577 -0.8067  0.3895  0.0999
   28CHL1   H2A 3226   6.513   1.553   6.619  0.7912  1.4486 -2.4424
   28CHL1   H2B 3227   6.615   1.425   6.564 -0.9879 -0.0703 -0.5429
   28CHL1   C20 3228   6.276   1.272   5.667 -0.5474  1.0863 -0.6080
   28CHL1   H20 3229   6.347   1.198   5.626  0.4278  2.8069 -2.2112
   28CHL1   C21 3230   6.336   1.407   5.649 -0.3247 -0.1356 -0.6267
   28CHL1  H21A 3231   6.443   1.400   5.677 -0.2249  0.4948 -0.8206
   28CHL1  H21B 3232   6.277   1.472   5.717 -1.0062 -0.9004 -0.4847
   28CHL1  H21C 3233   6.321   1.440   5.544  2.4572 -0.9440 -1.3456
   28CHL1   C22 3234   6.160   1.254   5.567  0.1611  0.0888  0.2544
   28CHL1  H22A 3235   6.213   1.274   5.471  1.2695 -0.0151  0.8320
   28CHL1  H22B 3236   6.133   1.146   5.575  0.7719  0.0795  3.0734
   28CHL1   C23 3237   6.030   1.335   5.576  0.7584  0.7847 -0.1076
   28CHL1  H23A 3238   5.983   1.309   5.673  1.8473 -3.6316 -0.5591
   28CHL1  H23B 3239   6.060   1.442   5.586  0.6432  0.7853  0.2677
   28CHL1   C24 3240   5.936   1.303   5.468  0.0935 -0.7144 -0.4961
   28CHL1  H24A 3241   5.999   1.302   5.376  0.5671 -0.7661 -0.1732
   28CHL1  H24B 3242   5.895   1.202   5.488  1.0738 -0.7491  1.4861
   28CHL1   C25 3243   5.822   1.411   5.453  0.1867  0.3188  0.4326
   28CHL1   H25 3244   5.876   1.507   5.443 -0.3740  0.4285 -2.2923
   28CHL1   C26 3245   5.746   1.404   5.321 -0.6244  0.7235 -0.3491
   28CHL1  H26A 3246   5.662   1.476   5.323 -0.0064  1.4575 -0.2808
   28CHL1  H26B 3247   5.811   1.445   5.241  0.1409  0.2881  0.0372
   28CHL1  H26C 3248   5.710   1.300   5.309 -2.9899  1.5147 -0.6781
   28CHL1   C27 3249   5.733   1.403   5.571  0.0494  0.2974 -0.5867
   28CHL1  H27A 3250   5.702   1.296   5.579 -0.2166 -0.2654 -5.5581
   28CHL1  H27B 3251   5.793   1.436   5.658  0.3364  0.2428 -0.7624
   28CHL1  H27C 3252   5.645   1.470   5.560 -0.9891 -0.7080  1.1504
   29CHL1    C3 3253   3.658   4.719   6.650  0.7333 -0.2213 -0.5035
   29CHL1    H3 3254   3.637   4.613   6.625 -0.2905 -0.3323  0.6819
   29CHL1    O3 3255   3.660   4.712   6.791 -0.1212  0.4191  0.0528
   29CHL1   H3' 3256   3.660   4.802   6.824 -0.2259  1.1170 -1.7008
   29CHL1    C4 3257   3.795   4.768   6.602 -0.0508 -1.1180 -0.0954
   29CHL1   H4A 3258   3.830   4.862   6.650 -2.8845  1.3289 -2.3395
   29CHL1   H4B 3259   3.867   4.693   6.639 -0.7204 -2.1328 -0.8046
   29CHL1    C5 3260   3.808   4.797   6.458 -0.1097 -1.5182  0.3398
   29CHL1    C6 3261   3.902   4.744   6.384  0.3236 -0.7183 -0.9156
   29CHL1    H6 3262   3.980   4.683   6.433 -1.9208 -0.8052  2.8599
   29CHL1    C7 3263   3.919   4.758   6.240  0.5186 -0.1330 -0.1224
   29CHL1   H7A 3264   4.024   4.779   6.210  0.3561  1.0702  0.1013
   29CHL1   H7B 3265   3.887   4.665   6.189  1.6038 -1.2962  1.2169
   29CHL1    C8 3266   3.840   4.880   6.184  0.3348 -0.6790  0.2082
   29CHL1    H8 3267   3.890   4.974   6.214 -1.3570  0.4619 -0.4519
   29CHL1   C14 3268   3.828   4.876   6.033 -0.2096 -0.6063 -0.5794
   29CHL1   H14 3269   3.766   4.785   6.018  0.5770 -1.3930  0.7506
   29CHL1   C15 3270   3.952   4.845   5.948 -0.3508 -0.2397 -0.1736
   29CHL1  H15A 3271   4.024   4.924   5.981 -2.7684  1.9564  0.1789
   29CHL1  H15B 3272   3.988   4.740   5.954 -1.2244 -0.5193  0.2077
   29CHL1   C16 3273   3.906   4.885   5.802 -0.4834 -0.4658 -0.0593
   29CHL1  H16A 3274   3.964   4.978   5.784  0.8405 -1.4432 -1.0515
   29CHL1  H16B 3275   3.936   4.818   5.718 -1.0132 -0.4935 -0.2352
   29CHL1   C17 3276   3.763   4.938   5.817  0.2992 -0.3888  0.1498
   29CHL1   H17 3277   3.706   4.844   5.804 -2.0577  0.9008  0.6815
   29CHL1   C13 3278   3.753   4.992   5.964  0.8256 -0.2795  0.0161
   29CHL1   C18 3279   3.837   5.118   5.978  0.4136  0.2975  0.0264
   29CHL1  H18A 3280   3.777   5.195   5.924  0.7742  0.0696 -0.7260
   29CHL1  H18B 3281   3.860   5.149   6.082 -0.1431 -0.9920  0.5513
   29CHL1  H18C 3282   3.934   5.118   5.923 -0.7368  2.5332 -2.2817
   29CHL1   C12 3283   3.617   5.016   6.029  0.4749 -0.3960  0.2526
   29CHL1  H12A 3284   3.561   5.106   5.996  2.3141  1.3914  1.7348
   29CHL1  H12B 3285   3.546   4.938   5.997 -1.9267  0.9532  1.9240
   29CHL1   C11 3286   3.628   5.024   6.190 -0.4646  0.7625  0.7412
   29CHL1  H11A 3287   3.691   5.113   6.210  2.0087 -0.6458 -0.2776
   29CHL1  H11B 3288   3.523   5.035   6.223 -0.8507  1.2318 -0.5721
   29CHL1    C9 3289   3.697   4.897   6.242  0.1765  0.6911 -0.1655
   29CHL1    H9 3290   3.641   4.808   6.206  4.3924 -2.2236 -0.2444
   29CHL1   C10 3291   3.700   4.891   6.402 -0.2334  0.2181 -0.1250
   29CHL1   C19 3292   3.728   5.033   6.451  0.2096  0.1053  0.4556
   29CHL1  H19A 3293   3.743   5.025   6.561 -0.2076 -0.5325  0.4722
   29CHL1  H19B 3294   3.806   5.085   6.391 -0.8005 -0.5699 -1.5405
   29CHL1  H19C 3295   3.639   5.097   6.432  1.5059  1.9565  0.3274
   29CHL1    C1 3296   3.563   4.848   6.454 -0.0094 -0.5692  1.1195
   29CHL1   H1A 3297   3.497   4.937   6.448 -0.9129 -1.1559  1.9456
   29CHL1   H1B 3298   3.528   4.763   6.391  1.9409 -1.1340  0.7542
   29CHL1    C2 3299   3.546   4.815   6.602  0.4981  0.9027 -0.4272
   29CHL1   H2A 3300   3.447   4.766   6.611  1.1092 -0.7346 -2.0179
   29CHL1   H2B 3301   3.551   4.904   6.669 -2.6654  0.4487  0.5539
   29CHL1   C20 3302   3.723   5.028   5.702  0.3758 -0.2027 -0.5186
   29CHL1   H20 3303   3.784   5.120   5.708 -0.9016  0.5505  2.2650
   29CHL1   C21 3304   3.573   5.070   5.704  0.0801  0.3578 -0.2665
   29CHL1  H21A 3305   3.519   4.973   5.707 -1.2523  1.0678 -0.6010
   29CHL1  H21B 3306   3.533   5.120   5.614  0.3787  0.1694 -0.5075
   29CHL1  H21C 3307   3.550   5.133   5.792  0.3032 -2.0672  1.6477
   29CHL1   C22 3308   3.757   4.961   5.561 -0.4731 -0.3105 -0.1048
   29CHL1  H22A 3309   3.864   4.932   5.552 -0.5263 -0.0499 -1.9963
   29CHL1  H22B 3310   3.687   4.875   5.563 -0.3193 -0.4419  2.3841
   29CHL1   C23 3311   3.751   5.056   5.436 -0.5955  0.1137 -0.4331
   29CHL1  H23A 3312   3.654   5.110   5.440 -0.3699  0.4439  0.7460
   29CHL1  H23B 3313   3.835   5.128   5.449 -0.3971  0.1240 -1.6212
   29CHL1   C24 3314   3.757   4.985   5.302 -0.4924  0.9342 -0.0945
   29CHL1  H24A 3315   3.796   4.886   5.334 -0.7715  0.7028 -0.4646
   29CHL1  H24B 3316   3.652   4.978   5.267 -0.0068 -0.9784 -1.3396
   29CHL1   C25 3317   3.854   5.048   5.205  0.3085 -1.1206  0.7875
   29CHL1   H25 3318   3.825   5.155   5.196 -1.9433 -1.6514  1.1014
   29CHL1   C26 3319   4.000   5.054   5.250  0.2813 -0.3099  0.1055
   29CHL1  H26A 3320   4.053   5.124   5.182 -0.3870 -0.3130 -0.4336
   29CHL1  H26B 3321   3.998   5.103   5.349 -0.0039 -0.2460  0.0696
   29CHL1  H26C 3322   4.062   4.963   5.263  0.3175 -0.2176  0.5733
   29CHL1   C27 3323   3.845   4.972   5.078  0.1386  0.0055 -0.6721
   29CHL1  H27A 3324   3.930   5.004   5.014  1.1858 -1.4033 -0.0618
   29CHL1  H27B 3325   3.863   4.862   5.088  0.8408  0.2626  1.3802
   29CHL1  H27C 3326   3.756   4.990   5.015 -1.7790 -1.1696  1.5639
   30CHL1    C3 3327   4.663   3.579   6.115 -0.8197 -0.0398 -0.3823
   30CHL1    H3 3328   4.693   3.682   6.144 -2.6995  0.2711  0.5990
   30CHL1    O3 3329   4.647   3.526   6.244 -0.4790  0.1261  0.0458
   30CHL1   H3' 3330   4.738   3.517   6.274  0.3590  2.5355 -1.5082
   30CHL1    C4 3331   4.525   3.568   6.051 -0.7822  0.5729  0.1344
   30CHL1   H4A 3332   4.496   3.461   6.052 -2.7467  1.0784  0.3551
   30CHL1   H4B 3333   4.456   3.630   6.112 -1.1368  1.3796 -1.0591
   30CHL1    C5 3334   4.541   3.623   5.913 -0.0372 -0.5223 -0.6939
   30CHL1    C6 3335   4.460   3.730   5.883 -0.8244 -0.2825  0.2090
   30CHL1    H6 3336   4.387   3.760   5.958  0.5815 -1.5540  2.1953
   30CHL1    C7 3337   4.458   3.791   5.745  0.5558 -0.1670  0.2539
   30CHL1   H7A 3338   4.354   3.806   5.711  0.3657 -0.1914  0.8117
   30CHL1   H7B 3339   4.499   3.894   5.751 -0.7790  0.3368  1.0935
   30CHL1    C8 3340   4.516   3.704   5.637 -0.3258  0.1378  0.5074
   30CHL1    H8 3341   4.452   3.616   5.616  1.7054 -1.8813  2.2201
   30CHL1   C14 3342   4.550   3.788   5.509 -0.1228  0.3618  0.0448
   30CHL1   H14 3343   4.633   3.860   5.528 -0.2858  0.4074  0.6175
   30CHL1   C15 3344   4.430   3.863   5.449  0.1596  0.3865 -0.7685
   30CHL1  H15A 3345   4.343   3.795   5.435  0.7135 -0.1766 -1.4717
   30CHL1  H15B 3346   4.389   3.944   5.514  0.0720  0.3288 -0.7512
   30CHL1   C16 3347   4.481   3.915   5.312 -0.3343  0.6706  0.3683
   30CHL1  H16A 3348   4.399   3.891   5.241  0.2308  2.2090 -0.8642
   30CHL1  H16B 3349   4.504   4.023   5.306  0.5237  0.4202 -1.3264
   30CHL1   C17 3350   4.609   3.823   5.278 -1.2271  0.1807  0.0376
   30CHL1   H17 3351   4.697   3.885   5.307 -0.7573 -1.6557  2.9161
   30CHL1   C13 3352   4.604   3.703   5.386  0.1934 -0.0876  0.4349
   30CHL1   C18 3353   4.507   3.587   5.340 -0.1300 -0.4499 -0.4612
   30CHL1  H18A 3354   4.400   3.616   5.334  0.2088  0.9598 -0.1403
   30CHL1  H18B 3355   4.530   3.553   5.237 -1.6428 -0.7266 -0.7303
   30CHL1  H18C 3356   4.513   3.498   5.407 -0.5419  0.9142  1.4959
   30CHL1   C12 3357   4.744   3.647   5.430  0.3020 -0.5459 -0.2779
   30CHL1  H12A 3358   4.788   3.593   5.344 -2.0974 -2.9573 -0.1246
   30CHL1  H12B 3359   4.810   3.735   5.445  1.0088 -1.1573  0.2405
   30CHL1   C11 3360   4.724   3.568   5.564  0.3071  0.0185 -0.2015
   30CHL1  H11A 3361   4.673   3.474   5.531  1.0895  0.3694 -2.5935
   30CHL1  H11B 3362   4.825   3.540   5.600 -0.6722 -3.1405  0.4449
   30CHL1    C9 3363   4.651   3.642   5.682 -0.1607 -0.3014 -1.3817
   30CHL1    H9 3364   4.720   3.728   5.694 -0.7275 -0.1450  1.2857
   30CHL1   C10 3365   4.648   3.566   5.817  0.2223 -0.5452 -0.0859
   30CHL1   C19 3366   4.601   3.422   5.787  0.4123  0.1012  0.1023
   30CHL1  H19A 3367   4.685   3.367   5.739  0.7133 -0.2271  0.9911
   30CHL1  H19B 3368   4.584   3.363   5.879  1.9327  0.4754  0.6452
   30CHL1  H19C 3369   4.512   3.416   5.720 -1.7230  0.2202  2.7576
   30CHL1    C1 3370   4.784   3.568   5.897  0.8064 -0.1785  0.1628
   30CHL1   H1A 3371   4.862   3.505   5.847  1.4352  0.5455  0.2101
   30CHL1   H1B 3372   4.827   3.670   5.899  1.5433 -0.4743 -0.0054
   30CHL1    C2 3373   4.769   3.509   6.036  0.1563 -0.0809 -0.5248
   30CHL1   H2A 3374   4.868   3.519   6.086 -1.5660 -2.6385  4.0120
   30CHL1   H2B 3375   4.742   3.402   6.028  1.3274 -0.2654 -2.6096
   30CHL1   C20 3376   4.625   3.779   5.124 -0.2230 -0.2109 -0.1915
   30CHL1   H20 3377   4.546   3.703   5.107 -1.0291  0.6518 -0.4019
   30CHL1   C21 3378   4.756   3.713   5.088  0.2232 -0.6695 -0.7231
   30CHL1  H21A 3379   4.763   3.608   5.125  2.6252  0.2024  1.6803
   30CHL1  H21B 3380   4.836   3.774   5.135 -1.1836  1.5227 -1.0362
   30CHL1  H21C 3381   4.779   3.711   4.979 -0.7185 -0.0717 -0.9429
   30CHL1   C22 3382   4.597   3.899   5.024  0.7782  0.1161 -0.7624
   30CHL1  H22A 3383   4.621   3.871   4.919  0.6080 -1.5334 -0.3864
   30CHL1  H22B 3384   4.489   3.924   5.025  0.7423  0.8815 -5.0497
   30CHL1   C23 3385   4.682   4.028   5.051 -0.1981  0.1023  0.3285
   30CHL1  H23A 3386   4.667   4.064   5.155 -2.2759 -2.5975  1.0958
   30CHL1  H23B 3387   4.789   4.005   5.032 -0.2423  2.0698 -3.1034
   30CHL1   C24 3388   4.639   4.139   4.945  0.3487 -0.0723 -0.2628
   30CHL1  H24A 3389   4.677   4.127   4.841 -0.3508  0.2124 -0.5538
   30CHL1  H24B 3390   4.529   4.136   4.936  0.4718  0.4464 -3.5101
   30CHL1   C25 3391   4.662   4.287   4.990 -0.3595 -0.0858 -0.0818
   30CHL1   H25 3392   4.614   4.286   5.090  0.1602 -1.4342  0.1773
   30CHL1   C26 3393   4.805   4.324   4.990  0.5688 -0.3356 -0.5680
   30CHL1  H26A 3394   4.850   4.331   4.889  1.2172 -3.3832 -0.5768
   30CHL1  H26B 3395   4.822   4.426   5.031 -1.7984  0.5801 -1.6754
   30CHL1  H26C 3396   4.863   4.253   5.053 -0.1046 -0.6479 -0.2887
   30CHL1   C27 3397   4.569   4.388   4.919 -0.3480  0.1063 -0.2586
   30CHL1  H27A 3398   4.579   4.486   4.971 -2.8620  1.3547 -1.9297
   30CHL1  H27B 3399   4.607   4.395   4.815 -1.5678 -0.8363 -0.7923
   30CHL1  H27C 3400   4.462   4.358   4.919 -0.6984  1.2742  0.8458
   31CHL1    C3 3401   3.906   4.260   6.690 -0.2468  0.1016  0.2884
   31CHL1    H3 3402   3.834   4.180   6.665 -1.3837  1.3267 -0.4616
   31CHL1    O3 3403   3.894   4.292   6.830 -0.1320  0.3294  0.7426
   31CHL1   H3' 3404   3.967   4.351   6.846 -1.4537  1.2461  4.1679
   31CHL1    C4 3405   4.053   4.223   6.654 -0.8981 -0.0161 -0.3129
   31CHL1   H4A 3406   4.111   4.312   6.687 -1.8680  0.0192  1.4141
   31CHL1   H4B 3407   4.096   4.149   6.726 -0.3894  1.2028  0.6932
   31CHL1    C5 3408   4.065   4.208   6.509  0.0366  0.3812 -0.1646
   31CHL1    C6 3409   4.110   4.095   6.456 -0.1385 -0.2704 -0.2914
   31CHL1    H6 3410   4.140   4.015   6.525 -3.6148 -0.7812  0.8329
   31CHL1    C7 3411   4.134   4.076   6.307 -0.2264 -0.2386 -0.0931
   31CHL1   H7A 3412   4.231   4.028   6.282 -0.4738 -0.3744 -0.8265
   31CHL1   H7B 3413   4.047   4.013   6.279 -2.1365  1.3893  1.7820
   31CHL1    C8 3414   4.122   4.200   6.218 -0.2608  0.3225  0.0363
   31CHL1    H8 3415   4.212   4.265   6.220 -0.9270  1.3292 -1.2832
   31CHL1   C14 3416   4.096   4.161   6.073  0.4131 -0.0846 -0.1739
   31CHL1   H14 3417   4.009   4.096   6.094  0.6583  0.2721  2.2780
   31CHL1   C15 3418   4.198   4.063   6.003 -0.1912 -0.9839 -0.4347
   31CHL1  H15A 3419   4.297   4.111   6.019 -1.2225  1.0478  0.2516
   31CHL1  H15B 3420   4.207   3.960   6.043  1.0164 -0.4982  0.6217
   31CHL1   C16 3421   4.159   4.081   5.850 -0.3585 -0.2181 -0.5236
   31CHL1  H16A 3422   4.242   4.110   5.783  0.8277  0.4281  1.1626
   31CHL1  H16B 3423   4.107   3.987   5.819 -0.5081 -0.6709  1.0098
   31CHL1   C17 3424   4.051   4.203   5.841 -0.6412 -0.4892 -0.5235
   31CHL1   H17 3425   3.953   4.150   5.842 -1.0889  0.2636  1.9397
   31CHL1   C13 3426   4.060   4.270   5.980  0.2259 -0.1653  0.5221
   31CHL1   C18 3427   4.179   4.370   5.973 -0.0637  0.0906  0.2362
   31CHL1  H18A 3428   4.204   4.403   6.076 -2.9585  0.0999  1.0265
   31CHL1  H18B 3429   4.266   4.326   5.920 -0.7620  2.3065 -3.0555
   31CHL1  H18C 3430   4.151   4.456   5.909  0.4325 -1.9861 -3.0356
   31CHL1   C12 3431   3.932   4.336   6.029 -0.7079 -0.6546  0.9548
   31CHL1  H12A 3432   3.889   4.413   5.962  1.8618  1.8889  2.0123
   31CHL1  H12B 3433   3.858   4.255   6.043 -0.3695 -1.1232  0.1029
   31CHL1   C11 3434   3.949   4.399   6.169 -0.0419 -0.7056 -0.3186
   31CHL1  H11A 3435   4.007   4.494   6.162  0.9265 -1.3696 -1.6852
   31CHL1  H11B 3436   3.847   4.426   6.206  0.2637 -1.5694  1.2207
   31CHL1    C9 3437   3.999   4.285   6.267 -0.1030 -0.4033  0.0241
   31CHL1    H9 3438   3.918   4.210   6.262 -1.2241  0.7390  0.4133
   31CHL1   C10 3439   4.019   4.328   6.414 -0.0167  0.0989 -0.0700
   31CHL1   C19 3440   4.121   4.447   6.427 -0.0084  0.5948  1.0148
   31CHL1  H19A 3441   4.107   4.529   6.353 -1.4539 -0.7066 -0.2230
   31CHL1  H19B 3442   4.129   4.489   6.530 -0.9443  2.1834  0.4750
   31CHL1  H19C 3443   4.219   4.398   6.412 -0.5189 -0.4099  0.9199
   31CHL1    C1 3444   3.880   4.376   6.471  0.2298 -0.4415  0.7242
   31CHL1   H1A 3445   3.856   4.477   6.431 -1.3461 -0.5300  1.3950
   31CHL1   H1B 3446   3.801   4.305   6.439 -0.2740  0.7125 -0.6993
   31CHL1    C2 3447   3.868   4.389   6.619 -1.2026  0.0175  0.1201
   31CHL1   H2A 3448   3.763   4.416   6.645 -1.7186 -0.9651 -0.8260
   31CHL1   H2B 3449   3.936   4.471   6.651 -1.4009 -0.1978  1.1173
   31CHL1   C20 3450   4.068   4.291   5.712 -0.0729 -0.4559  0.1148
   31CHL1   H20 3451   4.162   4.349   5.724 -1.0612  0.6075  4.7115
   31CHL1   C21 3452   3.954   4.394   5.700  0.2112  0.1438  0.2344
   31CHL1  H21A 3453   3.969   4.480   5.768 -1.4128 -0.2232  1.1186
   31CHL1  H21B 3454   3.858   4.344   5.725  0.2849  0.8041  1.9379
   31CHL1  H21C 3455   3.952   4.434   5.597 -1.3301 -0.6500 -0.0774
   31CHL1   C22 3456   4.068   4.202   5.585  0.7537 -0.0133 -0.8825
   31CHL1  H22A 3457   4.129   4.112   5.609  0.7831  0.4848  1.1340
   31CHL1  H22B 3458   3.967   4.169   5.553 -1.3701  3.3513  1.6398
   31CHL1   C23 3459   4.137   4.274   5.460  0.5039  0.3118 -0.2911
   31CHL1  H23A 3460   4.069   4.355   5.426  0.1986 -0.4323 -1.5272
   31CHL1  H23B 3461   4.228   4.321   5.504  0.1648  0.5402  0.1809
   31CHL1   C24 3462   4.169   4.184   5.344  0.1931  0.7935 -0.6166
   31CHL1  H24A 3463   4.241   4.105   5.376  0.2699  0.6782 -1.0734
   31CHL1  H24B 3464   4.074   4.136   5.313 -0.2464  0.8779  0.5508
   31CHL1   C25 3465   4.234   4.253   5.223 -0.0161 -0.0113  0.5958
   31CHL1   H25 3466   4.170   4.340   5.194 -0.7767 -0.6539  0.3068
   31CHL1   C26 3467   4.365   4.320   5.263  0.1869  0.0956  0.6904
   31CHL1  H26A 3468   4.403   4.368   5.170 -0.3496 -0.3536  0.2315
   31CHL1  H26B 3469   4.351   4.396   5.343 -0.7816  1.6459 -0.8669
   31CHL1  H26C 3470   4.440   4.249   5.303 -1.4351 -1.4186  1.2131
   31CHL1   C27 3471   4.256   4.156   5.109  0.0246 -0.2844 -0.6004
   31CHL1  H27A 3472   4.341   4.086   5.122 -1.4051 -2.0469 -0.3388
   31CHL1  H27B 3473   4.160   4.099   5.105  0.9357 -1.8862 -0.5671
   31CHL1  H27C 3474   4.262   4.222   5.020  1.9942 -1.6764 -1.5630
   32CHL1    C3 3475   4.778   2.392   6.553 -0.1716  0.5393 -0.3630
   32CHL1    H3 3476   4.743   2.287   6.559 -3.7596  1.6781  1.2249
   32CHL1    O3 3477   4.821   2.454   6.674 -0.0322  0.4402  0.6320
   32CHL1   H3' 3478   4.908   2.491   6.658 -0.4986  1.3103  0.0142
   32CHL1    C4 3479   4.882   2.413   6.445 -0.3669 -0.2544 -0.8368
   32CHL1   H4A 3480   4.893   2.524   6.436  0.2304 -0.3743 -1.7791
   32CHL1   H4B 3481   4.977   2.374   6.484 -0.7792 -2.7308 -2.1072
   32CHL1    C5 3482   4.837   2.355   6.310 -0.9070  0.0176 -0.0828
   32CHL1    C6 3483   4.911   2.254   6.260 -1.1703  0.0153  0.2501
   32CHL1    H6 3484   5.000   2.221   6.316 -0.8753  2.9167  1.7223
   32CHL1    C7 3485   4.875   2.188   6.129 -0.1445  0.3533  0.1473
   32CHL1   H7A 3486   4.964   2.187   6.063 -1.0338 -2.0862 -1.1447
   32CHL1   H7B 3487   4.843   2.082   6.142 -1.3173  0.7366  0.5074
   32CHL1    C8 3488   4.773   2.272   6.048 -0.4472 -0.0530  0.1787
   32CHL1    H8 3489   4.821   2.366   6.014 -1.0069  0.5274  0.9550
   32CHL1   C14 3490   4.719   2.186   5.930 -0.3544 -0.7587  0.0691
   32CHL1   H14 3491   4.666   2.098   5.974 -2.8709  0.1186 -1.0382
   32CHL1   C15 3492   4.824   2.129   5.833 -1.2069 -1.0969 -0.3763
   32CHL1  H15A 3493   4.903   2.203   5.808 -1.6772  0.2594  1.8762
   32CHL1  H15B 3494   4.879   2.045   5.881  2.6051  0.9403 -0.8008
   32CHL1   C16 3495   4.736   2.083   5.717 -0.0748 -0.8108 -0.6009
   32CHL1  H16A 3496   4.784   2.129   5.628 -0.9263 -0.2666 -0.7819
   32CHL1  H16B 3497   4.720   1.973   5.713 -2.0081 -0.6000  0.4463
   32CHL1   C17 3498   4.596   2.151   5.730 -0.2403 -0.6198 -0.1922
   32CHL1   H17 3499   4.529   2.073   5.772 -0.5827  0.1069  0.6466
   32CHL1   C13 3500   4.614   2.258   5.839 -0.3155  0.3231 -0.4065
   32CHL1   C18 3501   4.683   2.385   5.772  0.6728  1.0492 -0.3258
   32CHL1  H18A 3502   4.773   2.362   5.711  0.6862  1.5366 -0.4906
   32CHL1  H18B 3503   4.610   2.440   5.710  0.2163  0.6746 -0.1315
   32CHL1  H18C 3504   4.714   2.451   5.856 -0.2413 -0.8464  1.6008
   32CHL1   C12 3505   4.497   2.299   5.935 -0.0601 -0.0709  0.3431
   32CHL1  H12A 3506   4.413   2.351   5.883 -0.7527 -1.4835 -0.0038
   32CHL1  H12B 3507   4.454   2.207   5.979  0.6081 -0.0784  0.9875
   32CHL1   C11 3508   4.548   2.393   6.047 -0.1551 -0.1206  0.5286
   32CHL1  H11A 3509   4.593   2.483   5.999  0.4674 -0.6155  0.1628
   32CHL1  H11B 3510   4.470   2.421   6.120  1.1309  0.6798  1.6465
   32CHL1    C9 3511   4.652   2.322   6.131 -0.7158 -0.2911  0.0201
   32CHL1    H9 3512   4.601   2.232   6.172  0.3111 -0.5205  0.8509
   32CHL1   C10 3513   4.699   2.407   6.252  0.3834  0.4916 -1.2431
   32CHL1   C19 3514   4.722   2.555   6.212 -0.2484  0.4354  0.2972
   32CHL1  H19A 3515   4.737   2.635   6.287  0.1105  0.2491  0.4263
   32CHL1  H19B 3516   4.798   2.569   6.133 -0.2353  3.0791  0.6757
   32CHL1  H19C 3517   4.629   2.601   6.172 -0.6761 -0.9048 -0.2903
   32CHL1    C1 3518   4.599   2.396   6.366  0.2513  0.2934  0.2413
   32CHL1   H1A 3519   4.505   2.453   6.347  0.6744  0.3094 -2.1516
   32CHL1   H1B 3520   4.562   2.292   6.379  0.5800 -0.0362 -1.2465
   32CHL1    C2 3521   4.646   2.458   6.507  0.0069  0.5427  0.4048
   32CHL1   H2A 3522   4.561   2.429   6.572 -0.6335  1.4088 -0.0218
   32CHL1   H2B 3523   4.658   2.569   6.499  0.1330  0.5141  0.2045
   32CHL1   C20 3524   4.528   2.191   5.600  0.1548 -0.3426  0.6569
   32CHL1   H20 3525   4.563   2.289   5.561 -3.4565  1.6570  1.9153
   32CHL1   C21 3526   4.380   2.227   5.630 -0.0403  0.2237 -0.2663
   32CHL1  H21A 3527   4.365   2.326   5.679 -1.9553 -0.1007 -0.1377
   32CHL1  H21B 3528   4.327   2.152   5.693  1.2992  0.9405  1.8606
   32CHL1  H21C 3529   4.330   2.216   5.532 -2.6300  0.6422  0.9255
   32CHL1   C22 3530   4.546   2.091   5.478  0.1762  0.0015  0.2141
   32CHL1  H22A 3531   4.639   2.032   5.489  1.4251  1.7153 -0.6631
   32CHL1  H22B 3532   4.466   2.015   5.486 -0.5837  0.5869 -1.3609
   32CHL1   C23 3533   4.559   2.151   5.335 -0.4029  0.3281 -0.5075
   32CHL1  H23A 3534   4.463   2.198   5.307 -0.2695  0.8372 -0.1198
   32CHL1  H23B 3535   4.634   2.233   5.337 -0.4829  0.4544 -1.7295
   32CHL1   C24 3536   4.596   2.045   5.224 -0.3343 -0.1362 -0.5904
   32CHL1  H24A 3537   4.697   2.005   5.242 -1.0868 -1.4423  1.0015
   32CHL1  H24B 3538   4.520   1.964   5.229 -1.4153  0.9057  1.4079
   32CHL1   C25 3539   4.585   2.117   5.091  0.1918 -0.3730  0.2593
   32CHL1   H25 3540   4.477   2.144   5.079  0.7151  1.7721  0.0330
   32CHL1   C26 3541   4.649   2.258   5.095  0.2860  0.4385  0.5341
   32CHL1  H26A 3542   4.650   2.312   4.998  1.9142 -2.0829 -0.9718
   32CHL1  H26B 3543   4.604   2.326   5.170 -0.8922  1.6046 -1.1648
   32CHL1  H26C 3544   4.755   2.244   5.125 -0.1405  0.1976  2.0288
   32CHL1   C27 3545   4.635   2.037   4.964  0.0493 -0.4554 -0.8008
   32CHL1  H27A 3546   4.745   2.051   4.976 -0.5179  2.4840  2.6669
   32CHL1  H27B 3547   4.595   1.933   4.970 -0.6262 -0.1778 -0.3950
   32CHL1  H27C 3548   4.601   2.078   4.867 -0.7483 -0.4988 -0.5446
   33CHL1    C3 3549   2.558   3.698   6.831 -0.1264  0.7869  0.1089
   33CHL1    H3 3550   2.496   3.787   6.805  0.0848  0.5897 -1.1602
   33CHL1    O3 3551   2.537   3.668   6.962  0.0545  0.2426 -0.4871
   33CHL1   H3' 3552   2.547   3.752   7.007 -1.6444 -0.7923  2.0080
   33CHL1    C4 3553   2.521   3.586   6.742 -0.6119  0.3983 -0.0373
   33CHL1   H4A 3554   2.598   3.510   6.767  0.4789  0.4045 -2.9345
   33CHL1   H4B 3555   2.423   3.539   6.765  0.2214 -1.2186  0.3664
   33CHL1    C5 3556   2.537   3.613   6.590 -0.0263 -0.4287  0.0992
   33CHL1    C6 3557   2.426   3.607   6.509 -0.4136  0.1789  0.6901
   33CHL1    H6 3558   2.331   3.580   6.558 -1.3060  1.8019 -0.0865
   33CHL1    C7 3559   2.432   3.636   6.358 -0.4401  0.5299 -0.0090
   33CHL1   H7A 3560   2.388   3.557   6.294  0.6099  0.0427 -0.1547
   33CHL1   H7B 3561   2.387   3.735   6.336 -2.7489 -0.1119  1.5830
   33CHL1    C8 3562   2.578   3.642   6.308  0.2687 -0.1215  0.3206
   33CHL1    H8 3563   2.619   3.539   6.298 -1.3399 -0.7583 -0.0393
   33CHL1   C14 3564   2.586   3.717   6.178 -0.2100 -0.0289 -0.8390
   33CHL1   H14 3565   2.572   3.820   6.218  1.7876 -1.0969  2.9871
   33CHL1   C15 3566   2.485   3.698   6.068  0.4555  0.1334 -0.0581
   33CHL1  H15A 3567   2.468   3.591   6.045  0.6739 -0.0587  0.6416
   33CHL1  H15B 3568   2.394   3.750   6.106  0.5645  0.1433  0.1908
   33CHL1   C16 3569   2.539   3.755   5.938  0.2089  0.8159 -0.3966
   33CHL1  H16A 3570   2.565   3.681   5.860 -1.6731 -0.9767  0.5719
   33CHL1  H16B 3571   2.476   3.838   5.898  2.3067  2.9187  0.3939
   33CHL1   C17 3572   2.676   3.811   5.976  0.0973  0.2701  0.4682
   33CHL1   H17 3573   2.647   3.910   6.015 -1.4926  0.5120 -1.2111
   33CHL1   C13 3574   2.719   3.735   6.107 -0.0055  0.1788 -0.8298
   33CHL1   C18 3575   2.773   3.594   6.080 -0.6929 -0.4091  0.4730
   33CHL1  H18A 3576   2.716   3.541   6.000  0.3672  0.7660 -1.1152
   33CHL1  H18B 3577   2.875   3.591   6.035 -0.2259  1.0278  1.3607
   33CHL1  H18C 3578   2.779   3.531   6.171 -0.0800  0.0582  0.7611
   33CHL1   C12 3579   2.813   3.814   6.202 -0.0279  0.3262  0.2968
   33CHL1  H12A 3580   2.920   3.807   6.170  0.7674 -2.4833  3.0715
   33CHL1  H12B 3581   2.784   3.921   6.201 -1.7597 -0.1055  1.2102
   33CHL1   C11 3582   2.815   3.759   6.347 -0.6454  0.5925 -0.0253
   33CHL1  H11A 3583   2.875   3.665   6.343 -0.2823  0.8507 -0.8076
   33CHL1  H11B 3584   2.864   3.827   6.419  3.6380 -0.3644 -1.6978
   33CHL1    C9 3585   2.665   3.723   6.401 -0.6614 -0.0351 -0.9912
   33CHL1    H9 3586   2.624   3.826   6.414 -0.4867 -0.1216  0.3815
   33CHL1   C10 3587   2.673   3.660   6.550 -0.2124 -0.1303 -0.0193
   33CHL1   C19 3588   2.763   3.535   6.547  0.7113 -0.6408 -0.9476
   33CHL1  H19A 3589   2.867   3.569   6.523  0.6934 -1.8196 -2.8546
   33CHL1  H19B 3590   2.750   3.473   6.637 -2.8468 -0.8854 -1.4984
   33CHL1  H19C 3591   2.740   3.471   6.459  3.9485 -2.6761 -0.4878
   33CHL1    C1 3592   2.725   3.762   6.657 -0.0376 -0.2998 -0.0979
   33CHL1   H1A 3593   2.832   3.779   6.631 -0.1233 -0.1327 -0.3460
   33CHL1   H1B 3594   2.676   3.858   6.634  3.9133  1.4776 -2.1109
   33CHL1    C2 3595   2.707   3.733   6.808 -0.1753  0.2928 -0.4390
   33CHL1   H2A 3596   2.753   3.811   6.873  2.5893 -3.1852  2.1774
   33CHL1   H2B 3597   2.761   3.638   6.825 -0.5371  0.6137  3.5514
   33CHL1   C20 3598   2.782   3.818   5.857  0.7569  0.0798  0.2572
   33CHL1   H20 3599   2.797   3.715   5.818 -0.0662  0.2165 -0.4325
   33CHL1   C21 3600   2.922   3.864   5.896 -0.4423  1.1237 -0.0711
   33CHL1  H21A 3601   2.955   3.789   5.970 -0.3521 -0.7066 -1.8889
   33CHL1  H21B 3602   2.929   3.971   5.926  1.1249  0.9901  0.1518
   33CHL1  H21C 3603   2.995   3.857   5.812  0.8602  0.1863  1.0924
   33CHL1   C22 3604   2.732   3.903   5.740 -0.6618 -0.5418  0.2599
   33CHL1  H22A 3605   2.623   3.896   5.717 -0.6859  0.9549 -0.1881
   33CHL1  H22B 3606   2.753   4.006   5.777 -0.4754  0.0677 -1.4535
   33CHL1   C23 3607   2.808   3.881   5.607 -0.2752 -0.2346 -0.2621
   33CHL1  H23A 3608   2.912   3.918   5.614 -0.2632  0.3832 -2.6691
   33CHL1  H23B 3609   2.807   3.773   5.578 -0.1900 -0.9659  2.2846
   33CHL1   C24 3610   2.740   3.952   5.485  0.3686  0.0133 -0.7534
   33CHL1  H24A 3611   2.652   3.891   5.456  0.2830 -0.2746  0.0980
   33CHL1  H24B 3612   2.703   4.049   5.524 -2.2719 -0.8356 -0.9589
   33CHL1   C25 3613   2.829   3.970   5.365  0.1490  0.0581 -0.0144
   33CHL1   H25 3614   2.921   4.030   5.383  0.4430  0.1237 -1.5629
   33CHL1   C26 3615   2.855   3.830   5.307 -0.1458 -0.4756  0.7005
   33CHL1  H26A 3616   2.760   3.774   5.294  0.2889 -0.9413 -0.6484
   33CHL1  H26B 3617   2.909   3.842   5.211 -3.5742 -3.8482 -1.9689
   33CHL1  H26C 3618   2.916   3.776   5.383  0.9054  0.4833  0.5632
   33CHL1   C27 3619   2.756   4.065   5.258  0.2595 -0.2599  0.4154
   33CHL1  H27A 3620   2.661   4.029   5.214 -1.4234  1.3695  2.4934
   33CHL1  H27B 3621   2.735   4.161   5.310 -0.1771 -0.2774  0.2731
   33CHL1  H27C 3622   2.830   4.095   5.181  0.2437  0.2593  0.5941
   34CHL1    C3 3623   6.230   2.663   6.377 -0.2082 -0.1311  0.2489
   34CHL1    H3 3624   6.289   2.572   6.353 -1.8688 -0.6400 -2.2687
   34CHL1    O3 3625   6.261   2.707   6.510 -0.4630 -0.3457  0.3780
   34CHL1   H3' 3626   6.263   2.628   6.564  2.0829  0.0229  0.9393
   34CHL1    C4 3627   6.265   2.774   6.272 -0.3726  0.8136  0.5680
   34CHL1   H4A 3628   6.242   2.873   6.317  0.1998  0.6761  1.1699
   34CHL1   H4B 3629   6.375   2.784   6.269 -0.1870 -0.0123 -4.2294
   34CHL1    C5 3630   6.201   2.748   6.134  0.4267 -0.5825  0.1244
   34CHL1    C6 3631   6.269   2.773   6.022 -0.5550  0.6884 -0.2679
   34CHL1    H6 3632   6.374   2.803   6.034 -0.1325 -0.7854 -0.1013
   34CHL1    C7 3633   6.207   2.774   5.882  0.6420 -0.0745 -0.4743
   34CHL1   H7A 3634   6.243   2.863   5.825 -0.7233  0.2662 -0.8402
   34CHL1   H7B 3635   6.247   2.686   5.827 -1.6677 -1.3184 -0.2746
   34CHL1    C8 3636   6.055   2.774   5.881  0.4998  0.0822 -0.3539
   34CHL1    H8 3637   6.023   2.880   5.895 -0.6540 -0.3437  0.3993
   34CHL1   C14 3638   6.007   2.717   5.749 -0.2552  0.7457 -0.6134
   34CHL1   H14 3639   6.045   2.613   5.748 -0.3693  0.6631  0.9583
   34CHL1   C15 3640   6.055   2.778   5.612  0.6805  0.1316 -0.6702
   34CHL1  H15A 3641   6.051   2.889   5.609 -0.4766  0.0945 -1.0851
   34CHL1  H15B 3642   6.146   2.729   5.571 -0.3354 -2.3470 -0.1355
   34CHL1   C16 3643   5.946   2.729   5.507  0.8941 -0.6573 -0.5283
   34CHL1  H16A 3644   5.911   2.828   5.470  0.8630 -1.3209 -2.3358
   34CHL1  H16B 3645   5.994   2.671   5.426  3.1647  1.7481 -1.0475
   34CHL1   C17 3646   5.838   2.656   5.593 -0.6199  0.4107 -0.2195
   34CHL1   H17 3647   5.872   2.550   5.600 -0.5359  0.5433  2.0837
   34CHL1   C13 3648   5.857   2.709   5.735 -0.0298  0.2530  0.0025
   34CHL1   C18 3649   5.803   2.859   5.752 -0.4984 -0.4886 -0.7736
   34CHL1  H18A 3650   5.692   2.855   5.759 -0.3404 -1.1390  2.3881
   34CHL1  H18B 3651   5.842   2.910   5.843 -0.8691 -2.5245  0.5799
   34CHL1  H18C 3652   5.833   2.928   5.670 -1.1284  2.5809  1.4057
   34CHL1   C12 3653   5.795   2.617   5.841 -0.0270 -0.0428 -0.5298
   34CHL1  H12A 3654   5.684   2.626   5.829  0.1369  2.2213 -0.7566
   34CHL1  H12B 3655   5.831   2.512   5.834 -0.0096 -0.0775  0.0239
   34CHL1   C11 3656   5.835   2.669   5.982 -0.0749 -1.0286 -0.2874
   34CHL1  H11A 3657   5.793   2.770   6.000 -0.1682 -1.0348 -0.4656
   34CHL1  H11B 3658   5.802   2.596   6.058 -0.2243 -2.4933 -1.7037
   34CHL1    C9 3659   5.990   2.687   5.995 -0.3539 -0.2390 -0.5892
   34CHL1    H9 3660   6.021   2.582   5.976 -0.1716 -0.0958 -1.1245
   34CHL1   C10 3661   6.042   2.724   6.141  0.0836  0.7730  0.7902
   34CHL1   C19 3662   5.964   2.851   6.195  0.4203  0.4919  0.0797
   34CHL1  H19A 3663   5.990   2.934   6.125 -0.4424 -0.6847 -1.7120
   34CHL1  H19B 3664   5.854   2.840   6.199  0.1010  2.2450 -1.8563
   34CHL1  H19C 3665   5.993   2.865   6.301 -0.9131  0.0468  0.5149
   34CHL1    C1 3666   6.019   2.611   6.236 -0.7450 -0.0729  0.4424
   34CHL1   H1A 3667   5.912   2.586   6.249 -1.0141  1.6535  1.7595
   34CHL1   H1B 3668   6.062   2.517   6.192 -2.1363 -1.6550  2.3019
   34CHL1    C2 3669   6.078   2.624   6.375 -0.9566 -0.2740  0.0219
   34CHL1   H2A 3670   6.069   2.534   6.440 -0.1571  0.5925  1.3602
   34CHL1   H2B 3671   6.023   2.703   6.429 -0.7157 -0.7504  0.9921
   34CHL1   C20 3672   5.697   2.646   5.528  0.8121  0.3740 -0.0844
   34CHL1   H20 3673   5.625   2.629   5.611  0.7842  0.3044 -0.1225
   34CHL1   C21 3674   5.686   2.513   5.444 -0.2524 -0.0130  0.4448
   34CHL1  H21A 3675   5.706   2.423   5.507  2.7663 -0.0402 -0.3947
   34CHL1  H21B 3676   5.757   2.508   5.358 -1.7704  1.4423 -0.9569
   34CHL1  H21C 3677   5.585   2.515   5.398 -0.5100 -1.5896  0.8780
   34CHL1   C22 3678   5.658   2.763   5.436  0.5251  0.3838  0.6204
   34CHL1  H22A 3679   5.652   2.848   5.507 -2.5451 -1.4212  2.7522
   34CHL1  H22B 3680   5.738   2.780   5.361 -2.1324 -0.9008 -2.8295
   34CHL1   C23 3681   5.511   2.754   5.368 -0.9709  0.1532 -0.3708
   34CHL1  H23A 3682   5.488   2.663   5.308 -0.9706  0.1364 -0.3457
   34CHL1  H23B 3683   5.440   2.750   5.453 -2.7307 -0.6350 -1.7982
   34CHL1   C24 3684   5.499   2.885   5.277 -0.2896  0.6082  0.4349
   34CHL1  H24A 3685   5.530   2.974   5.336 -2.5986  1.2627  0.7548
   34CHL1  H24B 3686   5.554   2.872   5.182  0.8495  0.8990  1.0343
   34CHL1   C25 3687   5.354   2.915   5.226  0.1253 -0.5845  0.5095
   34CHL1   H25 3688   5.320   2.825   5.171 -1.3891  0.1054  0.2858
   34CHL1   C26 3689   5.250   2.945   5.338 -0.0927 -0.1477  0.0767
   34CHL1  H26A 3690   5.285   3.027   5.404  0.7494  0.2811 -0.8868
   34CHL1  H26B 3691   5.156   2.975   5.288 -0.6757 -1.9274  0.0276
   34CHL1  H26C 3692   5.240   2.852   5.399  0.9252 -1.4720 -1.6547
   34CHL1   C27 3693   5.361   3.038   5.132  0.5939  0.6899  1.0978
   34CHL1  H27A 3694   5.415   3.116   5.190  0.4863  2.0432 -0.5599
   34CHL1  H27B 3695   5.419   3.022   5.038  1.1482  2.0811  1.1776
   34CHL1  H27C 3696   5.264   3.088   5.111  1.3432  2.7261  2.2299
   35CHL1    C3 3697   5.762   4.923   6.586  0.1895 -0.1181  1.0497
   35CHL1    H3 3698   5.871   4.906   6.573 -0.1685 -0.6837 -1.9646
   35CHL1    O3 3699   5.712   4.842   6.696 -0.1615  0.4026  0.1847
   35CHL1   H3' 3700   5.618   4.851   6.679 -0.2073  1.1265  0.7349
   35CHL1    C4 3701   5.734   5.066   6.625  0.1419  0.2271  0.3019
   35CHL1   H4A 3702   5.624   5.082   6.626  0.1385  0.4007 -1.0539
   35CHL1   H4B 3703   5.769   5.082   6.730  1.2294 -0.5952  0.0774
   35CHL1    C5 3704   5.772   5.165   6.522  0.2658  0.7398  0.1024
   35CHL1    C6 3705   5.864   5.252   6.559 -0.0412  0.0597 -0.1181
   35CHL1    H6 3706   5.897   5.246   6.664 -1.9251 -0.1165  0.4953
   35CHL1    C7 3707   5.927   5.345   6.457 -0.2851 -0.1495  0.4505
   35CHL1   H7A 3708   5.931   5.441   6.512  0.4936 -1.2767  2.4552
   35CHL1   H7B 3709   6.036   5.325   6.446 -0.5475 -1.3843 -0.1255
   35CHL1    C8 3710   5.851   5.359   6.317  0.4886  0.4634 -0.5802
   35CHL1    H8 3711   5.766   5.421   6.352 -0.0302 -0.2830 -0.4950
   35CHL1   C14 3712   5.944   5.427   6.213 -0.3559  0.6903  0.2635
   35CHL1   H14 3713   6.035   5.365   6.197 -1.4660 -1.4088  1.6331
   35CHL1   C15 3714   5.998   5.558   6.258 -0.6250 -0.0502  0.3716
   35CHL1  H15A 3715   5.915   5.618   6.302 -1.2953  0.5081 -1.5530
   35CHL1  H15B 3716   6.076   5.547   6.337  0.8057  0.7139 -0.8975
   35CHL1   C16 3717   6.058   5.614   6.130  0.8049 -0.5508  0.1312
   35CHL1  H16A 3718   6.029   5.719   6.110  1.7419 -0.6559 -2.0935
   35CHL1  H16B 3719   6.169   5.615   6.126  0.8134  2.6310 -1.3149
   35CHL1   C17 3720   6.001   5.523   6.013  0.6588  0.0802  0.4597
   35CHL1   H17 3721   6.070   5.440   5.988  0.1314 -0.3865  0.5105
   35CHL1   C13 3722   5.885   5.443   6.077  0.0726  1.0887  0.0532
   35CHL1   C18 3723   5.758   5.529   6.078  0.0032  0.4946 -0.0512
   35CHL1  H18A 3724   5.696   5.523   5.985 -1.8175 -1.0216  1.1760
   35CHL1  H18B 3725   5.690   5.508   6.163  0.9311  2.2679  1.1957
   35CHL1  H18C 3726   5.781   5.637   6.089 -0.0768  1.0271 -3.7107
   35CHL1   C12 3727   5.855   5.295   6.029  0.0795 -0.5706 -0.5808
   35CHL1  H12A 3728   5.812   5.290   5.926  1.7094 -1.6804 -1.2436
   35CHL1  H12B 3729   5.949   5.237   6.021  0.0203 -0.9492  1.1698
   35CHL1   C11 3730   5.762   5.217   6.122  0.3147 -0.7121 -0.1293
   35CHL1  H11A 3731   5.668   5.277   6.125  1.1289  0.6148 -0.2530
   35CHL1  H11B 3732   5.747   5.111   6.092  2.1256 -0.9640 -0.2335
   35CHL1    C9 3733   5.811   5.218   6.269  0.0462  0.9973  0.3228
   35CHL1    H9 3734   5.908   5.164   6.262 -1.1825 -1.5351  1.4654
   35CHL1   C10 3735   5.729   5.140   6.372 -0.0028 -0.5816  0.2158
   35CHL1   C19 3736   5.577   5.182   6.355  0.3048 -0.0524 -0.1594
   35CHL1  H19A 3737   5.555   5.290   6.373  0.4917  0.2731 -1.7304
   35CHL1  H19B 3738   5.545   5.173   6.249  2.3818  0.8401 -0.9113
   35CHL1  H19C 3739   5.515   5.128   6.429 -0.7178  2.0258  0.5872
   35CHL1    C1 3740   5.734   4.990   6.341 -0.3004 -0.3418 -0.2592
   35CHL1   H1A 3741   5.678   4.982   6.245  0.1670  1.7510 -0.7516
   35CHL1   H1B 3742   5.839   4.954   6.329  0.0412  1.0864 -1.9316
   35CHL1    C2 3743   5.681   4.894   6.454 -0.6098  0.5010  0.9776
   35CHL1   H2A 3744   5.699   4.790   6.419 -0.4406  0.9518 -0.3401
   35CHL1   H2B 3745   5.571   4.890   6.468 -0.6100 -0.1939  0.8309
   35CHL1   C20 3746   5.965   5.601   5.886  0.6489 -0.3948  0.6549
   35CHL1   H20 3747   5.879   5.671   5.891  0.7701 -0.2105  0.1684
   35CHL1   C21 3748   5.923   5.498   5.776  0.0472  0.3289 -0.2515
   35CHL1  H21A 3749   5.827   5.448   5.802  0.5547 -0.1206  0.8171
   35CHL1  H21B 3750   6.006   5.424   5.770  0.3399  0.7167 -1.1697
   35CHL1  H21C 3751   5.900   5.549   5.680 -0.2907  0.6803  0.0116
   35CHL1   C22 3752   6.076   5.693   5.833 -0.9457 -0.2954 -0.2703
   35CHL1  H22A 3753   6.105   5.771   5.907 -1.6794  1.3196 -1.6141
   35CHL1  H22B 3754   6.163   5.627   5.816 -2.0915 -1.8251 -0.3796
   35CHL1   C23 3755   6.050   5.773   5.700  0.1082  0.4635 -0.2034
   35CHL1  H23A 3756   6.005   5.704   5.626 -3.0978  0.2282  1.7764
   35CHL1  H23B 3757   5.967   5.844   5.721 -0.0671  0.0818  0.3955
   35CHL1   C24 3758   6.166   5.851   5.640  0.3918  0.6727 -0.4587
   35CHL1  H24A 3759   6.216   5.897   5.727 -1.3103  2.4316 -0.3430
   35CHL1  H24B 3760   6.241   5.785   5.589  0.4569 -0.1358  0.6454
   35CHL1   C25 3761   6.124   5.973   5.546 -0.1732  0.0711 -0.7289
   35CHL1   H25 3762   6.049   6.038   5.597  0.6636 -0.3989  1.2053
   35CHL1   C26 3763   6.248   6.051   5.499  0.0684 -0.0901 -0.2193
   35CHL1  H26A 3764   6.263   6.146   5.555 -0.3361  1.5134 -2.6886
   35CHL1  H26B 3765   6.340   5.989   5.495  0.4323  0.4175  0.2063
   35CHL1  H26C 3766   6.216   6.092   5.401 -1.5610  0.8909  0.6656
   35CHL1   C27 3767   6.037   5.940   5.425 -0.0147 -0.3311  0.4115
   35CHL1  H27A 3768   6.002   6.030   5.371  1.5833  0.4552  0.6271
   35CHL1  H27B 3769   6.100   5.877   5.358 -1.9226 -2.2898  0.3527
   35CHL1  H27C 3770   5.940   5.890   5.443 -0.6462  0.9329  0.6025
   36CHL1    C3 3771   1.558   4.447   6.442  0.0436 -0.9700  0.4541
   36CHL1    H3 3772   1.662   4.481   6.464 -0.0946 -1.1208  1.3849
   36CHL1    O3 3773   1.496   4.414   6.566  0.1520  0.3072  0.3984
   36CHL1   H3' 3774   1.404   4.398   6.542  0.7481 -0.0153 -1.8649
   36CHL1    C4 3775   1.479   4.560   6.366  0.0362 -0.4657 -0.5421
   36CHL1   H4A 3776   1.377   4.521   6.344 -1.0454  2.1582 -0.6176
   36CHL1   H4B 3777   1.473   4.643   6.439  1.7330  0.2515 -1.1869
   36CHL1    C5 3778   1.529   4.591   6.226 -0.2973 -0.2098 -0.2306
   36CHL1    C6 3779   1.574   4.710   6.192  0.4212  0.5536  0.6768
   36CHL1    H6 3780   1.563   4.790   6.267  0.6347  0.8336  0.4116
   36CHL1    C7 3781   1.635   4.756   6.064 -0.2679  0.9836  0.6909
   36CHL1   H7A 3782   1.587   4.848   6.025  1.1855  2.0352  1.2936
   36CHL1   H7B 3783   1.736   4.794   6.088  0.5202 -2.2138  3.2155
   36CHL1    C8 3784   1.631   4.641   5.959 -0.3729  0.1563  0.0099
   36CHL1    H8 3785   1.529   4.639   5.913  0.8888  1.4757 -3.0977
   36CHL1   C14 3786   1.732   4.661   5.843 -0.1801  0.4253  0.9158
   36CHL1   H14 3787   1.830   4.642   5.891  0.0656 -2.0790 -0.4339
   36CHL1   C15 3788   1.748   4.797   5.778  0.0657 -0.1976 -0.1519
   36CHL1  H15A 3789   1.645   4.834   5.762  0.9363  3.0480  1.0300
   36CHL1  H15B 3790   1.795   4.861   5.855 -1.2935 -0.8179  1.2566
   36CHL1   C16 3791   1.813   4.772   5.641 -0.0862  0.3729  0.1288
   36CHL1  H16A 3792   1.744   4.809   5.562 -1.9662 -3.0482 -0.0040
   36CHL1  H16B 3793   1.915   4.817   5.640  0.5370 -0.9819  0.8269
   36CHL1   C17 3794   1.822   4.615   5.623 -0.4356 -0.3410 -0.6969
   36CHL1   H17 3795   1.923   4.586   5.660 -0.9062 -0.2953  0.6431
   36CHL1   C13 3796   1.723   4.556   5.729  0.4209 -0.0084 -0.0161
   36CHL1   C18 3797   1.586   4.561   5.666  0.0339  0.3350 -0.1654
   36CHL1  H18A 3798   1.578   4.484   5.587 -1.2337 -0.2966  0.5428
   36CHL1  H18B 3799   1.514   4.548   5.750 -0.2622 -1.9305 -0.7058
   36CHL1  H18C 3800   1.562   4.655   5.613 -1.6374 -0.6191 -1.1577
   36CHL1   C12 3801   1.757   4.422   5.791 -0.0104  0.0578  0.1548
   36CHL1  H12A 3802   1.736   4.345   5.714  2.5701 -0.6416  0.0825
   36CHL1  H12B 3803   1.865   4.418   5.817  0.3029 -1.9594 -1.2404
   36CHL1   C11 3804   1.668   4.389   5.916  0.8015  0.0330 -0.2873
   36CHL1  H11A 3805   1.566   4.354   5.890 -0.5047  2.0289  1.7514
   36CHL1  H11B 3806   1.707   4.293   5.958 -0.9198 -0.8766 -0.6828
   36CHL1    C9 3807   1.658   4.503   6.021  0.0898  0.4297 -0.7544
   36CHL1    H9 3808   1.759   4.501   6.069 -0.8779  0.8178  1.4307
   36CHL1   C10 3809   1.556   4.472   6.139 -0.6585 -0.1471  0.1812
   36CHL1   C19 3810   1.423   4.442   6.076 -0.0411  0.1743 -0.2468
   36CHL1  H19A 3811   1.356   4.396   6.153  0.1189  0.2054 -0.0884
   36CHL1  H19B 3812   1.362   4.530   6.047  0.2449  0.0999 -1.0814
   36CHL1  H19C 3813   1.417   4.367   5.994 -0.3577  0.8148 -0.8217
   36CHL1    C1 3814   1.619   4.356   6.222 -0.3257 -0.0520  0.1399
   36CHL1   H1A 3815   1.612   4.264   6.160  3.3496 -0.6539  0.4150
   36CHL1   H1B 3816   1.729   4.359   6.238 -0.1738 -2.0606 -0.2052
   36CHL1    C2 3817   1.547   4.323   6.357  0.5109 -0.2913  0.0415
   36CHL1   H2A 3818   1.591   4.230   6.399 -2.1211 -0.9962  1.4472
   36CHL1   H2B 3819   1.439   4.300   6.341  0.2881 -1.1198  2.3615
   36CHL1   C20 3820   1.814   4.576   5.474 -0.1508 -0.2324  0.5414
   36CHL1   H20 3821   1.724   4.624   5.433 -0.3951  0.2014  1.5481
   36CHL1   C21 3822   1.826   4.427   5.452 -0.0488  0.0179  0.8481
   36CHL1  H21A 3823   1.919   4.386   5.497 -0.0662  0.4640  1.2973
   36CHL1  H21B 3824   1.810   4.393   5.347 -1.4542 -0.2511  1.1349
   36CHL1  H21C 3825   1.748   4.371   5.507  0.8354  0.5681  2.7379
   36CHL1   C22 3826   1.928   4.638   5.382  0.7801  0.0879  0.0224
   36CHL1  H22A 3827   1.929   4.748   5.394  1.7050  0.0086  0.8937
   36CHL1  H22B 3828   2.032   4.604   5.400  1.0315  1.3846  1.2042
   36CHL1   C23 3829   1.900   4.623   5.228  0.1171  0.2183  0.6315
   36CHL1  H23A 3830   1.934   4.520   5.203 -0.1468 -0.0215  1.2524
   36CHL1  H23B 3831   1.791   4.636   5.215  0.6389  4.3951 -0.9730
   36CHL1   C24 3832   1.986   4.717   5.136  0.7999  0.4923  0.2196
   36CHL1  H24A 3833   1.963   4.826   5.148  3.7454  1.2379 -0.1618
   36CHL1  H24B 3834   2.090   4.699   5.170  0.3549 -0.4429  1.1399
   36CHL1   C25 3835   1.980   4.680   4.983 -0.7144 -0.1895  0.2920
   36CHL1   H25 3836   2.005   4.572   4.974 -3.3407 -0.8048 -0.2679
   36CHL1   C26 3837   1.839   4.693   4.914 -0.1542  0.1608  0.3500
   36CHL1  H26A 3838   1.811   4.799   4.930  1.6131  0.3218  3.3527
   36CHL1  H26B 3839   1.852   4.670   4.806  1.9278 -1.7610  0.9255
   36CHL1  H26C 3840   1.764   4.630   4.966 -1.1641  0.7839 -0.3297
   36CHL1   C27 3841   2.087   4.755   4.894  0.2007 -0.5954 -0.5585
   36CHL1  H27A 3842   2.066   4.737   4.786  1.4635 -0.2260 -0.8884
   36CHL1  H27B 3843   2.089   4.864   4.916  0.4865 -1.1520  2.4927
   36CHL1  H27C 3844   2.192   4.720   4.900  0.1781 -0.6433 -0.4493
   37CHL1    C3 3845   3.065   1.170   6.468 -0.5888  0.0191 -0.1834
   37CHL1    H3 3846   2.996   1.092   6.430 -0.6980  0.5317 -1.0500
   37CHL1    O3 3847   3.091   1.144   6.602 -0.8739 -0.4744  0.1150
   37CHL1   H3' 3848   3.004   1.152   6.642 -1.0946 -2.1883  0.0784
   37CHL1    C4 3849   3.190   1.161   6.382  0.3960  0.1842 -0.2530
   37CHL1   H4A 3850   3.272   1.208   6.440  0.6499  0.8760 -1.1432
   37CHL1   H4B 3851   3.207   1.051   6.383 -1.8964 -0.3900 -4.0370
   37CHL1    C5 3852   3.165   1.205   6.238 -0.1163  0.1210  0.1859
   37CHL1    C6 3853   3.219   1.133   6.140 -0.6009  0.2446  0.5896
   37CHL1    H6 3854   3.276   1.040   6.155 -0.0002  0.2168 -1.5424
   37CHL1    C7 3855   3.213   1.183   5.997  0.1386  0.9210 -0.0287
   37CHL1   H7A 3856   3.317   1.189   5.959  0.3262  2.5155  0.6528
   37CHL1   H7B 3857   3.153   1.114   5.933  0.2319  1.0158 -0.2173
   37CHL1    C8 3858   3.165   1.327   5.982  0.1057  0.1147 -0.2178
   37CHL1    H8 3859   3.253   1.392   5.996 -0.1243  0.6540 -1.2397
   37CHL1   C14 3860   3.124   1.347   5.831  0.3866 -0.0524 -0.3792
   37CHL1   H14 3861   3.039   1.277   5.814  0.5744 -0.9365  2.0304
   37CHL1   C15 3862   3.225   1.328   5.720  0.2155  0.6679  0.2938
   37CHL1  H15A 3863   3.321   1.375   5.752 -0.0907  0.8463  0.9709
   37CHL1  H15B 3864   3.248   1.220   5.706 -0.2988  0.7120 -1.0637
   37CHL1   C16 3865   3.158   1.385   5.593 -0.3951 -0.3380 -0.5321
   37CHL1  H16A 3866   3.230   1.448   5.535 -0.1151 -0.7323 -0.6195
   37CHL1  H16B 3867   3.127   1.302   5.526 -0.6067  0.5827 -1.6053
   37CHL1   C17 3868   3.036   1.466   5.640 -0.0673  0.4328 -0.7923
   37CHL1   H17 3869   2.951   1.397   5.621 -1.1945  1.7094 -0.5213
   37CHL1   C13 3870   3.062   1.485   5.793 -0.1437  0.2473 -0.4034
   37CHL1   C18 3871   3.174   1.593   5.805 -0.6636 -0.5131  0.2646
   37CHL1  H18A 3872   3.236   1.589   5.897 -1.1163 -0.9114  0.5523
   37CHL1  H18B 3873   3.253   1.581   5.727 -0.9090  2.0188 -0.4430
   37CHL1  H18C 3874   3.139   1.696   5.783 -0.0885 -0.6448 -1.4286
   37CHL1   C12 3875   2.936   1.509   5.890 -0.6892  0.0024  0.5486
   37CHL1  H12A 3876   2.882   1.604   5.875  0.3478  0.1981 -2.6695
   37CHL1  H12B 3877   2.863   1.431   5.860 -0.9135  1.8117 -4.4512
   37CHL1   C11 3878   2.984   1.496   6.034  0.3640 -0.2358 -0.2843
   37CHL1  H11A 3879   3.054   1.578   6.058 -1.3349  1.0158  0.6258
   37CHL1  H11B 3880   2.895   1.516   6.097  1.2962 -0.7607  1.2394
   37CHL1    C9 3881   3.050   1.365   6.071 -0.0500 -0.5315 -0.2123
   37CHL1    H9 3882   2.979   1.285   6.042 -0.4211  0.0524 -0.9531
   37CHL1   C10 3883   3.085   1.337   6.218  0.8238 -0.3565  0.4073
   37CHL1   C19 3884   3.168   1.463   6.263 -0.2572  0.1462 -0.7815
   37CHL1  H19A 3885   3.208   1.454   6.366 -3.2518  1.8437  0.6563
   37CHL1  H19B 3886   3.257   1.463   6.196 -0.2666 -3.1537 -0.9574
   37CHL1  H19C 3887   3.110   1.556   6.247  0.6696  0.7370 -0.7977
   37CHL1    C1 3888   2.961   1.334   6.306 -0.5000  0.4054  0.0596
   37CHL1   H1A 3889   2.916   1.435   6.298 -1.3875  0.0317  0.2723
   37CHL1   H1B 3890   2.894   1.258   6.261 -0.2323 -1.3380  2.3921
   37CHL1    C2 3891   2.993   1.298   6.451  0.5783  0.0649  0.0506
   37CHL1   H2A 3892   2.902   1.304   6.515  1.5650  1.9007  1.3833
   37CHL1   H2B 3893   3.057   1.372   6.503  0.3026  1.2649 -1.2434
   37CHL1   C20 3894   3.017   1.589   5.552  0.6579  0.2185  0.0661
   37CHL1   H20 3895   3.101   1.658   5.574  1.7852 -1.0552 -0.1322
   37CHL1   C21 3896   2.880   1.657   5.587  1.1131 -0.2240 -0.2735
   37CHL1  H21A 3897   2.867   1.752   5.530  1.1407 -0.7785 -1.2127
   37CHL1  H21B 3898   2.863   1.681   5.694  1.2052 -0.0231 -0.3038
   37CHL1  H21C 3899   2.790   1.599   5.560  0.6491 -0.4634  1.6179
   37CHL1   C22 3900   3.014   1.548   5.402  1.1463 -0.2999  0.2557
   37CHL1  H22A 3901   2.981   1.636   5.342 -2.5368 -1.9197 -0.3579
   37CHL1  H22B 3902   3.121   1.532   5.373  0.4010 -1.4689 -2.1540
   37CHL1   C23 3903   2.919   1.436   5.357  0.3394 -0.0748  0.2615
   37CHL1  H23A 3904   2.941   1.341   5.411  0.7291  0.4203  0.9888
   37CHL1  H23B 3905   2.814   1.465   5.381  0.7093  1.4136  0.1841
   37CHL1   C24 3906   2.918   1.404   5.207  0.0724 -0.5407 -0.1937
   37CHL1  H24A 3907   2.898   1.504   5.163 -2.1590 -0.6273  0.4947
   37CHL1  H24B 3908   3.021   1.367   5.191  0.7290  1.6980 -1.5445
   37CHL1   C25 3909   2.815   1.301   5.171  0.3859 -0.0285 -0.4615
   37CHL1   H25 3910   2.721   1.327   5.223 -0.4032 -2.6633 -0.3904
   37CHL1   C26 3911   2.787   1.310   5.018  0.8584  0.0426 -0.0990
   37CHL1  H26A 3912   2.708   1.237   4.992 -0.0366  0.4934  1.2413
   37CHL1  H26B 3913   2.748   1.413   4.998  0.1877  0.5125  3.0447
   37CHL1  H26C 3914   2.878   1.290   4.958  0.9189 -0.9290  0.2994
   37CHL1   C27 3915   2.870   1.164   5.210 -0.3052  1.0039 -0.1670
   37CHL1  H27A 3916   2.974   1.162   5.169 -1.2257  0.4274 -2.6665
   37CHL1  H27B 3917   2.858   1.144   5.319  1.1220 -0.9300 -0.2959
   37CHL1  H27C 3918   2.810   1.086   5.158  0.4195  0.1101  0.2908
   38CHL1    C3 3919   4.202   5.636   6.721 -0.4825  0.2139 -0.2414
   38CHL1    H3 3920   4.124   5.568   6.681  0.7695 -2.1034  1.0242
   38CHL1    O3 3921   4.202   5.608   6.861  0.2266 -0.0075  0.0946
   38CHL1   H3' 3922   4.266   5.538   6.876  1.3990  1.4724  2.6911
   38CHL1    C4 3923   4.341   5.602   6.655 -0.0906  0.2071  0.7231
   38CHL1   H4A 3924   4.422   5.644   6.718  0.8893 -1.8536  0.9428
   38CHL1   H4B 3925   4.332   5.492   6.668 -1.3748  0.2385  0.2227
   38CHL1    C5 3926   4.332   5.640   6.513  0.0673  0.6851  0.3883
   38CHL1    C6 3927   4.363   5.549   6.419  0.0949  0.3698  0.5708
   38CHL1    H6 3928   4.389   5.444   6.436  0.1519  0.0629 -1.2206
   38CHL1    C7 3929   4.391   5.588   6.272  0.0165  0.9582 -0.6634
   38CHL1   H7A 3930   4.489   5.546   6.243  0.0909  1.3523 -0.9973
   38CHL1   H7B 3931   4.311   5.546   6.206  0.1297 -0.3250 -0.0109
   38CHL1    C8 3932   4.393   5.740   6.247  0.3238 -0.9918 -0.3726
   38CHL1    H8 3933   4.499   5.769   6.266  0.1239 -1.1301  1.0783
   38CHL1   C14 3934   4.356   5.761   6.096 -0.5539 -0.0904 -0.3890
   38CHL1   H14 3935   4.251   5.728   6.079 -0.7980  0.2989  0.3333
   38CHL1   C15 3936   4.433   5.684   5.991  0.0696 -0.3060 -0.3676
   38CHL1  H15A 3937   4.539   5.703   6.017 -1.1921  4.0994  2.7117
   38CHL1  H15B 3938   4.405   5.576   5.986 -2.7857  0.0045  3.7437
   38CHL1   C16 3939   4.402   5.752   5.861  0.5737 -0.1113 -0.0541
   38CHL1  H16A 3940   4.502   5.790   5.829  0.3037  1.8305  1.2515
   38CHL1  H16B 3941   4.350   5.681   5.793 -1.0404  0.9353  0.0284
   38CHL1   C17 3942   4.320   5.880   5.899 -0.0912 -0.6763 -0.0102
   38CHL1   H17 3943   4.211   5.860   5.892 -0.5513  1.8409 -1.0054
   38CHL1   C13 3944   4.356   5.906   6.047  0.5964 -0.0386 -0.0533
   38CHL1   C18 3945   4.494   5.960   6.055  0.0911  0.3933  0.0809
   38CHL1  H18A 3946   4.529   5.952   6.160  2.1190 -0.9605 -0.6390
   38CHL1  H18B 3947   4.571   5.899   6.002 -0.7808 -1.3959  0.7943
   38CHL1  H18C 3948   4.492   6.063   6.012 -0.8698  1.2451  2.0723
   38CHL1   C12 3949   4.259   5.982   6.134  0.3629 -1.5380  0.4349
   38CHL1  H12A 3950   4.266   6.091   6.111  0.3781 -1.0989  2.3559
   38CHL1  H12B 3951   4.163   5.932   6.110 -1.2967  0.6617  2.0470
   38CHL1   C11 3952   4.270   5.958   6.290  0.2412 -0.4345  0.3468
   38CHL1  H11A 3953   4.362   6.012   6.322  0.7088  1.4256 -3.6031
   38CHL1  H11B 3954   4.182   6.008   6.337  0.5230  0.3380  0.0646
   38CHL1    C9 3955   4.289   5.810   6.334 -0.0668 -0.6251 -0.0182
   38CHL1    H9 3956   4.193   5.760   6.308 -0.6674  2.0413 -3.8363
   38CHL1   C10 3957   4.307   5.784   6.482  0.0203  0.4827  0.2689
   38CHL1   C19 3958   4.430   5.863   6.531  0.4862  0.4485 -0.2922
   38CHL1  H19A 3959   4.403   5.970   6.524  1.4175  0.7121  0.0739
   38CHL1  H19B 3960   4.451   5.846   6.638  3.3370 -0.7263 -0.9465
   38CHL1  H19C 3961   4.522   5.833   6.476  0.2783 -0.1270 -0.3413
   38CHL1    C1 3962   4.182   5.837   6.550  0.0949  0.1542 -0.2905
   38CHL1   H1A 3963   4.171   5.947   6.558 -0.6321 -0.0351  3.8040
   38CHL1   H1B 3964   4.095   5.801   6.491  1.8466 -2.1636 -1.6011
   38CHL1    C2 3965   4.161   5.784   6.696  0.1004  0.2195  0.8076
   38CHL1   H2A 3966   4.058   5.811   6.727  0.5904 -0.4506  3.2507
   38CHL1   H2B 3967   4.228   5.839   6.765 -0.8347 -2.3781  4.0778
   38CHL1   C20 3968   4.355   5.998   5.801 -0.0319 -0.3541 -0.0874
   38CHL1   H20 3969   4.460   6.031   5.817  0.1610 -0.2755 -1.4025
   38CHL1   C21 3970   4.254   6.111   5.835  0.7278  0.1048 -0.7505
   38CHL1  H21A 3971   4.291   6.180   5.914 -1.2770 -1.2351  1.4879
   38CHL1  H21B 3972   4.166   6.049   5.863  0.5707 -0.0189 -1.4982
   38CHL1  H21C 3973   4.210   6.177   5.757  0.0049  1.3928  0.7101
   38CHL1   C22 3974   4.343   5.947   5.657 -0.4235 -0.5269  0.2481
   38CHL1  H22A 3975   4.423   5.873   5.636 -1.9450 -1.9880 -0.5765
   38CHL1  H22B 3976   4.247   5.891   5.657  0.5618 -2.2930 -0.2826
   38CHL1   C23 3977   4.357   6.054   5.552  0.3607  0.2813  0.5087
   38CHL1  H23A 3978   4.258   6.095   5.522  0.9447  1.7420  0.5045
   38CHL1  H23B 3979   4.411   6.144   5.588  0.0688  0.3051  0.8993
   38CHL1   C24 3980   4.447   6.004   5.439 -0.4358 -0.1913  0.0468
   38CHL1  H24A 3981   4.555   6.008   5.464 -0.1681  0.0637 -1.1038
   38CHL1  H24B 3982   4.433   5.898   5.409  1.8283 -0.7484  0.7445
   38CHL1   C25 3983   4.438   6.085   5.312  0.2126 -0.4567 -0.2637
   38CHL1   H25 3984   4.419   6.192   5.338 -2.1340 -0.9107  0.1319
   38CHL1   C26 3985   4.565   6.074   5.230  0.1206 -0.4590 -0.1319
   38CHL1  H26A 3986   4.546   6.131   5.136 -0.9294  0.6229  0.7075
   38CHL1  H26B 3987   4.656   6.116   5.279 -0.5033 -2.1463  2.7039
   38CHL1  H26C 3988   4.591   5.968   5.210  0.7571 -0.4839  0.7723
   38CHL1   C27 3989   4.321   6.044   5.228 -0.5635 -0.4746  0.1472
   38CHL1  H27A 3990   4.328   5.937   5.199  1.2774 -0.1652 -0.6894
   38CHL1  H27B 3991   4.221   6.034   5.275 -0.6975 -3.2733 -0.5620
   38CHL1  H27C 3992   4.310   6.103   5.134 -0.6931 -0.6161  0.0727
   39CHL1    C3 3993   3.349   6.780   6.466 -0.3861 -0.0661 -0.3497
   39CHL1    H3 3994   3.256   6.725   6.438 -0.2453 -0.5292  0.0765
   39CHL1    O3 3995   3.377   6.748   6.597 -0.2996 -0.2821 -0.3770
   39CHL1   H3' 3996   3.472   6.743   6.613 -0.2206 -0.1658 -0.8086
   39CHL1    C4 3997   3.471   6.731   6.386 -0.1851 -0.1656 -0.0962
   39CHL1   H4A 3998   3.557   6.781   6.435 -2.6608  2.4725  1.9893
   39CHL1   H4B 3999   3.490   6.623   6.401  0.4114  0.1350  1.4682
   39CHL1    C5 4000   3.458   6.770   6.244  0.2398 -0.1749 -0.2483
   39CHL1    C6 4001   3.465   6.678   6.147 -0.2204  0.7763  0.4530
   39CHL1    H6 4002   3.497   6.575   6.170  1.2113  0.3116 -3.0624
   39CHL1    C7 4003   3.452   6.703   5.996 -0.0872 -0.1268 -0.2268
   39CHL1   H7A 4004   3.535   6.655   5.941 -0.1146  1.5007 -1.7669
   39CHL1   H7B 4005   3.358   6.664   5.951 -2.1427  2.0523  1.9144
   39CHL1    C8 4006   3.467   6.852   5.965 -0.2680  0.4289 -0.3282
   39CHL1    H8 4007   3.576   6.870   5.960  0.3084 -2.2662  1.0858
   39CHL1   C14 4008   3.422   6.882   5.824 -0.3269  0.4021 -0.3196
   39CHL1   H14 4009   3.313   6.861   5.815 -0.1304 -1.3139  0.8569
   39CHL1   C15 4010   3.491   6.804   5.706 -0.2492 -0.1139 -0.4733
   39CHL1  H15A 4011   3.597   6.814   5.738 -0.4048 -0.8884  0.3459
   39CHL1  H15B 4012   3.453   6.700   5.701 -1.5604  0.2577  0.8340
   39CHL1   C16 4013   3.452   6.890   5.585  0.2056  1.0261 -0.6713
   39CHL1  H16A 4014   3.546   6.916   5.532  0.0854 -0.6712 -1.7860
   39CHL1  H16B 4015   3.384   6.844   5.511 -0.9500 -1.7222  1.8871
   39CHL1   C17 4016   3.397   7.023   5.634 -0.4980 -0.6962  0.6922
   39CHL1   H17 4017   3.287   7.009   5.638 -0.7401  0.9064  0.3275
   39CHL1   C13 4018   3.443   7.030   5.781 -0.1862 -0.1417 -0.3716
   39CHL1   C18 4019   3.588   7.082   5.786  0.0715 -0.2111 -0.0643
   39CHL1  H18A 4020   3.581   7.193   5.787 -1.3728 -0.2808 -0.4822
   39CHL1  H18B 4021   3.635   7.040   5.877  0.2480  1.1820  0.5036
   39CHL1  H18C 4022   3.651   7.040   5.705  3.0583  1.2051  1.3487
   39CHL1   C12 4023   3.356   7.116   5.874 -0.5266  0.0981  0.0782
   39CHL1  H12A 4024   3.373   7.225   5.858  0.2768 -0.2899 -2.0758
   39CHL1  H12B 4025   3.247   7.099   5.857 -0.7969 -1.1320  2.5692
   39CHL1   C11 4026   3.400   7.090   6.017 -0.3720 -0.0875 -0.2703
   39CHL1  H11A 4027   3.504   7.127   6.027 -0.1511 -0.1493 -1.9928
   39CHL1  H11B 4028   3.331   7.145   6.084 -1.3682  0.2109 -1.5050
   39CHL1    C9 4029   3.397   6.940   6.067  0.4124  0.3023 -0.7609
   39CHL1    H9 4030   3.289   6.912   6.064  0.1659  1.2861 -2.0144
   39CHL1   C10 4031   3.436   6.919   6.217  0.1367 -0.0354  0.1457
   39CHL1   C19 4032   3.565   6.992   6.244 -0.1347  0.4226 -0.0032
   39CHL1  H19A 4033   3.552   7.099   6.220  0.8865  0.7244  0.7335
   39CHL1  H19B 4034   3.585   6.992   6.353  0.0272  2.3358 -0.0062
   39CHL1  H19C 4035   3.654   6.950   6.191  1.3453  0.7798  2.1014
   39CHL1    C1 4036   3.328   6.977   6.307  0.3501  0.6940  0.0660
   39CHL1   H1A 4037   3.335   7.087   6.319  0.1919  0.8453 -1.1294
   39CHL1   H1B 4038   3.226   6.950   6.272 -0.6031  2.3290  1.4182
   39CHL1    C2 4039   3.333   6.927   6.460 -0.7028  0.0025  1.1029
   39CHL1   H2A 4040   3.237   6.966   6.502 -0.0106  0.4538  2.3076
   39CHL1   H2B 4041   3.408   6.982   6.520  0.7954 -0.0963 -0.5861
   39CHL1   C20 4042   3.419   7.148   5.544  0.2669  0.1467  0.1031
   39CHL1   H20 4043   3.490   7.213   5.600 -1.6825  2.6228 -0.1305
   39CHL1   C21 4044   3.288   7.224   5.552 -0.0761 -0.2582  0.1002
   39CHL1  H21A 4045   3.294   7.323   5.501 -0.9463  0.3347  1.1202
   39CHL1  H21B 4046   3.246   7.239   5.653 -0.7242 -1.1377 -0.0269
   39CHL1  H21C 4047   3.210   7.173   5.491 -0.1754 -0.9775  0.8082
   39CHL1   C22 4048   3.469   7.146   5.394 -0.2893  0.4910  0.2119
   39CHL1  H22A 4049   3.570   7.100   5.396  0.0962  1.2323  3.9677
   39CHL1  H22B 4050   3.403   7.071   5.345  0.9428 -0.8588  0.5460
   39CHL1   C23 4051   3.471   7.272   5.318 -0.6806  0.8163  0.1896
   39CHL1  H23A 4052   3.369   7.309   5.297 -0.1583  1.0391 -2.2382
   39CHL1  H23B 4053   3.527   7.338   5.388  0.8255 -0.9969  0.7739
   39CHL1   C24 4054   3.549   7.267   5.186  1.0343  0.1489  0.2542
   39CHL1  H24A 4055   3.555   7.374   5.159  1.2788  0.7604  2.4889
   39CHL1  H24B 4056   3.651   7.226   5.204  0.9230  0.5530  1.9904
   39CHL1   C25 4057   3.482   7.193   5.062 -0.1982  0.2811 -1.5242
   39CHL1   H25 4058   3.491   7.090   5.102  1.9956  0.5137 -1.2455
   39CHL1   C26 4059   3.336   7.225   5.031  0.3212  0.3697 -0.3307
   39CHL1  H26A 4060   3.329   7.321   4.976 -1.5452  0.2089 -0.4554
   39CHL1  H26B 4061   3.295   7.145   4.966 -0.3534 -0.7138  1.3683
   39CHL1  H26C 4062   3.285   7.223   5.130  0.7054 -0.0848 -0.1346
   39CHL1   C27 4063   3.572   7.198   4.943  0.0404 -0.5071 -0.0419
   39CHL1  H27A 4064   3.674   7.236   4.966 -0.9838  2.1513  0.5750
   39CHL1  H27B 4065   3.588   7.107   4.883 -1.4578 -1.2034  0.5576
   39CHL1  H27C 4066   3.530   7.276   4.876  0.7263  0.0655  0.1773
   40CHL1    C3 4067   4.821   5.870   6.639 -0.4381 -0.1728  0.0465
   40CHL1    H3 4068   4.710   5.869   6.634 -0.5321  2.8960 -0.4361
   40CHL1    O3 4069   4.847   5.882   6.776  0.2726 -0.2269 -0.2639
   40CHL1   H3' 4070   4.932   5.841   6.795  1.5118  2.5836  0.9004
   40CHL1    C4 4071   4.895   5.750   6.576 -0.0892  0.1750 -0.0606
   40CHL1   H4A 4072   5.003   5.762   6.601  0.2433  0.2819 -1.4876
   40CHL1   H4B 4073   4.874   5.655   6.629  2.8482 -0.6550 -0.1791
   40CHL1    C5 4074   4.892   5.748   6.423  0.5467  0.4130  0.2756
   40CHL1    C6 4075   4.867   5.630   6.364 -0.2555 -0.2560  0.2994
   40CHL1    H6 4076   4.848   5.540   6.424 -1.8597 -0.0549  0.1252
   40CHL1    C7 4077   4.883   5.606   6.216 -0.0284 -0.2180 -0.2807
   40CHL1   H7A 4078   4.949   5.521   6.191 -2.3124 -1.0390 -4.3797
   40CHL1   H7B 4079   4.782   5.573   6.184 -0.4073  1.8450 -1.3867
   40CHL1    C8 4080   4.927   5.739   6.137  0.7574  0.3389  0.6562
   40CHL1    H8 4081   5.038   5.733   6.137  0.7973  0.8666 -0.6395
   40CHL1   C14 4082   4.874   5.725   5.995  0.0823  0.5321  0.0434
   40CHL1   H14 4083   4.764   5.742   6.003 -0.0652  1.3361 -2.6806
   40CHL1   C15 4084   4.879   5.585   5.931 -0.2947  0.3144  0.5769
   40CHL1  H15A 4085   4.977   5.532   5.940  0.0526  0.6316 -0.9983
   40CHL1  H15B 4086   4.804   5.516   5.972  0.3428 -0.3776  0.6055
   40CHL1   C16 4087   4.855   5.619   5.782  0.1889  0.4105  0.7870
   40CHL1  H16A 4088   4.935   5.582   5.713 -0.1454  1.8465 -0.4240
   40CHL1  H16B 4089   4.766   5.571   5.737  1.2521  0.9143 -2.0854
   40CHL1   C17 4090   4.854   5.776   5.775 -0.1190  0.3411  0.0364
   40CHL1   H17 4091   4.748   5.807   5.790  0.2930  0.5618  2.9464
   40CHL1   C13 4092   4.919   5.826   5.904 -0.7363  0.0394  0.2482
   40CHL1   C18 4093   5.073   5.818   5.881 -0.3343  0.3819 -0.0929
   40CHL1  H18A 4094   5.110   5.714   5.866 -0.7741  0.3525 -0.9901
   40CHL1  H18B 4095   5.110   5.888   5.804 -1.6700  1.6862  0.4155
   40CHL1  H18C 4096   5.120   5.845   5.978 -0.5648 -0.3566  0.2347
   40CHL1   C12 4097   4.870   5.958   5.956  0.1834  0.4230  0.1810
   40CHL1  H12A 4098   4.912   6.042   5.896 -0.8368 -0.1560 -1.4090
   40CHL1  H12B 4099   4.759   5.966   5.960  0.2178  0.4496  1.5598
   40CHL1   C11 4100   4.910   5.991   6.106 -0.0443 -0.2636 -0.1980
   40CHL1  H11A 4101   5.020   5.997   6.118 -0.2820  0.2884  1.9601
   40CHL1  H11B 4102   4.866   6.089   6.135  0.5808  0.6051 -2.0077
   40CHL1    C9 4103   4.873   5.867   6.195 -0.2345 -0.4348 -0.1636
   40CHL1    H9 4104   4.762   5.874   6.194 -0.1731  0.7184 -0.6844
   40CHL1   C10 4105   4.918   5.878   6.341  0.4178 -0.1998  0.2560
   40CHL1   C19 4106   5.069   5.917   6.365 -0.3346  0.4592  0.1350
   40CHL1  H19A 4107   5.100   5.921   6.472  1.0669  1.3434 -0.2731
   40CHL1  H19B 4108   5.141   5.856   6.306 -0.8701  0.1508 -0.2075
   40CHL1  H19C 4109   5.090   6.016   6.320  1.0445  0.0258 -0.2433
   40CHL1    C1 4110   4.830   5.987   6.412 -0.2049 -0.5000  0.2141
   40CHL1   H1A 4111   4.859   6.088   6.376  0.6792 -0.5221  0.8200
   40CHL1   H1B 4112   4.722   5.969   6.396 -1.0393  1.0822  3.3598
   40CHL1    C2 4113   4.858   5.998   6.565  0.5105  0.3434  0.7193
   40CHL1   H2A 4114   4.806   6.090   6.602 -1.8150 -0.9820  0.9632
   40CHL1   H2B 4115   4.966   6.012   6.586  1.1379  0.9756 -2.4445
   40CHL1   C20 4116   4.886   5.826   5.637  0.0399 -0.2162 -0.6759
   40CHL1   H20 4117   4.991   5.801   5.612  0.4850 -1.0673  1.7492
   40CHL1   C21 4118   4.858   5.980   5.635 -0.3527  0.3708 -0.7380
   40CHL1  H21A 4119   4.949   6.036   5.667 -1.0110  1.6340 -1.0569
   40CHL1  H21B 4120   4.771   6.019   5.691 -0.2546  0.5245 -0.6925
   40CHL1  H21C 4121   4.850   6.012   5.530 -0.6215  0.4451 -0.6934
   40CHL1   C22 4122   4.790   5.762   5.536  0.7256 -0.4889 -0.0543
   40CHL1  H22A 4123   4.801   5.652   5.541 -1.3620 -0.7112  0.8732
   40CHL1  H22B 4124   4.686   5.785   5.570  0.8874 -0.2340  0.2685
   40CHL1   C23 4125   4.798   5.788   5.385  0.1194  0.4072  0.4355
   40CHL1  H23A 4126   4.771   5.891   5.353  1.5260  0.2792 -1.3042
   40CHL1  H23B 4127   4.900   5.765   5.347 -0.3137  0.5085 -0.8321
   40CHL1   C24 4128   4.695   5.698   5.310 -0.0484 -0.1176 -0.1478
   40CHL1  H24A 4129   4.710   5.591   5.337 -1.3654 -0.5119 -0.8444
   40CHL1  H24B 4130   4.593   5.729   5.343 -0.1972  0.6580 -1.2661
   40CHL1   C25 4131   4.712   5.713   5.161 -0.2909  0.0263  0.3301
   40CHL1   H25 4132   4.762   5.807   5.128  1.9694 -1.5453 -1.0475
   40CHL1   C26 4133   4.808   5.602   5.112 -0.3016  0.0660  0.2837
   40CHL1  H26A 4134   4.912   5.618   5.147 -0.1971 -0.3806  0.1791
   40CHL1  H26B 4135   4.778   5.501   5.147 -1.1697  0.1243 -0.2609
   40CHL1  H26C 4136   4.822   5.602   5.002 -4.0149 -0.3364 -0.3159
   40CHL1   C27 4137   4.577   5.693   5.096 -0.0827 -0.5250  0.3426
   40CHL1  H27A 4138   4.501   5.772   5.116  0.7709  1.1252 -2.4250
   40CHL1  H27B 4139   4.587   5.704   4.986 -2.6725  1.4013  0.2161
   40CHL1  H27C 4140   4.540   5.590   5.115  0.4132 -0.8312 -0.3572
   41CHL1    C3 4141   0.935   5.149   6.183  0.4994  0.4795 -0.2291
   41CHL1    H3 4142   1.034   5.104   6.163  0.9421  0.6193  1.4646
   41CHL1    O3 4143   0.913   5.125   6.322  0.4523 -0.2575 -0.2167
   41CHL1   H3' 4144   0.851   5.194   6.345 -1.2571 -2.0899  0.9408
   41CHL1    C4 4145   0.939   5.298   6.149  0.0377  0.1568  0.1774
   41CHL1   H4A 4146   0.845   5.350   6.178  0.4807  1.2301 -0.2669
   41CHL1   H4B 4147   1.008   5.354   6.215 -1.8735  0.1061  2.3757
   41CHL1    C5 4148   0.960   5.332   6.003  0.3677  0.3155  0.0224
   41CHL1    C6 4149   1.046   5.419   5.962  0.3501 -0.4683  1.3511
   41CHL1    H6 4150   1.109   5.472   6.035  2.2263 -4.0826  2.5925
   41CHL1    C7 4151   1.068   5.453   5.815 -0.9710  0.1125  0.0789
   41CHL1   H7A 4152   1.052   5.563   5.810 -1.8315 -0.0390 -0.8607
   41CHL1   H7B 4153   1.169   5.435   5.773 -1.5083  0.1724 -1.2781
   41CHL1    C8 4154   0.964   5.392   5.721  0.8404  0.2004  0.6136
   41CHL1    H8 4155   0.865   5.441   5.718  0.4633 -0.5367  0.6854
   41CHL1   C14 4156   1.028   5.375   5.585  0.1570 -0.1359 -0.8050
   41CHL1   H14 4157   1.116   5.309   5.600  0.3630  0.4906  1.0186
   41CHL1   C15 4158   1.093   5.493   5.517 -0.5920  0.4918  0.2615
   41CHL1  H15A 4159   1.030   5.583   5.531  2.5190  2.8430  0.2708
   41CHL1  H15B 4160   1.188   5.532   5.561 -0.2928 -0.3215  0.3515
   41CHL1   C16 4161   1.104   5.449   5.368  0.1005  0.5043 -0.2736
   41CHL1  H16A 4162   1.044   5.526   5.315 -0.9464  0.6064  0.9854
   41CHL1  H16B 4163   1.213   5.432   5.353  0.2900  0.1972  1.2751
   41CHL1   C17 4164   1.034   5.312   5.357  0.2203  0.1106  1.2034
   41CHL1   H17 4165   1.114   5.237   5.376 -1.2903 -1.7435  0.5111
   41CHL1   C13 4166   0.940   5.315   5.475 -0.1644  0.0497  0.0396
   41CHL1   C18 4167   0.815   5.392   5.435  0.4012 -0.2388  0.6193
   41CHL1  H18A 4168   0.749   5.409   5.523  2.8434 -0.9820  2.7244
   41CHL1  H18B 4169   0.848   5.488   5.389  0.3359 -1.2255 -1.6416
   41CHL1  H18C 4170   0.746   5.330   5.374 -1.2837  1.9297  0.1959
   41CHL1   C12 4171   0.895   5.175   5.525  0.0921 -0.3941 -0.8845
   41CHL1  H12A 4172   0.818   5.129   5.460 -0.5602 -2.5098  1.2385
   41CHL1  H12B 4173   0.983   5.109   5.508 -1.3733 -2.0091 -2.6790
   41CHL1   C11 4174   0.849   5.164   5.671  0.7106 -1.3449  0.2787
   41CHL1  H11A 4175   0.743   5.198   5.669  0.8795 -0.8337  0.0401
   41CHL1  H11B 4176   0.837   5.058   5.701 -0.4851 -0.9624  1.2555
   41CHL1    C9 4177   0.931   5.246   5.769 -0.1636  0.2422 -0.0837
   41CHL1    H9 4178   1.030   5.198   5.780 -0.5766 -0.4291  0.8060
   41CHL1   C10 4179   0.871   5.243   5.917 -0.8765  0.0354  0.3280
   41CHL1   C19 4180   0.723   5.300   5.924 -0.0005 -0.3263  0.5664
   41CHL1  H19A 4181   0.720   5.406   5.892  0.6384  0.0813  1.8011
   41CHL1  H19B 4182   0.654   5.239   5.862 -0.1418  1.6206 -1.2968
   41CHL1  H19C 4183   0.679   5.281   6.024 -2.1667  1.1867 -0.0344
   41CHL1    C1 4184   0.855   5.087   5.960  0.9573  0.1941  0.0129
   41CHL1   H1A 4185   0.773   5.041   5.902  1.6656 -0.2996 -0.6172
   41CHL1   H1B 4186   0.951   5.043   5.925 -0.2290 -2.0893 -0.5551
   41CHL1    C2 4187   0.827   5.075   6.110  0.6375  0.1568 -0.2674
   41CHL1   H2A 4188   0.813   4.971   6.147  1.1062 -0.2685 -1.2558
   41CHL1   H2B 4189   0.725   5.115   6.129 -1.2492 -1.9697 -4.5093
   41CHL1   C20 4190   0.975   5.300   5.214 -0.3408  0.0244 -0.6464
   41CHL1   H20 4191   0.880   5.356   5.196  0.5836  1.8652 -0.1040
   41CHL1   C21 4192   0.955   5.146   5.199  0.2327 -1.1011  0.2833
   41CHL1  H21A 4193   1.052   5.097   5.225  1.4255  0.5052 -0.9468
   41CHL1  H21B 4194   0.923   5.099   5.103  2.7756 -2.7990  0.1619
   41CHL1  H21C 4195   0.879   5.117   5.275 -0.8880  2.5789  0.7510
   41CHL1   C22 4196   1.087   5.348   5.105  0.6530  0.0690  0.6144
   41CHL1  H22A 4197   1.115   5.456   5.111  0.0280  0.3380 -0.8356
   41CHL1  H22B 4198   1.169   5.275   5.119  1.6534  1.2306  0.9378
   41CHL1   C23 4199   1.043   5.345   4.956 -0.4953 -0.4310  0.4281
   41CHL1  H23A 4200   1.006   5.243   4.932 -1.4811  0.4813 -2.2087
   41CHL1  H23B 4201   0.955   5.411   4.940 -1.0328 -0.3363  3.2307
   41CHL1   C24 4202   1.143   5.388   4.853  0.2974 -0.2842  0.0565
   41CHL1  H24A 4203   1.237   5.330   4.861 -0.3652 -1.3869  0.0645
   41CHL1  H24B 4204   1.094   5.359   4.757  0.1450  1.6957 -0.5156
   41CHL1   C25 4205   1.181   5.540   4.843  0.1427 -0.2478 -0.1829
   41CHL1   H25 4206   1.226   5.562   4.941 -1.3880 -0.5769  0.6354
   41CHL1   C26 4207   1.290   5.544   4.733  0.0235  0.0010 -0.2816
   41CHL1  H26A 4208   1.252   5.507   4.635 -1.3018 -0.3895  0.3492
   41CHL1  H26B 4209   1.340   5.643   4.731 -1.3201  0.7217  0.3557
   41CHL1  H26C 4210   1.373   5.481   4.770 -0.4579 -2.0100 -2.4127
   41CHL1   C27 4211   1.067   5.635   4.814  0.4765  0.1950  0.5942
   41CHL1  H27A 4212   1.109   5.733   4.782 -0.9248  0.4940 -0.4273
   41CHL1  H27B 4213   1.023   5.586   4.724  2.1098  2.0893 -1.3397
   41CHL1  H27C 4214   0.994   5.647   4.897  0.5617  0.3416  0.6487
   42CHL1    C3 4215   1.631   0.907   6.553 -0.6674  0.2145  0.1564
   42CHL1    H3 4216   1.736   0.943   6.545 -0.1611 -0.5889  2.2900
   42CHL1    O3 4217   1.637   0.893   6.698 -0.2915  0.4129 -0.2139
   42CHL1   H3' 4218   1.557   0.854   6.733  0.5097  1.6181  3.3545
   42CHL1    C4 4219   1.528   1.010   6.509  0.1190 -0.5696 -0.2029
   42CHL1   H4A 4220   1.425   0.991   6.545  0.4648 -0.5007  0.8580
   42CHL1   H4B 4221   1.551   1.105   6.562 -2.2767 -0.3449  0.5659
   42CHL1    C5 4222   1.525   1.021   6.354 -1.1992  0.0864  0.1274
   42CHL1    C6 4223   1.547   1.134   6.284 -0.0045 -0.1708 -0.1950
   42CHL1    H6 4224   1.574   1.225   6.340 -0.9752  0.6083 -0.9538
   42CHL1    C7 4225   1.529   1.151   6.139  0.3717  0.4977 -0.0455
   42CHL1   H7A 4226   1.478   1.250   6.137 -0.1810  0.2554  1.3112
   42CHL1   H7B 4227   1.631   1.152   6.095 -0.1670 -0.0482 -1.3593
   42CHL1    C8 4228   1.448   1.032   6.079  0.2378 -0.0554 -0.2383
   42CHL1    H8 4229   1.339   1.033   6.098 -0.1257 -3.1103 -1.6300
   42CHL1   C14 4230   1.479   1.034   5.926 -0.5953 -0.6688 -0.7860
   42CHL1   H14 4231   1.589   1.022   5.920 -0.4814 -0.1953  0.1992
   42CHL1   C15 4232   1.446   1.171   5.853 -0.2788  1.0156  0.0072
   42CHL1  H15A 4233   1.352   1.214   5.894  1.5416  3.1690  2.2129
   42CHL1  H15B 4234   1.529   1.244   5.866  0.8362  0.1066 -1.5875
   42CHL1   C16 4235   1.439   1.130   5.706  0.3821 -0.0219 -0.1622
   42CHL1  H16A 4236   1.335   1.149   5.674 -0.0193 -1.2886  0.3037
   42CHL1  H16B 4237   1.512   1.199   5.659 -0.4818  1.3544  0.4586
   42CHL1   C17 4238   1.470   0.978   5.701  0.1629 -0.0244 -0.4734
   42CHL1   H17 4239   1.581   0.969   5.701  0.1060 -1.0879  0.7317
   42CHL1   C13 4240   1.422   0.923   5.839  0.2898 -0.9309  0.0885
   42CHL1   C18 4241   1.267   0.928   5.851 -0.9428  0.2004  0.5376
   42CHL1  H18A 4242   1.233   0.897   5.952  2.6169 -1.1815  1.4712
   42CHL1  H18B 4243   1.223   1.028   5.833  0.0132  0.6675  0.7234
   42CHL1  H18C 4244   1.217   0.869   5.772  1.8117 -1.8869  0.1821
   42CHL1   C12 4245   1.476   0.792   5.892  0.2977 -0.3656 -0.3514
   42CHL1  H12A 4246   1.427   0.705   5.843 -0.2032  0.9262 -2.2471
   42CHL1  H12B 4247   1.586   0.783   5.879  0.0538 -1.5025 -1.9696
   42CHL1   C11 4248   1.452   0.784   6.051 -0.4631  0.1026 -0.4601
   42CHL1  H11A 4249   1.349   0.753   6.077 -0.6408 -0.4627 -1.7920
   42CHL1  H11B 4250   1.513   0.695   6.077 -3.2551 -1.6060  0.7119
   42CHL1    C9 4251   1.502   0.901   6.132  0.5874 -0.4275  0.1712
   42CHL1    H9 4252   1.609   0.899   6.102  0.3343  0.4494 -0.8808
   42CHL1   C10 4253   1.490   0.890   6.282 -0.4539 -0.2707 -1.2396
   42CHL1   C19 4254   1.347   0.851   6.314 -0.5319  0.0077 -0.1284
   42CHL1  H19A 4255   1.276   0.934   6.294  0.0506  0.2832 -1.1334
   42CHL1  H19B 4256   1.305   0.764   6.259  0.5752  1.9376 -4.4873
   42CHL1  H19C 4257   1.342   0.832   6.423 -1.0240 -1.1081 -0.3275
   42CHL1    C1 4258   1.587   0.777   6.336  0.1566  0.2367 -0.4601
   42CHL1   H1A 4259   1.537   0.682   6.308 -0.0817  0.4110 -0.6311
   42CHL1   H1B 4260   1.679   0.781   6.274  0.3352  1.0060 -0.1597
   42CHL1    C2 4261   1.621   0.768   6.489  0.2869  0.2981  0.3114
   42CHL1   H2A 4262   1.716   0.712   6.503 -0.2020 -0.0122  2.6454
   42CHL1   H2B 4263   1.537   0.706   6.526 -1.0821  0.7126 -1.8974
   42CHL1   C20 4264   1.429   0.909   5.569  0.1073 -0.2615 -0.2977
   42CHL1   H20 4265   1.322   0.938   5.562  0.1098 -0.3198 -0.6093
   42CHL1   C21 4266   1.434   0.756   5.568  0.7987  0.3128 -0.8933
   42CHL1  H21A 4267   1.539   0.721   5.572  0.8412  0.5385  0.2565
   42CHL1  H21B 4268   1.396   0.707   5.476 -0.6256 -0.8705  0.2728
   42CHL1  H21C 4269   1.386   0.703   5.653  2.1392  1.1370  0.4316
   42CHL1   C22 4270   1.495   0.979   5.448 -0.2033  0.2134  0.3117
   42CHL1  H22A 4271   1.440   1.075   5.441 -0.1223  0.1573 -1.7361
   42CHL1  H22B 4272   1.601   1.006   5.462 -0.0933  0.9274 -1.6218
   42CHL1   C23 4273   1.498   0.887   5.324  0.7803  0.3206  0.0590
   42CHL1  H23A 4274   1.560   0.796   5.334 -1.0470 -1.0151 -0.2378
   42CHL1  H23B 4275   1.396   0.843   5.314  0.7571  0.1448  1.0232
   42CHL1   C24 4276   1.530   0.956   5.184  0.7621 -0.4828  0.0220
   42CHL1  H24A 4277   1.462   1.044   5.190 -1.2173 -1.9350 -0.0115
   42CHL1  H24B 4278   1.638   0.983   5.185  0.7556 -0.3451 -1.2183
   42CHL1   C25 4279   1.499   0.873   5.057  0.1371 -0.0904 -0.4938
   42CHL1   H25 4280   1.389   0.877   5.041 -0.0206  0.9715  0.6578
   42CHL1   C26 4281   1.562   0.934   4.933 -0.0580 -0.6981 -0.3060
   42CHL1  H26A 4282   1.673   0.942   4.938 -0.2005  0.4645  2.0909
   42CHL1  H26B 4283   1.548   0.862   4.849  0.7717 -2.0767  0.7001
   42CHL1  H26C 4284   1.514   1.028   4.901  2.5886  0.1117 -2.3293
   42CHL1   C27 4285   1.552   0.731   5.068 -0.3174  0.7474 -0.0231
   42CHL1  H27A 4286   1.528   0.685   5.166  1.1864 -0.1089 -0.0173
   42CHL1  H27B 4287   1.515   0.667   4.985 -0.5130  0.4137  0.3236
   42CHL1  H27C 4288   1.663   0.737   5.069 -0.3153  1.4849  2.5572
   43CHL1    C3 4289   0.926   2.714   6.439 -0.5186  0.1442  0.0280
   43CHL1    H3 4290   0.986   2.806   6.446  0.9087 -0.6459 -1.2117
   43CHL1    O3 4291   0.932   2.651   6.568 -0.0856  0.0445  0.6328
   43CHL1   H3' 4292   0.870   2.578   6.576  0.1966 -0.0649  2.1008
   43CHL1    C4 4293   0.779   2.759   6.413 -0.3245 -0.1813  0.0105
   43CHL1   H4A 4294   0.730   2.660   6.426 -1.2882  0.5207  2.0164
   43CHL1   H4B 4295   0.747   2.831   6.491 -0.4467 -1.4043  1.1295
   43CHL1    C5 4296   0.756   2.804   6.267 -0.7101 -0.3402 -0.3577
   43CHL1    C6 4297   0.691   2.921   6.245 -0.4420  0.0196  0.3135
   43CHL1    H6 4298   0.656   2.977   6.333 -0.4857 -1.2455  1.1304
   43CHL1    C7 4299   0.673   2.985   6.114 -0.1298  0.0199 -0.3378
   43CHL1   H7A 4300   0.563   2.997   6.114 -0.3009 -1.4648 -0.6251
   43CHL1   H7B 4301   0.737   3.076   6.106  0.1567 -0.2609 -1.4240
   43CHL1    C8 4302   0.708   2.888   6.002  0.1780 -0.4151  0.4899
   43CHL1    H8 4303   0.621   2.821   5.986 -0.4418  0.6803 -1.0766
   43CHL1   C14 4304   0.712   2.966   5.875 -0.1644 -0.7894 -0.8933
   43CHL1   H14 4305   0.797   3.036   5.882 -0.1450 -0.9161  0.5561
   43CHL1   C15 4306   0.595   3.062   5.830  0.6912  0.2664 -0.6185
   43CHL1  H15A 4307   0.502   3.018   5.872  1.3217 -0.0874  0.4607
   43CHL1  H15B 4308   0.608   3.161   5.879 -1.0038  0.3599 -0.2898
   43CHL1   C16 4309   0.598   3.062   5.676  0.6818  0.4204 -0.0185
   43CHL1  H16A 4310   0.513   2.993   5.660 -1.0324  1.3779  3.7800
   43CHL1  H16B 4311   0.570   3.160   5.632  1.8425  0.7438 -0.0578
   43CHL1   C17 4312   0.736   2.985   5.638  1.1358 -1.0180  0.3573
   43CHL1   H17 4313   0.815   3.063   5.638 -0.5523  0.8322 -1.3337
   43CHL1   C13 4314   0.744   2.882   5.752 -0.3158 -0.3572 -0.5409
   43CHL1   C18 4315   0.646   2.763   5.734  0.0477  0.4516  0.3911
   43CHL1  H18A 4316   0.653   2.713   5.635 -4.3462  0.6784 -0.2642
   43CHL1  H18B 4317   0.652   2.688   5.816 -0.6883 -0.1803 -0.1250
   43CHL1  H18C 4318   0.542   2.802   5.728  0.1757  0.5912 -1.9096
   43CHL1   C12 4319   0.888   2.825   5.777  0.2032 -0.0398 -0.1063
   43CHL1  H12A 4320   0.925   2.747   5.707  1.1299 -0.8232  1.2114
   43CHL1  H12B 4321   0.958   2.912   5.778  0.3066 -0.0564  2.6354
   43CHL1   C11 4322   0.896   2.749   5.909 -0.1048 -0.0660 -0.1688
   43CHL1  H11A 4323   0.856   2.645   5.901 -0.0285 -0.0866 -0.2860
   43CHL1  H11B 4324   1.005   2.739   5.925  0.3531  2.4651 -1.2309
   43CHL1    C9 4325   0.828   2.813   6.035  0.1087 -0.5258  0.4923
   43CHL1    H9 4326   0.895   2.898   6.059 -1.9885  1.5934 -0.6569
   43CHL1   C10 4327   0.824   2.722   6.162  0.2093  0.2264 -0.0612
   43CHL1   C19 4328   0.720   2.607   6.147 -0.5564  0.2977  0.6890
   43CHL1  H19A 4329   0.759   2.528   6.079  0.2481  0.2245  1.2244
   43CHL1  H19B 4330   0.712   2.549   6.242  1.0445  1.8753  1.8332
   43CHL1  H19C 4331   0.624   2.642   6.104  0.9450  1.1471 -2.2066
   43CHL1    C1 4332   0.964   2.675   6.203  0.0582 -0.2443  0.4743
   43CHL1   H1A 4333   0.992   2.593   6.133 -2.0454 -1.1805  0.6529
   43CHL1   H1B 4334   1.028   2.759   6.168 -0.6561 -0.8866 -2.7421
   43CHL1    C2 4335   0.989   2.617   6.339  1.0722  0.2084  0.7577
   43CHL1   H2A 4336   1.098   2.615   6.364  1.5989  1.7947 -1.1280
   43CHL1   H2B 4337   0.938   2.519   6.342  0.5874  0.2269 -2.7244
   43CHL1   C20 4338   0.727   2.932   5.492  0.0609  0.9399  0.5562
   43CHL1   H20 4339   0.650   2.853   5.479  2.1728 -0.8607 -2.0069
   43CHL1   C21 4340   0.860   2.873   5.455 -0.1469 -0.0161 -0.1974
   43CHL1  H21A 4341   0.943   2.947   5.457  0.5650 -0.8047  1.6972
   43CHL1  H21B 4342   0.858   2.836   5.350 -0.4773  1.3079 -0.6731
   43CHL1  H21C 4343   0.874   2.786   5.523 -2.3965 -0.9765 -0.8814
   43CHL1   C22 4344   0.689   3.033   5.386  0.6786 -0.7381  0.7172
   43CHL1  H22A 4345   0.587   3.069   5.412  0.1323 -0.5904 -1.4200
   43CHL1  H22B 4346   0.758   3.120   5.396 -0.2129  0.2027 -0.9092
   43CHL1   C23 4347   0.664   2.982   5.239 -0.2898  0.3779  0.6403
   43CHL1  H23A 4348   0.762   2.941   5.208 -1.5024 -3.9341  1.7172
   43CHL1  H23B 4349   0.592   2.898   5.229  0.8318 -0.5452  0.0363
   43CHL1   C24 4350   0.602   3.102   5.157 -0.3649  0.6323 -0.2174
   43CHL1  H24A 4351   0.510   3.132   5.212 -0.0100 -0.8942  1.2983
   43CHL1  H24B 4352   0.667   3.192   5.158 -0.7495  0.9139  0.9046
   43CHL1   C25 4353   0.575   3.065   5.007 -0.1204  0.5808 -0.4064
   43CHL1   H25 4354   0.527   2.964   5.005 -0.1910  0.5912  0.4155
   43CHL1   C26 4355   0.475   3.167   4.948 -0.0114  0.0964  0.1942
   43CHL1  H26A 4356   0.378   3.158   5.002  0.6429  1.3534  1.6730
   43CHL1  H26B 4357   0.517   3.270   4.956  0.3058 -0.0041 -0.1531
   43CHL1  H26C 4358   0.451   3.149   4.841 -2.3090  2.7091  0.1656
   43CHL1   C27 4359   0.704   3.055   4.929  0.6705 -0.2915 -0.3321
   43CHL1  H27A 4360   0.682   2.989   4.843  0.1626 -1.1154  0.4043
   43CHL1  H27B 4361   0.735   3.154   4.892 -1.0185  0.9824  1.4636
   43CHL1  H27C 4362   0.785   3.016   4.995 -1.4974 -0.6672  2.2992
   44CHL1    C3 4363   0.965   3.752   6.322 -0.0900  0.3925 -0.0095
   44CHL1    H3 4364   0.969   3.862   6.334  0.1606  0.2516  1.4257
   44CHL1    O3 4365   0.914   3.721   6.444 -0.1265  0.1181 -0.4346
   44CHL1   H3' 4366   0.951   3.788   6.501  1.4885 -1.0363 -0.0622
   44CHL1    C4 4367   0.864   3.694   6.218 -0.4828 -0.0800  0.5586
   44CHL1   H4A 4368   0.854   3.584   6.222  1.0980 -0.2370  0.6581
   44CHL1   H4B 4369   0.762   3.729   6.245 -1.5851 -2.7935  0.2071
   44CHL1    C5 4370   0.916   3.730   6.077  0.3121  0.0554 -0.1344
   44CHL1    C6 4371   0.845   3.805   5.994 -0.0338 -0.1230  0.1780
   44CHL1    H6 4372   0.753   3.852   6.032 -0.0896 -0.3811  0.3572
   44CHL1    C7 4373   0.884   3.847   5.854  0.5438 -0.0348  0.6495
   44CHL1   H7A 4374   0.800   3.831   5.783  0.4170 -1.3954  1.0647
   44CHL1   H7B 4375   0.917   3.953   5.857  0.3549  0.0157  1.2239
   44CHL1    C8 4376   0.999   3.754   5.808 -0.7748  0.5154  0.3042
   44CHL1    H8 4377   0.953   3.654   5.803 -2.1955  1.1995 -1.7199
   44CHL1   C14 4378   1.062   3.792   5.670  1.1323  0.2416  0.4164
   44CHL1   H14 4379   1.100   3.895   5.686  0.0533  0.6166  0.6393
   44CHL1   C15 4380   0.967   3.815   5.548  0.2122  0.1751  0.1389
   44CHL1  H15A 4381   0.900   3.727   5.547 -0.4259  0.6082  1.8089
   44CHL1  H15B 4382   0.892   3.896   5.558 -0.8625 -0.8613  0.6600
   44CHL1   C16 4383   1.066   3.828   5.435  0.2042 -0.1545  0.6690
   44CHL1  H16A 4384   1.030   3.776   5.344 -4.1898 -0.8470  2.5540
   44CHL1  H16B 4385   1.077   3.933   5.399 -1.0487 -0.6243 -1.2185
   44CHL1   C17 4386   1.207   3.771   5.483 -0.5629 -0.0276 -0.0833
   44CHL1   H17 4387   1.265   3.863   5.506 -0.1736 -0.5048  0.8943
   44CHL1   C13 4388   1.183   3.710   5.619 -0.7102  0.4451 -0.2525
   44CHL1   C18 4389   1.141   3.562   5.601 -0.0517  1.2930  0.7517
   44CHL1  H18A 4390   1.073   3.551   5.514  0.2780  2.1619  0.3723
   44CHL1  H18B 4391   1.223   3.496   5.568 -2.2311  0.0207 -2.6719
   44CHL1  H18C 4392   1.097   3.516   5.692 -0.8016 -2.0275 -1.1173
   44CHL1   C12 4393   1.295   3.724   5.729 -0.0513  0.0997 -0.4958
   44CHL1  H12A 4394   1.386   3.679   5.683  0.6293  0.6045  0.3307
   44CHL1  H12B 4395   1.327   3.831   5.730 -0.5241  0.2748 -1.6571
   44CHL1   C11 4396   1.253   3.681   5.868 -0.1913 -0.1022  0.7091
   44CHL1  H11A 4397   1.253   3.570   5.867  0.1030 -0.1013  0.0773
   44CHL1  H11B 4398   1.329   3.715   5.942 -0.7446 -0.7889  1.6071
   44CHL1    C9 4399   1.109   3.739   5.916  0.2577 -0.4287 -0.6428
   44CHL1    H9 4400   1.130   3.847   5.933 -0.9217  0.1865 -2.7263
   44CHL1   C10 4401   1.059   3.685   6.048  0.3090 -0.5895 -0.1218
   44CHL1   C19 4402   1.055   3.524   6.048  0.3000 -0.1389  1.0908
   44CHL1  H19A 4403   0.990   3.500   5.961  2.3540 -2.1184  0.0177
   44CHL1  H19B 4404   1.158   3.485   6.034  0.0693 -0.3170 -0.1887
   44CHL1  H19C 4405   1.016   3.484   6.145 -1.1790  2.4724  1.6767
   44CHL1    C1 4406   1.164   3.728   6.157  0.5041 -0.1113  0.0265
   44CHL1   H1A 4407   1.261   3.677   6.140  0.5024 -1.0884  2.5280
   44CHL1   H1B 4408   1.182   3.838   6.151 -0.2197  0.1328  1.6240
   44CHL1    C2 4409   1.103   3.698   6.301 -0.7283 -0.6989 -0.5053
   44CHL1   H2A 4410   1.164   3.749   6.379 -1.4040 -0.4026 -0.1656
   44CHL1   H2B 4411   1.109   3.589   6.324  1.4459 -0.8816 -1.6209
   44CHL1   C20 4412   1.290   3.690   5.378 -0.2409  0.5875  0.0307
   44CHL1   H20 4413   1.226   3.610   5.335  3.0391 -2.2728  0.0091
   44CHL1   C21 4414   1.421   3.634   5.435  0.3045  0.0011  0.2113
   44CHL1  H21A 4415   1.475   3.584   5.352 -1.4719 -1.7016  0.0003
   44CHL1  H21B 4416   1.412   3.556   5.513  0.9896  0.4369  0.7401
   44CHL1  H21C 4417   1.487   3.707   5.487  0.1628 -0.2583  0.7708
   44CHL1   C22 4418   1.324   3.785   5.259  0.2397 -0.1968  0.8734
   44CHL1  H22A 4419   1.239   3.854   5.238 -0.4790 -1.2885  0.1111
   44CHL1  H22B 4420   1.416   3.843   5.279 -1.3248  3.2315 -0.9376
   44CHL1   C23 4421   1.339   3.715   5.123  0.1269  0.3605  0.5447
   44CHL1  H23A 4422   1.407   3.626   5.125  0.3123  0.2537 -3.4208
   44CHL1  H23B 4423   1.240   3.673   5.098 -1.1269  1.5168  3.1652
   44CHL1   C24 4424   1.406   3.810   5.018  0.5770  0.2137 -0.4847
   44CHL1  H24A 4425   1.330   3.889   4.998  0.3351 -0.2752 -1.5799
   44CHL1  H24B 4426   1.487   3.862   5.073  0.3336  0.4970 -0.3915
   44CHL1   C25 4427   1.462   3.751   4.888  0.4335  0.7195  0.2143
   44CHL1   H25 4428   1.389   3.680   4.844 -2.2459  3.9100 -0.8841
   44CHL1   C26 4429   1.502   3.854   4.788 -0.6459 -0.0075  0.1997
   44CHL1  H26A 4430   1.586   3.917   4.825  1.3072 -1.6578 -1.2140
   44CHL1  H26B 4431   1.537   3.802   4.697  0.3006  2.4037 -0.9093
   44CHL1  H26C 4432   1.419   3.924   4.766 -1.0389 -0.3982  0.4472
   44CHL1   C27 4433   1.587   3.671   4.925 -0.2015  0.3342 -0.1207
   44CHL1  H27A 4434   1.631   3.611   4.843 -0.8526 -1.0159  0.4889
   44CHL1  H27B 4435   1.661   3.747   4.958 -1.9465  1.5039  1.2648
   44CHL1  H27C 4436   1.559   3.603   5.008  0.8108 -2.3289 -1.8047
   45CHL1    C3 4437   0.162   4.427   6.419  0.0988 -0.7386  0.2132
   45CHL1    H3 4438   0.082   4.371   6.471 -2.1457  0.5014 -1.6911
   45CHL1    O3 4439   0.237   4.495   6.517 -0.5878 -0.0947 -0.4480
   45CHL1   H3' 4440   0.311   4.439   6.541 -0.1883 -0.0484 -1.5181
   45CHL1    C4 4441   0.243   4.320   6.347 -0.1862  0.8635 -0.4983
   45CHL1   H4A 4442   0.336   4.369   6.312 -0.0066  0.2028 -0.9807
   45CHL1   H4B 4443   0.263   4.238   6.419 -1.3897  3.1754  2.6772
   45CHL1    C5 4444   0.178   4.268   6.222  0.3649  0.1257  0.5794
   45CHL1    C6 4445   0.143   4.141   6.207  0.3472  0.6531  0.4458
   45CHL1    H6 4446   0.170   4.068   6.284  2.7441  0.1423 -0.7830
   45CHL1    C7 4447   0.074   4.087   6.089  0.3244  0.3558  0.5030
   45CHL1   H7A 4448   0.094   3.980   6.066  1.1481 -0.1395  3.1740
   45CHL1   H7B 4449  -0.032   4.084   6.123  0.3891 -0.5356  0.6592
   45CHL1    C8 4450   0.076   4.185   5.969  0.0269  0.0856 -0.4498
   45CHL1    H8 4451   0.182   4.186   5.936  0.2209  2.5374  0.0386
   45CHL1   C14 4452  -0.018   4.131   5.860 -0.1659  0.3537 -0.1629
   45CHL1   H14 4453  -0.115   4.128   5.914  1.1638  1.0143  2.4672
   45CHL1   C15 4454   0.008   3.991   5.800 -0.3637  0.0691 -0.2772
   45CHL1  H15A 4455   0.114   3.981   5.769 -0.5579 -2.7323 -0.3012
   45CHL1  H15B 4456  -0.004   3.919   5.884  2.2263  0.1919  0.2848
   45CHL1   C16 4457  -0.085   3.998   5.679 -0.5362 -0.0310  0.3676
   45CHL1  H16A 4458  -0.029   3.973   5.586 -1.0516 -1.3974  0.3978
   45CHL1  H16B 4459  -0.174   3.931   5.687  0.6229 -1.8855 -1.2803
   45CHL1   C17 4460  -0.133   4.142   5.657 -0.3567 -0.0909  0.2567
   45CHL1   H17 4461  -0.233   4.149   5.704 -1.2465  1.1506 -1.6945
   45CHL1   C13 4462  -0.035   4.229   5.740 -0.4027  0.0807 -1.2076
   45CHL1   C18 4463   0.103   4.238   5.664 -0.1989  0.7486  1.0766
   45CHL1  H18A 4464   0.130   4.148   5.606  2.6499  1.2095  1.5487
   45CHL1  H18B 4465   0.105   4.318   5.587 -0.3054  0.9015  1.2292
   45CHL1  H18C 4466   0.188   4.263   5.730  0.7837  0.7780 -0.1671
   45CHL1   C12 4467  -0.089   4.367   5.798  0.3867  0.4550  0.0675
   45CHL1  H12A 4468  -0.105   4.444   5.719 -0.1192  1.2299  0.9066
   45CHL1  H12B 4469  -0.185   4.354   5.852  1.0079 -2.1637  0.6430
   45CHL1   C11 4470   0.014   4.419   5.900 -0.6826  0.2327 -0.0526
   45CHL1  H11A 4471   0.109   4.449   5.851 -0.5766 -1.3376 -0.8948
   45CHL1  H11B 4472  -0.021   4.518   5.935  2.4948  1.1373  0.9176
   45CHL1    C9 4473   0.039   4.326   6.021  0.5880  0.3821  0.4446
   45CHL1    H9 4474  -0.066   4.313   6.055 -0.3404  1.4073 -1.8085
   45CHL1   C10 4475   0.132   4.377   6.125  0.1985  0.0975  0.4713
   45CHL1   C19 4476   0.264   4.448   6.070  0.4423  0.4121 -0.4040
   45CHL1  H19A 4477   0.326   4.492   6.151 -0.5665  1.7369 -0.3292
   45CHL1  H19B 4478   0.324   4.369   6.020 -1.4336 -1.2981 -0.1211
   45CHL1  H19C 4479   0.234   4.535   6.009  0.3642  0.2148 -0.6491
   45CHL1    C1 4480   0.044   4.480   6.201 -0.1805  0.1242 -0.0964
   45CHL1   H1A 4481   0.013   4.563   6.134  0.4400 -0.2774 -0.8949
   45CHL1   H1B 4482  -0.045   4.421   6.233 -1.9457  1.0751 -2.9127
   45CHL1    C2 4483   0.108   4.537   6.331 -0.4004 -0.8886  0.1524
   45CHL1   H2A 4484   0.035   4.595   6.391  0.3548  0.7759 -0.4607
   45CHL1   H2B 4485   0.183   4.619   6.319 -1.0607  0.0045  1.8317
   45CHL1   C20 4486  -0.152   4.171   5.506 -0.0117 -0.5558 -0.6458
   45CHL1   H20 4487  -0.052   4.165   5.458  0.0250  0.2489 -0.6825
   45CHL1   C21 4488  -0.186   4.321   5.475 -0.1009  0.1862 -0.1595
   45CHL1  H21A 4489  -0.114   4.385   5.530  0.7344 -0.8106 -0.0647
   45CHL1  H21B 4490  -0.290   4.351   5.498  0.2165  0.5048  0.9064
   45CHL1  H21C 4491  -0.170   4.336   5.366 -1.7709 -2.1501 -0.8017
   45CHL1   C22 4492  -0.247   4.064   5.434 -0.7177 -0.3541 -0.0018
   45CHL1  H22A 4493  -0.205   3.962   5.428 -3.0490 -1.6006  2.5760
   45CHL1  H22B 4494  -0.344   4.066   5.489 -0.4587  1.0545  0.4282
   45CHL1   C23 4495  -0.280   4.097   5.286 -0.1660 -0.0211 -0.2468
   45CHL1  H23A 4496  -0.356   4.177   5.292  0.8898  1.0461 -0.7465
   45CHL1  H23B 4497  -0.202   4.140   5.220  0.3547 -2.3817 -1.2975
   45CHL1   C24 4498  -0.340   3.979   5.210 -0.1448  0.1281  0.7526
   45CHL1  H24A 4499  -0.257   3.910   5.184  1.2687  2.0417 -0.0691
   45CHL1  H24B 4500  -0.403   3.932   5.288 -1.0016  1.6152  1.0049
   45CHL1   C25 4501  -0.426   4.016   5.090  0.3520 -0.3291  0.6400
   45CHL1   H25 4502  -0.518   4.065   5.128 -2.2560 -1.1159 -3.9447
   45CHL1   C26 4503  -0.365   4.124   4.990 -0.4404 -0.0921  0.1277
   45CHL1  H26A 4504  -0.274   4.075   4.949 -0.0082  0.4833  0.3833
   45CHL1  H26B 4505  -0.444   4.142   4.913  1.0220 -1.4901 -1.8190
   45CHL1  H26C 4506  -0.346   4.217   5.047 -0.2093  0.0902 -0.2440
   45CHL1   C27 4507  -0.462   3.894   5.006  0.3863  0.4282  0.4273
   45CHL1  H27A 4508  -0.527   3.928   4.922  1.4260  1.2578 -0.0651
   45CHL1  H27B 4509  -0.370   3.858   4.954 -0.9068 -0.8527 -1.0888
   45CHL1  H27C 4510  -0.518   3.816   5.063 -1.0445  1.9321  1.1531
   46CHL1    C3 4511   2.953   5.908   6.381 -0.2683 -0.1857  0.4196
   46CHL1    H3 4512   3.064   5.908   6.385 -0.0480 -3.6719 -1.4787
   46CHL1    O3 4513   2.906   5.915   6.514  0.1090  0.1546 -0.6091
   46CHL1   H3' 4514   2.938   5.838   6.561 -0.5932 -0.6816 -1.4803
   46CHL1    C4 4515   2.900   6.030   6.302  0.1555  0.5681  0.2443
   46CHL1   H4A 4516   2.792   6.041   6.325  0.2471  2.9517 -0.2583
   46CHL1   H4B 4517   2.956   6.115   6.346 -1.8293  2.2959 -0.3809
   46CHL1    C5 4518   2.923   6.016   6.155 -0.2004  0.0032 -0.1850
   46CHL1    C6 4519   2.990   6.107   6.084  0.6005 -0.3336  0.0847
   46CHL1    H6 4520   3.037   6.196   6.129  1.2413 -0.9459  0.6619
   46CHL1    C7 4521   3.009   6.113   5.933  0.4749 -0.8605 -0.1991
   46CHL1   H7A 4522   2.983   6.217   5.906  0.7316 -0.1420  2.0603
   46CHL1   H7B 4523   3.110   6.079   5.903  0.0838 -1.8299 -0.4535
   46CHL1    C8 4524   2.914   6.012   5.867 -0.6123 -0.0355 -0.3165
   46CHL1    H8 4525   2.812   6.056   5.858 -0.1384  0.7593 -2.2160
   46CHL1   C14 4526   2.964   5.976   5.729  0.0291 -0.4899 -0.5476
   46CHL1   H14 4527   3.059   5.920   5.738 -1.1272 -2.4572  0.0236
   46CHL1   C15 4528   3.003   6.097   5.640 -0.1781  0.8553  0.2891
   46CHL1  H15A 4529   2.925   6.175   5.654 -0.7446  0.2283  0.6923
   46CHL1  H15B 4530   3.102   6.141   5.666  0.0823  0.5685 -0.2101
   46CHL1   C16 4531   3.004   6.042   5.493  0.5672 -0.0222 -0.4812
   46CHL1  H16A 4532   2.936   6.110   5.437  0.6455 -0.1282 -0.7066
   46CHL1  H16B 4533   3.107   6.043   5.452  0.1402 -1.1229 -1.6629
   46CHL1   C17 4534   2.943   5.900   5.509  0.1197  0.4797 -0.1531
   46CHL1   H17 4535   3.030   5.831   5.506 -0.5411 -0.4839  1.3551
   46CHL1   C13 4536   2.876   5.889   5.646 -0.0341 -0.1861  0.7522
   46CHL1   C18 4537   2.730   5.949   5.636 -0.1443  0.6733 -0.1726
   46CHL1  H18A 4538   2.659   5.888   5.577 -1.2845  2.2906 -0.5506
   46CHL1  H18B 4539   2.688   5.966   5.737  2.0515  2.2919  0.5477
   46CHL1  H18C 4540   2.739   6.052   5.596 -0.2302  0.1602 -1.5766
   46CHL1   C12 4541   2.880   5.749   5.716  0.2156 -0.0755 -0.0602
   46CHL1  H12A 4542   2.821   5.668   5.668 -0.6825  0.7195 -0.3463
   46CHL1  H12B 4543   2.987   5.724   5.700 -0.5768 -1.7018 -3.7286
   46CHL1   C11 4544   2.834   5.768   5.865 -0.2240  0.3157  0.6136
   46CHL1  H11A 4545   2.724   5.785   5.861  0.0138  1.6832 -1.1925
   46CHL1  H11B 4546   2.853   5.672   5.918  0.8460  0.9274  1.3741
   46CHL1    C9 4547   2.912   5.879   5.942 -0.2934 -0.4183  0.4368
   46CHL1    H9 4548   3.017   5.845   5.939 -0.0624  0.1475  1.6219
   46CHL1   C10 4549   2.869   5.887   6.089  0.7941  0.3391 -0.6915
   46CHL1   C19 4550   2.720   5.900   6.086  0.6723 -0.5118  0.2481
   46CHL1  H19A 4551   2.672   5.800   6.073  0.4410 -0.6396  1.8369
   46CHL1  H19B 4552   2.676   5.929   6.184  0.4675 -0.8672  0.2673
   46CHL1  H19C 4553   2.686   5.959   5.999  0.3199  0.2368  0.8807
   46CHL1    C1 4554   2.929   5.766   6.169  1.2191  0.7074 -0.0046
   46CHL1   H1A 4555   2.878   5.674   6.131  0.7158  0.9065  0.1837
   46CHL1   H1B 4556   3.036   5.750   6.143  1.6687  0.0803  2.0462
   46CHL1    C2 4557   2.905   5.778   6.318  0.1685 -0.4562 -0.3332
   46CHL1   H2A 4558   2.976   5.702   6.357  2.0012 -0.4150 -3.2474
   46CHL1   H2B 4559   2.798   5.750   6.331  0.2740 -1.3809 -1.2768
   46CHL1   C20 4560   2.864   5.862   5.380  0.4188  0.5346  0.0207
   46CHL1   H20 4561   2.783   5.936   5.371  0.1662  0.3842  0.9508
   46CHL1   C21 4562   2.815   5.715   5.379  0.2205  0.8338  0.3730
   46CHL1  H21A 4563   2.743   5.696   5.462  0.1020 -0.0918  0.0759
   46CHL1  H21B 4564   2.906   5.651   5.387 -0.4051  0.1564  2.9496
   46CHL1  H21C 4565   2.756   5.689   5.288 -1.1524  1.7718  0.9620
   46CHL1   C22 4566   2.953   5.883   5.247 -0.6029  0.5711 -0.6763
   46CHL1  H22A 4567   3.020   5.970   5.264  1.2099 -1.3213  3.0273
   46CHL1  H22B 4568   3.026   5.802   5.227  0.9090  1.6981  0.0751
   46CHL1   C23 4569   2.878   5.927   5.124 -0.1421 -0.5342 -0.4848
   46CHL1  H23A 4570   2.798   5.854   5.100 -0.3193 -0.2551 -0.7484
   46CHL1  H23B 4571   2.822   6.022   5.136  0.6038 -0.2553  1.0832
   46CHL1   C24 4572   2.963   5.929   4.995  0.2228  1.0069  1.0616
   46CHL1  H24A 4573   3.018   6.024   4.981 -2.9825  2.8531  0.0606
   46CHL1  H24B 4574   3.032   5.841   4.986  0.4485  1.2871 -0.2772
   46CHL1   C25 4575   2.869   5.925   4.874 -0.9204  0.0348  0.2804
   46CHL1   H25 4576   2.794   5.844   4.877 -2.8242  1.7414  1.1153
   46CHL1   C26 4577   2.804   6.059   4.865 -0.0350  0.0817  0.0556
   46CHL1  H26A 4578   2.744   6.073   4.773  1.1401 -0.6296 -0.8418
   46CHL1  H26B 4579   2.730   6.064   4.948  0.3285  3.4704  0.3068
   46CHL1  H26C 4580   2.876   6.142   4.878 -0.1562  0.3537 -0.9584
   46CHL1   C27 4581   2.939   5.904   4.735  0.0518  0.0425 -0.0960
   46CHL1  H27A 4582   3.003   5.993   4.716  1.0441 -1.0142 -1.9060
   46CHL1  H27B 4583   3.003   5.814   4.743  0.4413  0.1885 -1.3205
   46CHL1  H27C 4584   2.862   5.889   4.656  1.0092  0.8636 -1.2281
   47CHL1    C3 4585   4.672   4.039   6.499 -0.3691 -0.1136  0.6780
   47CHL1    H3 4586   4.761   4.103   6.519 -0.7165  0.4207  0.5388
   47CHL1    O3 4587   4.627   3.990   6.616 -0.4713 -0.1684 -0.0984
   47CHL1   H3' 4588   4.561   3.931   6.578 -0.7846  1.9240 -3.1097
   47CHL1    C4 4589   4.556   4.118   6.429 -0.1168  0.1179  0.0916
   47CHL1   H4A 4590   4.475   4.042   6.424  0.2506 -0.3383  0.9060
   47CHL1   H4B 4591   4.512   4.201   6.487 -1.0009  0.1539 -0.6195
   47CHL1    C5 4592   4.596   4.166   6.287 -0.0359  0.9035 -0.1864
   47CHL1    C6 4593   4.581   4.296   6.255  0.2281  0.6769 -0.4622
   47CHL1    H6 4594   4.541   4.375   6.320 -0.4761  1.4658 -1.8317
   47CHL1    C7 4595   4.620   4.357   6.121 -0.4049  0.4100 -0.8452
   47CHL1   H7A 4596   4.546   4.434   6.090  0.4127  2.1819  1.3385
   47CHL1   H7B 4597   4.717   4.410   6.128 -0.6821  0.7947  0.1276
   47CHL1    C8 4598   4.619   4.242   6.018 -0.2850 -0.2436  0.4459
   47CHL1    H8 4599   4.517   4.201   6.001  0.0405 -2.0293  2.3906
   47CHL1   C14 4600   4.677   4.302   5.889 -0.2532  0.5344  0.2028
   47CHL1   H14 4601   4.774   4.348   5.917 -0.5699  0.1112  2.1253
   47CHL1   C15 4602   4.616   4.427   5.831  0.1640 -0.6777  0.2140
   47CHL1  H15A 4603   4.506   4.414   5.834  0.0883  0.0470  0.7912
   47CHL1  H15B 4604   4.644   4.516   5.890 -0.6436 -0.4098  0.2055
   47CHL1   C16 4605   4.646   4.424   5.682  0.0516  0.1919  0.3268
   47CHL1  H16A 4606   4.556   4.406   5.619  2.2860 -1.0775 -2.7610
   47CHL1  H16B 4607   4.700   4.507   5.632  0.0481 -0.4358 -0.7404
   47CHL1   C17 4608   4.730   4.288   5.662  0.5310  0.0602  0.0022
   47CHL1   H17 4609   4.830   4.323   5.695  0.5160  0.6283 -0.5421
   47CHL1   C13 4610   4.684   4.198   5.774 -0.0369 -0.2563  0.4092
   47CHL1   C18 4611   4.541   4.154   5.737 -0.3762  0.5677 -0.0413
   47CHL1  H18A 4612   4.500   4.097   5.823  1.7424 -2.2378 -0.7430
   47CHL1  H18B 4613   4.471   4.239   5.717 -0.6191  0.1289 -1.1588
   47CHL1  H18C 4614   4.544   4.090   5.646 -0.5331  1.7641 -0.9190
   47CHL1   C12 4615   4.781   4.091   5.814  0.4769 -0.4107 -0.5331
   47CHL1  H12A 4616   4.791   4.009   5.740  1.6727 -0.5954 -0.1889
   47CHL1  H12B 4617   4.883   4.136   5.826  0.3264 -0.2181  0.0530
   47CHL1   C11 4618   4.740   4.021   5.950 -0.5728 -0.6713  0.0147
   47CHL1  H11A 4619   4.655   3.955   5.923  0.8956 -2.9468  0.7144
   47CHL1  H11B 4620   4.818   3.952   5.987 -0.7881 -0.9333 -0.0127
   47CHL1    C9 4621   4.707   4.125   6.070  0.0861  0.0324 -0.2203
   47CHL1    H9 4622   4.803   4.177   6.088 -0.4762  0.4737  1.7103
   47CHL1   C10 4623   4.655   4.060   6.194  0.2950 -0.1016  0.2670
   47CHL1   C19 4624   4.538   3.965   6.163 -0.5749  0.5196 -0.7303
   47CHL1  H19A 4625   4.446   4.020   6.134 -0.9699 -0.4524 -1.3594
   47CHL1  H19B 4626   4.565   3.888   6.088  1.1790  0.6778 -0.3040
   47CHL1  H19C 4627   4.507   3.903   6.250  0.5509 -1.5573 -1.7468
   47CHL1    C1 4628   4.766   3.984   6.271  0.0418 -0.0154 -0.2979
   47CHL1   H1A 4629   4.800   3.894   6.215  0.8403  0.8006 -1.1599
   47CHL1   H1B 4630   4.852   4.046   6.304  1.6262 -2.7487  1.0912
   47CHL1    C2 4631   4.712   3.921   6.404 -0.4246 -1.0798 -0.0428
   47CHL1   H2A 4632   4.804   3.876   6.446  1.9869  1.9597 -1.6476
   47CHL1   H2B 4633   4.636   3.841   6.390 -1.0561 -0.9430  2.2078
   47CHL1   C20 4634   4.737   4.231   5.516  0.4035  0.1137  0.0347
   47CHL1   H20 4635   4.635   4.203   5.482  0.3905 -1.1593  1.0340
   47CHL1   C21 4636   4.837   4.116   5.505 -0.1000 -1.1946  0.0337
   47CHL1  H21A 4637   4.932   4.138   5.557 -0.5185 -0.2386  0.4070
   47CHL1  H21B 4638   4.861   4.087   5.400 -0.8155  0.3389 -0.5907
   47CHL1  H21C 4639   4.783   4.027   5.546 -0.7215 -0.9151 -0.1694
   47CHL1   C22 4640   4.773   4.350   5.417  0.1518  0.2938  0.2762
   47CHL1  H22A 4641   4.785   4.303   5.317  1.3327  1.0918  0.0207
   47CHL1  H22B 4642   4.696   4.429   5.406  1.6295  1.6608 -0.7527
   47CHL1   C23 4643   4.908   4.413   5.436  0.4629 -0.6849  0.1788
   47CHL1  H23A 4644   4.902   4.469   5.531  0.5198 -1.0688  0.4084
   47CHL1  H23B 4645   4.990   4.338   5.439  0.4348 -0.7554 -0.5134
   47CHL1   C24 4646   4.941   4.515   5.324 -0.0475 -0.2707 -1.0790
   47CHL1  H24A 4647   4.946   4.449   5.235  0.0666 -1.9569  0.1177
   47CHL1  H24B 4648   4.862   4.593   5.323 -0.4737 -0.7023 -1.1254
   47CHL1   C25 4649   5.083   4.582   5.332  0.4319  0.4694 -0.4858
   47CHL1   H25 4650   5.084   4.666   5.260  0.2486  1.5386  0.7167
   47CHL1   C26 4651   5.119   4.658   5.459 -0.5191  0.1418  0.1514
   47CHL1  H26A 4652   5.037   4.715   5.507  0.1395 -0.5877  2.2624
   47CHL1  H26B 4653   5.159   4.583   5.531  2.5013  1.0375 -0.4197
   47CHL1  H26C 4654   5.203   4.727   5.435  0.8285 -1.4941 -0.1379
   47CHL1   C27 4655   5.191   4.488   5.278 -0.1275 -0.5327 -0.0567
   47CHL1  H27A 4656   5.285   4.547   5.292  0.2118 -1.3112  1.1048
   47CHL1  H27B 4657   5.204   4.409   5.355  0.6664 -2.2510 -1.8794
   47CHL1  H27C 4658   5.173   4.453   5.175 -0.2109 -1.4507  0.2645
   48CHL1    C3 4659   2.895   0.122   6.471 -0.0973  0.4420  0.0850
   48CHL1    H3 4660   2.996   0.090   6.439 -0.1230 -0.9251  1.3204
   48CHL1    O3 4661   2.887   0.082   6.607 -0.1244  0.7362 -0.0237
   48CHL1   H3' 4662   2.806   0.115   6.645 -1.5357 -0.4966 -1.7830
   48CHL1    C4 4663   2.870   0.275   6.472 -0.2215 -0.0642 -0.4983
   48CHL1   H4A 4664   2.771   0.310   6.507  0.4393  0.2168  1.1884
   48CHL1   H4B 4665   2.940   0.315   6.549 -0.0542  0.2672 -0.8196
   48CHL1    C5 4666   2.887   0.315   6.332 -0.5283  0.5072  0.5944
   48CHL1    C6 4667   2.995   0.391   6.281  0.1530  0.4943  0.4837
   48CHL1    H6 4668   3.062   0.441   6.352  1.0868  1.6158 -1.1133
   48CHL1    C7 4669   3.009   0.428   6.142  0.1096 -0.0728  0.6630
   48CHL1   H7A 4670   3.038   0.536   6.137  0.4544 -0.1101  1.5663
   48CHL1   H7B 4671   3.098   0.375   6.102  0.6560  0.9953  0.4064
   48CHL1    C8 4672   2.879   0.417   6.062  0.4908 -0.1031 -0.1929
   48CHL1    H8 4673   2.811   0.499   6.092 -1.3666 -1.0165 -1.7132
   48CHL1   C14 4674   2.911   0.430   5.913  0.6822  0.4653  0.0017
   48CHL1   H14 4675   2.979   0.346   5.888  1.0325  0.8697 -0.4323
   48CHL1   C15 4676   2.988   0.553   5.868 -0.0172  0.4087  0.0459
   48CHL1  H15A 4677   2.930   0.635   5.914  0.0276 -0.3211  1.4776
   48CHL1  H15B 4678   3.092   0.564   5.908  0.8074 -0.7326 -1.6516
   48CHL1   C16 4679   2.961   0.567   5.720 -0.9773 -0.0041 -0.4405
   48CHL1  H16A 4680   2.917   0.666   5.698  1.4064  1.7293  1.9649
   48CHL1  H16B 4681   3.048   0.556   5.652 -1.0141  0.0977 -0.5040
   48CHL1   C17 4682   2.851   0.456   5.682 -0.2334 -0.5094  0.3069
   48CHL1   H17 4683   2.915   0.367   5.661  1.3648  0.5196  0.5767
   48CHL1   C13 4684   2.781   0.425   5.820 -1.0528 -0.1149  0.4305
   48CHL1   C18 4685   2.686   0.536   5.861  0.1549 -0.0264  0.5337
   48CHL1  H18A 4686   2.604   0.519   5.788 -1.0100 -2.0979  2.2040
   48CHL1  H18B 4687   2.631   0.520   5.956 -0.0178  2.3325  0.8900
   48CHL1  H18C 4688   2.728   0.638   5.848  1.4612 -0.7369 -1.1505
   48CHL1   C12 4689   2.726   0.274   5.831  0.1803  0.2339 -0.3720
   48CHL1  H12A 4690   2.626   0.258   5.786 -0.0258 -1.6867  0.6436
   48CHL1  H12B 4691   2.799   0.206   5.782 -2.1930 -1.4967 -1.7023
   48CHL1   C11 4692   2.702   0.231   5.982  0.3547  0.6656  0.0812
   48CHL1  H11A 4693   2.607   0.286   5.999 -1.2587 -2.3252  1.5473
   48CHL1  H11B 4694   2.679   0.123   5.986 -1.4073  0.9739 -0.6539
   48CHL1    C9 4695   2.815   0.276   6.082 -0.3790  0.0241  0.8477
   48CHL1    H9 4696   2.896   0.204   6.060 -0.7408 -0.6210  1.5875
   48CHL1   C10 4697   2.783   0.254   6.234 -0.3855  0.3155  0.6901
   48CHL1   C19 4698   2.647   0.329   6.250 -0.3987  0.3201 -0.0955
   48CHL1  H19A 4699   2.625   0.333   6.359  2.4036 -2.4620  0.7519
   48CHL1  H19B 4700   2.646   0.436   6.222 -1.6230  0.2529 -0.3465
   48CHL1  H19C 4701   2.564   0.270   6.208 -0.4987  0.1875  0.2846
   48CHL1    C1 4702   2.769   0.099   6.262 -0.5033 -0.6002 -0.1718
   48CHL1   H1A 4703   2.671   0.072   6.215 -0.2604  0.5256 -1.3831
   48CHL1   H1B 4704   2.849   0.044   6.208 -1.5885 -0.7489 -1.7253
   48CHL1    C2 4705   2.777   0.053   6.407 -0.4926  0.3544  0.1480
   48CHL1   H2A 4706   2.780  -0.058   6.412  0.9235  0.3906  0.6048
   48CHL1   H2B 4707   2.677   0.082   6.447 -0.2473  1.4663 -0.0228
   48CHL1   C20 4708   2.766   0.498   5.563  0.0319  0.1650 -0.2343
   48CHL1   H20 4709   2.692   0.576   5.589  0.9220  0.5909  1.1027
   48CHL1   C21 4710   2.666   0.385   5.523 -0.3890  0.2055  0.0130
   48CHL1  H21A 4711   2.606   0.377   5.616  0.0714  3.5034  0.7348
   48CHL1  H21B 4712   2.600   0.420   5.441  0.0590  0.6623 -0.1642
   48CHL1  H21C 4713   2.724   0.293   5.501 -1.5087 -0.7429  0.9379
   48CHL1   C22 4714   2.849   0.545   5.440  0.2332 -0.2084 -0.8127
   48CHL1  H22A 4715   2.879   0.647   5.472 -1.6363  0.2174 -0.2976
   48CHL1  H22B 4716   2.945   0.491   5.425 -0.2714 -1.3564  0.0105
   48CHL1   C23 4717   2.788   0.546   5.297  0.8380 -0.0964  0.1314
   48CHL1  H23A 4718   2.787   0.444   5.252  0.0567  0.2701 -0.7075
   48CHL1  H23B 4719   2.680   0.572   5.306  0.8210  0.9333 -2.3337
   48CHL1   C24 4720   2.849   0.649   5.197 -0.1323 -0.3507 -0.1397
   48CHL1  H24A 4721   2.848   0.744   5.254  3.7684 -1.5867  2.4340
   48CHL1  H24B 4722   2.955   0.626   5.170  0.4574  4.3695 -2.9089
   48CHL1   C25 4723   2.758   0.657   5.077 -0.5509 -0.0992 -0.1995
   48CHL1   H25 4724   2.710   0.558   5.066 -0.7636 -0.4404  2.9702
   48CHL1   C26 4725   2.640   0.756   5.080  0.1711  0.1469  0.0487
   48CHL1  H26A 4726   2.599   0.767   4.977  1.1839  3.8432 -0.0934
   48CHL1  H26B 4727   2.555   0.723   5.143  0.5292 -3.4846 -1.1269
   48CHL1  H26C 4728   2.675   0.857   5.109  0.5519  0.5666 -1.7344
   48CHL1   C27 4729   2.846   0.680   4.953 -0.1813 -0.7487  0.3260
   48CHL1  H27A 4730   2.938   0.619   4.957  0.7979  0.7627  2.6441
   48CHL1  H27B 4731   2.792   0.656   4.858  0.0708  0.2229 -0.0833
   48CHL1  H27C 4732   2.889   0.782   4.948  0.3145 -0.8270  2.3964
   49CHL1    C3 4733   6.198   5.346   3.473 -0.1188 -0.3631 -0.3199
   49CHL1    H3 4734   6.306   5.333   3.495 -0.1197  0.6287  0.3687
   49CHL1    O3 4735   6.183   5.402   3.349 -0.3339  0.1215 -0.3197
   49CHL1   H3' 4736   6.141   5.485   3.374 -0.0159  0.3726 -0.6081
   49CHL1    C4 4737   6.141   5.198   3.468  0.7656 -1.2527 -0.1951
   49CHL1   H4A 4738   6.034   5.210   3.441  0.3152 -0.2902  1.8257
   49CHL1   H4B 4739   6.203   5.144   3.394  0.4396 -0.5536 -0.9963
   49CHL1    C5 4740   6.166   5.122   3.597  0.7555 -1.1177 -0.4848
   49CHL1    C6 4741   6.235   5.004   3.591  0.3709 -0.0980 -0.2567
   49CHL1    H6 4742   6.271   4.966   3.495 -1.1772 -3.0648  0.1821
   49CHL1    C7 4743   6.261   4.916   3.714  0.3883  0.1820  0.3801
   49CHL1   H7A 4744   6.223   4.814   3.693  1.3504 -0.6607  2.5029
   49CHL1   H7B 4745   6.369   4.895   3.726  0.4806  0.0307 -0.6176
   49CHL1    C8 4746   6.194   4.970   3.843  0.2521  0.6774  0.1970
   49CHL1    H8 4747   6.086   4.941   3.845 -0.2536  2.4057  1.9488
   49CHL1   C14 4748   6.268   4.913   3.970 -0.2074  0.4027  0.4428
   49CHL1   H14 4749   6.368   4.961   3.976  0.6777 -1.2442 -0.4288
   49CHL1   C15 4750   6.292   4.762   3.978 -0.2720 -1.3184  0.5442
   49CHL1  H15A 4751   6.202   4.710   3.939  0.3968 -0.8960 -1.6790
   49CHL1  H15B 4752   6.381   4.741   3.915  1.7842  2.1454  1.9774
   49CHL1   C16 4753   6.321   4.734   4.127 -0.8931 -0.3252  0.0381
   49CHL1  H16A 4754   6.246   4.657   4.155 -0.9067  0.0479  1.0880
   49CHL1  H16B 4755   6.427   4.701   4.135 -0.9993 -1.0203 -1.1415
   49CHL1   C17 4756   6.285   4.870   4.196  0.8281 -0.0221  0.0908
   49CHL1   H17 4757   6.378   4.925   4.220  1.5207 -1.0001 -0.3207
   49CHL1   C13 4758   6.198   4.945   4.096  0.4052 -0.3058 -0.6692
   49CHL1   C18 4759   6.052   4.886   4.101  0.3833 -0.3038  0.4026
   49CHL1  H18A 4760   6.005   4.940   4.185 -2.0236  1.0876 -1.7044
   49CHL1  H18B 4761   5.989   4.928   4.019  2.6148  0.4942 -1.0113
   49CHL1  H18C 4762   6.048   4.775   4.107  0.8849 -0.3631 -0.1955
   49CHL1   C12 4763   6.191   5.103   4.107  0.2065  0.0518  1.1131
   49CHL1  H12A 4764   6.124   5.139   4.187 -1.1567  0.1006 -0.0035
   49CHL1  H12B 4765   6.294   5.143   4.121  0.7082 -1.5589  2.2888
   49CHL1   C11 4766   6.142   5.184   3.981 -0.0699  0.2396 -0.2790
   49CHL1  H11A 4767   6.032   5.169   3.989  0.1479 -0.7897  1.4444
   49CHL1  H11B 4768   6.163   5.293   3.977 -0.0707  0.2207 -1.0377
   49CHL1    C9 4769   6.189   5.125   3.847  0.2539 -0.1769 -0.7823
   49CHL1    H9 4770   6.297   5.148   3.836  0.8727 -2.6765 -0.4780
   49CHL1   C10 4771   6.118   5.190   3.726 -0.0292 -0.0293 -0.9131
   49CHL1   C19 4772   5.969   5.175   3.731  0.9647  0.0172 -0.1334
   49CHL1  H19A 4773   5.927   5.235   3.815  1.5786 -2.3380  1.9958
   49CHL1  H19B 4774   5.911   5.197   3.639  0.0396  0.9268  0.6409
   49CHL1  H19C 4775   5.941   5.072   3.764  1.5271 -0.1820 -0.2718
   49CHL1    C1 4776   6.159   5.340   3.716  0.2083 -0.4905 -1.0374
   49CHL1   H1A 4777   6.116   5.385   3.808  0.4057 -3.2015  0.4851
   49CHL1   H1B 4778   6.268   5.339   3.733 -0.2200 -0.7185  2.3186
   49CHL1    C2 4779   6.131   5.414   3.593 -0.4151 -0.0150 -0.1727
   49CHL1   H2A 4780   6.172   5.517   3.605  1.0765 -0.4491 -1.1775
   49CHL1   H2B 4781   6.024   5.426   3.570 -0.4473  0.4073  0.1745
   49CHL1   C20 4782   6.227   4.840   4.339 -0.2839  0.5066  0.1091
   49CHL1   H20 4783   6.138   4.774   4.331 -0.3274  0.4561  0.9591
   49CHL1   C21 4784   6.188   4.968   4.417  0.3779 -0.3284  0.4397
   49CHL1  H21A 4785   6.279   5.032   4.427  0.8297 -0.6788 -1.2496
   49CHL1  H21B 4786   6.149   4.940   4.517  1.3227  0.1388  0.9531
   49CHL1  H21C 4787   6.107   5.030   4.372  0.0497 -1.1771 -0.1438
   49CHL1   C22 4788   6.331   4.753   4.418  0.8073  0.3042 -0.5472
   49CHL1  H22A 4789   6.338   4.657   4.363  1.4543 -2.0003  3.2404
   49CHL1  H22B 4790   6.433   4.795   4.428  0.7639  0.2507  0.1972
   49CHL1   C23 4791   6.281   4.707   4.556  0.3575 -0.2459  0.5116
   49CHL1  H23A 4792   6.327   4.781   4.625 -0.7563  2.1873 -1.1993
   49CHL1  H23B 4793   6.171   4.716   4.564  0.5557  0.5509  3.1588
   49CHL1   C24 4794   6.342   4.567   4.594  0.6399 -0.5144 -0.0608
   49CHL1  H24A 4795   6.282   4.494   4.536  2.0747 -1.0474 -0.9226
   49CHL1  H24B 4796   6.450   4.560   4.572  0.8354  0.9396  0.3633
   49CHL1   C25 4797   6.332   4.534   4.746 -0.2806  0.3399  0.0845
   49CHL1   H25 4798   6.229   4.561   4.776 -1.3833 -1.8087 -1.4693
   49CHL1   C26 4799   6.348   4.378   4.756  0.1131  0.0622  0.4100
   49CHL1  H26A 4800   6.259   4.342   4.700  0.0341  0.8904 -0.0259
   49CHL1  H26B 4801   6.439   4.353   4.697 -1.2829 -2.8634 -0.7142
   49CHL1  H26C 4802   6.343   4.342   4.861 -0.5101  1.1850  0.7832
   49CHL1   C27 4803   6.433   4.613   4.828  0.0105  0.4298  0.1675
   49CHL1  H27A 4804   6.388   4.609   4.930 -0.2674 -0.8364  0.0169
   49CHL1  H27B 4805   6.531   4.563   4.814 -1.0391 -1.9486  0.7716
   49CHL1  H27C 4806   6.431   4.721   4.802 -1.2433 -0.0892 -2.1385
   50CHL1    C3 4807   6.703   4.236   3.197  1.0123  0.3370 -0.4444
   50CHL1    H3 4808   6.727   4.316   3.269 -1.7466  0.4641  0.4405
   50CHL1    O3 4809   6.741   4.280   3.065  0.6995  0.3293  0.3502
   50CHL1   H3' 4810   6.719   4.207   3.006  0.2560 -0.7249  1.7639
   50CHL1    C4 4811   6.779   4.109   3.225  0.5762  0.4275  0.4537
   50CHL1   H4A 4812   6.743   4.031   3.155  2.0828 -0.6332  0.8102
   50CHL1   H4B 4813   6.887   4.133   3.212  0.3361  0.1916 -3.0145
   50CHL1    C5 4814   6.740   4.068   3.371 -0.2556 -0.2828  0.0854
   50CHL1    C6 4815   6.834   4.066   3.463  0.4074  0.3792  0.1237
   50CHL1    H6 4816   6.940   4.076   3.438  0.5131  0.8788  0.7458
   50CHL1    C7 4817   6.815   4.011   3.605  0.0109 -0.2165 -0.3812
   50CHL1   H7A 4818   6.886   3.927   3.623  0.6795  0.5130  0.4523
   50CHL1   H7B 4819   6.841   4.092   3.676 -0.2695 -0.6237  0.1971
   50CHL1    C8 4820   6.671   3.958   3.635 -0.1057  0.0704  0.4304
   50CHL1    H8 4821   6.683   3.855   3.596 -0.2808  1.0000 -2.2314
   50CHL1   C14 4822   6.641   3.959   3.783 -0.1480 -0.6121 -0.2058
   50CHL1   H14 4823   6.628   4.068   3.801 -0.0211 -0.4587 -0.9901
   50CHL1   C15 4824   6.751   3.904   3.882 -0.0405 -0.2460  0.4866
   50CHL1  H15A 4825   6.801   3.809   3.854 -0.5994 -0.2582 -0.4938
   50CHL1  H15B 4826   6.822   3.986   3.908 -0.6731  0.1776  0.9050
   50CHL1   C16 4827   6.667   3.884   4.011  0.5486  1.1489 -0.3070
   50CHL1  H16A 4828   6.676   3.781   4.052  1.8957  2.0376  1.8448
   50CHL1  H16B 4829   6.707   3.955   4.087 -0.0761 -0.0509  1.1957
   50CHL1   C17 4830   6.514   3.917   3.980 -0.6752  0.4398  0.0066
   50CHL1   H17 4831   6.500   4.025   3.997  1.5580  0.6737  0.6760
   50CHL1   C13 4832   6.501   3.899   3.819 -1.0206  0.5291 -0.0059
   50CHL1   C18 4833   6.490   3.749   3.796  0.3813  0.7351 -0.0913
   50CHL1  H18A 4834   6.553   3.691   3.866  0.5503 -0.0585 -0.8784
   50CHL1  H18B 4835   6.383   3.723   3.810  0.0834  1.0354 -1.5823
   50CHL1  H18C 4836   6.528   3.721   3.695  3.0095 -2.0489  1.5092
   50CHL1   C12 4837   6.395   3.977   3.737  0.2200 -0.5124  0.1848
   50CHL1  H12A 4838   6.290   3.942   3.747 -0.3397  1.0877  0.0374
   50CHL1  H12B 4839   6.393   4.083   3.770 -1.1164 -0.1254 -1.0490
   50CHL1   C11 4840   6.429   3.972   3.585 -0.2404 -0.8069 -0.0228
   50CHL1  H11A 4841   6.412   3.870   3.544  1.5413 -0.0660 -2.8967
   50CHL1  H11B 4842   6.358   4.041   3.536  2.5378  1.7484 -0.7317
   50CHL1    C9 4843   6.569   4.024   3.555  0.0538 -0.1079 -0.0703
   50CHL1    H9 4844   6.570   4.133   3.581  1.9861 -0.2597  0.7029
   50CHL1   C10 4845   6.597   4.037   3.399 -0.1619  0.2545 -0.4891
   50CHL1   C19 4846   6.557   3.911   3.320 -0.3301 -0.3053  0.0384
   50CHL1  H19A 4847   6.601   3.909   3.218 -0.2532  0.1209  0.0622
   50CHL1  H19B 4848   6.606   3.828   3.376 -1.3379 -2.0313 -1.4950
   50CHL1  H19C 4849   6.446   3.904   3.309 -0.3357  1.0130 -1.0226
   50CHL1    C1 4850   6.501   4.150   3.339  0.1663  0.3467  0.8179
   50CHL1   H1A 4851   6.397   4.113   3.327  0.3789 -0.2137  0.6630
   50CHL1   H1B 4852   6.491   4.238   3.406  0.8932  0.4231  0.8395
   50CHL1    C2 4853   6.549   4.209   3.207  0.2391  0.5158  0.2019
   50CHL1   H2A 4854   6.491   4.294   3.165 -0.9376  0.0332  0.8036
   50CHL1   H2B 4855   6.536   4.129   3.131 -1.0490  1.7108 -0.8959
   50CHL1   C20 4856   6.419   3.841   4.071 -0.1550  0.0200  0.3224
   50CHL1   H20 4857   6.422   3.736   4.037  1.9559  0.7656 -2.1265
   50CHL1   C21 4858   6.274   3.883   4.041  0.6692  0.0033 -0.0149
   50CHL1  H21A 4859   6.209   3.841   4.121  1.7145  2.3408  2.2133
   50CHL1  H21B 4860   6.233   3.845   3.945 -2.9398  0.8982  1.0008
   50CHL1  H21C 4861   6.265   3.993   4.051  1.4844  0.1328 -0.6264
   50CHL1   C22 4862   6.456   3.846   4.218 -0.0819  0.3673  0.3257
   50CHL1  H22A 4863   6.565   3.827   4.227 -0.3319 -1.5830 -0.1281
   50CHL1  H22B 4864   6.438   3.946   4.261 -0.3609  0.3086  0.3476
   50CHL1   C23 4865   6.381   3.729   4.299 -0.2190 -0.0589 -0.9159
   50CHL1  H23A 4866   6.284   3.770   4.334 -1.6270 -0.8894 -3.5110
   50CHL1  H23B 4867   6.367   3.637   4.237  0.4108 -1.7896  1.3831
   50CHL1   C24 4868   6.459   3.683   4.424  0.7934 -0.0395  0.7774
   50CHL1  H24A 4869   6.542   3.611   4.405 -0.4258 -1.7755  1.7682
   50CHL1  H24B 4870   6.498   3.772   4.477 -1.0476  0.3742  1.5080
   50CHL1   C25 4871   6.360   3.604   4.525 -0.2110 -0.7199  0.5165
   50CHL1   H25 4872   6.282   3.681   4.546 -0.9588 -1.4759  0.5559
   50CHL1   C26 4873   6.305   3.472   4.485 -0.2332  0.7861  0.3795
   50CHL1  H26A 4874   6.399   3.414   4.468 -0.4077  1.3467 -3.1850
   50CHL1  H26B 4875   6.240   3.425   4.562 -1.6699  0.3665 -1.0364
   50CHL1  H26C 4876   6.255   3.464   4.387  1.9469 -2.0523 -0.6630
   50CHL1   C27 4877   6.437   3.594   4.650 -0.5854  0.7607  0.9189
   50CHL1  H27A 4878   6.376   3.548   4.729 -0.7609 -0.4077  0.1264
   50CHL1  H27B 4879   6.522   3.523   4.641 -0.5020  0.9654 -0.0428
   50CHL1  H27C 4880   6.480   3.691   4.683 -1.5947  1.5496 -0.0069
   51CHL1    C3 4881   4.659   4.948   3.314 -0.1248  1.2536 -0.2266
   51CHL1    H3 4882   4.581   5.024   3.296  0.0607  1.1813 -1.4090
   51CHL1    O3 4883   4.690   4.892   3.190  0.0587  0.7226  0.0380
   51CHL1   H3' 4884   4.779   4.857   3.200  0.4209  1.2664 -1.0594
   51CHL1    C4 4885   4.778   5.011   3.381 -0.2055 -0.1318 -0.3995
   51CHL1   H4A 4886   4.861   4.937   3.384 -0.6053 -0.5662  0.6836
   51CHL1   H4B 4887   4.803   5.083   3.301 -0.6693  0.1612 -0.2857
   51CHL1    C5 4888   4.763   5.060   3.525  0.2980 -0.8012 -0.9639
   51CHL1    C6 4889   4.807   5.176   3.568 -1.0128 -0.4155 -0.3908
   51CHL1    H6 4890   4.864   5.239   3.497 -0.3397  0.3051  0.7614
   51CHL1    C7 4891   4.800   5.223   3.709  0.0177 -0.9687 -0.4253
   51CHL1   H7A 4892   4.891   5.272   3.748 -0.4159 -0.8002  0.4100
   51CHL1   H7B 4893   4.714   5.292   3.727 -1.7767 -2.7579 -1.6447
   51CHL1    C8 4894   4.761   5.105   3.804 -0.3651 -0.5549  0.7441
   51CHL1    H8 4895   4.851   5.046   3.832  0.9538  0.6979 -0.7088
   51CHL1   C14 4896   4.710   5.163   3.936  0.5454 -0.5307 -0.0176
   51CHL1   H14 4897   4.620   5.222   3.911  0.4080 -0.7343 -0.0087
   51CHL1   C15 4898   4.813   5.260   4.006  0.3060 -0.6749  0.1069
   51CHL1  H15A 4899   4.919   5.228   4.002  0.5158  0.0959 -1.3742
   51CHL1  H15B 4900   4.805   5.358   3.954 -0.1520  0.5735  2.4082
   51CHL1   C16 4901   4.774   5.257   4.148 -0.1241  0.3274 -0.4797
   51CHL1  H16A 4902   4.854   5.226   4.219 -0.2320  0.6842 -0.1984
   51CHL1  H16B 4903   4.736   5.352   4.190 -2.8826 -0.7120 -0.4575
   51CHL1   C17 4904   4.649   5.153   4.168 -0.1162 -0.1663  0.4742
   51CHL1   H17 4905   4.554   5.207   4.151 -0.4007 -0.5025  0.9548
   51CHL1   C13 4906   4.676   5.065   4.045  0.6505  0.0528  0.0097
   51CHL1   C18 4907   4.785   4.959   4.079  0.2520 -1.0291  0.8825
   51CHL1  H18A 4908   4.752   4.885   4.154 -0.0610 -2.2924 -0.4682
   51CHL1  H18B 4909   4.823   4.895   3.997 -0.8705  0.2505 -0.6998
   51CHL1  H18C 4910   4.873   5.021   4.106 -1.3047  2.5496 -1.4646
   51CHL1   C12 4911   4.559   4.979   3.995 -0.3245 -0.5929  0.5745
   51CHL1  H12A 4912   4.505   4.907   4.061 -2.1983  0.0377 -0.1918
   51CHL1  H12B 4913   4.487   5.059   3.969 -1.1494 -1.6742 -0.6280
   51CHL1   C11 4914   4.600   4.913   3.864  0.1356  0.4350  0.0957
   51CHL1  H11A 4915   4.683   4.843   3.885  1.2865  1.8597  0.4929
   51CHL1  H11B 4916   4.514   4.854   3.826 -1.5236  1.8200  1.5386
   51CHL1    C9 4917   4.648   5.015   3.752  0.4703 -0.3427 -0.1148
   51CHL1    H9 4918   4.556   5.074   3.731 -0.5549 -1.1474  1.8396
   51CHL1   C10 4919   4.692   4.952   3.618  0.7387 -0.4991  0.5040
   51CHL1   C19 4920   4.794   4.841   3.652 -0.3262 -0.5723  0.0941
   51CHL1  H19A 4921   4.870   4.887   3.718  0.6896 -1.9914 -0.0326
   51CHL1  H19B 4922   4.740   4.758   3.703 -0.0897 -1.0644 -0.4434
   51CHL1  H19C 4923   4.836   4.803   3.556  1.7507  0.1572  0.6489
   51CHL1    C1 4924   4.564   4.895   3.548  0.1791  0.4856 -0.3804
   51CHL1   H1A 4925   4.516   4.818   3.610  0.7278  0.2622 -0.2258
   51CHL1   H1B 4926   4.499   4.985   3.541 -1.1640 -0.4276  0.2408
   51CHL1    C2 4927   4.601   4.838   3.403  0.3185 -0.5202  0.9393
   51CHL1   H2A 4928   4.518   4.792   3.346  3.0873 -4.0209 -0.7340
   51CHL1   H2B 4929   4.665   4.749   3.422 -1.5896 -2.2248 -0.2028
   51CHL1   C20 4930   4.646   5.099   4.317  0.7375 -0.4911  0.7142
   51CHL1   H20 4931   4.735   5.036   4.337 -0.7625 -1.9883  3.1758
   51CHL1   C21 4932   4.518   5.015   4.336  0.0800 -0.2748 -0.0386
   51CHL1  H21A 4933   4.424   5.071   4.316  0.9676  0.8065 -1.3955
   51CHL1  H21B 4934   4.526   4.963   4.434  0.1603 -0.3993 -0.1105
   51CHL1  H21C 4935   4.510   4.936   4.258  0.5452  0.1165 -0.4914
   51CHL1   C22 4936   4.644   5.223   4.412  0.2385  0.6793 -0.1238
   51CHL1  H22A 4937   4.708   5.311   4.387  1.4772  0.6933  2.6837
   51CHL1  H22B 4938   4.539   5.258   4.415  0.6268  1.9613 -0.7682
   51CHL1   C23 4939   4.685   5.169   4.550  0.0917 -0.2487  0.7458
   51CHL1  H23A 4940   4.638   5.073   4.581  0.3476 -0.5889  0.0925
   51CHL1  H23B 4941   4.795   5.156   4.543  0.1263  0.8002 -1.2570
   51CHL1   C24 4942   4.649   5.274   4.657 -0.5442 -0.1786  0.2288
   51CHL1  H24A 4943   4.690   5.377   4.650  0.3937 -0.5215  0.5577
   51CHL1  H24B 4944   4.539   5.290   4.650 -0.6825 -0.9828  0.4256
   51CHL1   C25 4945   4.690   5.220   4.798 -0.1566 -0.2861 -0.1539
   51CHL1   H25 4946   4.650   5.118   4.818 -0.8834 -0.2359 -1.2479
   51CHL1   C26 4947   4.844   5.214   4.820  0.6688  0.3257 -0.4376
   51CHL1  H26A 4948   4.875   5.321   4.809  0.1456  0.7285  1.5200
   51CHL1  H26B 4949   4.872   5.178   4.921 -1.9742  0.1920  0.3187
   51CHL1  H26C 4950   4.885   5.146   4.743  0.2095 -1.1076  0.5331
   51CHL1   C27 4951   4.618   5.305   4.910 -0.2933  0.0750  0.8378
   51CHL1  H27A 4952   4.652   5.275   5.011 -0.4251 -1.6511  0.4150
   51CHL1  H27B 4953   4.624   5.414   4.890 -1.3319 -0.2331 -1.5767
   51CHL1  H27C 4954   4.515   5.263   4.909  0.4999 -2.0121  0.2708
   52CHL1    C3 4955   5.267   5.954   3.618  0.3827 -0.2386  0.7644
   52CHL1    H3 4956   5.198   5.867   3.629  0.6068 -0.2176  2.7151
   52CHL1    O3 4957   5.295   5.956   3.480  0.6818  0.2937 -0.0301
   52CHL1   H3' 4958   5.356   6.030   3.474 -0.1611  1.0502  0.3801
   52CHL1    C4 4959   5.202   6.089   3.662 -0.2938 -0.1931  0.0768
   52CHL1   H4A 4960   5.275   6.170   3.640 -2.3170  2.1116  1.2786
   52CHL1   H4B 4961   5.108   6.115   3.609  0.2041 -0.0399 -0.7560
   52CHL1    C5 4962   5.181   6.079   3.811 -0.2175  0.1584 -0.2559
   52CHL1    C6 4963   5.063   6.094   3.871 -0.1365  0.8034  0.9295
   52CHL1    H6 4964   4.982   6.107   3.798 -0.6372  0.0816  1.3453
   52CHL1    C7 4965   5.023   6.095   4.013 -0.1359 -0.0353 -0.2220
   52CHL1   H7A 4966   4.945   6.169   4.040  0.4933  0.8857 -0.8432
   52CHL1   H7B 4967   4.984   5.995   4.039 -0.5613  0.6944  2.1104
   52CHL1    C8 4968   5.152   6.114   4.101  0.1374  0.4433  0.0262
   52CHL1    H8 4969   5.190   6.219   4.104  2.3702 -0.3413  1.2438
   52CHL1   C14 4970   5.128   6.070   4.243 -0.5952  0.8010 -0.5560
   52CHL1   H14 4971   5.085   5.967   4.241  2.0627 -0.3743 -2.4673
   52CHL1   C15 4972   5.015   6.146   4.315  0.0793  0.0262 -0.0839
   52CHL1  H15A 4973   5.011   6.257   4.308 -0.5044  0.0570  0.6250
   52CHL1  H15B 4974   4.918   6.111   4.273 -0.3679  0.7191  0.3565
   52CHL1   C16 4975   5.033   6.116   4.458 -0.2521  0.3930 -0.5613
   52CHL1  H16A 4976   5.029   6.202   4.529 -2.7068 -0.1970  0.1172
   52CHL1  H16B 4977   4.951   6.049   4.492 -1.0536  1.0245 -1.2110
   52CHL1   C17 4978   5.167   6.037   4.467 -0.1728  0.1330 -0.3304
   52CHL1   H17 4979   5.134   5.931   4.457  1.7070 -0.5250 -0.0698
   52CHL1   C13 4980   5.241   6.072   4.342  0.2350 -0.1386  0.1568
   52CHL1   C18 4981   5.303   6.214   4.350  0.4230  0.3258  0.1241
   52CHL1  H18A 4982   5.227   6.287   4.387  0.0561 -0.4269  0.8773
   52CHL1  H18B 4983   5.395   6.206   4.412  0.0067  0.2797  0.7476
   52CHL1  H18C 4984   5.331   6.256   4.251  1.0384 -1.6500 -0.5888
   52CHL1   C12 4985   5.352   5.978   4.278  0.8837 -0.2133 -0.1727
   52CHL1  H12A 4986   5.447   5.988   4.335  0.7445 -0.0597  0.0354
   52CHL1  H12B 4987   5.315   5.873   4.278 -0.0729  0.1026  0.8861
   52CHL1   C11 4988   5.391   6.023   4.140 -0.1842  0.7753 -0.1149
   52CHL1  H11A 4989   5.429   6.127   4.139 -1.1281  1.1367  0.2551
   52CHL1  H11B 4990   5.467   5.950   4.104  0.4806  0.8548  1.0864
   52CHL1    C9 4991   5.271   6.028   4.043 -0.8133  0.0003  0.1157
   52CHL1    H9 4992   5.240   5.922   4.038 -1.1152  0.1506 -3.0655
   52CHL1   C10 4993   5.307   6.058   3.894  0.6836 -0.0803 -0.1060
   52CHL1   C19 4994   5.392   6.194   3.888 -0.5235 -0.2136 -0.1083
   52CHL1  H19A 4995   5.407   6.232   3.784 -2.5021  0.8183 -0.0691
   52CHL1  H19B 4996   5.327   6.270   3.937 -1.9562 -1.8535  0.6425
   52CHL1  H19C 4997   5.489   6.181   3.939  0.9833 -1.0955 -2.9498
   52CHL1    C1 4998   5.390   5.931   3.841  0.5865  1.2091  0.4288
   52CHL1   H1A 4999   5.491   5.939   3.886  0.6854  1.9803  0.0901
   52CHL1   H1B 5000   5.349   5.831   3.869  1.8425  0.8124  0.9351
   52CHL1    C2 5001   5.399   5.936   3.689  0.7833 -0.1178  0.2499
   52CHL1   H2A 5002   5.452   5.846   3.651 -1.3716 -1.5766  0.4629
   52CHL1   H2B 5003   5.474   6.011   3.659  2.3973 -2.3799 -1.7812
   52CHL1   C20 5004   5.241   6.035   4.598 -0.1754  0.2973  0.2785
   52CHL1   H20 5005   5.274   6.141   4.610  1.5070 -0.3892  2.1407
   52CHL1   C21 5006   5.352   5.933   4.604  0.1673 -0.7463 -0.0945
   52CHL1  H21A 5007   5.306   5.833   4.588 -1.0722  0.0172 -1.5812
   52CHL1  H21B 5008   5.416   5.954   4.692  1.3366  0.9558 -1.2927
   52CHL1  H21C 5009   5.416   5.941   4.513  0.3064  1.1502  0.1234
   52CHL1   C22 5010   5.134   6.024   4.712  0.2712  0.0973 -0.3608
   52CHL1  H22A 5011   5.051   6.098   4.712  0.3587  0.2507  1.3477
   52CHL1  H22B 5012   5.083   5.926   4.710  1.1546 -0.3644 -1.3796
   52CHL1   C23 5013   5.190   6.055   4.853 -0.4665 -0.5425  0.0833
   52CHL1  H23A 5014   5.289   6.008   4.869  0.4074  0.2658 -2.4677
   52CHL1  H23B 5015   5.205   6.165   4.850  2.2544 -0.8421  0.5399
   52CHL1   C24 5016   5.096   6.021   4.973 -0.1390  0.2028 -0.0654
   52CHL1  H24A 5017   5.004   6.084   4.964  0.7666  1.3673 -1.7001
   52CHL1  H24B 5018   5.068   5.914   4.962 -0.9268  0.4533 -0.5996
   52CHL1   C25 5019   5.160   6.053   5.108  0.6170 -1.0191  0.0458
   52CHL1   H25 5020   5.250   5.989   5.120  0.5710 -1.3607 -1.2767
   52CHL1   C26 5021   5.199   6.200   5.123  0.4656 -0.1422  0.4446
   52CHL1  H26A 5022   5.221   6.219   5.230 -1.6287  2.5713  0.4855
   52CHL1  H26B 5023   5.297   6.213   5.071  0.8754  0.3105  1.3009
   52CHL1  H26C 5024   5.117   6.261   5.080 -0.2924 -0.8490  0.8870
   52CHL1   C27 5025   5.051   6.020   5.209  0.3585  0.2947  0.2705
   52CHL1  H27A 5026   4.968   6.094   5.210 -0.1272 -0.1551  2.9032
   52CHL1  H27B 5027   5.000   5.923   5.188 -0.0450 -0.6799  4.6362
   52CHL1  H27C 5028   5.094   5.996   5.309  2.1360 -1.3415 -0.8281
   53CHL1    C3 5029   4.277   5.842   2.962  0.5358  0.0199 -0.5195
   53CHL1    H3 5030   4.168   5.860   2.954  0.1086 -0.5310  2.5177
   53CHL1    O3 5031   4.332   5.821   2.831 -0.0970 -0.1472  0.5155
   53CHL1   H3' 5032   4.427   5.823   2.843  0.1667 -1.8507 -0.9433
   53CHL1    C4 5033   4.356   5.949   3.036  0.1123 -0.8383  0.4784
   53CHL1   H4A 5034   4.461   5.914   3.048 -0.1316 -1.0114  2.4865
   53CHL1   H4B 5035   4.360   6.045   2.980 -0.0163 -1.6037 -0.8956
   53CHL1    C5 5036   4.309   5.962   3.173 -0.4428  0.2847 -0.6364
   53CHL1    C6 5037   4.265   6.078   3.221  0.4966 -0.1857 -0.5655
   53CHL1    H6 5038   4.266   6.160   3.148 -0.8004  0.2421 -0.1354
   53CHL1    C7 5039   4.225   6.102   3.366  0.7922  0.1244 -0.0395
   53CHL1   H7A 5040   4.272   6.190   3.414  0.6719 -0.8023  1.8473
   53CHL1   H7B 5041   4.116   6.119   3.375  0.3716 -1.8292 -0.9480
   53CHL1    C8 5042   4.259   5.978   3.455 -0.4741 -0.0526  0.4564
   53CHL1    H8 5043   4.368   5.987   3.475 -0.0966 -0.5854 -1.2052
   53CHL1   C14 5044   4.183   5.988   3.584  0.1233 -0.1940  0.1327
   53CHL1   H14 5045   4.077   5.970   3.557  0.3407  1.3814 -2.0776
   53CHL1   C15 5046   4.184   6.120   3.665 -0.5067 -0.4049 -0.7978
   53CHL1  H15A 5047   4.285   6.166   3.660 -0.3937 -0.3493  1.0618
   53CHL1  H15B 5048   4.114   6.196   3.623 -0.1493  0.1230 -0.4434
   53CHL1   C16 5049   4.147   6.080   3.804  0.2759 -0.8786  0.1791
   53CHL1  H16A 5050   4.228   6.112   3.874 -0.6155  3.5387 -0.5350
   53CHL1  H16B 5051   4.053   6.130   3.831 -0.1708 -0.2059 -2.3604
   53CHL1   C17 5052   4.129   5.930   3.807  0.7609 -1.1850  0.5325
   53CHL1   H17 5053   4.022   5.911   3.785  1.0891 -0.5070 -1.9306
   53CHL1   C13 5054   4.212   5.878   3.686  0.6435  0.1031 -0.1039
   53CHL1   C18 5055   4.358   5.875   3.731  0.2268  0.0552 -0.2410
   53CHL1  H18A 5056   4.425   5.836   3.651 -0.2476 -1.9179  0.2652
   53CHL1  H18B 5057   4.387   5.978   3.761  0.5555 -0.4587  1.2876
   53CHL1  H18C 5058   4.374   5.800   3.811  0.6229 -1.6998 -1.8911
   53CHL1   C12 5059   4.176   5.743   3.617  0.3066  0.0613 -0.0063
   53CHL1  H12A 5060   4.222   5.664   3.679 -0.3382 -0.8247 -0.6275
   53CHL1  H12B 5061   4.065   5.741   3.611  0.2174  1.0822  0.8983
   53CHL1   C11 5062   4.243   5.727   3.484 -0.3089 -0.5775  0.3720
   53CHL1  H11A 5063   4.349   5.700   3.502  0.6174  0.8646 -2.4103
   53CHL1  H11B 5064   4.198   5.637   3.436  0.8842 -1.9192  1.6680
   53CHL1    C9 5065   4.235   5.850   3.388 -0.9003 -0.0186 -0.3364
   53CHL1    H9 5066   4.127   5.866   3.370 -1.0968  2.4637  2.3493
   53CHL1   C10 5067   4.312   5.834   3.257  0.2705 -0.6020 -0.1433
   53CHL1   C19 5068   4.459   5.797   3.289  0.1193 -0.1061  0.3358
   53CHL1  H19A 5069   4.477   5.696   3.331  0.7691 -0.4867 -0.8041
   53CHL1  H19B 5070   4.531   5.794   3.204 -0.6863 -1.5857 -0.3278
   53CHL1  H19C 5071   4.502   5.873   3.357 -2.9614  2.2885 -0.2111
   53CHL1    C1 5072   4.241   5.719   3.173 -0.0011  0.2203 -0.4761
   53CHL1   H1A 5073   4.243   5.617   3.219  4.0110 -0.0076 -0.8193
   53CHL1   H1B 5074   4.132   5.742   3.180 -0.2944 -0.7881 -1.4380
   53CHL1    C2 5075   4.278   5.704   3.035 -0.2098  0.1662 -0.5141
   53CHL1   H2A 5076   4.210   5.635   2.981  0.0854 -1.0741  0.6672
   53CHL1   H2B 5077   4.386   5.677   3.043 -0.1850  0.8210  2.5431
   53CHL1   C20 5078   4.153   5.876   3.939 -0.1261  0.5695 -0.4248
   53CHL1   H20 5079   4.259   5.874   3.973 -0.1197  0.2094 -0.4648
   53CHL1   C21 5080   4.111   5.728   3.947 -0.2613 -0.0624  0.2280
   53CHL1  H21A 5081   4.138   5.681   4.044  0.3126 -0.8164 -0.2957
   53CHL1  H21B 5082   4.162   5.665   3.872  0.9166  1.6714 -0.4829
   53CHL1  H21C 5083   4.003   5.713   3.924 -0.0522 -0.5771 -0.4324
   53CHL1   C22 5084   4.073   5.957   4.052  0.6609  0.3067 -0.0013
   53CHL1  H22A 5085   4.083   6.068   4.044  0.1541  0.2899 -1.0065
   53CHL1  H22B 5086   3.966   5.936   4.029 -0.1896  2.0666  2.0110
   53CHL1   C23 5087   4.092   5.916   4.198  0.5302  0.2368 -0.4599
   53CHL1  H23A 5088   4.084   5.805   4.202 -1.4459  0.2658 -1.9909
   53CHL1  H23B 5089   4.195   5.947   4.224  0.7112  1.2244 -2.1824
   53CHL1   C24 5090   3.988   5.978   4.294 -0.3855 -0.0228 -0.2568
   53CHL1  H24A 5091   4.000   6.088   4.295  1.7634 -0.1142  3.2440
   53CHL1  H24B 5092   3.883   5.954   4.264 -0.7131  1.5836 -0.4448
   53CHL1   C25 5093   4.017   5.936   4.440 -0.1917  0.8934  0.2738
   53CHL1   H25 5094   4.125   5.945   4.460  0.5401 -3.3825 -0.8261
   53CHL1   C26 5095   3.948   6.033   4.541  0.4763  0.1442 -0.1493
   53CHL1  H26A 5096   3.975   6.004   4.644 -0.5220  1.9321  0.6627
   53CHL1  H26B 5097   3.996   6.134   4.533 -1.9997  1.4548  0.6068
   53CHL1  H26C 5098   3.839   6.027   4.525  0.6377  0.7390 -1.6804
   53CHL1   C27 5099   3.980   5.791   4.478  0.1350  1.0634  0.2258
   53CHL1  H27A 5100   4.051   5.717   4.435 -1.4406 -1.4730  1.7145
   53CHL1  H27B 5101   3.970   5.784   4.589 -0.5493 -1.5743  0.0629
   53CHL1  H27C 5102   3.884   5.754   4.437  0.9067  0.5016 -1.1531
   54CHL1    C3 5103   3.063   6.211   3.077 -0.3091  0.2235  0.0926
   54CHL1    H3 5104   2.984   6.133   3.071 -0.5150  0.5384 -2.1315
   54CHL1    O3 5105   3.083   6.248   2.936 -0.0108 -0.1839 -0.3897
   54CHL1   H3' 5106   2.997   6.239   2.894 -0.7293  1.8072  0.5361
   54CHL1    C4 5107   3.030   6.330   3.168  0.3629 -0.4641  0.0193
   54CHL1   H4A 5108   3.106   6.410   3.161  1.3669 -1.3904  0.0700
   54CHL1   H4B 5109   2.931   6.360   3.126 -0.0056 -2.6648 -0.8758
   54CHL1    C5 5110   3.008   6.280   3.313 -0.0100 -0.3433  0.4639
   54CHL1    C6 5111   2.899   6.308   3.380 -0.4753  0.0196  1.1863
   54CHL1    H6 5112   2.821   6.365   3.326  0.2531 -1.8390 -2.0759
   54CHL1    C7 5113   2.878   6.269   3.525 -0.6829  0.2839 -0.3714
   54CHL1   H7A 5114   2.831   6.354   3.580 -1.0891  0.2493 -0.6581
   54CHL1   H7B 5115   2.815   6.179   3.542 -1.5467  1.2019  1.5133
   54CHL1    C8 5116   3.021   6.253   3.583 -0.3237  0.4440 -0.0907
   54CHL1    H8 5117   3.083   6.345   3.591  0.5978 -0.1759  0.1317
   54CHL1   C14 5118   3.009   6.188   3.717 -0.5047  0.0316 -0.3482
   54CHL1   H14 5119   2.969   6.084   3.711 -0.2907 -0.0513 -0.3630
   54CHL1   C15 5120   2.913   6.257   3.810 -0.5022  0.0371 -0.6012
   54CHL1  H15A 5121   2.942   6.363   3.823  4.1161 -1.0682 -0.2259
   54CHL1  H15B 5122   2.804   6.254   3.790 -1.0721 -0.1069  2.2395
   54CHL1   C16 5123   2.942   6.196   3.951  0.0583 -0.1790 -0.3370
   54CHL1  H16A 5124   2.937   6.282   4.020  0.7738 -0.7926  0.4943
   54CHL1  H16B 5125   2.862   6.123   3.976 -0.2964  0.4620  0.4352
   54CHL1   C17 5126   3.078   6.127   3.941  0.0150  0.3555 -0.7529
   54CHL1   H17 5127   3.059   6.018   3.931 -1.2070  0.7068 -2.6685
   54CHL1   C13 5128   3.132   6.174   3.804  0.0522 -0.6218 -0.3427
   54CHL1   C18 5129   3.198   6.312   3.836  0.1023  0.0852 -0.4172
   54CHL1  H18A 5130   3.217   6.364   3.740 -2.8179 -0.1219 -1.2185
   54CHL1  H18B 5131   3.133   6.373   3.903  0.5326  0.4370 -0.3114
   54CHL1  H18C 5132   3.293   6.312   3.893  0.7137 -0.5852 -1.4203
   54CHL1   C12 5133   3.214   6.071   3.724  0.3033  0.8614  0.5808
   54CHL1  H12A 5134   3.318   6.053   3.760  1.6669  1.1963 -2.7702
   54CHL1  H12B 5135   3.168   5.970   3.724 -0.2759  1.0946  2.2379
   54CHL1   C11 5136   3.235   6.119   3.580 -0.0477 -0.3033 -0.2315
   54CHL1  H11A 5137   3.305   6.205   3.594  0.8410 -1.2216  1.3376
   54CHL1  H11B 5138   3.300   6.047   3.527 -1.6468 -2.8243  1.0145
   54CHL1    C9 5139   3.106   6.157   3.501  0.0631  0.2481  0.4596
   54CHL1    H9 5140   3.054   6.062   3.476  1.4781  0.0226 -1.9623
   54CHL1   C10 5141   3.130   6.214   3.369 -0.0187 -0.4552 -0.2171
   54CHL1   C19 5142   3.243   6.320   3.369  0.4665 -0.1514  0.2532
   54CHL1  H19A 5143   3.336   6.266   3.397  1.0108  0.3606 -0.5238
   54CHL1  H19B 5144   3.273   6.355   3.268 -2.4330  2.4995  0.1823
   54CHL1  H19C 5145   3.250   6.412   3.432  0.8753 -0.7706  1.1380
   54CHL1    C1 5146   3.166   6.099   3.270 -0.5360  0.9751 -0.2382
   54CHL1   H1A 5147   3.268   6.072   3.304 -0.9612 -0.3156  0.0585
   54CHL1   H1B 5148   3.099   6.011   3.279  0.9437 -0.0852  0.8972
   54CHL1    C2 5149   3.191   6.136   3.123  0.7164 -0.2363 -0.1183
   54CHL1   H2A 5150   3.233   6.061   3.052  1.2773 -0.1679  0.1321
   54CHL1   H2B 5151   3.273   6.210   3.106  1.4625 -0.7158  1.2438
   54CHL1   C20 5152   3.165   6.133   4.067 -0.7022 -0.1553  0.3294
   54CHL1   H20 5153   3.182   6.239   4.094 -1.7165 -0.6608  3.4188
   54CHL1   C21 5154   3.292   6.048   4.046  0.0259  0.0480 -0.1457
   54CHL1  H21A 5155   3.267   5.946   4.009  0.8334 -0.4482  0.6332
   54CHL1  H21B 5156   3.345   6.052   4.144  2.0564  0.9435 -1.2135
   54CHL1  H21C 5157   3.356   6.097   3.969 -1.2431  1.9111 -0.0663
   54CHL1   C22 5158   3.085   6.079   4.186  0.2963  0.1090  0.4478
   54CHL1  H22A 5159   2.987   6.131   4.190  0.8236  1.0138  3.0029
   54CHL1  H22B 5160   3.061   5.970   4.192 -0.1497  0.0735 -1.2878
   54CHL1   C23 5161   3.157   6.123   4.315 -0.1589  0.5911 -0.5278
   54CHL1  H23A 5162   3.237   6.047   4.329 -1.3189 -1.3402 -3.4406
   54CHL1  H23B 5163   3.203   6.222   4.300  2.6301 -0.7516 -1.4769
   54CHL1   C24 5164   3.064   6.111   4.437  0.8983 -0.6796 -0.0855
   54CHL1  H24A 5165   3.006   6.016   4.440  1.4455 -1.0762 -1.2802
   54CHL1  H24B 5166   3.119   6.111   4.533  0.7502  2.5003  0.1207
   54CHL1   C25 5167   2.968   6.228   4.455  0.0490 -0.0665 -0.8358
   54CHL1   H25 5168   2.925   6.252   4.356  0.0420  0.0552 -0.8040
   54CHL1   C26 5169   2.851   6.202   4.546 -0.3283  0.0693  0.3707
   54CHL1  H26A 5170   2.889   6.192   4.650  1.8698  1.1512 -0.2619
   54CHL1  H26B 5171   2.785   6.290   4.532 -0.6972 -0.3874 -0.9044
   54CHL1  H26C 5172   2.796   6.115   4.505 -1.3217  1.2904 -1.0157
   54CHL1   C27 5173   3.032   6.365   4.498 -0.0624 -0.0510 -0.0867
   54CHL1  H27A 5174   3.104   6.404   4.423  1.0421 -0.1611  0.8780
   54CHL1  H27B 5175   2.946   6.433   4.515 -0.3642 -0.2389 -0.8048
   54CHL1  H27C 5176   3.088   6.346   4.592 -1.2007 -0.7014  0.4791
   55CHL1    C3 5177   0.747   2.759   2.973 -0.0649 -0.7630  0.0507
   55CHL1    H3 5178   0.845   2.811   2.968 -0.2903 -0.3514 -0.1782
   55CHL1    O3 5179   0.697   2.749   2.842  0.1089 -0.1964  0.3199
   55CHL1   H3' 5180   0.619   2.805   2.847  0.6955  0.8882 -1.5563
   55CHL1    C4 5181   0.766   2.627   3.041  0.2286  0.0913  0.1880
   55CHL1   H4A 5182   0.675   2.568   3.018 -0.7467  1.7285 -0.2922
   55CHL1   H4B 5183   0.840   2.564   2.987 -0.2737 -0.3361 -0.0169
   55CHL1    C5 5184   0.781   2.634   3.194 -0.3881 -0.2176  0.2460
   55CHL1    C6 5185   0.880   2.575   3.259 -0.6212 -0.0134  0.9419
   55CHL1    H6 5186   0.958   2.530   3.196  0.6818  0.3715  2.2298
   55CHL1    C7 5187   0.896   2.567   3.410 -0.1663 -0.6358 -0.0702
   55CHL1   H7A 5188   0.922   2.466   3.446  2.5904 -0.2514 -0.7327
   55CHL1   H7B 5189   0.983   2.629   3.443 -0.1303 -0.3237 -0.7357
   55CHL1    C8 5190   0.771   2.615   3.485 -0.7490 -0.2841  0.4348
   55CHL1    H8 5191   0.697   2.532   3.483 -0.2830 -0.6916 -1.8253
   55CHL1   C14 5192   0.797   2.650   3.633  0.0224  0.4705  0.1379
   55CHL1   H14 5193   0.880   2.724   3.635  1.3019 -0.9309  1.2402
   55CHL1   C15 5194   0.858   2.540   3.724 -0.6646 -0.5822  0.5860
   55CHL1  H15A 5195   0.832   2.433   3.704 -1.1938 -0.4384  0.4724
   55CHL1  H15B 5196   0.969   2.539   3.720 -0.6761  0.7860 -1.5587
   55CHL1   C16 5197   0.816   2.578   3.862 -0.2488 -0.3683 -0.4594
   55CHL1  H16A 5198   0.763   2.492   3.908  1.5434 -1.6494 -0.6974
   55CHL1  H16B 5199   0.903   2.594   3.929 -1.4802 -0.9812  1.3455
   55CHL1   C17 5200   0.722   2.700   3.859  0.2355 -0.2004  0.7205
   55CHL1   H17 5201   0.784   2.791   3.876 -0.7057  0.6188 -0.1156
   55CHL1   C13 5202   0.674   2.699   3.717 -0.2907  0.3086 -0.1536
   55CHL1   C18 5203   0.558   2.601   3.700 -0.0323  0.5770  0.5851
   55CHL1  H18A 5204   0.468   2.643   3.749  0.3563  0.1071  1.7399
   55CHL1  H18B 5205   0.524   2.579   3.596 -0.7296 -0.1948  0.9681
   55CHL1  H18C 5206   0.585   2.507   3.753 -2.0445  0.4315  1.4235
   55CHL1   C12 5207   0.636   2.835   3.657  0.3252 -0.1760  0.3024
   55CHL1  H12A 5208   0.552   2.885   3.710 -0.5064 -0.0731 -1.0539
   55CHL1  H12B 5209   0.723   2.903   3.665 -2.3737  3.9733 -1.9875
   55CHL1   C11 5210   0.604   2.816   3.506  0.6354  0.2210  0.1333
   55CHL1  H11A 5211   0.505   2.769   3.491  0.2480  0.5796  1.4500
   55CHL1  H11B 5212   0.583   2.914   3.458  0.3353 -0.0451 -0.2835
   55CHL1    C9 5213   0.713   2.743   3.418  0.0304  0.3519 -0.1429
   55CHL1    H9 5214   0.795   2.818   3.429 -1.4606  1.7467  2.9097
   55CHL1   C10 5215   0.676   2.714   3.267 -0.0222  0.1888  0.3792
   55CHL1   C19 5216   0.539   2.642   3.256  0.3876 -0.4963  0.2801
   55CHL1  H19A 5217   0.525   2.597   3.156 -1.7913 -0.1657  0.3919
   55CHL1  H19B 5218   0.514   2.564   3.332 -1.1464 -1.0304 -0.7403
   55CHL1  H19C 5219   0.459   2.717   3.274 -0.3396 -1.2001  0.0563
   55CHL1    C1 5220   0.669   2.851   3.196 -0.4321  0.1163  0.5489
   55CHL1   H1A 5221   0.587   2.915   3.236 -0.3855 -1.6589  3.9122
   55CHL1   H1B 5222   0.767   2.902   3.204  0.2718 -1.2635  1.0734
   55CHL1    C2 5223   0.646   2.848   3.041  0.5824  0.8417  0.2407
   55CHL1   H2A 5224   0.662   2.953   3.009  1.3063  0.2622 -1.3678
   55CHL1   H2B 5225   0.540   2.819   3.027  1.1552 -1.5976  0.5022
   55CHL1   C20 5226   0.622   2.705   3.970 -0.2167  0.0601  0.1118
   55CHL1   H20 5227   0.553   2.618   3.959 -0.1733 -0.1816  1.5064
   55CHL1   C21 5228   0.553   2.846   3.981  0.0275 -0.6384  0.0482
   55CHL1  H21A 5229   0.630   2.924   3.964 -0.8769  0.5897  1.3598
   55CHL1  H21B 5230   0.513   2.860   4.084  0.5813 -2.6258  0.5738
   55CHL1  H21C 5231   0.471   2.863   3.908  0.4552 -0.2597 -0.3523
   55CHL1   C22 5232   0.681   2.673   4.114  0.8528 -0.2352 -0.4188
   55CHL1  H22A 5233   0.597   2.651   4.183 -2.3397 -2.3998 -4.4887
   55CHL1  H22B 5234   0.740   2.579   4.103  0.3466 -0.5285 -0.6954
   55CHL1   C23 5235   0.788   2.767   4.170 -1.1891  0.1389  0.5789
   55CHL1  H23A 5236   0.862   2.792   4.091  0.2448 -0.4782  1.6818
   55CHL1  H23B 5237   0.743   2.864   4.201 -3.6293 -0.5987 -0.4346
   55CHL1   C24 5238   0.858   2.697   4.293 -0.3142 -0.1788 -0.2416
   55CHL1  H24A 5239   0.780   2.649   4.355 -0.1703  0.5960  0.5600
   55CHL1  H24B 5240   0.922   2.614   4.257 -0.0441  0.3477 -1.0337
   55CHL1   C25 5241   0.946   2.784   4.380 -0.5833 -0.7427 -0.3297
   55CHL1   H25 5242   1.007   2.725   4.451  1.2877  0.0678 -1.1830
   55CHL1   C26 5243   1.052   2.872   4.304 -0.0624  0.3737  0.2986
   55CHL1  H26A 5244   0.991   2.960   4.277  0.5338  1.2567  1.6711
   55CHL1  H26B 5245   1.136   2.907   4.368  0.4083  1.3827 -0.8526
   55CHL1  H26C 5246   1.080   2.813   4.215 -1.5621 -0.9280  0.6356
   55CHL1   C27 5247   0.863   2.882   4.462  0.2636  0.3927 -0.2836
   55CHL1  H27A 5248   0.793   2.812   4.513  0.4199 -1.9727 -3.0452
   55CHL1  H27B 5249   0.912   2.949   4.536 -0.4446  0.9478 -0.3097
   55CHL1  H27C 5250   0.809   2.946   4.389  0.4894 -1.3835 -2.1147
   56CHL1    C3 5251   2.256   1.686   3.252 -0.0280  0.1805 -0.0145
   56CHL1    H3 5252   2.158   1.721   3.293 -1.0301  0.0225 -2.1484
   56CHL1    O3 5253   2.235   1.604   3.135 -0.2451 -0.3212  0.4738
   56CHL1   H3' 5254   2.324   1.572   3.118 -0.7443 -0.4615 -2.3853
   56CHL1    C4 5255   2.339   1.812   3.214  0.1530 -0.5260 -0.1233
   56CHL1   H4A 5256   2.438   1.775   3.181  0.1613 -0.8998  0.2991
   56CHL1   H4B 5257   2.290   1.861   3.127  1.4501  0.0465 -0.5474
   56CHL1    C5 5258   2.358   1.891   3.338 -0.0056  0.2174  0.2652
   56CHL1    C6 5259   2.331   2.017   3.328  1.1345 -0.5043  0.5224
   56CHL1    H6 5260   2.287   2.054   3.234  1.8914  1.5906  0.9287
   56CHL1    C7 5261   2.348   2.128   3.429 -0.2450 -0.1111  0.1007
   56CHL1   H7A 5262   2.413   2.207   3.386  1.8561 -1.1461  1.2122
   56CHL1   H7B 5263   2.253   2.177   3.460 -1.0180 -1.2037 -0.4718
   56CHL1    C8 5264   2.426   2.079   3.549 -0.2068  0.4717  1.1755
   56CHL1    H8 5265   2.532   2.066   3.519 -0.8073 -2.2377 -0.1625
   56CHL1   C14 5266   2.409   2.169   3.663 -0.6222  0.1734  0.3382
   56CHL1   H14 5267   2.301   2.154   3.684 -0.3990 -0.2586  1.2186
   56CHL1   C15 5268   2.424   2.324   3.644  0.2274  0.5315 -0.3047
   56CHL1  H15A 5269   2.522   2.354   3.600  0.5359 -0.1439 -0.0829
   56CHL1  H15B 5270   2.344   2.358   3.574 -0.6056 -0.3887  0.1771
   56CHL1   C16 5271   2.400   2.373   3.788  0.2666  0.2824 -0.5069
   56CHL1  H16A 5272   2.487   2.436   3.816  1.9552 -1.1016 -2.3852
   56CHL1  H16B 5273   2.309   2.436   3.797 -0.7756 -1.4148  1.7774
   56CHL1   C17 5274   2.391   2.249   3.880  0.4669 -0.0344  0.1248
   56CHL1   H17 5275   2.283   2.224   3.890  0.2573  1.2000  1.2934
   56CHL1   C13 5276   2.453   2.129   3.801 -0.1268  0.3474  0.1407
   56CHL1   C18 5277   2.611   2.146   3.811  0.6634  0.2109 -0.6632
   56CHL1  H18A 5278   2.646   2.103   3.908  0.5786 -1.7995 -1.4811
   56CHL1  H18B 5279   2.664   2.096   3.727 -0.8060  0.4508 -1.7740
   56CHL1  H18C 5280   2.636   2.253   3.802 -1.1224  1.0275  2.3664
   56CHL1   C12 5281   2.415   1.979   3.835  0.8159 -0.3235  0.7943
   56CHL1  H12A 5282   2.459   1.925   3.921  1.9301  0.5083  0.7581
   56CHL1  H12B 5283   2.304   1.987   3.845  0.6945 -2.7411  2.1715
   56CHL1   C11 5284   2.450   1.889   3.714 -0.0482 -0.2689  0.3214
   56CHL1  H11A 5285   2.560   1.881   3.707 -0.2384 -1.5513 -2.2857
   56CHL1  H11B 5286   2.420   1.787   3.747  1.5640 -1.1737 -0.8722
   56CHL1    C9 5287   2.385   1.935   3.583 -0.4597  0.0549  0.0208
   56CHL1    H9 5288   2.275   1.926   3.598 -0.5902  0.8875 -0.3628
   56CHL1   C10 5289   2.412   1.832   3.463  0.0117 -0.1126 -0.6052
   56CHL1   C19 5290   2.562   1.805   3.459 -0.7300 -0.3339  0.2583
   56CHL1  H19A 5291   2.619   1.896   3.430  1.3633 -1.7036 -0.0968
   56CHL1  H19B 5292   2.603   1.768   3.555  1.4506 -0.1036 -0.5247
   56CHL1  H19C 5293   2.587   1.729   3.382  2.1027 -1.4862  2.1804
   56CHL1    C1 5294   2.338   1.700   3.492  0.1460 -0.3522  0.0776
   56CHL1   H1A 5295   2.383   1.644   3.576 -0.8146 -1.6534 -0.2301
   56CHL1   H1B 5296   2.241   1.730   3.537 -0.0875 -1.6457  0.4705
   56CHL1    C2 5297   2.322   1.610   3.370 -0.0186 -0.0141  0.6710
   56CHL1   H2A 5298   2.254   1.526   3.395 -0.4997  0.1661 -0.0194
   56CHL1   H2B 5299   2.422   1.571   3.343  0.4096  1.3162  0.2346
   56CHL1   C20 5300   2.443   2.266   4.021 -0.5918 -0.5307  0.3558
   56CHL1   H20 5301   2.553   2.279   4.021 -0.6526  0.5156 -2.0776
   56CHL1   C21 5302   2.419   2.139   4.114  0.0331 -0.1475 -0.2794
   56CHL1  H21A 5303   2.455   2.153   4.218 -0.1716 -1.5506 -0.0015
   56CHL1  H21B 5304   2.458   2.048   4.063 -0.7127 -0.6004 -0.0521
   56CHL1  H21C 5305   2.310   2.119   4.121 -0.2439  1.8522  2.5848
   56CHL1   C22 5306   2.387   2.388   4.089 -0.2571 -0.1944 -0.4058
   56CHL1  H22A 5307   2.414   2.476   4.027  0.7342  0.2188  0.5856
   56CHL1  H22B 5308   2.276   2.381   4.094 -0.1653 -1.0332  1.0825
   56CHL1   C23 5309   2.426   2.413   4.237 -0.1694 -0.2857 -0.1882
   56CHL1  H23A 5310   2.377   2.335   4.299 -0.4545 -1.0582 -1.3585
   56CHL1  H23B 5311   2.536   2.411   4.255  0.2243  1.4780 -2.1095
   56CHL1   C24 5312   2.368   2.549   4.277 -0.3837 -0.4694 -0.1187
   56CHL1  H24A 5313   2.418   2.622   4.209  0.5495 -1.1757 -0.2013
   56CHL1  H24B 5314   2.260   2.562   4.250  0.0058  1.5813 -0.8939
   56CHL1   C25 5315   2.392   2.577   4.427 -0.3921 -0.1397  0.4482
   56CHL1   H25 5316   2.498   2.544   4.438 -0.2498 -0.3818 -1.3539
   56CHL1   C26 5317   2.364   2.719   4.459 -0.7975  0.0280 -0.2118
   56CHL1  H26A 5318   2.394   2.733   4.566 -0.0735  2.7681 -0.7001
   56CHL1  H26B 5319   2.423   2.789   4.396  1.4915 -0.1899  1.5316
   56CHL1  H26C 5320   2.255   2.741   4.460 -0.8356 -0.1619  0.3132
   56CHL1   C27 5321   2.301   2.489   4.519 -0.4502  0.5388 -0.7062
   56CHL1  H27A 5322   2.287   2.384   4.483  0.7586 -0.8230  2.4635
   56CHL1  H27B 5323   2.343   2.479   4.621  0.7622 -1.6605 -1.3382
   56CHL1  H27C 5324   2.203   2.539   4.514 -0.7411  0.1004  0.3348
   57CHL1    C3 5325   5.701   1.754   3.090  0.2154  0.5146  0.3827
   57CHL1    H3 5326   5.593   1.741   3.111  0.0221 -2.4326 -1.8260
   57CHL1    O3 5327   5.724   1.782   2.955  0.5043  0.0968  0.1479
   57CHL1   H3' 5328   5.803   1.834   2.971 -1.0761  2.5598  0.4944
   57CHL1    C4 5329   5.763   1.867   3.179  0.1281 -0.8631  0.6400
   57CHL1   H4A 5330   5.874   1.868   3.172  0.0785  0.0954 -0.2431
   57CHL1   H4B 5331   5.733   1.967   3.142  3.0868  0.6270  1.8607
   57CHL1    C5 5332   5.751   1.849   3.327  0.2129 -0.1406  0.1694
   57CHL1    C6 5333   5.676   1.938   3.401  0.1378 -0.3899 -0.5758
   57CHL1    H6 5334   5.642   2.032   3.355  0.5501  0.2720  0.4504
   57CHL1    C7 5335   5.658   1.928   3.551  1.0656 -0.0362  0.1806
   57CHL1   H7A 5336   5.657   2.026   3.602 -0.7743 -1.1472  2.4497
   57CHL1   H7B 5337   5.559   1.882   3.572  1.3343 -0.0189  1.5753
   57CHL1    C8 5338   5.767   1.831   3.606 -0.3945  0.1586 -0.4867
   57CHL1    H8 5339   5.872   1.865   3.599  0.9696 -2.4156  3.6101
   57CHL1   C14 5340   5.734   1.799   3.750  0.0649  0.5606 -0.2549
   57CHL1   H14 5341   5.633   1.752   3.755 -0.1109  0.6858 -2.0399
   57CHL1   C15 5342   5.709   1.912   3.848 -0.5616  0.7528 -0.2704
   57CHL1  H15A 5343   5.775   2.001   3.841 -1.0582  1.1954  0.5163
   57CHL1  H15B 5344   5.605   1.952   3.846 -1.0096 -0.3696 -2.0208
   57CHL1   C16 5345   5.744   1.853   3.984  0.2414  0.3138 -0.7414
   57CHL1  H16A 5346   5.825   1.911   4.033  0.1885  1.4486 -1.9179
   57CHL1  H16B 5347   5.659   1.863   4.055 -0.0517  1.9390 -1.2681
   57CHL1   C17 5348   5.774   1.702   3.971  0.5798 -0.5926 -0.4220
   57CHL1   H17 5349   5.678   1.647   3.960  0.9632 -0.8739 -2.8241
   57CHL1   C13 5350   5.822   1.688   3.827  0.6331  0.4778  0.0448
   57CHL1   C18 5351   5.974   1.732   3.808  0.0742 -0.1624  0.0175
   57CHL1  H18A 5352   6.043   1.668   3.868 -1.0498 -2.1983 -0.7525
   57CHL1  H18B 5353   6.002   1.716   3.702 -0.7005  1.5087 -0.4741
   57CHL1  H18C 5354   5.973   1.842   3.821 -0.4034 -0.2395  0.6698
   57CHL1   C12 5355   5.793   1.558   3.750  0.0412 -0.2458  0.3997
   57CHL1  H12A 5356   5.848   1.465   3.776 -0.2322 -0.7424 -0.7457
   57CHL1  H12B 5357   5.687   1.527   3.760 -0.2523  0.0484 -1.3628
   57CHL1   C11 5358   5.817   1.572   3.604  0.6134 -0.5211 -0.8907
   57CHL1  H11A 5359   5.927   1.561   3.593  0.5006 -0.7247 -1.9348
   57CHL1  H11B 5360   5.787   1.478   3.553  1.2448 -0.8254 -0.7160
   57CHL1    C9 5361   5.759   1.699   3.528  0.1156 -0.0297  0.4022
   57CHL1    H9 5362   5.650   1.684   3.513  0.5868 -3.4281 -0.4431
   57CHL1   C10 5363   5.813   1.720   3.380  1.3412 -0.3301  0.0689
   57CHL1   C19 5364   5.969   1.727   3.378  0.0721  0.0555  0.2288
   57CHL1  H19A 5365   6.010   1.629   3.410 -0.7336 -0.7356 -1.0783
   57CHL1  H19B 5366   6.004   1.751   3.275  0.2504  1.6707  0.6315
   57CHL1  H19C 5367   5.999   1.803   3.454  1.0272 -0.5767  0.4998
   57CHL1    C1 5368   5.767   1.601   3.290 -0.5020  0.5363  0.3422
   57CHL1   H1A 5369   5.833   1.515   3.313  0.6423  1.0180 -0.9377
   57CHL1   H1B 5370   5.666   1.566   3.318  0.1998 -2.1988 -0.2656
   57CHL1    C2 5371   5.779   1.631   3.135  0.4222 -0.5542 -0.3352
   57CHL1   H2A 5372   5.746   1.542   3.078  0.5491 -1.6309  1.2225
   57CHL1   H2B 5373   5.885   1.651   3.107  0.3080  0.6471  0.0568
   57CHL1   C20 5374   5.854   1.647   4.093  0.0773 -0.6616  0.1328
   57CHL1   H20 5375   5.953   1.696   4.101  0.3895 -1.2776  0.0555
   57CHL1   C21 5376   5.887   1.498   4.073  0.2788  0.4043  0.7641
   57CHL1  H21A 5377   5.956   1.492   3.986  1.0430 -0.2690  1.3947
   57CHL1  H21B 5378   5.798   1.434   4.055  0.9801 -0.5801  0.6871
   57CHL1  H21C 5379   5.954   1.463   4.155  0.6004  0.6371  0.6056
   57CHL1   C22 5380   5.774   1.654   4.226 -0.3157 -0.0492  0.0621
   57CHL1  H22A 5381   5.727   1.753   4.241  0.5747  0.4228 -0.1502
   57CHL1  H22B 5382   5.692   1.579   4.218  0.2507 -0.9180  1.8792
   57CHL1   C23 5383   5.857   1.627   4.348 -0.2755 -0.2056 -1.2714
   57CHL1  H23A 5384   5.904   1.527   4.336  0.4402 -0.5038  2.5993
   57CHL1  H23B 5385   5.934   1.704   4.368  0.4146 -1.0042 -0.8092
   57CHL1   C24 5386   5.769   1.637   4.475  0.2351  0.3522  0.3843
   57CHL1  H24A 5387   5.712   1.732   4.466 -0.0072 -0.0097 -3.6507
   57CHL1  H24B 5388   5.696   1.554   4.460  0.4192 -0.0645  1.7095
   57CHL1   C25 5389   5.860   1.621   4.600 -0.9816 -0.0974 -0.3715
   57CHL1   H25 5390   5.926   1.534   4.579 -1.2189  0.0064 -1.6234
   57CHL1   C26 5391   5.948   1.741   4.630 -0.1196 -0.6226 -0.3783
   57CHL1  H26A 5392   6.013   1.770   4.544 -0.4911  2.6833  0.3197
   57CHL1  H26B 5393   5.890   1.834   4.645  1.7038  0.3336  1.1915
   57CHL1  H26C 5394   6.012   1.726   4.720  0.2311 -1.0457 -0.6953
   57CHL1   C27 5395   5.764   1.579   4.710  0.5506 -0.5139 -0.3907
   57CHL1  H27A 5396   5.688   1.505   4.675 -2.0807  2.1302 -0.6618
   57CHL1  H27B 5397   5.831   1.523   4.778  1.5334 -1.3754 -2.0072
   57CHL1  H27C 5398   5.721   1.667   4.761  1.9009  0.1791 -0.4078
   58CHL1    C3 5399   0.196   2.928   3.241 -0.0186  0.7088 -0.4549
   58CHL1    H3 5400   0.230   2.823   3.248  0.5943  1.0309  2.2590
   58CHL1    O3 5401   0.224   2.968   3.110 -0.4907  0.0299 -0.8083
   58CHL1   H3' 5402   0.196   3.060   3.107  1.9831  0.8635 -0.6803
   58CHL1    C4 5403   0.049   2.941   3.272 -0.1643  0.5153  0.2002
   58CHL1   H4A 5404   0.005   3.041   3.256 -2.3800 -0.5997 -1.1752
   58CHL1   H4B 5405  -0.012   2.865   3.219 -3.0001  2.2414  0.8053
   58CHL1    C5 5406   0.032   2.901   3.422  0.4851  0.0024  0.6746
   58CHL1    C6 5407  -0.053   2.800   3.458  0.2497 -0.6570 -0.1118
   58CHL1    H6 5408  -0.111   2.746   3.382  2.4519 -0.8372 -1.7612
   58CHL1    C7 5409  -0.071   2.770   3.607  0.2760  0.5248  0.6860
   58CHL1   H7A 5410  -0.181   2.752   3.616  0.0812  1.0258 -0.5087
   58CHL1   H7B 5411  -0.031   2.671   3.635 -0.4228  1.0082  3.7728
   58CHL1    C8 5412  -0.024   2.871   3.708 -0.4142 -0.5258  0.4180
   58CHL1    H8 5413  -0.096   2.956   3.713  0.5024  0.3133 -0.2628
   58CHL1   C14 5414  -0.019   2.813   3.852  0.3681  0.4444 -0.7363
   58CHL1   H14 5415   0.040   2.720   3.852  1.0437  0.7795  1.9848
   58CHL1   C15 5416  -0.150   2.757   3.913 -0.5060 -0.4575 -0.5996
   58CHL1  H15A 5417  -0.226   2.824   3.868 -0.0395 -0.9934 -2.2634
   58CHL1  H15B 5418  -0.179   2.658   3.871 -2.0629  0.4410 -1.7467
   58CHL1   C16 5419  -0.143   2.782   4.068 -0.6611  0.2521 -1.0296
   58CHL1  H16A 5420  -0.222   2.856   4.093  1.2646  1.8184  0.7828
   58CHL1  H16B 5421  -0.168   2.686   4.116 -1.6739  0.5426 -0.9558
   58CHL1   C17 5422   0.001   2.830   4.089 -0.3047 -0.0092 -0.7843
   58CHL1   H17 5423   0.066   2.740   4.089  2.5365  1.8966  0.9401
   58CHL1   C13 5424   0.036   2.906   3.958 -0.4830  0.1927 -0.5042
   58CHL1   C18 5425  -0.049   3.034   3.958 -0.3012 -0.6474  0.7806
   58CHL1  H18A 5426  -0.043   3.084   3.858  1.0599 -0.1069  1.1096
   58CHL1  H18B 5427  -0.154   3.023   3.992 -0.8183  0.4381 -0.3475
   58CHL1  H18C 5428   0.009   3.099   4.026 -0.6480  1.1303 -0.5141
   58CHL1   C12 5429   0.178   2.941   3.920 -0.1517  0.1950  0.0692
   58CHL1  H12A 5430   0.243   2.995   3.993 -1.0365  1.0300  0.2751
   58CHL1  H12B 5431   0.234   2.847   3.903  0.2251  0.0882  1.7055
   58CHL1   C11 5432   0.185   3.009   3.774 -0.0473 -0.2638 -0.9122
   58CHL1  H11A 5433   0.132   3.106   3.782 -0.6156 -0.6070 -0.4305
   58CHL1  H11B 5434   0.289   3.028   3.740  0.4600 -1.2538  0.0494
   58CHL1    C9 5435   0.115   2.924   3.663 -0.1565  0.0722 -0.8037
   58CHL1    H9 5436   0.181   2.835   3.664 -2.2344 -1.5388  0.3027
   58CHL1   C10 5437   0.118   2.985   3.524 -0.6511 -0.6272  0.5138
   58CHL1   C19 5438   0.070   3.125   3.521  0.2139 -0.9246  0.0938
   58CHL1  H19A 5439  -0.027   3.136   3.576  0.9092  2.1070  0.9282
   58CHL1  H19B 5440   0.133   3.197   3.578  0.1290  1.1360 -2.2476
   58CHL1  H19C 5441   0.055   3.168   3.420 -0.0274 -1.5874 -0.1577
   58CHL1    C1 5442   0.271   2.984   3.474 -0.6632  0.4286  0.6733
   58CHL1   H1A 5443   0.324   3.065   3.530 -0.9006  1.9008 -1.1353
   58CHL1   H1B 5444   0.321   2.888   3.498 -1.8445 -0.2042  0.6868
   58CHL1    C2 5445   0.282   3.025   3.326  0.1988  0.3661 -1.2383
   58CHL1   H2A 5446   0.389   3.006   3.305 -0.4123 -4.6772 -1.0286
   58CHL1   H2B 5447   0.250   3.128   3.300 -0.7497  0.2895 -0.4660
   58CHL1   C20 5448   0.007   2.897   4.225  0.6640 -0.1916 -0.9122
   58CHL1   H20 5449  -0.061   2.985   4.232  1.9677  0.8950 -1.3498
   58CHL1   C21 5450   0.157   2.930   4.260  0.2504 -0.0313 -0.3544
   58CHL1  H21A 5451   0.196   3.019   4.207 -1.4603 -0.0640 -1.7270
   58CHL1  H21B 5452   0.216   2.845   4.219  1.6780  0.5685  0.3532
   58CHL1  H21C 5453   0.187   2.940   4.367 -1.5218  1.5384  0.0459
   58CHL1   C22 5454  -0.067   2.806   4.337 -0.0752 -0.1671  0.2584
   58CHL1  H22A 5455  -0.064   2.870   4.427  0.9093  1.5159 -0.9185
   58CHL1  H22B 5456  -0.174   2.785   4.314  0.2705 -1.1284 -0.5788
   58CHL1   C23 5457   0.002   2.667   4.368 -0.2989 -0.9604  0.1880
   58CHL1  H23A 5458   0.017   2.609   4.274  0.6051 -1.8269  0.8402
   58CHL1  H23B 5459   0.101   2.694   4.409  0.9375 -3.1978 -1.1369
   58CHL1   C24 5460  -0.078   2.582   4.472 -0.3774 -0.5178 -0.2917
   58CHL1  H24A 5461  -0.184   2.582   4.440  0.1102  1.4729 -2.1613
   58CHL1  H24B 5462  -0.034   2.480   4.464 -1.0040 -0.7058 -1.6714
   58CHL1   C25 5463  -0.076   2.620   4.621  0.5618 -0.4100  0.6823
   58CHL1   H25 5464  -0.127   2.718   4.634  0.1244 -0.5201 -0.1207
   58CHL1   C26 5465  -0.146   2.515   4.699  0.3952 -0.0365 -0.3927
   58CHL1  H26A 5466  -0.133   2.530   4.808  1.6269 -1.1971 -0.3606
   58CHL1  H26B 5467  -0.255   2.509   4.677  0.0875  0.9565  0.7714
   58CHL1  H26C 5468  -0.103   2.413   4.687  0.5701 -0.3794  2.4863
   58CHL1   C27 5469   0.069   2.620   4.674  0.1541 -0.1668  0.6204
   58CHL1  H27A 5470   0.080   2.632   4.784 -1.0669 -0.9328  0.8468
   58CHL1  H27B 5471   0.112   2.522   4.645 -2.1092 -1.4145  1.2330
   58CHL1  H27C 5472   0.139   2.689   4.622  3.3531 -3.4552  0.1260
   59CHL1    C3 5473   4.127   0.579   3.060  0.1239 -0.0427 -0.0492
   59CHL1    H3 5474   4.199   0.664   3.061  0.4345 -0.3011 -0.4019
   59CHL1    O3 5475   4.073   0.551   2.930 -0.2398 -0.7073  0.0709
   59CHL1   H3' 5476   4.019   0.472   2.930  0.3867 -1.1401 -0.2092
   59CHL1    C4 5477   4.210   0.458   3.099 -0.6243 -0.2097  0.0284
   59CHL1   H4A 5478   4.152   0.364   3.083 -0.5832 -0.1237 -0.6201
   59CHL1   H4B 5479   4.292   0.447   3.025  0.4317  0.5456  1.0348
   59CHL1    C5 5480   4.267   0.468   3.240  0.7237 -0.1658  0.1567
   59CHL1    C6 5481   4.400   0.468   3.267 -0.1719 -0.4784 -0.0778
   59CHL1    H6 5482   4.467   0.463   3.180  1.3208 -1.7562  1.0833
   59CHL1    C7 5483   4.459   0.494   3.405  0.0362  0.1032  1.0222
   59CHL1   H7A 5484   4.536   0.419   3.434  0.2239 -0.0433  0.1619
   59CHL1   H7B 5485   4.506   0.594   3.396  0.3918 -0.1877 -0.7546
   59CHL1    C8 5486   4.355   0.475   3.523  0.0487 -0.5057  0.7332
   59CHL1    H8 5487   4.326   0.368   3.529 -2.3156 -0.1114 -1.9675
   59CHL1   C14 5488   4.408   0.546   3.647 -0.5082  0.1387 -0.0207
   59CHL1   H14 5489   4.422   0.655   3.629  1.9415 -0.0484  0.4218
   59CHL1   C15 5490   4.553   0.518   3.695 -0.1585  0.1733  0.0784
   59CHL1  H15A 5491   4.597   0.426   3.652  1.8639  0.6213  1.0871
   59CHL1  H15B 5492   4.622   0.601   3.669  0.8886  0.0063  2.1141
   59CHL1   C16 5493   4.556   0.541   3.853  0.2435  0.1761 -0.3199
   59CHL1  H16A 5494   4.574   0.453   3.919 -1.9539  0.2896  0.5229
   59CHL1  H16B 5495   4.625   0.623   3.880 -2.1684  1.8613  1.1621
   59CHL1   C17 5496   4.412   0.590   3.878 -0.0676 -0.5520  0.1167
   59CHL1   H17 5497   4.434   0.697   3.857  2.1780 -1.0645 -0.4818
   59CHL1   C13 5498   4.324   0.526   3.773 -0.4746  0.1447 -0.0109
   59CHL1   C18 5499   4.301   0.379   3.807  0.2678 -0.3103 -0.3041
   59CHL1  H18A 5500   4.399   0.335   3.836 -0.3210 -2.0042 -0.7739
   59CHL1  H18B 5501   4.229   0.371   3.891  1.1315 -1.5528  0.3622
   59CHL1  H18C 5502   4.260   0.326   3.718  1.5838  0.7616 -1.6121
   59CHL1   C12 5503   4.199   0.606   3.734  0.1424 -0.0242  0.0071
   59CHL1  H12A 5504   4.125   0.584   3.815 -1.8687  1.9113 -1.1801
   59CHL1  H12B 5505   4.209   0.716   3.745 -2.9027  0.1958  1.8781
   59CHL1   C11 5506   4.132   0.558   3.608 -0.1772 -0.3799  0.4343
   59CHL1  H11A 5507   4.100   0.455   3.632 -2.4665  0.2616  0.3453
   59CHL1  H11B 5508   4.034   0.603   3.583 -0.0765 -0.7005 -0.5832
   59CHL1    C9 5509   4.217   0.546   3.485 -1.1083  0.6326 -0.3592
   59CHL1    H9 5510   4.249   0.651   3.465  0.4216  0.3372  0.3427
   59CHL1   C10 5511   4.159   0.502   3.350 -0.5432 -0.3585 -0.1178
   59CHL1   C19 5512   4.078   0.373   3.379 -0.3307  0.4563  0.0221
   59CHL1  H19A 5513   4.150   0.297   3.415  2.2131  3.0665  0.8289
   59CHL1  H19B 5514   4.015   0.371   3.471 -2.0412 -2.5963 -1.0962
   59CHL1  H19C 5515   4.015   0.342   3.293  0.2044  1.0027 -0.5789
   59CHL1    C1 5516   4.064   0.611   3.300  0.0437  0.4857 -1.3376
   59CHL1   H1A 5517   3.984   0.631   3.374  1.6737  0.3402  0.5161
   59CHL1   H1B 5518   4.126   0.703   3.296  0.6445  0.0665 -1.9090
   59CHL1    C2 5519   4.012   0.602   3.162 -0.2883  0.3185  0.3771
   59CHL1   H2A 5520   3.959   0.691   3.121 -0.3900 -0.4322 -1.1845
   59CHL1   H2B 5521   3.941   0.517   3.167 -0.2870  0.3719  3.3829
   59CHL1   C20 5522   4.377   0.570   4.024  0.8424 -0.8921  0.1166
   59CHL1   H20 5523   4.375   0.460   4.039 -0.9217 -1.0670 -1.1162
   59CHL1   C21 5524   4.247   0.644   4.049  0.4886  0.2916  0.5344
   59CHL1  H21A 5525   4.240   0.679   4.155  3.3488  0.2227  0.8486
   59CHL1  H21B 5526   4.163   0.578   4.023 -0.6778  1.3647  1.4341
   59CHL1  H21C 5527   4.232   0.737   3.990  0.0479 -0.0612  0.0908
   59CHL1   C22 5528   4.484   0.613   4.134  0.1895 -0.3766  0.4281
   59CHL1  H22A 5529   4.586   0.574   4.116  0.6934  0.0336  2.2086
   59CHL1  H22B 5530   4.493   0.722   4.120 -0.0132 -0.5123 -0.9733
   59CHL1   C23 5531   4.443   0.585   4.282 -0.2395  0.3678 -0.2400
   59CHL1  H23A 5532   4.333   0.593   4.297  0.1004  0.4238  2.9230
   59CHL1  H23B 5533   4.453   0.475   4.296  0.5670  0.4437 -0.1806
   59CHL1   C24 5534   4.528   0.668   4.379  0.3038 -0.2567  0.4722
   59CHL1  H24A 5535   4.636   0.644   4.370  0.2039 -1.6721  2.4249
   59CHL1  H24B 5536   4.517   0.775   4.353 -3.3171 -0.5676  0.3005
   59CHL1   C25 5537   4.498   0.651   4.531  0.4894  0.3532  0.3178
   59CHL1   H25 5538   4.519   0.545   4.555 -0.6962 -0.4814 -1.9830
   59CHL1   C26 5539   4.584   0.749   4.609 -0.1377  0.2742 -0.1300
   59CHL1  H26A 5540   4.692   0.726   4.615 -0.1397  0.5733  1.7792
   59CHL1  H26B 5541   4.571   0.848   4.560  1.2405  0.6004  0.1261
   59CHL1  H26C 5542   4.550   0.752   4.715 -1.5854 -0.9720 -0.5213
   59CHL1   C27 5543   4.354   0.681   4.559 -0.3220 -0.5968 -0.0805
   59CHL1  H27A 5544   4.293   0.595   4.524 -0.2000 -0.0633 -1.6810
   59CHL1  H27B 5545   4.325   0.681   4.667 -4.1840  1.7001 -0.9013
   59CHL1  H27C 5546   4.324   0.780   4.519  2.5018  0.0157 -0.8504
   60CHL1    C3 5547   6.804   5.816   3.425  0.3773 -0.0227  0.6271
   60CHL1    H3 5548   6.697   5.825   3.453 -0.8974  1.5117 -3.7829
   60CHL1    O3 5549   6.820   5.832   3.288  0.0241  0.0430  0.3192
   60CHL1   H3' 5550   6.780   5.916   3.265  0.3472 -0.0519 -0.6560
   60CHL1    C4 5551   6.896   5.913   3.504 -0.9597  0.4621  0.0943
   60CHL1   H4A 5552   7.001   5.881   3.483 -1.6708 -1.5611 -0.6731
   60CHL1   H4B 5553   6.899   6.016   3.462  0.2663  0.6804  0.6562
   60CHL1    C5 5554   6.866   5.907   3.653 -0.3714  0.1944 -0.2561
   60CHL1    C6 5555   6.813   6.010   3.715 -0.1375 -0.3313  0.3464
   60CHL1    H6 5556   6.803   6.104   3.659  0.5907 -0.0177  0.7225
   60CHL1    C7 5557   6.772   6.023   3.860  0.3035 -0.2303 -0.2797
   60CHL1   H7A 5558   6.801   6.123   3.899  1.2132  0.2563 -2.1132
   60CHL1   H7B 5559   6.663   6.010   3.873  0.5058 -0.8816  0.9220
   60CHL1    C8 5560   6.831   5.900   3.942 -0.1360  0.9028  0.4893
   60CHL1    H8 5561   6.940   5.917   3.956  0.3203  0.7572 -2.3759
   60CHL1   C14 5562   6.771   5.891   4.082  0.4954 -0.2425  0.5345
   60CHL1   H14 5563   6.660   5.884   4.078  0.2638 -0.3468  3.8732
   60CHL1   C15 5564   6.789   6.003   4.178 -0.3041  0.1259 -0.4276
   60CHL1  H15A 5565   6.894   6.038   4.173  0.5520 -2.2037 -0.2070
   60CHL1  H15B 5566   6.721   6.088   4.155 -0.1627  1.0661  2.3299
   60CHL1   C16 5567   6.765   5.941   4.321  0.0995 -0.0741 -0.3863
   60CHL1  H16A 5568   6.859   5.956   4.379 -1.2817  0.2681  1.9107
   60CHL1  H16B 5569   6.680   5.985   4.376  1.3703  0.3735  1.3075
   60CHL1   C17 5570   6.747   5.787   4.303  0.6855  0.3403  0.6750
   60CHL1   H17 5571   6.638   5.773   4.290  0.6936  0.6786  0.2150
   60CHL1   C13 5572   6.813   5.765   4.163 -0.8356  1.1825 -0.0359
   60CHL1   C18 5573   6.966   5.767   4.194  0.0112 -0.1968 -0.0604
   60CHL1  H18A 5574   6.995   5.856   4.254  1.5472  0.1890 -1.3326
   60CHL1  H18B 5575   6.988   5.672   4.247 -2.6752  0.1410  1.9027
   60CHL1  H18C 5576   7.032   5.779   4.106  0.4911  1.7695  0.5246
   60CHL1   C12 5577   6.767   5.636   4.086  0.8708  0.4019  0.5615
   60CHL1  H12A 5578   6.785   5.544   4.145  1.2888 -0.4561 -0.8426
   60CHL1  H12B 5579   6.658   5.636   4.063  1.3200 -0.4586 -1.8774
   60CHL1   C11 5580   6.841   5.625   3.948 -0.4163 -0.5901  0.3575
   60CHL1  H11A 5581   6.951   5.619   3.962 -0.5849 -0.6567  1.7706
   60CHL1  H11B 5582   6.810   5.540   3.884 -1.8736 -0.7309  1.2027
   60CHL1    C9 5583   6.823   5.758   3.857 -0.3028 -0.7332 -0.1293
   60CHL1    H9 5584   6.714   5.755   3.837 -0.6051 -2.0321  1.5873
   60CHL1   C10 5585   6.886   5.766   3.716 -0.5793  0.3253 -0.3828
   60CHL1   C19 5586   7.043   5.757   3.732  0.0224  0.0257 -0.3200
   60CHL1  H19A 5587   7.080   5.828   3.809 -1.0777  0.7870 -0.4669
   60CHL1  H19B 5588   7.073   5.656   3.767 -0.3032  0.7408  2.1931
   60CHL1  H19C 5589   7.095   5.774   3.635 -1.8610  1.0397 -1.2078
   60CHL1    C1 5590   6.838   5.655   3.617 -0.2008  0.4864  0.2883
   60CHL1   H1A 5591   6.862   5.551   3.647 -0.3057  1.0955  2.6928
   60CHL1   H1B 5592   6.728   5.666   3.629 -0.0477  1.1009  1.3342
   60CHL1    C2 5593   6.848   5.674   3.462 -0.1685 -0.3352 -0.3277
   60CHL1   H2A 5594   6.795   5.591   3.410  1.1317 -1.7938  0.5701
   60CHL1   H2B 5595   6.954   5.666   3.430  0.3394 -2.9570  1.5989
   60CHL1   C20 5596   6.787   5.702   4.428 -0.2527  0.2434  0.3383
   60CHL1   H20 5597   6.898   5.695   4.439 -0.4182  0.4211  2.4968
   60CHL1   C21 5598   6.743   5.558   4.417 -0.2422 -0.2177  0.3365
   60CHL1  H21A 5599   6.794   5.504   4.334 -0.6068  0.5614 -0.4216
   60CHL1  H21B 5600   6.634   5.546   4.398 -0.3178 -0.3565  0.8636
   60CHL1  H21C 5601   6.770   5.509   4.512  3.1695  2.6414  1.0714
   60CHL1   C22 5602   6.738   5.762   4.564 -0.1326 -0.6260 -0.3423
   60CHL1  H22A 5603   6.799   5.716   4.645  0.5850  1.5414  0.4286
   60CHL1  H22B 5604   6.778   5.866   4.558 -1.7745  0.1675  1.6075
   60CHL1   C23 5605   6.591   5.757   4.595  0.7658 -0.0825 -0.1924
   60CHL1  H23A 5606   6.533   5.787   4.505 -3.5241 -0.8984  2.0506
   60CHL1  H23B 5607   6.561   5.650   4.594  0.7545 -0.0781 -0.5206
   60CHL1   C24 5608   6.540   5.829   4.729 -0.2141 -0.2382  0.6899
   60CHL1  H24A 5609   6.581   5.932   4.725  0.3211 -0.4556 -3.2452
   60CHL1  H24B 5610   6.430   5.842   4.741  0.0216  2.4685  0.5042
   60CHL1   C25 5611   6.580   5.749   4.856  0.0042 -0.5367 -0.2836
   60CHL1   H25 5612   6.674   5.692   4.839  2.2494  2.2886  1.8281
   60CHL1   C26 5613   6.593   5.844   4.973  0.0324 -0.1584  0.3983
   60CHL1  H26A 5614   6.682   5.909   4.969 -0.1698  0.0608 -1.4954
   60CHL1  H26B 5615   6.499   5.902   4.985 -1.8086 -2.4993 -1.4310
   60CHL1  H26C 5616   6.602   5.774   5.059 -2.5958 -0.5622  0.4380
   60CHL1   C27 5617   6.474   5.639   4.874 -0.3703 -0.2958 -0.0121
   60CHL1  H27A 5618   6.373   5.685   4.872 -0.2157  0.0385 -0.2473
   60CHL1  H27B 5619   6.494   5.565   4.794 -2.6313 -0.6450 -0.3082
   60CHL1  H27C 5620   6.495   5.594   4.973  1.4339 -0.7315 -0.5575
   61CHL1    C3 5621   0.686   2.163   3.152  0.7360 -0.7342  0.2427
   61CHL1    H3 5622   0.795   2.182   3.160  0.8971 -2.3555  2.7201
   61CHL1    O3 5623   0.677   2.168   3.013 -0.1045 -0.3389  0.0370
   61CHL1   H3' 5624   0.586   2.154   2.986 -0.4912  1.1828  0.4664
   61CHL1    C4 5625   0.667   2.018   3.187  0.0768  0.0256 -0.7158
   61CHL1   H4A 5626   0.564   1.995   3.153  0.0726  0.1186 -0.7655
   61CHL1   H4B 5627   0.737   1.962   3.121 -1.0808 -0.8704 -1.2223
   61CHL1    C5 5628   0.691   2.011   3.338  0.2965  0.4899 -0.3782
   61CHL1    C6 5629   0.779   1.930   3.390 -0.2542 -0.1067  0.3366
   61CHL1    H6 5630   0.834   1.873   3.314 -2.0939 -0.1016 -1.0686
   61CHL1    C7 5631   0.795   1.893   3.532  0.3830 -0.1724 -0.6714
   61CHL1   H7A 5632   0.824   1.787   3.545  1.2478  0.0193 -0.9934
   61CHL1   H7B 5633   0.878   1.947   3.581 -0.3185 -0.7358  1.2373
   61CHL1    C8 5634   0.670   1.937   3.614  0.0719 -0.9360 -0.0350
   61CHL1    H8 5635   0.601   1.850   3.605 -0.0508 -0.8987  0.4876
   61CHL1   C14 5636   0.701   1.942   3.759  0.0549 -0.0514 -0.5308
   61CHL1   H14 5637   0.770   2.029   3.769 -1.7507  1.3169  0.7445
   61CHL1   C15 5638   0.778   1.817   3.815  1.1116  0.2182 -0.4479
   61CHL1  H15A 5639   0.744   1.722   3.769 -0.0201  0.7828 -0.8179
   61CHL1  H15B 5640   0.886   1.830   3.797  1.3922  2.1666  2.1056
   61CHL1   C16 5641   0.739   1.814   3.965  0.1950  0.0476  0.2892
   61CHL1  H16A 5642   0.672   1.727   3.983  1.1940 -0.7845  0.1008
   61CHL1  H16B 5643   0.824   1.800   4.036 -0.9388  0.7778  1.8578
   61CHL1   C17 5644   0.660   1.942   3.988 -0.1939 -0.5371  0.4296
   61CHL1   H17 5645   0.736   2.023   3.989 -1.1648  0.3973  0.9980
   61CHL1   C13 5646   0.594   1.976   3.854 -0.1373 -0.3759  0.5257
   61CHL1   C18 5647   0.479   1.877   3.840 -0.0124 -0.1122  0.1992
   61CHL1  H18A 5648   0.410   1.907   3.921  2.8701  1.0821  2.3983
   61CHL1  H18B 5649   0.424   1.873   3.743  0.2674  1.7032 -0.0595
   61CHL1  H18C 5650   0.505   1.771   3.862 -0.3221 -0.7041 -1.9712
   61CHL1   C12 5651   0.546   2.117   3.814 -0.3999 -0.0463 -0.3248
   61CHL1  H12A 5652   0.463   2.159   3.875  0.7106 -1.0569  2.0573
   61CHL1  H12B 5653   0.627   2.193   3.823  1.2655 -1.9332  2.1505
   61CHL1   C11 5654   0.511   2.123   3.670 -0.1331 -0.0810  0.1392
   61CHL1  H11A 5655   0.412   2.077   3.652  0.4657 -0.7581 -1.6239
   61CHL1  H11B 5656   0.488   2.229   3.642 -0.3703 -0.1883 -0.0776
   61CHL1    C9 5657   0.625   2.076   3.568  0.1702 -0.5866 -0.5723
   61CHL1    H9 5658   0.717   2.135   3.586 -1.2318  2.3184 -2.2861
   61CHL1   C10 5659   0.594   2.093   3.421  0.6941  0.4633  0.1460
   61CHL1   C19 5660   0.441   2.069   3.399 -0.0899 -0.5006 -0.1678
   61CHL1  H19A 5661   0.418   1.964   3.425 -2.1896  0.2840  1.4822
   61CHL1  H19B 5662   0.379   2.142   3.456  1.5242  0.3199  0.6021
   61CHL1  H19C 5663   0.418   2.078   3.290  0.7700  1.5133 -0.2436
   61CHL1    C1 5664   0.619   2.239   3.374  0.1490  0.1212 -0.5734
   61CHL1   H1A 5665   0.560   2.314   3.432 -0.0202 -1.5433  1.4839
   61CHL1   H1B 5666   0.722   2.267   3.405 -0.7777  0.1004  2.8977
   61CHL1    C2 5667   0.601   2.275   3.217 -0.3681 -0.1633  0.4178
   61CHL1   H2A 5668   0.632   2.371   3.172  0.0711 -1.0249 -1.1984
   61CHL1   H2B 5669   0.494   2.258   3.195 -0.1875 -0.1196 -0.5478
   61CHL1   C20 5670   0.581   1.938   4.123 -0.0866  0.2044  0.6799
   61CHL1   H20 5671   0.501   1.862   4.112 -0.3728  0.6165 -0.1351
   61CHL1   C21 5672   0.510   2.076   4.133 -0.3161  0.2682 -0.4449
   61CHL1  H21A 5673   0.570   2.161   4.095 -1.8435  2.3686  1.4833
   61CHL1  H21B 5674   0.468   2.097   4.234 -2.0423 -3.0316 -0.3312
   61CHL1  H21C 5675   0.416   2.085   4.073  0.0928  1.2185 -0.9670
   61CHL1   C22 5676   0.670   1.904   4.233 -0.0449 -0.6859  0.7641
   61CHL1  H22A 5677   0.675   1.793   4.225 -2.2491 -0.6996 -2.2120
   61CHL1  H22B 5678   0.770   1.951   4.222 -0.7435  1.2685  2.2484
   61CHL1   C23 5679   0.603   1.925   4.371  0.0475  0.2897  0.3322
   61CHL1  H23A 5680   0.622   2.032   4.396  0.1954  0.0795  1.1254
   61CHL1  H23B 5681   0.494   1.922   4.354  0.2955  0.7503 -1.5711
   61CHL1   C24 5682   0.653   1.836   4.486  0.1629  0.5460  0.0658
   61CHL1  H24A 5683   0.619   1.732   4.466  1.3951 -0.0485  0.9097
   61CHL1  H24B 5684   0.764   1.839   4.490  0.2193 -1.0993  0.8320
   61CHL1   C25 5685   0.600   1.866   4.621  0.2596  0.8185 -0.2402
   61CHL1   H25 5686   0.489   1.874   4.613 -0.0783 -2.8493 -1.0828
   61CHL1   C26 5687   0.611   1.734   4.709  0.1146  0.1351 -0.1512
   61CHL1  H26A 5688   0.716   1.728   4.745 -0.6886 -0.5749  2.2246
   61CHL1  H26B 5689   0.555   1.755   4.803 -0.8492  0.5504 -0.7973
   61CHL1  H26C 5690   0.573   1.641   4.661  1.6774 -0.4869 -0.2235
   61CHL1   C27 5691   0.664   1.989   4.685  0.3678 -0.1959 -0.7554
   61CHL1  H27A 5692   0.649   2.070   4.610 -0.8058 -0.4144 -0.7741
   61CHL1  H27B 5693   0.604   2.025   4.771  1.5331 -0.4342  0.1837
   61CHL1  H27C 5694   0.769   1.989   4.721  0.3609  2.3278 -0.5291
   62CHL1    C3 5695   3.643   1.517   3.139 -0.3777  0.1240 -0.4715
   62CHL1    H3 5696   3.600   1.416   3.157  1.1743 -0.7560 -1.4770
   62CHL1    O3 5697   3.631   1.561   3.006 -0.0880 -0.6133 -0.0153
   62CHL1   H3' 5698   3.691   1.635   3.012 -1.7292  0.7850 -0.2707
   62CHL1    C4 5699   3.584   1.628   3.221 -0.1723  0.4114  0.0316
   62CHL1   H4A 5700   3.628   1.722   3.182 -0.0298 -1.0457 -3.7333
   62CHL1   H4B 5701   3.475   1.645   3.206 -0.6082  0.9131  3.1427
   62CHL1    C5 5702   3.610   1.614   3.366 -0.1543 -0.1786  0.1479
   62CHL1    C6 5703   3.508   1.602   3.455 -0.3269  0.3438  0.2371
   62CHL1    H6 5704   3.409   1.632   3.416 -0.2213  1.4901  0.7964
   62CHL1    C7 5705   3.527   1.591   3.601 -0.2102 -0.2873 -0.2962
   62CHL1   H7A 5706   3.478   1.677   3.651 -0.6810 -2.0170  2.4303
   62CHL1   H7B 5707   3.485   1.497   3.643 -3.2337 -0.1273 -2.6456
   62CHL1    C8 5708   3.677   1.592   3.646 -0.0608 -0.2472 -0.0980
   62CHL1    H8 5709   3.700   1.701   3.646 -0.1301 -0.1907 -2.1996
   62CHL1   C14 5710   3.697   1.533   3.785  0.6134  0.3619  0.9921
   62CHL1   H14 5711   3.688   1.423   3.776 -0.0728 -0.1011  5.3398
   62CHL1   C15 5712   3.593   1.577   3.891 -0.8518 -0.0323 -0.1816
   62CHL1  H15A 5713   3.580   1.687   3.897 -2.3028 -0.2050  0.0892
   62CHL1  H15B 5714   3.495   1.526   3.894 -2.1229  2.0870 -2.4864
   62CHL1   C16 5715   3.664   1.547   4.025  0.5602  0.8143 -0.5088
   62CHL1  H16A 5716   3.670   1.639   4.087 -1.5512 -1.2538  3.0692
   62CHL1  H16B 5717   3.610   1.472   4.085 -1.3941  0.2925 -2.7521
   62CHL1   C17 5718   3.808   1.494   3.988  0.0032  0.2513  0.6060
   62CHL1   H17 5719   3.794   1.384   3.988 -0.3431  0.2907 -0.2865
   62CHL1   C13 5720   3.832   1.538   3.846 -0.8446  0.0712  0.1875
   62CHL1   C18 5721   3.889   1.683   3.849 -0.6902 -0.1977 -0.0950
   62CHL1  H18A 5722   3.876   1.720   3.745 -2.3659 -2.4360 -0.7477
   62CHL1  H18B 5723   3.831   1.751   3.915  1.1134  1.6761 -0.3514
   62CHL1  H18C 5724   3.993   1.694   3.887 -0.5578 -2.5369  0.3686
   62CHL1   C12 5725   3.921   1.451   3.760  0.6933 -0.7433  0.1221
   62CHL1  H12A 5726   4.028   1.449   3.791  0.5311 -0.2443  0.7387
   62CHL1  H12B 5727   3.878   1.349   3.759 -3.2033  0.7000 -2.1205
   62CHL1   C11 5728   3.915   1.503   3.610 -0.7735 -0.1075  0.1340
   62CHL1  H11A 5729   3.973   1.598   3.615 -1.3768  0.2399  0.7244
   62CHL1  H11B 5730   3.977   1.428   3.557  0.8609  0.4169  1.2380
   62CHL1    C9 5731   3.770   1.516   3.549 -0.0751  0.0754  1.2591
   62CHL1    H9 5732   3.726   1.413   3.543  2.5891 -1.0943  0.1886
   62CHL1   C10 5733   3.763   1.581   3.411  0.0578 -0.0727 -0.1766
   62CHL1   C19 5734   3.843   1.712   3.412  0.2507  0.1332 -0.3767
   62CHL1  H19A 5735   3.950   1.687   3.428  0.2801  0.3760 -0.1878
   62CHL1  H19B 5736   3.846   1.762   3.313  2.4231  0.3482 -0.2503
   62CHL1  H19C 5737   3.808   1.779   3.493 -1.1327 -0.5861 -0.3433
   62CHL1    C1 5738   3.829   1.485   3.313  0.2190 -0.1595 -0.2036
   62CHL1   H1A 5739   3.940   1.481   3.314  0.2624 -1.0060 -2.0980
   62CHL1   H1B 5740   3.779   1.388   3.336 -2.5517  1.5212  1.4179
   62CHL1    C2 5741   3.793   1.508   3.163  0.2460  0.2497 -0.7262
   62CHL1   H2A 5742   3.861   1.438   3.110 -0.8892 -1.5535  0.0944
   62CHL1   H2B 5743   3.834   1.610   3.150 -1.6389  1.0234 -0.9071
   62CHL1   C20 5744   3.907   1.534   4.103  0.6513  0.7237 -0.1466
   62CHL1   H20 5745   3.919   1.644   4.106  1.5224  0.6262  2.5669
   62CHL1   C21 5746   4.045   1.466   4.068 -0.1980  0.0269 -0.0326
   62CHL1  H21A 5747   4.042   1.356   4.080 -0.0990 -0.0461 -0.6389
   62CHL1  H21B 5748   4.119   1.488   4.149  0.9629 -0.2476 -0.9918
   62CHL1  H21C 5749   4.092   1.490   3.970  1.4054 -3.5170 -0.2685
   62CHL1   C22 5750   3.863   1.490   4.244  0.2225 -0.4626  0.2948
   62CHL1  H22A 5751   3.763   1.533   4.262 -0.0141 -1.4796  1.5503
   62CHL1  H22B 5752   3.857   1.379   4.243  0.3913 -0.5041 -1.8086
   62CHL1   C23 5753   3.951   1.544   4.362 -0.0544 -0.5473  1.1341
   62CHL1  H23A 5754   4.055   1.505   4.354  0.0628  0.0043 -0.1882
   62CHL1  H23B 5755   3.956   1.651   4.335  0.2829 -0.8490 -0.0542
   62CHL1   C24 5756   3.888   1.528   4.496 -0.2558 -0.1474 -0.1081
   62CHL1  H24A 5757   3.956   1.586   4.563 -0.3106 -0.1210 -0.0755
   62CHL1  H24B 5758   3.786   1.571   4.495  0.1750  0.9424  0.6132
   62CHL1   C25 5759   3.881   1.389   4.563  0.2103  0.0844  0.3910
   62CHL1   H25 5760   3.832   1.317   4.494 -1.2162 -0.2410  1.6791
   62CHL1   C26 5761   4.020   1.352   4.614  0.1090 -0.1774  0.3547
   62CHL1  H26A 5762   4.013   1.257   4.670 -2.6799 -0.1759  0.1800
   62CHL1  H26B 5763   4.092   1.337   4.531  0.4481  1.6797  0.2769
   62CHL1  H26C 5764   4.074   1.428   4.675 -1.8345 -0.7619  2.9823
   62CHL1   C27 5765   3.791   1.391   4.694 -1.2035 -0.1049 -0.2746
   62CHL1  H27A 5766   3.838   1.476   4.748 -1.4789  0.4389 -0.8662
   62CHL1  H27B 5767   3.687   1.417   4.667 -1.3606 -1.4929 -1.1336
   62CHL1  H27C 5768   3.783   1.296   4.751  0.5888 -0.1495 -0.0316
   63CHL1    C3 5769   6.462   6.082   3.452 -0.3706 -0.0250  0.4048
   63CHL1    H3 5770   6.566   6.073   3.490 -0.5607 -1.9923  0.5803
   63CHL1    O3 5771   6.451   6.143   3.323 -0.4691 -0.1823 -0.6705
   63CHL1   H3' 5772   6.388   6.214   3.335 -1.0683 -0.1620 -3.4296
   63CHL1    C4 5773   6.403   5.940   3.450  1.1889 -0.7502  0.1708
   63CHL1   H4A 5774   6.299   5.955   3.415  1.3043 -0.7210 -0.1632
   63CHL1   H4B 5775   6.448   5.879   3.369  1.5165  0.2087 -0.3911
   63CHL1    C5 5776   6.402   5.867   3.586 -0.1620 -0.9389 -0.4615
   63CHL1    C6 5777   6.462   5.748   3.609  0.4721 -0.1431  0.5761
   63CHL1    H6 5778   6.503   5.692   3.523  0.6248  0.2505  0.3886
   63CHL1    C7 5779   6.448   5.661   3.730  0.0512  0.0627 -0.0994
   63CHL1   H7A 5780   6.406   5.567   3.689 -0.0290  0.7543 -1.6509
   63CHL1   H7B 5781   6.542   5.643   3.786 -0.8263  1.5467  1.9617
   63CHL1    C8 5782   6.345   5.722   3.828  0.3705  0.6464  0.4207
   63CHL1    H8 5783   6.247   5.682   3.793  0.9004 -0.4916  0.1686
   63CHL1   C14 5784   6.366   5.664   3.970  0.9013 -0.6897 -0.3449
   63CHL1   H14 5785   6.457   5.714   4.009  0.6701 -1.4788  1.2412
   63CHL1   C15 5786   6.390   5.510   3.986 -0.4016 -0.1908 -0.0310
   63CHL1  H15A 5787   6.300   5.465   3.938  0.1579  0.1211 -1.4269
   63CHL1  H15B 5788   6.486   5.471   3.947 -0.3773 -1.7194  1.4384
   63CHL1   C16 5789   6.375   5.494   4.137 -0.5982 -0.4940 -0.3760
   63CHL1  H16A 5790   6.313   5.406   4.167 -0.4178 -0.6022 -0.3229
   63CHL1  H16B 5791   6.477   5.470   4.172 -0.3482 -1.4017 -1.6379
   63CHL1   C17 5792   6.322   5.630   4.201 -0.0679 -0.2484  0.6696
   63CHL1   H17 5793   6.414   5.681   4.235 -0.8947  1.5571  0.3627
   63CHL1   C13 5794   6.270   5.704   4.080  0.6205 -0.7174  0.1660
   63CHL1   C18 5795   6.122   5.652   4.047  0.5559 -0.2822 -0.9316
   63CHL1  H18A 5796   6.090   5.693   3.949  1.9979  0.2981 -1.1764
   63CHL1  H18B 5797   6.139   5.542   4.040  1.5458 -0.5485  3.1235
   63CHL1  H18C 5798   6.043   5.670   4.124  0.2230 -0.9411 -1.1095
   63CHL1   C12 5799   6.278   5.859   4.085 -0.5544  0.4198 -0.1936
   63CHL1  H12A 5800   6.205   5.896   4.160 -0.6448 -0.0331 -0.0492
   63CHL1  H12B 5801   6.377   5.883   4.128 -0.7847  2.4563 -0.7079
   63CHL1   C11 5802   6.256   5.926   3.952 -0.0658 -0.0720  0.5393
   63CHL1  H11A 5803   6.150   5.912   3.924 -0.6885  1.6933  1.9009
   63CHL1  H11B 5804   6.268   6.036   3.962  1.0486 -0.2573  1.4775
   63CHL1    C9 5805   6.344   5.872   3.833  0.2933  0.3864  0.2315
   63CHL1    H9 5806   6.446   5.899   3.867  0.7312  0.8068 -1.3178
   63CHL1   C10 5807   6.331   5.941   3.692  0.2072 -0.8539 -0.8427
   63CHL1   C19 5808   6.178   5.946   3.663  0.1173  0.0459 -0.6684
   63CHL1  H19A 5809   6.133   5.844   3.662 -0.1417  0.1537 -1.5818
   63CHL1  H19B 5810   6.124   6.016   3.730  0.1016 -0.6125  0.0179
   63CHL1  H19C 5811   6.154   5.989   3.563 -2.4699 -0.1608 -0.2118
   63CHL1    C1 5812   6.382   6.089   3.690  0.1194 -0.4347 -0.3120
   63CHL1   H1A 5813   6.337   6.160   3.764 -2.4210 -1.8249 -0.4159
   63CHL1   H1B 5814   6.491   6.082   3.712  0.6166  3.5879 -0.6419
   63CHL1    C2 5815   6.372   6.160   3.551 -0.2534  0.0965  0.2047
   63CHL1   H2A 5816   6.401   6.266   3.566 -0.8061  0.4113 -0.8581
   63CHL1   H2B 5817   6.271   6.164   3.506 -0.0918  1.9395 -0.0550
   63CHL1   C20 5818   6.237   5.607   4.327  0.0562  0.1906 -0.0906
   63CHL1   H20 5819   6.138   5.566   4.298  1.6376 -2.8602 -1.6501
   63CHL1   C21 5820   6.213   5.740   4.396 -0.8317  0.7706  0.5158
   63CHL1  H21A 5821   6.190   5.728   4.504 -1.8207 -2.3067  0.0567
   63CHL1  H21B 5822   6.137   5.799   4.341  1.0016  2.5050 -0.3310
   63CHL1  H21C 5823   6.307   5.799   4.398  1.1637 -2.1079 -0.9473
   63CHL1   C22 5824   6.299   5.502   4.423  0.1845 -0.0200  0.5603
   63CHL1  H22A 5825   6.315   5.405   4.372 -0.0632 -0.6651  1.6632
   63CHL1  H22B 5826   6.400   5.534   4.456 -0.2730  0.4881  1.5042
   63CHL1   C23 5827   6.212   5.459   4.543 -0.0074  0.6380  0.1371
   63CHL1  H23A 5828   6.186   5.542   4.613 -2.2113  1.6289 -1.7095
   63CHL1  H23B 5829   6.115   5.427   4.498  0.4512  1.1930 -1.3281
   63CHL1   C24 5830   6.276   5.345   4.625 -0.7741  0.5202  0.0987
   63CHL1  H24A 5831   6.302   5.259   4.561  0.7335 -0.4628  1.9513
   63CHL1  H24B 5832   6.373   5.392   4.653 -0.7416  2.0937 -2.3663
   63CHL1   C25 5833   6.191   5.279   4.735  0.5662 -0.3725  0.1063
   63CHL1   H25 5834   6.252   5.204   4.790 -0.5940  0.2808  2.4274
   63CHL1   C26 5835   6.161   5.379   4.837  0.5564 -0.2391 -0.5062
   63CHL1  H26A 5836   6.093   5.459   4.800  0.6966  1.3690  2.3994
   63CHL1  H26B 5837   6.123   5.331   4.930  0.0288 -2.2855 -1.7243
   63CHL1  H26C 5838   6.253   5.433   4.867  1.0839 -0.4355 -1.7253
   63CHL1   C27 5839   6.062   5.215   4.679  0.3412  0.3596 -0.0447
   63CHL1  H27A 5840   6.021   5.138   4.748  1.2211  1.0587  1.3013
   63CHL1  H27B 5841   5.994   5.301   4.666  0.5933  0.6673  0.6443
   63CHL1  H27C 5842   6.081   5.168   4.579 -0.3129 -1.1011  0.4870
   64CHL1    C3 5843   3.794   6.413   3.366  0.3776 -0.0301 -0.1639
   64CHL1    H3 5844   3.778   6.523   3.378  2.1718  0.3349 -0.8196
   64CHL1    O3 5845   3.825   6.388   3.227 -0.5026  0.5455 -0.4659
   64CHL1   H3' 5846   3.745   6.422   3.187 -1.6755  0.3389  1.5889
   64CHL1    C4 5847   3.911   6.362   3.461  0.1723 -0.4508  0.3779
   64CHL1   H4A 5848   3.910   6.251   3.447  0.2224 -0.5357  1.0403
   64CHL1   H4B 5849   4.011   6.399   3.429 -0.3762  0.8542  0.1005
   64CHL1    C5 5850   3.876   6.398   3.606  0.5992 -0.1405  0.0345
   64CHL1    C6 5851   3.954   6.471   3.688  0.3337 -0.4400 -0.1235
   64CHL1    H6 5852   4.045   6.510   3.640 -0.4515 -0.0429 -1.3363
   64CHL1    C7 5853   3.936   6.488   3.841  0.0690  0.4571  0.3072
   64CHL1   H7A 5854   4.025   6.456   3.900  0.9175  1.2222 -0.5349
   64CHL1   H7B 5855   3.923   6.594   3.875 -0.9402  0.2911  0.4530
   64CHL1    C8 5856   3.816   6.396   3.890 -1.0358  0.2335  0.3225
   64CHL1    H8 5857   3.850   6.291   3.900 -1.8547  0.1954  4.0668
   64CHL1   C14 5858   3.780   6.429   4.032  0.7559  0.0244  0.3789
   64CHL1   H14 5859   3.757   6.536   4.010  0.1926 -0.5389 -2.0243
   64CHL1   C15 5860   3.886   6.442   4.144 -0.0297  0.3858  0.0855
   64CHL1  H15A 5861   3.964   6.363   4.146  0.1645  0.5841  0.3082
   64CHL1  H15B 5862   3.936   6.541   4.140 -0.6829  0.7259  0.1291
   64CHL1   C16 5863   3.806   6.428   4.276 -0.1511 -0.5702 -0.0646
   64CHL1  H16A 5864   3.839   6.338   4.332  0.5089 -1.0901 -1.2570
   64CHL1  H16B 5865   3.830   6.510   4.347  0.5529 -2.3681  1.8891
   64CHL1   C17 5866   3.652   6.423   4.234 -0.1877 -0.1033  0.2274
   64CHL1   H17 5867   3.613   6.525   4.214 -2.4691 -1.0037 -0.2294
   64CHL1   C13 5868   3.663   6.357   4.091 -0.2199 -0.1885 -0.4415
   64CHL1   C18 5869   3.698   6.208   4.107  0.2094 -0.6058 -0.2509
   64CHL1  H18A 5870   3.606   6.161   4.148 -1.3485  1.7952 -0.7970
   64CHL1  H18B 5871   3.731   6.153   4.016  2.6734 -1.3427  0.9992
   64CHL1  H18C 5872   3.776   6.193   4.185 -0.7608  1.0035  1.1056
   64CHL1   C12 5873   3.544   6.386   3.991  0.2514  0.4999  0.1099
   64CHL1  H12A 5874   3.461   6.319   4.023  0.8459 -2.3403 -3.5613
   64CHL1  H12B 5875   3.524   6.495   3.996  0.9343  0.6183  0.3626
   64CHL1   C11 5876   3.574   6.335   3.849  1.1345 -0.3010 -0.4833
   64CHL1  H11A 5877   3.583   6.225   3.856  0.2251 -0.2973  1.5623
   64CHL1  H11B 5878   3.479   6.363   3.798 -0.3906  0.8099  2.7008
   64CHL1    C9 5879   3.699   6.396   3.794 -0.0848 -0.3345 -0.4367
   64CHL1    H9 5880   3.668   6.501   3.775 -0.4289 -0.3103  0.2348
   64CHL1   C10 5881   3.737   6.344   3.652 -0.3333 -0.6669  0.0535
   64CHL1   C19 5882   3.763   6.193   3.668  1.0192 -0.0563  0.3490
   64CHL1  H19A 5883   3.675   6.135   3.702  1.3508 -1.7062 -1.3875
   64CHL1  H19B 5884   3.791   6.136   3.577  0.3605 -3.4954  2.1507
   64CHL1  H19C 5885   3.845   6.170   3.739  0.5424  0.2122  0.9988
   64CHL1    C1 5886   3.624   6.382   3.549  0.0393  0.5132 -0.3939
   64CHL1   H1A 5887   3.522   6.344   3.570 -0.5591  0.1488 -3.4588
   64CHL1   H1B 5888   3.620   6.493   3.557 -2.1981  0.4206  0.3171
   64CHL1    C2 5889   3.665   6.348   3.403  0.3576  0.2853 -0.3163
   64CHL1   H2A 5890   3.572   6.378   3.350 -0.7131 -1.7106  0.3467
   64CHL1   H2B 5891   3.682   6.239   3.394 -0.9059 -0.2591  2.7004
   64CHL1   C20 5892   3.563   6.360   4.341 -0.0134 -0.5152 -0.0183
   64CHL1   H20 5893   3.569   6.249   4.338  2.8618 -0.4406  0.3964
   64CHL1   C21 5894   3.416   6.400   4.311  0.3183 -0.0382 -0.5765
   64CHL1  H21A 5895   3.348   6.372   4.394  1.7256  0.2965  0.7211
   64CHL1  H21B 5896   3.381   6.349   4.218 -0.7096 -1.7080  0.6644
   64CHL1  H21C 5897   3.405   6.509   4.295  0.9232 -0.1157 -1.6475
   64CHL1   C22 5898   3.593   6.403   4.489 -0.7650  0.2921  0.3112
   64CHL1  H22A 5899   3.703   6.402   4.503 -0.2699  0.3547 -2.9373
   64CHL1  H22B 5900   3.554   6.507   4.503  1.1030  1.1792 -0.7124
   64CHL1   C23 5901   3.542   6.313   4.606  0.0096  0.6263  0.6651
   64CHL1  H23A 5902   3.432   6.301   4.597  0.0642 -1.2957  1.9657
   64CHL1  H23B 5903   3.584   6.211   4.596 -1.3841  0.1323 -0.5456
   64CHL1   C24 5904   3.575   6.366   4.745 -0.2723 -0.0758  0.2171
   64CHL1  H24A 5905   3.686   6.365   4.755 -0.3629  0.9671  1.5528
   64CHL1  H24B 5906   3.543   6.472   4.752 -0.5459 -0.1121 -0.3999
   64CHL1   C25 5907   3.516   6.289   4.861  0.8169  0.4804 -0.1542
   64CHL1   H25 5908   3.529   6.180   4.843 -0.2732  0.2347  0.4305
   64CHL1   C26 5909   3.585   6.329   4.988  0.4909  0.3182 -0.0469
   64CHL1  H26A 5910   3.695   6.338   4.972  0.4344 -0.0258 -0.6613
   64CHL1  H26B 5911   3.546   6.429   5.016 -2.0329  0.1388 -2.4902
   64CHL1  H26C 5912   3.567   6.258   5.072 -0.6640  1.2501  0.5294
   64CHL1   C27 5913   3.365   6.307   4.865 -0.6160 -0.1116 -0.5324
   64CHL1  H27A 5914   3.339   6.414   4.882  0.2298  0.0606 -0.2937
   64CHL1  H27B 5915   3.305   6.271   4.779 -0.6631 -0.4596 -0.3570
   64CHL1  H27C 5916   3.340   6.249   4.956  4.2721 -1.1658  0.4362
   65CHL1    C3 5917   1.899   4.819   3.172 -0.2551  0.3254  0.6471
   65CHL1    H3 5918   2.009   4.837   3.169  0.1469 -1.9932 -2.2028
   65CHL1    O3 5919   1.856   4.833   3.039 -0.2397  0.1755 -0.1404
   65CHL1   H3' 5920   1.920   4.788   2.984 -0.3946  0.1740 -0.3220
   65CHL1    C4 5921   1.865   4.679   3.236  0.0890 -0.4005 -0.3724
   65CHL1   H4A 5922   1.754   4.674   3.244  0.2314 -3.4724  0.9571
   65CHL1   H4B 5923   1.905   4.594   3.176 -0.9222 -1.8011  0.8486
   65CHL1    C5 5924   1.931   4.670   3.375  0.2542  0.2959 -0.7405
   65CHL1    C6 5925   2.010   4.574   3.413 -0.4551  0.7075  0.2094
   65CHL1    H6 5926   2.051   4.497   3.347  0.3502 -0.2525  1.7618
   65CHL1    C7 5927   2.057   4.558   3.556  0.3044 -0.2946  0.4294
   65CHL1   H7A 5928   2.056   4.452   3.590 -0.1457 -0.2510  0.5651
   65CHL1   H7B 5929   2.163   4.590   3.562  0.5685 -1.0151 -0.1888
   65CHL1    C8 5930   1.975   4.632   3.662  0.0337 -0.1196  0.8110
   65CHL1    H8 5931   1.873   4.592   3.680  1.4204 -2.9023  3.3074
   65CHL1   C14 5932   2.063   4.638   3.797 -0.2430  0.1400  0.3167
   65CHL1   H14 5933   2.158   4.687   3.767 -0.3044 -0.7745 -1.4806
   65CHL1   C15 5934   2.127   4.510   3.861 -0.0011 -0.0462  0.0832
   65CHL1  H15A 5935   2.070   4.416   3.847  0.9690 -0.6498  0.0567
   65CHL1  H15B 5936   2.226   4.482   3.818 -1.3662 -2.6035 -1.6841
   65CHL1   C16 5937   2.133   4.552   4.013 -0.5865  0.8663  0.2390
   65CHL1  H16A 5938   2.073   4.478   4.070  0.3703 -0.6681 -0.6640
   65CHL1  H16B 5939   2.240   4.547   4.041 -0.3616  1.7972 -0.4066
   65CHL1   C17 5940   2.090   4.707   4.021 -0.4627 -0.2539  0.8117
   65CHL1   H17 5941   2.182   4.761   3.989  1.7196 -2.8746  2.2003
   65CHL1   C13 5942   1.995   4.721   3.906 -0.0850 -0.3283 -0.6165
   65CHL1   C18 5943   1.857   4.650   3.948  0.0795 -0.3905  0.0190
   65CHL1  H18A 5944   1.817   4.701   4.039  1.4588  1.4693 -0.3630
   65CHL1  H18B 5945   1.772   4.666   3.878 -2.1727 -3.3797  1.7705
   65CHL1  H18C 5946   1.855   4.539   3.957 -2.8162 -0.6582 -2.3183
   65CHL1   C12 5947   1.968   4.864   3.853  0.3143  0.0830 -0.1694
   65CHL1  H12A 5948   1.912   4.923   3.928 -0.1809 -0.7368  0.1211
   65CHL1  H12B 5949   2.065   4.915   3.836 -0.5657  1.4646 -1.2294
   65CHL1   C11 5950   1.890   4.864   3.721  0.0795  0.4254  0.1935
   65CHL1  H11A 5951   1.795   4.814   3.750 -0.5759  1.1378 -0.6805
   65CHL1  H11B 5952   1.875   4.961   3.669  2.1904 -0.4701 -2.3562
   65CHL1    C9 5953   1.956   4.777   3.612  0.1646 -0.7780  0.4565
   65CHL1    H9 5954   2.055   4.822   3.587  1.0905 -2.6136  0.5798
   65CHL1   C10 5955   1.883   4.784   3.470  0.1408 -0.1794 -0.8479
   65CHL1   C19 5956   1.728   4.766   3.491 -0.5090  0.4991  0.3440
   65CHL1  H19A 5957   1.711   4.672   3.548 -2.7058  1.6736  1.7405
   65CHL1  H19B 5958   1.704   4.854   3.554  1.4972  1.3342  0.0024
   65CHL1  H19C 5959   1.657   4.765   3.404 -0.4249 -1.2985  0.2589
   65CHL1    C1 5960   1.906   4.920   3.403  0.1066 -0.2049 -0.3029
   65CHL1   H1A 5961   1.867   5.006   3.463  0.1675 -0.8622  0.7037
   65CHL1   H1B 5962   2.015   4.937   3.391  0.3133 -2.3782 -2.1037
   65CHL1    C2 5963   1.850   4.934   3.257  0.2388  0.4750  0.1483
   65CHL1   H2A 5964   1.885   5.028   3.208  1.2164  1.0513  1.8786
   65CHL1   H2B 5965   1.739   4.929   3.252  0.2600  0.3375 -0.1787
   65CHL1   C20 5966   2.052   4.748   4.164 -0.9464 -0.3984 -0.4524
   65CHL1   H20 5967   1.952   4.707   4.191 -0.2096 -0.1839  3.1307
   65CHL1   C21 5968   2.072   4.903   4.175 -0.0877  0.3341 -0.0875
   65CHL1  H21A 5969   2.006   4.968   4.113  0.7559 -1.6508 -3.2821
   65CHL1  H21B 5970   2.177   4.929   4.152 -0.1062  0.6131  0.1342
   65CHL1  H21C 5971   2.044   4.940   4.276  0.7122 -1.7948  0.9726
   65CHL1   C22 5972   2.130   4.688   4.274 -0.7276 -0.1843  0.8839
   65CHL1  H22A 5973   2.103   4.743   4.366 -2.0642  0.0003  0.3996
   65CHL1  H22B 5974   2.112   4.578   4.275  2.4326 -1.0799 -3.9325
   65CHL1   C23 5975   2.285   4.699   4.273 -0.4289  0.0848  0.3105
   65CHL1  H23A 5976   2.335   4.655   4.184  1.8820  2.0857  0.5173
   65CHL1  H23B 5977   2.328   4.799   4.294 -0.5303 -0.0704  1.3082
   65CHL1   C24 5978   2.351   4.604   4.388 -0.3791  0.5579  0.6473
   65CHL1  H24A 5979   2.325   4.497   4.377 -0.5063  0.3125  2.8998
   65CHL1  H24B 5980   2.460   4.593   4.367 -0.6638 -1.9740  0.2247
   65CHL1   C25 5981   2.338   4.651   4.542  0.5223  0.4385  0.2702
   65CHL1   H25 5982   2.242   4.706   4.550  1.0946  1.3128  1.3358
   65CHL1   C26 5983   2.358   4.528   4.639  0.5164 -0.9549  0.0728
   65CHL1  H26A 5984   2.292   4.442   4.615 -0.5432  0.1040 -0.9515
   65CHL1  H26B 5985   2.465   4.501   4.654  0.7114  1.1343  3.4874
   65CHL1  H26C 5986   2.317   4.557   4.738 -0.7369 -0.2719 -0.6228
   65CHL1   C27 5987   2.436   4.758   4.582  0.3768  0.5803 -0.1226
   65CHL1  H27A 5988   2.540   4.721   4.567  0.1285 -0.5182  0.7032
   65CHL1  H27B 5989   2.431   4.834   4.502 -0.1843 -0.0950 -0.7393
   65CHL1  H27C 5990   2.416   4.809   4.679  1.5712  3.2371 -1.1802
   66CHL1    C3 5991   1.653   2.726   3.309  0.2875 -0.0782 -0.0277
   66CHL1    H3 5992   1.659   2.617   3.332 -0.7716  0.3116  2.3672
   66CHL1    O3 5993   1.684   2.760   3.175 -0.0476  0.6815  0.2504
   66CHL1   H3' 5994   1.617   2.722   3.117  0.8341  1.0509 -1.0379
   66CHL1    C4 5995   1.506   2.773   3.339  0.1160  0.1852  0.7889
   66CHL1   H4A 5996   1.525   2.882   3.342  0.2108  0.1772  0.4733
   66CHL1   H4B 5997   1.439   2.746   3.254  0.5647 -2.5611  1.2041
   66CHL1    C5 5998   1.464   2.724   3.477 -0.1415  0.0212  0.6074
   66CHL1    C6 5999   1.358   2.650   3.501 -0.2817  0.8917  0.4266
   66CHL1    H6 6000   1.294   2.621   3.416  0.3188 -1.0326  0.5899
   66CHL1    C7 6001   1.298   2.603   3.630 -0.0338 -0.0725  0.2009
   66CHL1   H7A 6002   1.193   2.640   3.626  0.2263  0.5841 -1.6179
   66CHL1   H7B 6003   1.308   2.494   3.642  0.4212  0.0390  0.8990
   66CHL1    C8 6004   1.378   2.670   3.749  0.3142  0.2458 -0.3477
   66CHL1    H8 6005   1.343   2.775   3.756  1.4434  0.6992 -1.1450
   66CHL1   C14 6006   1.358   2.600   3.880  0.4566 -0.2894  0.1951
   66CHL1   H14 6007   1.389   2.494   3.863 -0.0500 -0.2565 -1.0157
   66CHL1   C15 6008   1.213   2.596   3.934 -0.2006 -0.3390 -0.1689
   66CHL1  H15A 6009   1.157   2.688   3.905 -0.0575 -0.0717  0.3892
   66CHL1  H15B 6010   1.147   2.525   3.879 -0.5265  0.4926 -0.8753
   66CHL1   C16 6011   1.218   2.576   4.083 -0.5470 -0.7619  0.5990
   66CHL1  H16A 6012   1.176   2.663   4.138  1.3688  1.9073 -1.8055
   66CHL1  H16B 6013   1.172   2.477   4.106 -2.1626  0.2179  1.8300
   66CHL1   C17 6014   1.372   2.576   4.118 -0.1849  0.0881  0.3940
   66CHL1   H17 6015   1.405   2.472   4.098  2.2623  1.0260 -0.8064
   66CHL1   C13 6016   1.437   2.659   3.999 -0.0216  0.4798  0.1299
   66CHL1   C18 6017   1.410   2.807   4.014  0.5478 -0.3367 -0.9119
   66CHL1  H18A 6018   1.304   2.823   4.046 -0.1478 -2.1846 -2.1257
   66CHL1  H18B 6019   1.485   2.855   4.080 -1.2872  0.2663  0.8539
   66CHL1  H18C 6020   1.424   2.864   3.920 -0.7646  0.1397 -0.8432
   66CHL1   C12 6021   1.585   2.629   3.958  0.1920 -0.2419 -0.5304
   66CHL1  H12A 6022   1.646   2.664   4.044 -0.2551 -0.3047 -0.1836
   66CHL1  H12B 6023   1.596   2.520   3.937  0.0116 -1.0320  2.9295
   66CHL1   C11 6024   1.619   2.713   3.838 -0.0020 -0.0828 -0.0638
   66CHL1  H11A 6025   1.604   2.820   3.862  1.0444  0.3476 -1.2561
   66CHL1  H11B 6026   1.723   2.696   3.802  0.9676  1.4599  1.8339
   66CHL1    C9 6027   1.530   2.678   3.718 -0.0112 -0.2075 -0.2059
   66CHL1    H9 6028   1.554   2.570   3.701 -2.7668 -0.8915 -0.3345
   66CHL1   C10 6029   1.564   2.756   3.588 -0.1908 -0.7804  0.1972
   66CHL1   C19 6030   1.545   2.907   3.625  0.0618  0.0150  0.6723
   66CHL1  H19A 6031   1.542   2.975   3.537  1.0657 -0.1578  0.4880
   66CHL1  H19B 6032   1.449   2.927   3.676 -0.6966 -0.4542 -0.5287
   66CHL1  H19C 6033   1.627   2.936   3.694 -0.4427  0.2542  1.1824
   66CHL1    C1 6034   1.721   2.742   3.540  0.6086  0.0200 -0.5100
   66CHL1   H1A 6035   1.781   2.795   3.617 -1.5224  0.3555  1.0327
   66CHL1   H1B 6036   1.753   2.636   3.541  1.2281  0.2065 -0.6650
   66CHL1    C2 6037   1.752   2.796   3.401  0.3690  0.2258 -0.3562
   66CHL1   H2A 6038   1.858   2.771   3.380 -0.2749 -1.8055 -1.4435
   66CHL1   H2B 6039   1.728   2.905   3.396 -0.9156 -0.0505 -0.5441
   66CHL1   C20 6040   1.408   2.608   4.263 -0.1133  0.7019  0.6926
   66CHL1   H20 6041   1.373   2.709   4.294  1.9767  0.9798  2.3562
   66CHL1   C21 6042   1.555   2.600   4.266  0.1621 -0.2119 -0.6894
   66CHL1  H21A 6043   1.594   2.594   4.370 -3.2854 -1.0973  0.6790
   66CHL1  H21B 6044   1.590   2.698   4.227  0.6603  0.6134  1.6779
   66CHL1  H21C 6045   1.596   2.514   4.209 -1.0434 -1.0589 -0.3274
   66CHL1   C22 6046   1.345   2.509   4.366 -0.4806 -0.4211 -0.5463
   66CHL1  H22A 6047   1.235   2.507   4.351 -0.7610 -0.6639  1.2733
   66CHL1  H22B 6048   1.391   2.410   4.346  2.3190  0.8746 -1.0459
   66CHL1   C23 6049   1.359   2.559   4.514  0.1771  0.0427 -0.0300
   66CHL1  H23A 6050   1.466   2.570   4.541  0.3133 -0.2639 -0.4409
   66CHL1  H23B 6051   1.304   2.652   4.537 -0.9484 -0.9075  1.2989
   66CHL1   C24 6052   1.302   2.458   4.611  0.0318 -0.6813  0.8420
   66CHL1  H24A 6053   1.198   2.439   4.576 -0.0118 -2.6861  1.9145
   66CHL1  H24B 6054   1.356   2.361   4.597 -0.5095 -1.0479  1.2735
   66CHL1   C25 6055   1.294   2.495   4.759  0.1595 -0.4672  0.7896
   66CHL1   H25 6056   1.234   2.588   4.764 -0.0165 -0.5661  0.5373
   66CHL1   C26 6057   1.212   2.400   4.834  0.0032  0.2861  0.4005
   66CHL1  H26A 6058   1.198   2.424   4.942  0.7148  0.3174  0.4886
   66CHL1  H26B 6059   1.108   2.388   4.797 -0.1321  0.9654  0.5487
   66CHL1  H26C 6060   1.262   2.301   4.848 -0.4677  0.3322  3.0447
   66CHL1   C27 6061   1.434   2.499   4.824  0.6707  0.7867 -0.4045
   66CHL1  H27A 6062   1.469   2.603   4.806  0.3794  1.2234  1.3663
   66CHL1  H27B 6063   1.503   2.421   4.786  4.3500  1.5686  3.8949
   66CHL1  H27C 6064   1.429   2.473   4.932  4.2728  0.9857 -0.0750
   67CHL1    C3 6065   0.734   0.506   3.147 -0.1846  0.3774  0.2042
   67CHL1    H3 6066   0.736   0.401   3.112 -0.9802  0.8747 -1.4498
   67CHL1    O3 6067   0.749   0.598   3.036 -0.2860  0.3177  0.1665
   67CHL1   H3' 6068   0.730   0.682   3.078 -0.9846  0.4149 -0.3186
   67CHL1    C4 6069   0.586   0.533   3.200 -0.4642 -0.3427  0.2540
   67CHL1   H4A 6070   0.573   0.643   3.208  1.3551 -0.1260  0.7611
   67CHL1   H4B 6071   0.527   0.499   3.112  0.8165 -0.9303 -0.3996
   67CHL1    C5 6072   0.555   0.466   3.328 -0.7526 -0.0619  0.4843
   67CHL1    C6 6073   0.452   0.385   3.330 -0.6407  0.4160  0.5686
   67CHL1    H6 6074   0.383   0.378   3.245 -0.7118 -1.0803  0.7204
   67CHL1    C7 6075   0.408   0.310   3.447  0.3394  0.1746  0.0494
   67CHL1   H7A 6076   0.297   0.303   3.447  0.4417 -4.4609 -0.7171
   67CHL1   H7B 6077   0.444   0.206   3.429  3.9618  1.7043 -3.0868
   67CHL1    C8 6078   0.468   0.369   3.583 -0.3148  0.0583 -0.1809
   67CHL1    H8 6079   0.433   0.472   3.600  0.5204  0.4541 -0.7916
   67CHL1   C14 6080   0.441   0.287   3.711 -0.1305  0.4243  0.6093
   67CHL1   H14 6081   0.496   0.191   3.698 -0.0872  0.4740  0.4229
   67CHL1   C15 6082   0.299   0.245   3.742 -0.3222 -0.0544 -0.0702
   67CHL1  H15A 6083   0.246   0.343   3.736 -0.1316  0.0341 -0.3760
   67CHL1  H15B 6084   0.250   0.188   3.660 -1.5071  2.1575 -1.0041
   67CHL1   C16 6085   0.308   0.187   3.882 -0.2195 -0.3369 -0.5569
   67CHL1  H16A 6086   0.223   0.239   3.932  0.2036  3.1146 -3.0920
   67CHL1  H16B 6087   0.309   0.076   3.892 -0.6807 -0.2526  0.6519
   67CHL1   C17 6088   0.448   0.247   3.943  0.7191  0.1375 -0.4819
   67CHL1   H17 6089   0.515   0.158   3.939  0.2264 -0.3600  1.3585
   67CHL1   C13 6090   0.503   0.345   3.838 -0.2969 -0.4999  0.3440
   67CHL1   C18 6091   0.454   0.493   3.867 -0.2964  0.5253 -0.3252
   67CHL1  H18A 6092   0.346   0.499   3.893 -0.2671 -1.4180  0.4163
   67CHL1  H18B 6093   0.490   0.535   3.963  3.3832  1.5896 -1.9827
   67CHL1  H18C 6094   0.468   0.577   3.796 -4.9239  2.7862  1.0074
   67CHL1   C12 6095   0.655   0.339   3.811 -0.1498 -0.5589 -0.2506
   67CHL1  H12A 6096   0.716   0.377   3.896  0.3199  0.3369 -0.9688
   67CHL1  H12B 6097   0.689   0.235   3.790  0.5206 -0.6598  1.1870
   67CHL1   C11 6098   0.695   0.423   3.690 -0.5934 -0.1905 -0.9084
   67CHL1  H11A 6099   0.679   0.529   3.721  3.6188  0.1561  0.8163
   67CHL1  H11B 6100   0.805   0.407   3.678 -0.3584 -0.2911  1.1146
   67CHL1    C9 6101   0.623   0.388   3.559  0.3957  0.3961  0.2332
   67CHL1    H9 6102   0.672   0.291   3.536  1.2931 -0.2229  4.0032
   67CHL1   C10 6103   0.656   0.484   3.436 -0.0581  0.4000  0.1192
   67CHL1   C19 6104   0.652   0.630   3.490 -0.1940 -0.3157  0.3019
   67CHL1  H19A 6105   0.741   0.652   3.552  1.1847  2.4565 -2.3938
   67CHL1  H19B 6106   0.657   0.700   3.404  0.9155  0.6048  1.0882
   67CHL1  H19C 6107   0.562   0.645   3.553 -0.3033  0.1446  0.0423
   67CHL1    C1 6108   0.806   0.458   3.393 -0.6832 -0.7108  0.2079
   67CHL1   H1A 6109   0.879   0.493   3.469 -0.5885  1.1304 -0.6943
   67CHL1   H1B 6110   0.818   0.347   3.387 -1.5399 -0.7248 -2.5058
   67CHL1    C2 6111   0.844   0.524   3.256  0.3257 -0.6563 -0.1353
   67CHL1   H2A 6112   0.942   0.486   3.217  0.1442 -0.7832 -0.4718
   67CHL1   H2B 6113   0.857   0.633   3.273 -0.4386 -0.7725  1.3398
   67CHL1   C20 6114   0.444   0.285   4.090  0.2901 -0.5385  0.0607
   67CHL1   H20 6115   0.386   0.376   4.115 -0.1425 -1.0980  1.1370
   67CHL1   C21 6116   0.594   0.299   4.134 -0.7296  0.3790 -0.4472
   67CHL1  H21A 6117   0.640   0.389   4.088  1.8758 -0.6688 -0.0606
   67CHL1  H21B 6118   0.656   0.210   4.108  1.9452  1.6660  1.0876
   67CHL1  H21C 6119   0.611   0.323   4.241  0.9259 -1.4984 -0.2330
   67CHL1   C22 6120   0.371   0.170   4.165  0.2035  0.6975 -0.3521
   67CHL1  H22A 6121   0.264   0.183   4.140 -0.5063 -2.6050  0.5838
   67CHL1  H22B 6122   0.400   0.071   4.123 -0.7990  1.2574 -2.5317
   67CHL1   C23 6123   0.390   0.171   4.318  0.0878 -0.1622  0.7153
   67CHL1  H23A 6124   0.497   0.144   4.320  0.0351 -0.4682 -0.2302
   67CHL1  H23B 6125   0.377   0.276   4.352 -1.3487 -0.4361  1.0932
   67CHL1   C24 6126   0.298   0.083   4.399 -0.1063  0.4694 -0.4832
   67CHL1  H24A 6127   0.198   0.107   4.357  0.2293 -0.8827 -2.1773
   67CHL1  H24B 6128   0.312  -0.027   4.386 -0.8531  0.3552 -0.3099
   67CHL1   C25 6129   0.307   0.109   4.552  0.9014  0.2021  0.1999
   67CHL1   H25 6130   0.310   0.219   4.566  2.5483  0.2823 -0.4862
   67CHL1   C26 6131   0.181   0.053   4.626 -0.3246 -0.6660  0.2669
   67CHL1  H26A 6132   0.198   0.081   4.733  1.2411  2.9072 -0.7532
   67CHL1  H26B 6133   0.090   0.100   4.583 -0.4937 -0.7057  0.5778
   67CHL1  H26C 6134   0.167  -0.057   4.615 -1.8969 -0.5057  0.3535
   67CHL1   C27 6135   0.435   0.055   4.616 -0.5213 -1.0730  0.6924
   67CHL1  H27A 6136   0.437  -0.055   4.633 -2.0118 -0.9912  1.6019
   67CHL1  H27B 6137   0.517   0.083   4.546 -1.0547  1.4695  0.9664
   67CHL1  H27C 6138   0.444   0.106   4.714  0.8234  0.8666 -0.3683
   68CHL1    C3 6139   4.199   1.350   3.130  1.0097  0.1306  0.0445
   68CHL1    H3 6140   4.094   1.378   3.153  1.2133  1.8671 -0.9353
   68CHL1    O3 6141   4.195   1.300   3.000 -0.3583 -0.5985 -0.1387
   68CHL1   H3' 6142   4.279   1.254   2.996  0.0375 -0.0910  1.5170
   68CHL1    C4 6143   4.268   1.479   3.123 -1.0110 -0.5215 -0.4281
   68CHL1   H4A 6144   4.364   1.480   3.067 -1.4048 -1.6579 -1.1573
   68CHL1   H4B 6145   4.205   1.550   3.064  0.8495  0.2481 -1.6039
   68CHL1    C5 6146   4.287   1.536   3.264  1.2113 -0.2152  0.2284
   68CHL1    C6 6147   4.246   1.666   3.300  0.1378  0.0564 -0.6252
   68CHL1    H6 6148   4.203   1.728   3.219 -1.8406 -0.0684  0.2799
   68CHL1    C7 6149   4.260   1.719   3.443  0.8860 -0.4489 -0.0509
   68CHL1   H7A 6150   4.276   1.829   3.439 -0.5731 -0.2132 -0.1805
   68CHL1   H7B 6151   4.158   1.712   3.486  0.6164 -0.7020 -0.7178
   68CHL1    C8 6152   4.362   1.644   3.530 -0.1114  0.9653  0.0839
   68CHL1    H8 6153   4.466   1.659   3.495 -0.4485  1.3318 -0.7959
   68CHL1   C14 6154   4.351   1.684   3.677  0.7275 -0.2853 -0.4341
   68CHL1   H14 6155   4.243   1.666   3.696  0.9056 -1.6334 -0.5933
   68CHL1   C15 6156   4.374   1.835   3.709  0.1605  0.2306  0.3995
   68CHL1  H15A 6157   4.465   1.875   3.659 -1.2342  1.9453 -0.8818
   68CHL1  H15B 6158   4.300   1.910   3.675  0.2329  1.1859  2.2278
   68CHL1   C16 6159   4.389   1.836   3.865  0.4968 -0.7187  0.7788
   68CHL1  H16A 6160   4.485   1.886   3.887  1.2092 -0.2356 -2.8037
   68CHL1  H16B 6161   4.303   1.880   3.919 -1.4623 -1.2352 -1.6850
   68CHL1   C17 6162   4.403   1.680   3.899 -0.6649  0.2985 -0.3362
   68CHL1   H17 6163   4.303   1.647   3.933 -0.2110 -2.3227 -1.2694
   68CHL1   C13 6164   4.430   1.599   3.772 -0.5811 -0.9010  0.1460
   68CHL1   C18 6165   4.586   1.618   3.743 -0.1202  0.3710 -0.6249
   68CHL1  H18A 6166   4.610   1.616   3.635  0.8978  1.2789 -0.4391
   68CHL1  H18B 6167   4.620   1.712   3.793 -0.5335  0.3278 -0.2500
   68CHL1  H18C 6168   4.649   1.537   3.785  1.1537  1.8242  0.3966
   68CHL1   C12 6169   4.383   1.456   3.769 -0.1201 -0.8845 -0.0363
   68CHL1  H12A 6170   4.442   1.390   3.836  0.6883  0.1669  0.3239
   68CHL1  H12B 6171   4.280   1.438   3.804 -0.4078  0.8501  0.0915
   68CHL1   C11 6172   4.406   1.406   3.624 -0.7403  0.9069 -0.2423
   68CHL1  H11A 6173   4.516   1.400   3.614 -0.6805  1.0409  0.2924
   68CHL1  H11B 6174   4.371   1.301   3.618  0.5944  0.2720  1.9426
   68CHL1    C9 6175   4.338   1.491   3.512 -0.1989 -0.2716 -0.5358
   68CHL1    H9 6176   4.232   1.472   3.540  0.3414 -1.8516  0.5503
   68CHL1   C10 6177   4.353   1.443   3.368  0.5835 -0.2584  1.1237
   68CHL1   C19 6178   4.507   1.438   3.330 -0.1376 -0.6403 -0.1571
   68CHL1  H19A 6179   4.527   1.415   3.224 -0.2050  0.4115 -0.4132
   68CHL1  H19B 6180   4.554   1.536   3.355  1.1683 -1.1980 -0.3464
   68CHL1  H19C 6181   4.559   1.359   3.389  1.6398  0.2301 -0.5037
   68CHL1    C1 6182   4.282   1.305   3.356  0.2695 -0.1471 -0.3894
   68CHL1   H1A 6183   4.338   1.234   3.421 -0.5387  1.7148  2.5401
   68CHL1   H1B 6184   4.182   1.320   3.402 -0.0885 -2.8680 -0.0878
   68CHL1    C2 6185   4.270   1.254   3.222 -0.0042  0.1663  0.3651
   68CHL1   H2A 6186   4.223   1.153   3.221  3.3037 -1.6269  3.3330
   68CHL1   H2B 6187   4.376   1.246   3.189 -0.6198 -1.2177 -1.5038
   68CHL1   C20 6188   4.489   1.651   4.031  0.0437 -0.5256 -0.1847
   68CHL1   H20 6189   4.593   1.646   3.991 -0.3737 -0.6457 -1.2948
   68CHL1   C21 6190   4.469   1.504   4.083  0.3953 -0.0172  0.2307
   68CHL1  H21A 6191   4.363   1.473   4.094  0.5210 -1.5548 -2.3405
   68CHL1  H21B 6192   4.535   1.482   4.170  0.2189 -3.3961 -0.3759
   68CHL1  H21C 6193   4.516   1.436   4.010  2.3277  1.9248 -0.4327
   68CHL1   C22 6194   4.479   1.753   4.138 -0.6884  0.0570 -0.1276
   68CHL1  H22A 6195   4.562   1.740   4.211 -0.6180 -1.0519 -0.3737
   68CHL1  H22B 6196   4.491   1.855   4.097 -0.9104  0.5786  1.0750
   68CHL1   C23 6197   4.351   1.745   4.214  0.0555 -0.0082 -0.4603
   68CHL1  H23A 6198   4.264   1.738   4.146  0.3390  1.4215 -1.0213
   68CHL1  H23B 6199   4.356   1.640   4.249 -0.7718 -0.1358 -0.7150
   68CHL1   C24 6200   4.359   1.849   4.329  0.4699 -0.6642  0.1391
   68CHL1  H24A 6201   4.449   1.838   4.393 -0.2212 -2.8379  0.8251
   68CHL1  H24B 6202   4.361   1.952   4.286  0.3107 -1.2233 -1.2811
   68CHL1   C25 6203   4.250   1.833   4.437  0.3616  0.6620  0.0899
   68CHL1   H25 6204   4.159   1.802   4.381  0.0339 -0.4874  1.2016
   68CHL1   C26 6205   4.281   1.706   4.525  0.1932 -1.2530  0.2293
   68CHL1  H26A 6206   4.264   1.620   4.456 -1.7560  0.7220 -1.9650
   68CHL1  H26B 6207   4.385   1.698   4.562  0.0611 -1.4720  0.5589
   68CHL1  H26C 6208   4.210   1.691   4.609 -1.3159 -0.5741 -0.8639
   68CHL1   C27 6209   4.237   1.963   4.516  0.3700 -0.6199 -0.4297
   68CHL1  H27A 6210   4.190   1.935   4.613  0.5125 -0.6180 -0.3607
   68CHL1  H27B 6211   4.333   2.000   4.558 -1.0114  0.3633  2.0914
   68CHL1  H27C 6212   4.191   2.052   4.466  1.6890  0.8946  0.9449
   69CHL1    C3 6213   1.751   6.732   2.945  0.3036  0.3388  0.2330
   69CHL1    H3 6214   1.753   6.843   2.948  0.5677  0.3185  3.2673
   69CHL1    O3 6215   1.772   6.673   2.815 -0.1349  0.3759 -0.6920
   69CHL1   H3' 6216   1.758   6.580   2.832  2.3194 -0.0534 -0.7247
   69CHL1    C4 6217   1.866   6.682   3.037 -0.6113 -0.5509 -0.0620
   69CHL1   H4A 6218   1.846   6.573   3.041  0.0585 -0.7120 -0.8680
   69CHL1   H4B 6219   1.966   6.701   2.991  0.1768 -2.5662  0.7232
   69CHL1    C5 6220   1.849   6.731   3.176 -0.2334  0.8101 -0.8538
   69CHL1    C6 6221   1.937   6.805   3.236  0.4252  0.4877 -0.0551
   69CHL1    H6 6222   2.037   6.816   3.192  2.0438 -1.5009  2.7911
   69CHL1    C7 6223   1.924   6.846   3.380 -0.0364  0.3841 -0.5701
   69CHL1   H7A 6224   2.018   6.821   3.434 -0.5893 -1.6247 -0.4231
   69CHL1   H7B 6225   1.905   6.955   3.385  0.1003  0.4757 -1.6767
   69CHL1    C8 6226   1.806   6.780   3.460  1.5998 -1.0677  0.0171
   69CHL1    H8 6227   1.845   6.677   3.477  1.2930 -0.9627  1.5296
   69CHL1   C14 6228   1.776   6.845   3.595  0.3347 -0.2803  0.4361
   69CHL1   H14 6229   1.761   6.953   3.572 -0.0620  0.1431  2.5116
   69CHL1   C15 6230   1.881   6.832   3.699  0.0844  0.4601 -0.9400
   69CHL1  H15A 6231   1.927   6.732   3.692  0.3570  0.3608  1.4092
   69CHL1  H15B 6232   1.958   6.912   3.692  0.5916 -0.1002 -2.1048
   69CHL1   C16 6233   1.808   6.844   3.837 -0.6017 -0.3100  0.2951
   69CHL1  H16A 6234   1.811   6.745   3.888  0.1748 -0.7816 -0.6269
   69CHL1  H16B 6235   1.853   6.915   3.909 -1.1131 -1.5301  1.8806
   69CHL1   C17 6236   1.666   6.872   3.802 -0.5166 -0.0438 -0.6306
   69CHL1   H17 6237   1.657   6.978   3.772 -1.2437  0.2566  0.5983
   69CHL1   C13 6238   1.648   6.800   3.665  0.2309  0.4106 -0.2462
   69CHL1   C18 6239   1.647   6.644   3.679  0.2429 -0.9994 -0.0999
   69CHL1  H18A 6240   1.677   6.593   3.585 -2.6004  0.4002 -1.8955
   69CHL1  H18B 6241   1.707   6.620   3.769  0.2801  0.2880  0.2455
   69CHL1  H18C 6242   1.543   6.613   3.701  0.5720 -0.5725  2.3936
   69CHL1   C12 6243   1.527   6.839   3.582  0.6115  0.2117  0.2950
   69CHL1  H12A 6244   1.433   6.799   3.625  1.0177 -0.5478  0.5079
   69CHL1  H12B 6245   1.514   6.947   3.562 -2.7198 -0.2707 -0.9047
   69CHL1   C11 6246   1.542   6.768   3.441  0.0410  0.5801 -0.3128
   69CHL1  H11A 6247   1.514   6.661   3.448 -1.9758  1.1251  0.6067
   69CHL1  H11B 6248   1.466   6.812   3.372  0.9569  1.7764 -0.5949
   69CHL1    C9 6249   1.683   6.792   3.369 -0.1358 -0.3186 -0.1366
   69CHL1    H9 6250   1.683   6.900   3.343 -1.2840 -0.2207  0.2266
   69CHL1   C10 6251   1.710   6.707   3.239 -0.3130 -0.0936  0.2393
   69CHL1   C19 6252   1.686   6.561   3.278  0.2100 -0.4090  0.4853
   69CHL1  H19A 6253   1.576   6.546   3.278 -0.0240  1.0708  1.2640
   69CHL1  H19B 6254   1.735   6.483   3.217 -0.4126 -1.1695  0.9401
   69CHL1  H19C 6255   1.711   6.547   3.386 -0.8375  0.9487  0.9401
   69CHL1    C1 6256   1.598   6.759   3.143 -0.3030 -1.0400 -0.8161
   69CHL1   H1A 6257   1.503   6.727   3.191  0.4080  0.4421  1.7553
   69CHL1   H1B 6258   1.606   6.869   3.130 -1.5090 -1.0733 -2.0207
   69CHL1    C2 6259   1.611   6.692   3.000  0.2667  0.4718 -0.5915
   69CHL1   H2A 6260   1.534   6.746   2.940 -0.8871  0.2030  0.6140
   69CHL1   H2B 6261   1.601   6.581   2.998 -0.3958  0.3132  3.4664
   69CHL1   C20 6262   1.549   6.863   3.905  0.8460 -0.4841 -0.1069
   69CHL1   H20 6263   1.505   6.766   3.873  2.5078 -0.5927 -2.3287
   69CHL1   C21 6264   1.446   6.980   3.891 -0.3739  0.2381  0.0405
   69CHL1  H21A 6265   1.490   7.079   3.914  0.4758  0.2022 -1.3345
   69CHL1  H21B 6266   1.354   6.959   3.950  0.3650 -0.6352  0.9204
   69CHL1  H21C 6267   1.414   6.997   3.785 -2.1910 -1.2444  0.2833
   69CHL1   C22 6268   1.595   6.838   4.050  0.0709 -0.0355 -0.6791
   69CHL1  H22A 6269   1.636   6.735   4.047  0.8483  0.2931 -2.6821
   69CHL1  H22B 6270   1.670   6.918   4.069 -1.3359  2.4614 -4.3379
   69CHL1   C23 6271   1.485   6.844   4.157  0.6679 -0.0675 -0.1223
   69CHL1  H23A 6272   1.453   6.950   4.171  2.2224  0.6515 -1.6147
   69CHL1  H23B 6273   1.400   6.784   4.117 -0.4220  1.1103  0.3578
   69CHL1   C24 6274   1.521   6.794   4.297 -0.4554  0.9778  0.2777
   69CHL1  H24A 6275   1.631   6.794   4.306 -0.2912 -4.1550  1.1040
   69CHL1  H24B 6276   1.473   6.852   4.379 -1.7501 -1.0674  1.0292
   69CHL1   C25 6277   1.499   6.643   4.340  0.0901 -0.4760  0.1188
   69CHL1   H25 6278   1.391   6.622   4.324  0.3593 -1.8088 -0.0885
   69CHL1   C26 6279   1.582   6.543   4.257 -0.2779  0.8169  0.5609
   69CHL1  H26A 6280   1.544   6.443   4.288  0.3859  1.1479  2.6183
   69CHL1  H26B 6281   1.582   6.555   4.147  0.9222  0.0984  0.4621
   69CHL1  H26C 6282   1.689   6.542   4.284 -0.0825 -1.4060 -0.0724
   69CHL1   C27 6283   1.526   6.627   4.490 -0.1724 -0.0224  0.1163
   69CHL1  H27A 6284   1.632   6.648   4.514  0.1097  1.1468 -1.9712
   69CHL1  H27B 6285   1.463   6.689   4.557 -0.2676 -0.2038  0.1971
   69CHL1  H27C 6286   1.506   6.519   4.510 -1.0677 -0.2696 -1.9342
   70CHL1    C3 6287   4.485   0.791   3.077 -0.1808 -0.5665 -0.4264
   70CHL1    H3 6288   4.456   0.693   3.121  0.7564 -0.2538  0.9474
   70CHL1    O3 6289   4.458   0.795   2.938  0.1927 -0.2542  0.1352
   70CHL1   H3' 6290   4.520   0.732   2.901  0.4453  0.7236 -1.1844
   70CHL1    C4 6291   4.400   0.905   3.140 -0.0758 -0.0109  0.4687
   70CHL1   H4A 6292   4.424   0.999   3.086  0.4870 -1.0429 -1.1262
   70CHL1   H4B 6293   4.291   0.888   3.127 -0.2107 -0.9365  2.4421
   70CHL1    C5 6294   4.432   0.925   3.283 -0.3384 -0.0415 -0.1462
   70CHL1    C6 6295   4.328   0.924   3.368 -0.5203 -0.1267 -1.0531
   70CHL1    H6 6296   4.224   0.899   3.340 -0.8538  0.3073 -0.2259
   70CHL1    C7 6297   4.338   0.945   3.520 -0.2440 -0.2494  0.1919
   70CHL1   H7A 6298   4.266   1.022   3.555 -0.2877 -0.6520  1.0153
   70CHL1   H7B 6299   4.303   0.852   3.569 -1.2739  0.0516  0.0533
   70CHL1    C8 6300   4.482   0.982   3.558  0.5542  0.0824  0.6946
   70CHL1    H8 6301   4.482   1.092   3.542  1.6088  0.4121  2.5867
   70CHL1   C14 6302   4.503   0.954   3.704  0.2011 -0.7458  0.3572
   70CHL1   H14 6303   4.503   0.843   3.710  0.7371 -0.9240 -2.0109
   70CHL1   C15 6304   4.390   0.998   3.801 -0.3703  0.2965 -0.3300
   70CHL1  H15A 6305   4.369   1.104   3.776 -0.7224  0.7280  1.6768
   70CHL1  H15B 6306   4.299   0.937   3.784 -0.3246  0.0234  0.3919
   70CHL1   C16 6307   4.461   0.986   3.934 -0.3610 -0.2749  0.4015
   70CHL1  H16A 6308   4.433   1.087   3.972 -1.8892 -0.1395 -0.9715
   70CHL1  H16B 6309   4.412   0.911   3.999 -0.2533  0.6109  1.5332
   70CHL1   C17 6310   4.612   0.964   3.911  0.0293  0.2451  0.7577
   70CHL1   H17 6311   4.620   0.853   3.915 -0.5446  0.2298  3.6001
   70CHL1   C13 6312   4.636   1.001   3.764  0.1193  0.4839 -0.2037
   70CHL1   C18 6313   4.644   1.151   3.752  0.0106 -0.5226  0.1666
   70CHL1  H18A 6314   4.560   1.189   3.813 -1.0463 -3.3254  0.6047
   70CHL1  H18B 6315   4.732   1.203   3.793  0.0740 -0.3462 -0.1892
   70CHL1  H18C 6316   4.630   1.190   3.649  0.1211 -1.6955 -0.3130
   70CHL1   C12 6317   4.749   0.929   3.689  0.3350 -0.1492  0.0431
   70CHL1  H12A 6318   4.847   0.979   3.705  0.5249 -0.8146  0.9816
   70CHL1  H12B 6319   4.755   0.821   3.714 -0.1104 -0.1381  0.1998
   70CHL1   C11 6320   4.735   0.932   3.534 -0.0018 -0.6392  0.5433
   70CHL1  H11A 6321   4.767   1.031   3.496 -0.0415 -1.0660 -0.6474
   70CHL1  H11B 6322   4.801   0.855   3.491 -2.5841 -3.0333  0.5573
   70CHL1    C9 6323   4.587   0.913   3.481 -0.1182  0.3927  0.0771
   70CHL1    H9 6324   4.567   0.805   3.499  0.7711  0.4672  1.6901
   70CHL1   C10 6325   4.579   0.934   3.328  0.6181  0.0589 -0.4913
   70CHL1   C19 6326   4.636   1.063   3.279  0.0453 -0.4539  0.5317
   70CHL1  H19A 6327   4.610   1.088   3.174 -1.0656  0.7063  1.0473
   70CHL1  H19B 6328   4.598   1.151   3.337 -1.0869  0.8013 -1.9476
   70CHL1  H19C 6329   4.746   1.052   3.272  0.0888  0.2670 -0.0799
   70CHL1    C1 6330   4.658   0.814   3.263 -0.0223  0.2859  0.6156
   70CHL1   H1A 6331   4.769   0.821   3.263 -0.0168  0.1812  1.2238
   70CHL1   H1B 6332   4.626   0.721   3.313  0.5780 -0.2073  0.0963
   70CHL1    C2 6333   4.634   0.797   3.105  0.6416 -0.1575  1.0458
   70CHL1   H2A 6334   4.690   0.707   3.074  0.2763 -0.2053  0.5089
   70CHL1   H2B 6335   4.684   0.880   3.050 -2.6564  0.7058 -0.8985
   70CHL1   C20 6336   4.699   1.019   4.029 -0.9052  0.1896  0.0763
   70CHL1   H20 6337   4.680   1.128   4.041 -0.6556  0.3114 -0.5886
   70CHL1   C21 6338   4.849   1.013   3.994 -0.0653  0.4016 -0.0379
   70CHL1  H21A 6339   4.914   1.072   4.062 -1.4170  0.7516  1.0132
   70CHL1  H21B 6340   4.879   1.054   3.896 -0.7223  0.8983 -0.0405
   70CHL1  H21C 6341   4.876   0.905   4.003 -0.3172  0.4868  2.8614
   70CHL1   C22 6342   4.663   0.957   4.175  0.3086  0.3384 -0.0212
   70CHL1  H22A 6343   4.559   0.918   4.175  1.0863 -1.8743 -0.3990
   70CHL1  H22B 6344   4.730   0.869   4.185  1.5675  1.2918  0.1448
   70CHL1   C23 6345   4.686   1.063   4.292  0.7330 -0.1126  0.2578
   70CHL1  H23A 6346   4.670   1.005   4.386 -0.5646  1.5077  1.0874
   70CHL1  H23B 6347   4.793   1.091   4.284  1.2612 -2.1857 -0.6851
   70CHL1   C24 6348   4.602   1.186   4.293 -0.0128 -0.0037  0.0090
   70CHL1  H24A 6349   4.648   1.275   4.246 -2.4687  1.4473  0.2283
   70CHL1  H24B 6350   4.508   1.169   4.236 -2.4016  1.8050  3.1132
   70CHL1   C25 6351   4.560   1.235   4.433 -0.1246  0.0620 -0.3747
   70CHL1   H25 6352   4.650   1.230   4.498 -0.4945 -1.6213  0.0780
   70CHL1   C26 6353   4.513   1.375   4.429  0.8398 -0.2533 -0.5240
   70CHL1  H26A 6354   4.595   1.443   4.398 -1.4729  1.5759 -3.2070
   70CHL1  H26B 6355   4.441   1.385   4.344  1.7887 -0.3815 -1.3649
   70CHL1  H26C 6356   4.461   1.409   4.521  0.0309 -1.9697 -0.3072
   70CHL1   C27 6357   4.461   1.140   4.502 -0.5183 -0.7501  0.3649
   70CHL1  H27A 6358   4.492   1.034   4.496  0.8842 -0.4566  1.8275
   70CHL1  H27B 6359   4.444   1.184   4.602 -0.4925  2.5562 -0.9666
   70CHL1  H27C 6360   4.359   1.147   4.458 -0.0873  3.8250 -0.4293
   71CHL1    C3 6361   1.744   1.357   3.255 -0.7364 -0.3562  0.5401
   71CHL1    H3 6362   1.645   1.325   3.294 -0.6420 -1.9550 -0.4540
   71CHL1    O3 6363   1.756   1.321   3.118 -0.3518  0.2902 -0.3261
   71CHL1   H3' 6364   1.850   1.325   3.101 -0.2225  2.3899  0.6184
   71CHL1    C4 6365   1.773   1.506   3.280  0.8276 -0.5616 -0.5922
   71CHL1   H4A 6366   1.877   1.531   3.251  0.6333  0.5533 -0.3593
   71CHL1   H4B 6367   1.712   1.563   3.207  0.2251 -0.4723 -0.0353
   71CHL1    C5 6368   1.744   1.535   3.425  0.4396 -0.5089 -0.7129
   71CHL1    C6 6369   1.675   1.645   3.451 -0.4025 -0.3789 -0.1952
   71CHL1    H6 6370   1.630   1.712   3.375 -0.2666 -1.6525 -1.4475
   71CHL1    C7 6371   1.650   1.692   3.589  0.3246  0.2372  0.3924
   71CHL1   H7A 6372   1.670   1.798   3.613  0.8506  0.0910  0.6187
   71CHL1   H7B 6373   1.541   1.687   3.610  0.1832 -0.6309 -0.4485
   71CHL1    C8 6374   1.720   1.615   3.703 -0.2330  0.0179  0.2053
   71CHL1    H8 6375   1.811   1.677   3.719  0.1559 -0.5922  0.3939
   71CHL1   C14 6376   1.637   1.613   3.836 -0.1174  0.0143  1.3050
   71CHL1   H14 6377   1.544   1.559   3.811 -0.5390  1.6235 -0.9982
   71CHL1   C15 6378   1.576   1.744   3.880 -0.4633  0.0685 -0.3847
   71CHL1  H15A 6379   1.652   1.823   3.865 -0.9502  1.2041  2.4110
   71CHL1  H15B 6380   1.480   1.768   3.829 -0.9556  1.2648  1.0326
   71CHL1   C16 6381   1.547   1.718   4.025 -0.4567  0.0377  0.2127
   71CHL1  H16A 6382   1.593   1.793   4.093 -2.4810  2.1995 -0.6482
   71CHL1  H16B 6383   1.438   1.704   4.044 -0.1832 -0.4853  1.4543
   71CHL1   C17 6384   1.604   1.576   4.068  0.1490 -0.5006 -0.5082
   71CHL1   H17 6385   1.521   1.504   4.052 -2.1192  2.0483 -0.8217
   71CHL1   C13 6386   1.710   1.550   3.959 -0.1168 -0.1305  0.3380
   71CHL1   C18 6387   1.833   1.632   3.993  0.1522 -0.7313  0.0957
   71CHL1  H18A 6388   1.909   1.638   3.912  0.3578 -2.9539  0.0627
   71CHL1  H18B 6389   1.813   1.739   4.015 -0.5113 -0.8078 -0.1040
   71CHL1  H18C 6390   1.889   1.582   4.075  1.6169  0.4837 -0.0986
   71CHL1   C12 6391   1.751   1.403   3.923  0.0269  0.0034  0.1755
   71CHL1  H12A 6392   1.808   1.357   4.007  0.5113 -1.7946 -1.0707
   71CHL1  H12B 6393   1.658   1.345   3.902  0.8135 -1.3351  0.2686
   71CHL1   C11 6394   1.831   1.405   3.787  0.5767  0.3831 -0.7970
   71CHL1  H11A 6395   1.927   1.458   3.805  0.1065  0.4869  1.9113
   71CHL1  H11B 6396   1.855   1.297   3.777  1.3206  0.1301  2.4658
   71CHL1    C9 6397   1.759   1.471   3.665 -0.5499 -0.1024 -0.2213
   71CHL1    H9 6398   1.661   1.420   3.661 -1.6863  1.4729  3.2044
   71CHL1   C10 6399   1.825   1.459   3.531 -0.5449  0.1132  0.5075
   71CHL1   C19 6400   1.969   1.494   3.535 -0.5010  0.0362 -0.8677
   71CHL1  H19A 6401   2.022   1.495   3.438 -1.6834 -0.8080 -1.5515
   71CHL1  H19B 6402   1.989   1.594   3.579  2.1433 -0.0263 -1.7862
   71CHL1  H19C 6403   2.024   1.418   3.595  3.0889  2.0447 -1.3338
   71CHL1    C1 6404   1.822   1.306   3.499 -0.3420 -0.0819 -0.2801
   71CHL1   H1A 6405   1.891   1.244   3.559  0.1272  0.1514 -0.5706
   71CHL1   H1B 6406   1.718   1.279   3.526 -0.3635  0.5340  0.2775
   71CHL1    C2 6407   1.850   1.270   3.342  0.4700 -0.5948  0.4358
   71CHL1   H2A 6408   1.825   1.163   3.328 -0.7598 -0.0602 -2.0290
   71CHL1   H2B 6409   1.951   1.299   3.306 -0.0080  1.4658  0.6044
   71CHL1   C20 6410   1.638   1.569   4.226 -0.3618 -0.0953 -0.3119
   71CHL1   H20 6411   1.710   1.651   4.243  0.0132 -0.1406 -1.5907
   71CHL1   C21 6412   1.689   1.432   4.262 -0.2432 -0.2213 -0.3252
   71CHL1  H21A 6413   1.626   1.355   4.212 -0.5776 -1.2821  1.6507
   71CHL1  H21B 6414   1.677   1.411   4.370  0.0209 -1.1252 -0.4599
   71CHL1  H21C 6415   1.798   1.429   4.240 -0.3551  1.0207 -1.1438
   71CHL1   C22 6416   1.516   1.605   4.313 -0.4964  0.1960 -0.9114
   71CHL1  H22A 6417   1.462   1.687   4.260  0.7960  0.5031 -1.8026
   71CHL1  H22B 6418   1.441   1.523   4.316  0.3064 -0.5310  0.8170
   71CHL1   C23 6419   1.539   1.643   4.458  0.2469 -0.2067 -0.2937
   71CHL1  H23A 6420   1.458   1.713   4.486  0.5168 -0.0176  0.0144
   71CHL1  H23B 6421   1.528   1.550   4.518  0.4649 -0.4437 -0.6146
   71CHL1   C24 6422   1.680   1.702   4.491 -0.6369  0.2108 -0.2285
   71CHL1  H24A 6423   1.749   1.616   4.481 -1.4472 -0.5852  0.7310
   71CHL1  H24B 6424   1.714   1.777   4.417 -2.2235  0.9135 -0.2892
   71CHL1   C25 6425   1.689   1.776   4.629 -0.9882  0.4075 -0.1647
   71CHL1   H25 6426   1.615   1.860   4.626 -0.2950  1.3212  3.4692
   71CHL1   C26 6427   1.671   1.680   4.751 -0.1911 -0.6216  0.0408
   71CHL1  H26A 6428   1.748   1.600   4.747 -0.8524 -1.2460 -0.4279
   71CHL1  H26B 6429   1.672   1.733   4.849 -0.9462  0.3353 -0.4555
   71CHL1  H26C 6430   1.568   1.638   4.746 -0.9966  1.1892  0.6203
   71CHL1   C27 6431   1.817   1.854   4.647  0.5272  0.2322  0.3145
   71CHL1  H27A 6432   1.834   1.926   4.563  1.9598  1.6131  1.7249
   71CHL1  H27B 6433   1.801   1.911   4.740 -0.2212 -0.7360  0.8037
   71CHL1  H27C 6434   1.902   1.783   4.649 -0.2926 -0.8712 -1.2376
   72CHL1    C3 6435   0.336   4.990   3.128 -0.8102 -0.1687 -0.8238
   72CHL1    H3 6436   0.416   5.059   3.164 -0.7273  0.2560 -1.7869
   72CHL1    O3 6437   0.337   5.013   2.986  0.4488 -0.6404  0.9453
   72CHL1   H3' 6438   0.250   4.980   2.961  0.9269 -0.6124 -0.8968
   72CHL1    C4 6439   0.366   4.846   3.164 -0.0936  0.7034 -0.3779
   72CHL1   H4A 6440   0.299   4.774   3.112 -0.1028  0.9236 -0.6740
   72CHL1   H4B 6441   0.467   4.815   3.131 -0.0975  0.9581 -0.6359
   72CHL1    C5 6442   0.363   4.840   3.316  0.0432 -0.4564  0.1611
   72CHL1    C6 6443   0.470   4.804   3.392 -0.1646 -0.1120  0.6001
   72CHL1    H6 6444   0.567   4.784   3.343  0.4141  1.9575  0.8018
   72CHL1    C7 6445   0.472   4.798   3.539 -0.7932 -0.4816 -0.2009
   72CHL1   H7A 6446   0.518   4.701   3.566 -2.5455 -0.6076  2.7301
   72CHL1   H7B 6447   0.528   4.883   3.582 -0.8220 -1.5287  2.0285
   72CHL1    C8 6448   0.331   4.793   3.600  0.1331  0.2463 -0.7472
   72CHL1    H8 6449   0.288   4.692   3.581  1.3999 -0.6580  0.8532
   72CHL1   C14 6450   0.335   4.816   3.748  0.2251  0.8954  0.2252
   72CHL1   H14 6451   0.359   4.922   3.770  0.1043  1.2112 -1.1037
   72CHL1   C15 6452   0.428   4.722   3.830  0.8917 -0.6454 -1.0292
   72CHL1  H15A 6453   0.439   4.617   3.794  0.8281 -0.6995 -0.8898
   72CHL1  H15B 6454   0.528   4.769   3.820  0.7812 -0.4159 -1.0670
   72CHL1   C16 6455   0.367   4.722   3.972 -0.4224 -0.8407 -0.3382
   72CHL1  H16A 6456   0.363   4.615   4.002 -0.1553 -0.6123  0.5613
   72CHL1  H16B 6457   0.434   4.767   4.048  1.4495 -0.4793 -2.1293
   72CHL1   C17 6458   0.230   4.793   3.965  0.6169 -0.8537 -0.3019
   72CHL1   H17 6459   0.251   4.898   3.993  0.8298 -1.1289  0.5861
   72CHL1   C13 6460   0.195   4.803   3.811 -0.4043 -0.1389 -0.2269
   72CHL1   C18 6461   0.130   4.667   3.772  0.0970  0.2500 -0.5518
   72CHL1  H18A 6462   0.034   4.657   3.827 -0.9350 -0.9134 -2.4397
   72CHL1  H18B 6463   0.099   4.658   3.666  1.2897 -1.1768 -0.8156
   72CHL1  H18C 6464   0.189   4.575   3.790 -0.9112 -1.0729 -3.4141
   72CHL1   C12 6465   0.120   4.930   3.764 -0.3272  0.7546  0.2274
   72CHL1  H12A 6466   0.016   4.926   3.803 -0.5824 -0.8144 -0.5519
   72CHL1  H12B 6467   0.176   5.022   3.791  3.5722 -1.2799 -0.3095
   72CHL1   C11 6468   0.115   4.928   3.606  0.4629 -0.7268  0.0418
   72CHL1  H11A 6469   0.042   4.848   3.578 -0.6211  0.4899 -0.7638
   72CHL1  H11B 6470   0.068   5.024   3.574 -1.4654 -1.3039  0.9852
   72CHL1    C9 6471   0.246   4.905   3.530  0.0194  0.1464 -0.2062
   72CHL1    H9 6472   0.305   4.996   3.550  0.6742 -0.2546 -0.2672
   72CHL1   C10 6473   0.230   4.884   3.381 -0.3790 -0.2341 -0.7216
   72CHL1   C19 6474   0.117   4.784   3.357 -0.0663 -0.0831 -0.2146
   72CHL1  H19A 6475   0.123   4.749   3.251  0.4789 -0.1428 -0.1647
   72CHL1  H19B 6476   0.143   4.702   3.427  1.1814 -0.9447 -1.6131
   72CHL1  H19C 6477   0.021   4.838   3.376  0.0107 -0.5726  1.7165
   72CHL1    C1 6478   0.182   5.017   3.327  0.4164  0.1748  0.6200
   72CHL1   H1A 6479   0.074   5.024   3.354  0.0874 -1.1927 -0.2870
   72CHL1   H1B 6480   0.243   5.095   3.377  2.2466 -1.2763  0.7372
   72CHL1    C2 6481   0.201   5.038   3.177 -0.0012  0.2023 -0.3492
   72CHL1   H2A 6482   0.178   5.140   3.140 -0.8160  0.0489 -0.2883
   72CHL1   H2B 6483   0.123   4.967   3.141 -0.8989  0.3086  1.2967
   72CHL1   C20 6484   0.129   4.749   4.063 -0.0071  0.5638 -0.1655
   72CHL1   H20 6485   0.097   4.646   4.037  0.4072  0.9948 -2.6164
   72CHL1   C21 6486  -0.006   4.829   4.057 -0.5984 -0.3198  0.0717
   72CHL1  H21A 6487  -0.088   4.779   4.112 -1.3808 -2.0980 -2.5432
   72CHL1  H21B 6488  -0.042   4.838   3.952  0.0774 -1.9158 -0.3227
   72CHL1  H21C 6489   0.017   4.929   4.101  0.8521 -0.0087 -1.2732
   72CHL1   C22 6490   0.184   4.743   4.212 -0.4077  0.2099  0.0206
   72CHL1  H22A 6491   0.263   4.666   4.202 -0.6135  0.0872 -0.7105
   72CHL1  H22B 6492   0.232   4.838   4.242 -0.5532  0.7989 -1.5300
   72CHL1   C23 6493   0.088   4.673   4.313  0.0131 -0.5611 -0.3868
   72CHL1  H23A 6494  -0.000   4.740   4.324  0.9509  0.7970 -0.8264
   72CHL1  H23B 6495   0.050   4.585   4.258 -0.3326 -0.1491 -0.8143
   72CHL1   C24 6496   0.153   4.655   4.451  0.4858 -0.1733 -0.2680
   72CHL1  H24A 6497   0.259   4.627   4.433  1.2056  1.6659  0.7956
   72CHL1  H24B 6498   0.162   4.751   4.506  0.1452 -0.3641  0.1291
   72CHL1   C25 6499   0.086   4.554   4.543  0.0703  0.0321  0.2697
   72CHL1   H25 6500   0.085   4.463   4.479  1.3072  1.1588 -1.4097
   72CHL1   C26 6501   0.177   4.524   4.663  0.1446 -0.2609  0.0324
   72CHL1  H26A 6502   0.166   4.438   4.732  1.1594  1.3985  2.3733
   72CHL1  H26B 6503   0.284   4.523   4.632 -0.1076  2.0215 -1.1641
   72CHL1  H26C 6504   0.178   4.609   4.735  0.4020 -2.0147  2.1966
   72CHL1   C27 6505  -0.053   4.601   4.581  0.1832  0.3934 -0.0571
   72CHL1  H27A 6506  -0.118   4.603   4.491  1.1072 -1.3525 -0.8238
   72CHL1  H27B 6507  -0.101   4.528   4.651 -1.5846  2.3874  0.9386
   72CHL1  H27C 6508  -0.054   4.703   4.624 -0.4728  1.9281 -3.4108
   73CHL1    C3 6509   3.441   1.097   3.367 -0.4491  0.3886 -0.0987
   73CHL1    H3 6510   3.524   1.026   3.352 -0.8566  0.2343 -1.8275
   73CHL1    O3 6511   3.410   1.159   3.246 -0.8018  0.1528 -0.0091
   73CHL1   H3' 6512   3.357   1.234   3.274 -0.4283  0.9471 -1.3595
   73CHL1    C4 6513   3.325   1.019   3.434 -0.3054  0.0190  0.0078
   73CHL1   H4A 6514   3.232   1.080   3.437  0.9631  2.1375 -1.5289
   73CHL1   H4B 6515   3.298   0.929   3.374 -0.7404 -0.6919  1.2309
   73CHL1    C5 6516   3.362   0.975   3.576 -0.0780 -0.5003 -0.2010
   73CHL1    C6 6517   3.351   0.847   3.621 -0.3102 -0.1294 -0.1390
   73CHL1    H6 6518   3.308   0.774   3.551 -1.6369  1.9048 -1.5687
   73CHL1    C7 6519   3.380   0.806   3.768  0.1419 -0.5569 -0.4521
   73CHL1   H7A 6520   3.305   0.734   3.806  0.2587  0.3065  1.5457
   73CHL1   H7B 6521   3.481   0.760   3.779  0.1908 -0.3036  0.2131
   73CHL1    C8 6522   3.381   0.943   3.863 -0.6364 -0.0354 -0.0413
   73CHL1    H8 6523   3.278   0.985   3.859 -0.0860  1.2439 -1.5330
   73CHL1   C14 6524   3.438   0.908   4.001  0.1966 -0.1432 -0.1533
   73CHL1   H14 6525   3.539   0.864   3.981  0.7267 -0.1572  2.2470
   73CHL1   C15 6526   3.382   0.786   4.075 -1.2777 -0.2927  0.2374
   73CHL1  H15A 6527   3.272   0.776   4.080 -1.2509 -0.8335 -0.1223
   73CHL1  H15B 6528   3.434   0.693   4.042  1.5305  1.1773  0.2111
   73CHL1   C16 6529   3.423   0.806   4.229  0.5952  0.1482 -0.5785
   73CHL1  H16A 6530   3.326   0.801   4.281  0.4666  0.7413 -0.7536
   73CHL1  H16B 6531   3.498   0.736   4.271  0.0727 -0.0914 -0.0439
   73CHL1   C17 6532   3.492   0.951   4.228  0.6513  0.6844  0.0384
   73CHL1   H17 6533   3.596   0.924   4.197 -0.2213 -0.7736 -1.8453
   73CHL1   C13 6534   3.451   1.024   4.099 -0.2491 -0.4597 -0.0485
   73CHL1   C18 6535   3.314   1.087   4.126  0.7220 -0.1995 -0.8886
   73CHL1  H18A 6536   3.247   1.004   4.155  1.8405 -0.6545  0.5753
   73CHL1  H18B 6537   3.325   1.148   4.218  0.9133 -2.1102  0.4214
   73CHL1  H18C 6538   3.274   1.143   4.039 -2.1708 -0.2899  0.2751
   73CHL1   C12 6539   3.548   1.127   4.047 -0.2380 -0.2325 -0.5983
   73CHL1  H12A 6540   3.553   1.213   4.117  0.8358 -0.2708 -0.6042
   73CHL1  H12B 6541   3.651   1.085   4.040 -0.9658 -2.2166 -0.1431
   73CHL1   C11 6542   3.507   1.173   3.906  0.4366  0.0399 -0.0884
   73CHL1  H11A 6543   3.409   1.226   3.908 -0.3490 -1.3718  0.1786
   73CHL1  H11B 6544   3.575   1.246   3.859 -0.0820 -1.0591 -2.7155
   73CHL1    C9 6545   3.477   1.050   3.808  0.6373  0.0516 -0.3839
   73CHL1    H9 6546   3.577   1.007   3.785  1.1980  2.0261 -1.8474
   73CHL1   C10 6547   3.416   1.097   3.668  0.0237 -0.0929 -0.0821
   73CHL1   C19 6548   3.286   1.186   3.681  0.0019 -0.0446 -0.7193
   73CHL1  H19A 6549   3.294   1.282   3.737 -0.1708 -0.5914  0.2671
   73CHL1  H19B 6550   3.259   1.228   3.582 -0.1826  2.1837  0.2240
   73CHL1  H19C 6551   3.199   1.130   3.722 -0.1814  0.8917  0.2222
   73CHL1    C1 6552   3.522   1.176   3.594 -0.6838  0.4811 -0.5619
   73CHL1   H1A 6553   3.536   1.273   3.646 -0.2994  0.7244 -1.1090
   73CHL1   H1B 6554   3.622   1.128   3.588 -0.6438  0.6933 -2.0720
   73CHL1    C2 6555   3.489   1.214   3.457  0.2172  0.1279  0.5475
   73CHL1   H2A 6556   3.576   1.253   3.400 -0.5336 -1.2687 -1.6744
   73CHL1   H2B 6557   3.424   1.304   3.462  1.5648  1.0624  1.9744
   73CHL1   C20 6558   3.495   1.018   4.367 -0.8138 -0.9220 -0.9188
   73CHL1   H20 6559   3.526   1.124   4.353 -0.9847 -0.5973  1.0011
   73CHL1   C21 6560   3.614   0.951   4.444  0.2275 -0.3770 -0.4230
   73CHL1  H21A 6561   3.575   0.854   4.480 -2.3456 -0.5569 -3.3092
   73CHL1  H21B 6562   3.643   1.015   4.530 -0.9220  0.8156 -0.8892
   73CHL1  H21C 6563   3.706   0.936   4.384  0.4148 -0.7308 -0.0449
   73CHL1   C22 6564   3.357   1.012   4.444  0.8534 -0.4269 -0.2993
   73CHL1  H22A 6565   3.273   1.030   4.375  1.1742  1.0858 -0.3229
   73CHL1  H22B 6566   3.358   0.906   4.478  1.6914 -0.4176 -0.2736
   73CHL1   C23 6567   3.336   1.107   4.568 -0.2093 -0.3285  0.4243
   73CHL1  H23A 6568   3.427   1.105   4.631  0.8106 -1.2282 -1.0135
   73CHL1  H23B 6569   3.315   1.210   4.533 -2.3365 -1.4385 -1.9064
   73CHL1   C24 6570   3.210   1.077   4.651 -0.4366  0.3062  0.1766
   73CHL1  H24A 6571   3.129   1.124   4.592  0.8860  2.3780 -0.0852
   73CHL1  H24B 6572   3.183   0.969   4.653 -0.2862  0.1375 -2.9203
   73CHL1   C25 6573   3.230   1.118   4.793  0.1904 -0.3168  0.2255
   73CHL1   H25 6574   3.324   1.076   4.834  0.1144  0.1507  0.8746
   73CHL1   C26 6575   3.243   1.267   4.810 -0.6424  0.1629 -0.6584
   73CHL1  H26A 6576   3.140   1.300   4.785 -0.3419  0.2288 -1.8355
   73CHL1  H26B 6577   3.277   1.304   4.910 -0.6436 -1.5238  0.0023
   73CHL1  H26C 6578   3.303   1.308   4.726 -0.3189 -2.7961 -1.9815
   73CHL1   C27 6579   3.109   1.064   4.875  1.0443  0.0787 -0.2044
   73CHL1  H27A 6580   3.100   1.099   4.981 -0.2585 -1.1972  0.1321
   73CHL1  H27B 6581   3.015   1.099   4.828  0.4379  1.0587  1.6474
   73CHL1  H27C 6582   3.118   0.956   4.900 -0.7589  0.3486  1.9082
   74CHL1    C3 6583   2.327   6.673   3.126  0.5152 -0.2881 -0.2426
   74CHL1    H3 6584   2.223   6.658   3.162  0.0964  0.3390 -1.1313
   74CHL1    O3 6585   2.320   6.692   2.985 -0.3748 -0.7091 -0.0060
   74CHL1   H3' 6586   2.276   6.776   2.972  0.6694 -0.0722  0.4668
   74CHL1    C4 6587   2.373   6.797   3.200  0.1842 -0.4725  0.0615
   74CHL1   H4A 6588   2.476   6.821   3.165 -0.4105 -0.6115 -1.8503
   74CHL1   H4B 6589   2.308   6.882   3.170  1.7599 -0.0197 -2.3045
   74CHL1    C5 6590   2.376   6.774   3.351 -0.3421 -0.3148  0.1523
   74CHL1    C6 6591   2.295   6.853   3.428  0.0753 -0.5157 -0.0267
   74CHL1    H6 6592   2.232   6.927   3.376 -0.6226 -1.5770 -0.7427
   74CHL1    C7 6593   2.288   6.835   3.580 -0.2125  0.9793  0.5200
   74CHL1   H7A 6594   2.288   6.924   3.646 -0.6533  0.9419  0.5711
   74CHL1   H7B 6595   2.193   6.780   3.595 -0.4832  0.7015 -1.8733
   74CHL1    C8 6596   2.405   6.742   3.628  0.1025  0.1768 -0.6991
   74CHL1    H8 6597   2.503   6.792   3.638  0.7144 -1.1293  0.1811
   74CHL1   C14 6598   2.363   6.683   3.770  0.1233  0.3185  0.9747
   74CHL1   H14 6599   2.272   6.621   3.755 -0.3789  1.3157 -0.2539
   74CHL1   C15 6600   2.314   6.781   3.872 -0.1618  0.6901 -0.8914
   74CHL1  H15A 6601   2.383   6.868   3.884  1.5608 -0.6129 -1.0971
   74CHL1  H15B 6602   2.220   6.834   3.844 -1.7751 -1.4335  0.2535
   74CHL1   C16 6603   2.301   6.701   4.001  0.4305 -0.0377 -0.6275
   74CHL1  H16A 6604   2.334   6.765   4.086  0.8603 -0.6522 -0.3265
   74CHL1  H16B 6605   2.197   6.674   4.027  0.5975  0.6502  0.8043
   74CHL1   C17 6606   2.389   6.572   3.979  0.2362 -0.5626 -0.9751
   74CHL1   H17 6607   2.317   6.488   3.964  0.6934 -1.5951  1.8668
   74CHL1   C13 6608   2.466   6.593   3.842  0.4646 -0.0058  0.2289
   74CHL1   C18 6609   2.596   6.677   3.868  0.3582 -0.2304 -0.1377
   74CHL1  H18A 6610   2.631   6.739   3.782  1.3487 -1.5966 -0.7489
   74CHL1  H18B 6611   2.569   6.755   3.942 -0.5240  1.9881 -2.6070
   74CHL1  H18C 6612   2.676   6.608   3.900  0.9197  1.0977  1.4443
   74CHL1   C12 6613   2.498   6.474   3.751  0.2089  0.0461 -0.1533
   74CHL1  H12A 6614   2.582   6.413   3.791 -0.8633 -1.4695 -0.1235
   74CHL1  H12B 6615   2.412   6.405   3.736  0.7311 -0.3336 -1.5279
   74CHL1   C11 6616   2.535   6.512   3.611  0.9951 -0.9170  0.4013
   74CHL1  H11A 6617   2.633   6.564   3.615 -0.1358  1.3020  0.5244
   74CHL1  H11B 6618   2.543   6.426   3.541 -1.2593  0.3505 -1.5473
   74CHL1    C9 6619   2.431   6.618   3.542  0.3968  0.4404 -0.5005
   74CHL1    H9 6620   2.332   6.567   3.540  1.1263 -1.0756  0.3436
   74CHL1   C10 6621   2.464   6.657   3.397  0.0232 -0.5912  0.1839
   74CHL1   C19 6622   2.611   6.707   3.396 -0.0768  0.7418 -0.1888
   74CHL1  H19A 6623   2.690   6.634   3.425  0.4255  2.0117  1.8233
   74CHL1  H19B 6624   2.641   6.746   3.296  1.7909  1.8081  0.7362
   74CHL1  H19C 6625   2.617   6.786   3.473 -0.5888  1.0065 -0.4192
   74CHL1    C1 6626   2.441   6.534   3.306 -0.9502  0.8532 -0.0269
   74CHL1   H1A 6627   2.527   6.465   3.318 -0.8070  0.7900 -1.2914
   74CHL1   H1B 6628   2.349   6.480   3.337  0.2704 -1.0030  0.4915
   74CHL1    C2 6629   2.426   6.557   3.155 -0.1101 -0.1627  0.0071
   74CHL1   H2A 6630   2.395   6.460   3.112  1.1068 -0.6781  0.2506
   74CHL1   H2B 6631   2.529   6.586   3.126  0.9790 -2.8827  0.7921
   74CHL1   C20 6632   2.459   6.526   4.115 -1.3164 -0.6408  0.0760
   74CHL1   H20 6633   2.519   6.612   4.152 -0.7253 -1.2783  0.6299
   74CHL1   C21 6634   2.558   6.405   4.086  0.0271  0.2901 -0.1445
   74CHL1  H21A 6635   2.623   6.369   4.168  1.5495  1.3593 -0.8327
   74CHL1  H21B 6636   2.634   6.425   4.007  0.3563  0.6589  0.2581
   74CHL1  H21C 6637   2.503   6.311   4.062 -1.9092  1.4551 -0.4368
   74CHL1   C22 6638   2.354   6.490   4.222 -0.0828  0.2322 -0.2067
   74CHL1  H22A 6639   2.283   6.575   4.234  2.0091  1.8639  1.3522
   74CHL1  H22B 6640   2.297   6.399   4.193 -0.2410  1.0371 -2.6738
   74CHL1   C23 6641   2.423   6.480   4.360  0.0955 -0.2347 -0.2450
   74CHL1  H23A 6642   2.505   6.405   4.353  0.9421  0.6871 -0.4387
   74CHL1  H23B 6643   2.474   6.573   4.393 -2.2865  0.9805  0.3074
   74CHL1   C24 6644   2.321   6.442   4.471 -0.3367  0.3778  0.1678
   74CHL1  H24A 6645   2.231   6.507   4.467  0.6346  1.7634  0.1968
   74CHL1  H24B 6646   2.282   6.342   4.442  0.4830  0.5118 -1.4384
   74CHL1   C25 6647   2.370   6.445   4.615  0.0017  0.2488  0.4326
   74CHL1   H25 6648   2.451   6.370   4.605 -2.1701 -2.1716 -0.3287
   74CHL1   C26 6649   2.395   6.585   4.658  0.4784 -0.1897 -0.0785
   74CHL1  H26A 6650   2.396   6.596   4.769 -0.6140  3.5017 -0.3298
   74CHL1  H26B 6651   2.492   6.623   4.620  0.7659 -1.4916 -0.7178
   74CHL1  H26C 6652   2.316   6.644   4.607 -1.0721 -1.8554  0.2881
   74CHL1   C27 6653   2.271   6.368   4.701 -0.8660  0.7329 -0.6622
   74CHL1  H27A 6654   2.288   6.389   4.809  0.9781  0.9475 -0.9605
   74CHL1  H27B 6655   2.164   6.392   4.686 -1.1487  0.0067  0.1159
   74CHL1  H27C 6656   2.269   6.258   4.688  1.5536  0.3287  1.4656
   75CHL1    C3 6657   4.880   6.691   3.203  0.6567  0.4893 -0.2487
   75CHL1    H3 6658   4.824   6.781   3.238 -0.8569 -0.0048 -1.3002
   75CHL1    O3 6659   4.886   6.682   3.062  0.0145  0.2652 -0.2636
   75CHL1   H3' 6660   4.979   6.681   3.039 -0.2745 -0.0418 -1.4919
   75CHL1    C4 6661   5.024   6.694   3.267  0.4835  0.2001  0.8048
   75CHL1   H4A 6662   5.090   6.611   3.232  1.1467  1.1678 -0.3018
   75CHL1   H4B 6663   5.078   6.783   3.228 -0.6578  0.3657 -0.4473
   75CHL1    C5 6664   5.020   6.686   3.419  0.7621  0.5815 -0.0265
   75CHL1    C6 6665   5.070   6.779   3.499 -0.0810  0.0118  0.3340
   75CHL1    H6 6666   5.115   6.871   3.458  1.4372 -0.4351  0.9325
   75CHL1    C7 6667   5.063   6.786   3.647 -0.6113  0.4595 -0.5316
   75CHL1   H7A 6668   5.161   6.816   3.690 -0.5487  0.2151 -0.5019
   75CHL1   H7B 6669   4.988   6.862   3.679 -0.7147  0.2152 -0.1971
   75CHL1    C8 6670   5.019   6.648   3.705 -0.6218  0.1848 -0.1188
   75CHL1    H8 6671   5.100   6.575   3.683 -0.8811 -0.1261 -0.0495
   75CHL1   C14 6672   4.996   6.666   3.853  0.3080 -0.1085 -0.1861
   75CHL1   H14 6673   4.906   6.730   3.855  0.1989 -0.2829  1.2855
   75CHL1   C15 6674   5.098   6.739   3.934  0.0319 -0.2489  0.0083
   75CHL1  H15A 6675   5.193   6.683   3.923  0.0351 -0.5528  1.4080
   75CHL1  H15B 6676   5.123   6.841   3.900 -0.7013 -0.0754 -0.0205
   75CHL1   C16 6677   5.058   6.721   4.080 -0.3321 -0.6163  0.0628
   75CHL1  H16A 6678   5.145   6.689   4.141 -0.3755 -2.1956 -0.6533
   75CHL1  H16B 6679   5.010   6.818   4.106  0.4996 -0.7335  2.1495
   75CHL1   C17 6680   4.940   6.609   4.081 -0.4149 -0.5455 -0.3968
   75CHL1   H17 6681   4.846   6.669   4.084 -0.2881 -0.3085  2.9388
   75CHL1   C13 6682   4.946   6.547   3.933 -0.0459 -0.1339 -0.8255
   75CHL1   C18 6683   5.056   6.441   3.926  0.0567  0.1765 -0.1493
   75CHL1  H18A 6684   5.077   6.415   3.820  2.9472 -0.7034  0.5461
   75CHL1  H18B 6685   5.151   6.468   3.978  1.3970 -2.1194 -1.2387
   75CHL1  H18C 6686   5.017   6.349   3.976 -1.0802  1.1105  0.7571
   75CHL1   C12 6687   4.814   6.506   3.870 -0.1767  0.2482 -0.0347
   75CHL1  H12A 6688   4.797   6.408   3.919  0.5571 -0.9334 -2.0289
   75CHL1  H12B 6689   4.733   6.577   3.898  0.2593 -0.0395  2.1102
   75CHL1   C11 6690   4.824   6.486   3.713 -0.2596 -0.3236 -0.1767
   75CHL1  H11A 6691   4.868   6.384   3.712 -1.0115 -0.7765  2.7993
   75CHL1  H11B 6692   4.720   6.472   3.677 -0.4421  0.6041 -0.0374
   75CHL1    C9 6693   4.894   6.595   3.636  0.4758 -0.2159 -0.5866
   75CHL1    H9 6694   4.820   6.678   3.637  1.9117  1.1476 -1.9665
   75CHL1   C10 6695   4.928   6.576   3.484 -0.1519  0.0363  0.7720
   75CHL1   C19 6696   4.995   6.438   3.455 -0.6293 -0.1448 -0.6506
   75CHL1  H19A 6697   5.017   6.422   3.347  1.2900 -0.5592 -0.2356
   75CHL1  H19B 6698   5.094   6.436   3.505 -0.4168  1.2314 -0.9820
   75CHL1  H19C 6699   4.929   6.358   3.493 -1.4740  2.0006  2.8085
   75CHL1    C1 6700   4.787   6.579   3.408  0.9681 -0.2519  0.5797
   75CHL1   H1A 6701   4.728   6.491   3.442  1.3964 -0.1398  1.6585
   75CHL1   H1B 6702   4.735   6.673   3.437  1.7130  0.2681  0.2499
   75CHL1    C2 6703   4.796   6.575   3.254 -0.0350 -0.0857 -0.0760
   75CHL1   H2A 6704   4.694   6.583   3.210 -0.7036  0.2147  1.4290
   75CHL1   H2B 6705   4.848   6.480   3.229  0.0664  0.4383 -1.9390
   75CHL1   C20 6706   4.933   6.521   4.208  0.4365  0.0928 -0.0529
   75CHL1   H20 6707   5.020   6.452   4.212  1.8610  1.8580  0.9758
   75CHL1   C21 6708   4.810   6.429   4.201  0.5338  0.0241  0.2147
   75CHL1  H21A 6709   4.797   6.363   4.289  0.1289  1.7144  1.4795
   75CHL1  H21B 6710   4.814   6.364   4.111  0.2532 -0.9701  0.9021
   75CHL1  H21C 6711   4.717   6.490   4.192  0.2195 -0.6999 -1.9078
   75CHL1   C22 6712   4.924   6.606   4.345 -0.5620  0.0182  0.1392
   75CHL1  H22A 6713   4.983   6.697   4.322  0.1710 -0.9140 -1.8912
   75CHL1  H22B 6714   4.819   6.641   4.352 -0.3421  1.1087 -1.5539
   75CHL1   C23 6715   4.983   6.521   4.460 -0.0413 -0.3214 -0.9777
   75CHL1  H23A 6716   4.899   6.459   4.499 -0.1961  0.8297  0.6080
   75CHL1  H23B 6717   5.077   6.469   4.431  0.2765 -0.0147 -0.5094
   75CHL1   C24 6718   5.020   6.614   4.572 -0.2129 -0.3068  0.2901
   75CHL1  H24A 6719   5.101   6.677   4.529  0.1148 -0.7260  0.2877
   75CHL1  H24B 6720   4.941   6.687   4.597  1.8663  2.4317 -0.5978
   75CHL1   C25 6721   5.066   6.554   4.703  0.2868 -0.3493 -0.0962
   75CHL1   H25 6722   5.003   6.465   4.725 -1.6975  1.0242  0.0216
   75CHL1   C26 6723   5.213   6.511   4.710 -0.1937 -0.0851 -0.4316
   75CHL1  H26A 6724   5.233   6.433   4.632  0.8109 -0.0147 -0.2597
   75CHL1  H26B 6725   5.276   6.601   4.697  1.3493 -1.1722 -0.7571
   75CHL1  H26C 6726   5.248   6.464   4.805  0.0547 -2.9889 -1.8223
   75CHL1   C27 6727   5.056   6.659   4.812  0.6085 -0.1200 -0.5936
   75CHL1  H27A 6728   5.105   6.627   4.907 -1.9862  2.0102  1.6475
   75CHL1  H27B 6729   5.105   6.751   4.775 -0.6674  1.1509  0.7164
   75CHL1  H27C 6730   4.955   6.690   4.847  0.7918 -0.9433  0.7416
   76CHL1    C3 6731   1.176   0.949   3.143  0.2653  0.1307 -0.0367
   76CHL1    H3 6732   1.284   0.964   3.164  0.7402 -0.8930 -1.5813
   76CHL1    O3 6733   1.166   0.960   3.004  0.3615 -0.0146  0.0375
   76CHL1   H3' 6734   1.245   0.912   2.977  0.7044 -0.0571  1.0868
   76CHL1    C4 6735   1.134   0.807   3.187 -0.4415  0.5524  0.1722
   76CHL1   H4A 6736   1.031   0.786   3.150 -0.8290  1.2101  0.8628
   76CHL1   H4B 6737   1.198   0.735   3.131  0.5764  0.8225  0.9710
   76CHL1    C5 6738   1.147   0.790   3.340 -0.3217  0.6586 -0.3269
   76CHL1    C6 6739   1.227   0.691   3.388  0.4529 -0.1598 -0.6456
   76CHL1    H6 6740   1.271   0.613   3.324 -0.4728 -0.5660 -0.7942
   76CHL1    C7 6741   1.265   0.674   3.531 -0.1039  0.7443  0.3687
   76CHL1   H7A 6742   1.256   0.568   3.563  1.2220 -0.0716 -1.7414
   76CHL1   H7B 6743   1.369   0.707   3.553  0.7283  0.4234 -2.6635
   76CHL1    C8 6744   1.169   0.754   3.624 -0.3987  0.4429 -0.3700
   76CHL1    H8 6745   1.074   0.697   3.618  0.7105 -1.4605 -0.6463
   76CHL1   C14 6746   1.215   0.761   3.770 -0.7374 -0.2676  0.5175
   76CHL1   H14 6747   1.299   0.834   3.770  0.2965 -1.2412 -3.2384
   76CHL1   C15 6748   1.275   0.634   3.836 -0.4273 -0.5180 -0.6421
   76CHL1  H15A 6749   1.207   0.550   3.809 -0.1648 -0.5896 -1.0923
   76CHL1  H15B 6750   1.381   0.616   3.808  0.3480 -1.0322  2.2624
   76CHL1   C16 6751   1.267   0.670   3.984  0.0365  0.6781  0.0508
   76CHL1  H16A 6752   1.193   0.595   4.018 -3.8091  2.9588 -2.5452
   76CHL1  H16B 6753   1.362   0.672   4.042  0.7804 -2.4302 -0.8867
   76CHL1   C17 6754   1.190   0.807   3.998  0.2085 -0.1452 -0.1425
   76CHL1   H17 6755   1.265   0.889   4.000 -0.3390  0.3661  1.3858
   76CHL1   C13 6756   1.115   0.822   3.869 -0.0498 -1.2303 -0.3868
   76CHL1   C18 6757   0.986   0.740   3.873  0.0691  0.2062  0.7452
   76CHL1  H18A 6758   0.931   0.738   3.776 -1.7922  0.1688  1.7396
   76CHL1  H18B 6759   1.002   0.635   3.906 -1.3697  0.4403  2.3684
   76CHL1  H18C 6760   0.910   0.786   3.940 -0.0452  1.9441 -0.5075
   76CHL1   C12 6761   1.107   0.970   3.827 -0.4577 -0.3517  0.5256
   76CHL1  H12A 6762   1.028   1.025   3.883 -1.3886 -1.0746 -0.0367
   76CHL1  H12B 6763   1.209   1.013   3.836 -0.4422 -0.5894  1.6390
   76CHL1   C11 6764   1.053   0.973   3.683 -0.0252 -0.6239 -0.0250
   76CHL1  H11A 6765   0.952   0.928   3.691 -0.4001  0.1250 -0.4134
   76CHL1  H11B 6766   1.047   1.080   3.653 -0.5213 -0.7081 -0.2204
   76CHL1    C9 6767   1.143   0.895   3.577  0.0728  0.5059 -0.6525
   76CHL1    H9 6768   1.240   0.949   3.576 -0.6788  2.0396  1.8861
   76CHL1   C10 6769   1.092   0.901   3.429  0.8037 -0.8338 -0.3798
   76CHL1   C19 6770   0.938   0.871   3.426  0.5091  0.4050 -0.5542
   76CHL1  H19A 6771   0.878   0.940   3.489  1.6659  0.3203  0.7014
   76CHL1  H19B 6772   0.903   0.878   3.321 -0.9231 -1.9896 -0.3002
   76CHL1  H19C 6773   0.910   0.772   3.467 -0.8895  1.6399  1.6901
   76CHL1    C1 6774   1.121   1.036   3.369  0.3195 -0.4171  0.1273
   76CHL1   H1A 6775   1.056   1.110   3.420  0.7422  0.5762 -0.7171
   76CHL1   H1B 6776   1.229   1.052   3.390  0.3959  1.0465 -1.1545
   76CHL1    C2 6777   1.096   1.054   3.219 -0.5450 -0.0039  0.1825
   76CHL1   H2A 6778   1.118   1.154   3.175  2.9728 -0.6915  0.1120
   76CHL1   H2B 6779   0.989   1.034   3.196 -0.6715 -2.9470  2.7164
   76CHL1   C20 6780   1.117   0.826   4.128 -0.1808  0.2019 -0.8389
   76CHL1   H20 6781   1.052   0.737   4.141 -2.5300  1.9211 -0.1001
   76CHL1   C21 6782   1.046   0.958   4.140 -0.7453  0.3791  0.9213
   76CHL1  H21A 6783   0.957   0.972   4.075 -0.3724  0.3621  0.3988
   76CHL1  H21B 6784   1.121   1.035   4.112  0.0716 -1.0070 -1.0119
   76CHL1  H21C 6785   1.013   0.974   4.244 -1.4952 -1.9149  1.0940
   76CHL1   C22 6786   1.223   0.816   4.251 -0.4126  0.7124  0.1388
   76CHL1  H22A 6787   1.314   0.772   4.204  0.4986  1.7055  0.9168
   76CHL1  H22B 6788   1.259   0.918   4.277  0.3236 -0.0290  2.3040
   76CHL1   C23 6789   1.170   0.740   4.374 -0.2386  0.4045  0.0185
   76CHL1  H23A 6790   1.068   0.773   4.401 -1.5062 -0.2770 -3.4197
   76CHL1  H23B 6791   1.156   0.633   4.347 -1.0583  0.6399 -0.5013
   76CHL1   C24 6792   1.275   0.745   4.496  0.1069  0.9400 -0.1309
   76CHL1  H24A 6793   1.371   0.696   4.469  0.4399  1.5065  0.0062
   76CHL1  H24B 6794   1.298   0.852   4.512 -0.0311  1.0101 -0.3789
   76CHL1   C25 6795   1.222   0.676   4.622  0.2155  0.1820  0.5456
   76CHL1   H25 6796   1.119   0.711   4.641  0.2309 -0.4893  1.9754
   76CHL1   C26 6797   1.217   0.525   4.617  0.0351  0.0419 -0.7423
   76CHL1  H26A 6798   1.161   0.491   4.526 -0.9396  0.6182 -0.3705
   76CHL1  H26B 6799   1.318   0.481   4.600 -1.0728 -3.3294  0.4242
   76CHL1  H26C 6800   1.168   0.483   4.707  1.0288 -2.0741 -1.1012
   76CHL1   C27 6801   1.277   0.729   4.761  0.0681  0.1484  0.1834
   76CHL1  H27A 6802   1.258   0.838   4.771 -0.4658  0.0882 -0.1293
   76CHL1  H27B 6803   1.225   0.674   4.843  0.5861 -0.6937 -0.0335
   76CHL1  H27C 6804   1.385   0.706   4.772 -0.1068 -1.4460 -1.0513
   77SOPE     N 6805   3.977   3.270   6.969 -0.3290 -0.6634 -0.5110
   77SOPE   HN1 6806   3.939   3.219   7.051 -2.5802  1.5001 -0.1009
   77SOPE   HN2 6807   4.080   3.285   6.975 -0.4078 -0.6495  1.8518
   77SOPE   HN3 6808   3.923   3.355   6.943  1.7471  1.0201  0.4001
   77SOPE   C12 6809   3.963   3.158   6.868  0.7342 -0.5780 -0.4052
   77SOPE  H12A 6810   4.060   3.104   6.870  1.1711  0.2020 -0.2682
   77SOPE  H12B 6811   3.959   3.203   6.766  0.6710  0.3357 -0.0011
   77SOPE   C11 6812   3.832   3.074   6.907  1.1927  0.6521  0.4456
   77SOPE  H11A 6813   3.862   3.000   6.984 -1.0568  1.6085  2.3787
   77SOPE  H11B 6814   3.797   3.017   6.819  0.5436  1.5488  0.1065
   77SOPE     P 6815   3.576   3.109   6.939  0.3857 -0.4574  0.1441
   77SOPE   O13 6816   3.484   3.163   7.041  0.2462  0.1076  0.0263
   77SOPE   O14 6817   3.566   2.964   6.917  0.4744  0.8368  0.4101
   77SOPE   O12 6818   3.723   3.151   6.963  0.1446  0.4933 -0.4382
   77SOPE   O11 6819   3.542   3.186   6.801 -0.1618 -0.0166 -0.2599
   77SOPE    C1 6820   3.540   3.325   6.797  0.2829  0.0862 -0.7785
   77SOPE    HA 6821   3.644   3.362   6.797  0.2742  0.2107  0.8656
   77SOPE    HB 6822   3.492   3.368   6.888 -0.5412  2.9280 -2.4545
   77SOPE    C2 6823   3.462   3.379   6.678 -0.4057 -0.2549 -0.2060
   77SOPE    HS 6824   3.373   3.315   6.664 -0.8708  0.1057  0.9964
   77SOPE   O21 6825   3.549   3.380   6.569 -0.0760  0.1561  0.4882
   77SOPE   C21 6826   3.493   3.364   6.456  0.1371  0.4723 -0.1235
   77SOPE   O22 6827   3.376   3.336   6.440  0.2337  0.3372 -0.8344
   77SOPE   C22 6828   3.593   3.354   6.342  0.2788  0.4478 -0.0941
   77SOPE   H2R 6829   3.677   3.283   6.357  2.4704  2.6389 -1.1772
   77SOPE   H2S 6830   3.633   3.458   6.340 -0.3031  0.8669  3.8238
   77SOPE    C3 6831   3.422   3.528   6.703 -0.6180  0.1807  0.0887
   77SOPE    HX 6832   3.507   3.587   6.742 -0.8239  0.4458  0.1439
   77SOPE    HY 6833   3.350   3.520   6.787  0.5807 -0.6503  1.0704
   77SOPE   O31 6834   3.371   3.592   6.580  0.2237 -0.2410 -0.3515
   77SOPE   C31 6835   3.238   3.613   6.571  0.2101 -0.6179  0.4918
   77SOPE   O32 6836   3.158   3.585   6.657 -0.1344 -0.1856 -0.0353
   77SOPE   C32 6837   3.198   3.675   6.438  0.0499  0.1274 -0.0147
   77SOPE   H2X 6838   3.209   3.786   6.442 -1.6473  0.3476 -0.4232
   77SOPE   H2Y 6839   3.093   3.658   6.407  0.5814  1.7034 -3.1186
   77SOPE   C23 6840   3.539   3.334   6.197  0.2236  0.2003  0.3315
   77SOPE   H3R 6841   3.458   3.406   6.170  0.6786  0.3773 -0.6223
   77SOPE   H3S 6842   3.497   3.233   6.176 -2.9523  0.9467  2.3080
   77SOPE   C24 6843   3.644   3.374   6.093  0.3458  0.5780  0.3310
   77SOPE   H4R 6844   3.647   3.485   6.096 -1.1901  0.6256  0.7318
   77SOPE   H4S 6845   3.738   3.317   6.105  0.0506  0.1983  0.8884
   77SOPE   C25 6846   3.589   3.345   5.951  0.5838 -0.0147  0.9207
   77SOPE   H5R 6847   3.554   3.240   5.943 -0.2860  0.4393 -2.8578
   77SOPE   H5S 6848   3.500   3.411   5.936 -0.6889 -1.6010  1.1688
   77SOPE   C26 6849   3.690   3.378   5.833 -0.0442  0.0304 -0.6069
   77SOPE   H6R 6850   3.751   3.468   5.855 -1.0281  0.0626  2.4469
   77SOPE   H6S 6851   3.747   3.283   5.831 -0.3161 -0.2922  2.3824
   77SOPE   C27 6852   3.617   3.397   5.697 -0.9259  0.5702 -0.8357
   77SOPE   H7R 6853   3.536   3.325   5.675 -1.7197  0.3848  2.2978
   77SOPE   H7S 6854   3.567   3.496   5.688 -0.3575  0.8477 -1.0074
   77SOPE   C28 6855   3.712   3.407   5.570  0.0136 -0.3948 -1.1920
   77SOPE   H8R 6856   3.776   3.494   5.594 -0.9726  0.3641 -1.2388
   77SOPE   H8S 6857   3.774   3.315   5.564  2.4963  0.9468  1.3572
   77SOPE   C29 6858   3.637   3.445   5.448  0.0059  0.1033  0.1558
   77SOPE   H91 6859   3.586   3.542   5.454 -0.4451  0.3275 -4.1657
   77SOPE  C210 6860   3.611   3.371   5.336  0.0407  0.7389 -1.3175
   77SOPE  H101 6861   3.557   3.415   5.250  0.4927  1.2010 -1.3683
   77SOPE  C211 6862   3.670   3.235   5.323 -0.1073 -0.0082  0.3857
   77SOPE  H11R 6863   3.632   3.163   5.398 -0.7552 -0.2369 -0.1480
   77SOPE  H11S 6864   3.780   3.237   5.333  0.2888  2.0892 -2.7243
   77SOPE  C212 6865   3.639   3.176   5.186  0.2156  0.5271 -0.0273
   77SOPE  H12R 6866   3.695   3.080   5.190  2.0417  1.5317 -0.6923
   77SOPE  H12S 6867   3.684   3.226   5.098 -2.2407 -0.4421 -1.9396
   77SOPE  C213 6868   3.485   3.155   5.158 -0.5330 -0.9330 -0.1886
   77SOPE  H13R 6869   3.448   3.252   5.118 -2.1235 -1.3011  0.3202
   77SOPE  H13S 6870   3.430   3.133   5.252 -1.2152 -0.3227 -0.4359
   77SOPE  C214 6871   3.472   3.042   5.057 -0.5998  0.5565  0.2923
   77SOPE  H14R 6872   3.539   2.961   5.094  0.7013  1.4265 -0.0835
   77SOPE  H14S 6873   3.514   3.067   4.957 -1.4184 -2.9448 -1.0667
   77SOPE  C215 6874   3.333   3.010   5.022 -0.8046 -0.1128  0.8570
   77SOPE  H15R 6875   3.273   3.104   5.026  0.1550  0.4909  1.7316
   77SOPE  H15S 6876   3.296   2.939   5.099  0.2078 -1.7841 -0.1359
   77SOPE  C216 6877   3.316   2.953   4.883 -0.1421  0.0802 -0.1122
   77SOPE  H16R 6878   3.387   2.870   4.864 -1.1654 -0.4662 -1.7488
   77SOPE  H16S 6879   3.333   3.032   4.807 -1.8060 -0.6799 -1.3130
   77SOPE  C217 6880   3.178   2.890   4.855  0.0761 -0.8295  0.1326
   77SOPE  H17R 6881   3.150   2.820   4.935 -2.2628 -1.9641 -1.5729
   77SOPE  H17S 6882   3.176   2.832   4.760  2.8765 -2.1952  0.8193
   77SOPE  C218 6883   3.077   2.999   4.843  0.0428  0.1115 -0.2130
   77SOPE  H18R 6884   3.079   3.063   4.934  0.6820 -0.9391  0.5385
   77SOPE  H18S 6885   2.972   2.969   4.828 -0.3472  1.5271 -0.5119
   77SOPE  H18T 6886   3.097   3.057   4.750  2.0067 -2.0622 -1.2406
   77SOPE   C33 6887   3.279   3.624   6.317  0.6130  0.4476  0.6985
   77SOPE   H3X 6888   3.282   3.513   6.318  0.2625  0.4175 -0.3085
   77SOPE   H3Y 6889   3.387   3.649   6.325  2.1294 -4.4899 -0.6843
   77SOPE   C34 6890   3.227   3.686   6.188 -0.5290  0.0346  0.3200
   77SOPE   H4X 6891   3.216   3.796   6.203  1.4737  0.0265  2.3036
   77SOPE   H4Y 6892   3.130   3.642   6.156 -0.2767  0.3291 -0.9375
   77SOPE   C35 6893   3.309   3.651   6.058  0.9039  0.1380  0.3108
   77SOPE   H5X 6894   3.305   3.540   6.056 -0.2019 -0.0654  4.3755
   77SOPE   H5Y 6895   3.416   3.677   6.075  0.8920  0.2151  0.2706
   77SOPE   C36 6896   3.258   3.722   5.937  0.1569 -0.1703 -0.2012
   77SOPE   H6X 6897   3.254   3.830   5.963  0.1139  0.0697 -1.1678
   77SOPE   H6Y 6898   3.152   3.693   5.918 -0.6657  2.1355  0.5294
   77SOPE   C37 6899   3.329   3.687   5.813  0.5102 -0.4837  0.1243
   77SOPE   H7X 6900   3.325   3.579   5.789  1.0062 -0.6412  0.7347
   77SOPE   H7Y 6901   3.438   3.704   5.821  0.6463 -1.9826  3.1765
   77SOPE   C38 6902   3.308   3.784   5.687  0.3917  0.6264 -0.1620
   77SOPE   H8X 6903   3.337   3.888   5.713 -1.3346  1.3155 -0.8477
   77SOPE   H8Y 6904   3.200   3.788   5.659 -0.0270  1.1810  1.3864
   77SOPE   C39 6905   3.368   3.731   5.568 -0.2650  0.4494 -0.2535
   77SOPE   H9X 6906   3.351   3.625   5.538 -0.4984  0.6189 -0.7396
   77SOPE   H9Y 6907   3.478   3.724   5.587 -0.4615  0.8871  1.1275
   77SOPE  C310 6908   3.336   3.821   5.446  1.3942  1.1807 -0.9679
   77SOPE  H10X 6909   3.367   3.921   5.483  2.0913  0.1378  1.4575
   77SOPE  H10Y 6910   3.225   3.827   5.442  1.1341 -1.4291  0.2041
   77SOPE  C311 6911   3.416   3.789   5.318  0.2948 -0.1606 -0.3435
   77SOPE  H11X 6912   3.386   3.689   5.279 -0.8614  0.1397 -0.2738
   77SOPE  H11Y 6913   3.524   3.769   5.332  0.3136 -0.4901 -0.9129
   77SOPE  C312 6914   3.382   3.893   5.206  0.0864 -0.7852  0.3723
   77SOPE  H12X 6915   3.407   3.990   5.254  1.2447 -0.7438 -0.2788
   77SOPE  H12Y 6916   3.271   3.894   5.202  0.1114 -1.6819 -2.3414
   77SOPE  C313 6917   3.450   3.874   5.069  0.4796 -0.1087 -0.3114
   77SOPE  H13X 6918   3.437   3.766   5.047  4.0411 -0.1478 -3.0729
   77SOPE  H13Y 6919   3.557   3.901   5.063  0.0374  1.5173 -2.3584
   77SOPE  C314 6920   3.389   3.967   4.957 -0.1445 -0.4893 -0.6982
   77SOPE  H14X 6921   3.413   4.073   4.979  0.0718 -1.0666  2.3702
   77SOPE  H14Y 6922   3.278   3.963   4.968 -0.0984  0.7314  0.4632
   77SOPE  C315 6923   3.442   3.938   4.811  0.0725 -0.0333  0.3488
   77SOPE  H15X 6924   3.403   3.842   4.771  2.8628 -2.1714  2.2819
   77SOPE  H15Y 6925   3.553   3.931   4.814  0.6664  3.7309 -3.5167
   77SOPE  C316 6926   3.401   4.043   4.702  0.5834 -0.2022 -0.1996
   77SOPE  H16X 6927   3.492   4.065   4.642  1.9849 -1.0827  1.4732
   77SOPE  H16Y 6928   3.375   4.142   4.745 -3.4349 -0.6794 -1.1079
   77SOPE  C317 6929   3.283   3.995   4.618 -0.7726  0.4795 -0.2817
   77SOPE  H17X 6930   3.199   3.963   4.683 -1.8707  1.1716 -1.3186
   77SOPE  H17Y 6931   3.316   3.913   4.550 -0.6413  0.0780  0.2529
   77SOPE  C318 6932   3.226   4.106   4.527 -0.5480  0.3454 -0.3402
   77SOPE  H18X 6933   3.183   4.074   4.429 -0.7083  3.0424 -1.2095
   77SOPE  H18Y 6934   3.302   4.186   4.515 -1.2884  1.0319 -0.4667
   77SOPE  H18Z 6935   3.140   4.155   4.576 -0.1238  0.4362  0.3377
   78SOPE     N 6936   1.643   2.933   7.125 -0.2639 -0.5314  0.1244
   78SOPE   HN1 6937   1.545   2.968   7.134 -0.1752  0.0587 -1.0995
   78SOPE   HN2 6938   1.666   2.859   7.194  4.7994  1.4401  1.0004
   78SOPE   HN3 6939   1.706   3.011   7.153 -2.2937  0.1421  3.4254
   78SOPE   C12 6940   1.697   2.911   6.988  0.1918 -0.2122  0.1897
   78SOPE  H12A 6941   1.653   2.994   6.929  0.8213  1.0529  1.4321
   78SOPE  H12B 6942   1.673   2.807   6.956  0.0961 -0.2422  0.3582
   78SOPE   C11 6943   1.851   2.917   6.999 -0.2139  0.1877 -0.6311
   78SOPE  H11A 6944   1.889   2.927   6.895 -0.5917 -2.5187 -1.1049
   78SOPE  H11B 6945   1.886   2.818   7.037  0.0254  0.6327  0.3632
   78SOPE     P 6946   2.055   3.061   7.070 -0.0582 -0.2071  0.1853
   78SOPE   O13 6947   2.125   2.944   7.126 -0.0650 -0.5695  0.7053
   78SOPE   O14 6948   2.083   3.195   7.127  0.5678 -0.5526 -0.1907
   78SOPE   O12 6949   1.901   3.030   7.070 -0.2299 -0.2352 -0.1545
   78SOPE   O11 6950   2.100   3.077   6.917  0.8617  0.2432  0.2815
   78SOPE    C1 6951   2.016   3.173   6.848 -0.1872 -0.2173 -0.3089
   78SOPE    HA 6952   1.995   3.269   6.900 -0.0109 -0.1295 -0.3989
   78SOPE    HB 6953   1.919   3.132   6.812 -0.0989 -0.2491 -0.5140
   78SOPE    C2 6954   2.083   3.219   6.713  0.0848  0.6822  0.2151
   78SOPE    HS 6955   2.019   3.289   6.654  2.0010  1.6349 -0.8189
   78SOPE   O21 6956   2.119   3.107   6.630  0.1482  0.2360 -0.2811
   78SOPE   C21 6957   2.024   3.024   6.584  0.2661 -0.2111  0.6800
   78SOPE   O22 6958   1.902   3.040   6.596 -0.0607 -0.3291 -0.6699
   78SOPE   C22 6959   2.087   2.900   6.520  0.3164 -0.3090 -0.5784
   78SOPE   H2R 6960   2.027   2.808   6.535 -0.2862 -0.0093 -1.1040
   78SOPE   H2S 6961   2.188   2.903   6.567  0.1439  1.5808 -0.2678
   78SOPE    C3 6962   2.206   3.313   6.731  0.1846  0.4035 -0.0271
   78SOPE    HX 6963   2.270   3.274   6.813 -1.0394  0.3392  0.9224
   78SOPE    HY 6964   2.178   3.410   6.779 -0.2203  1.0986 -1.6051
   78SOPE   O31 6965   2.282   3.333   6.606  0.0657 -0.8857  0.1316
   78SOPE   C31 6966   2.380   3.242   6.593 -0.1389  0.7022  0.1695
   78SOPE   O32 6967   2.421   3.169   6.686  0.1698 -0.8520 -0.0823
   78SOPE   C32 6968   2.440   3.245   6.450 -0.4226  0.6878 -0.1301
   78SOPE   H2X 6969   2.504   3.334   6.436  0.3557 -0.3590 -5.1423
   78SOPE   H2Y 6970   2.355   3.252   6.379  0.7066  0.6422 -1.5343
   78SOPE   C23 6971   2.103   2.926   6.365  0.2338 -0.6137  0.3143
   78SOPE   H3R 6972   2.198   2.871   6.346  1.2413  0.1910  2.6717
   78SOPE   H3S 6973   2.119   3.033   6.339 -1.6142  0.0054  1.5227
   78SOPE   C24 6974   1.984   2.882   6.276  0.0464 -0.0877  0.0960
   78SOPE   H4R 6975   2.004   2.808   6.195  1.0291  1.1348 -0.8004
   78SOPE   H4S 6976   1.905   2.828   6.334  1.7812 -1.5808  1.1670
   78SOPE   C25 6977   1.932   2.996   6.186 -0.0605  0.1956  0.9747
   78SOPE   H5R 6978   1.897   3.080   6.250 -0.8139 -0.5976  1.6257
   78SOPE   H5S 6979   2.019   3.032   6.128 -1.1937 -0.8943 -1.5357
   78SOPE   C26 6980   1.819   2.975   6.088  0.1330 -0.3170 -0.1294
   78SOPE   H6R 6981   1.848   2.914   6.001  0.2261 -0.4469 -0.0067
   78SOPE   H6S 6982   1.741   2.915   6.139 -1.9959  1.5394 -0.9944
   78SOPE   C27 6983   1.747   3.104   6.044  0.1625  0.4292 -0.0128
   78SOPE   H7R 6984   1.742   3.173   6.131 -0.3558  0.0930  0.2318
   78SOPE   H7S 6985   1.827   3.143   5.978  0.7616 -0.2845  0.2870
   78SOPE   C28 6986   1.617   3.083   5.968  0.8730 -0.3797  0.1251
   78SOPE   H8R 6987   1.543   3.065   6.049 -0.7044  1.0253 -0.9591
   78SOPE   H8S 6988   1.591   3.177   5.916 -1.8053  1.1309  3.7907
   78SOPE   C29 6989   1.613   2.967   5.871 -0.5590  0.6335 -0.7075
   78SOPE   H91 6990   1.641   2.871   5.918  1.1109  2.1882  1.7246
   78SOPE  C210 6991   1.629   2.973   5.738  0.2732 -0.9629 -0.4234
   78SOPE  H101 6992   1.616   2.878   5.683 -1.1977 -2.1599  1.8128
   78SOPE  C211 6993   1.604   3.096   5.654  0.6121  0.1370 -0.2305
   78SOPE  H11R 6994   1.670   3.175   5.695  2.4054 -0.7568 -1.2736
   78SOPE  H11S 6995   1.495   3.120   5.654  0.4287 -0.5265 -1.8095
   78SOPE  C212 6996   1.641   3.068   5.510  0.0850  0.0796  0.4895
   78SOPE  H12R 6997   1.600   2.979   5.458  1.6874  1.0370 -2.6601
   78SOPE  H12S 6998   1.749   3.044   5.516  0.7522  2.3813 -0.8452
   78SOPE  C213 6999   1.613   3.188   5.422 -0.2191  0.3385  0.0145
   78SOPE  H13R 7000   1.664   3.283   5.451  0.5513  0.0560 -0.3766
   78SOPE  H13S 7001   1.506   3.217   5.426  0.2179  1.9524  1.0838
   78SOPE  C214 7002   1.650   3.151   5.276  0.6826 -0.2671 -0.0529
   78SOPE  H14R 7003   1.634   3.044   5.253  0.9766 -0.1974 -0.6117
   78SOPE  H14S 7004   1.757   3.181   5.265  0.5198 -0.1997 -1.6269
   78SOPE  C215 7005   1.562   3.236   5.186 -0.1231 -0.2338  0.3421
   78SOPE  H15R 7006   1.555   3.343   5.216  0.7527 -0.2618  0.6746
   78SOPE  H15S 7007   1.460   3.194   5.193 -0.4760  0.6269  0.4730
   78SOPE  C216 7008   1.594   3.220   5.035 -0.3510 -0.2739  0.1427
   78SOPE  H16R 7009   1.635   3.117   5.033 -1.7570 -0.8514 -0.0221
   78SOPE  H16S 7010   1.677   3.291   5.012 -0.3735 -0.4357 -0.4699
   78SOPE  C217 7011   1.492   3.258   4.934 -0.2894  0.6215  0.5875
   78SOPE  H17R 7012   1.465   3.366   4.933 -1.7929  0.3434 -2.7697
   78SOPE  H17S 7013   1.397   3.211   4.965 -0.5497  1.5322  1.2105
   78SOPE  C218 7014   1.522   3.202   4.791  0.8263 -0.5944 -1.0856
   78SOPE  H18R 7015   1.607   3.257   4.744 -0.1309  2.9929  0.9585
   78SOPE  H18S 7016   1.433   3.198   4.725  0.0390  0.4290 -0.1417
   78SOPE  H18T 7017   1.548   3.095   4.803 -0.5639 -0.6073  4.3780
   78SOPE   C33 7018   2.529   3.118   6.421 -0.1830  0.2604 -0.2999
   78SOPE   H3X 7019   2.478   3.022   6.400 -1.7374  0.7276  1.1104
   78SOPE   H3Y 7020   2.586   3.097   6.514 -2.0181 -1.1147  0.5823
   78SOPE   C34 7021   2.633   3.148   6.315  0.6963 -0.3870 -0.7104
   78SOPE   H4X 7022   2.725   3.086   6.326  0.5492 -0.1499  3.2350
   78SOPE   H4Y 7023   2.669   3.254   6.311 -1.6986  0.4901 -0.3178
   78SOPE   C35 7024   2.570   3.125   6.173  0.0220 -0.2649  0.8695
   78SOPE   H5X 7025   2.460   3.108   6.180 -0.2121  0.7094 -0.2191
   78SOPE   H5Y 7026   2.612   3.030   6.132  2.5500  1.4669 -0.8066
   78SOPE   C36 7027   2.605   3.243   6.078 -0.1026  0.3698  0.0995
   78SOPE   H6X 7028   2.711   3.268   6.097 -0.2975  0.8460  0.5535
   78SOPE   H6Y 7029   2.550   3.338   6.096 -0.9294 -0.2813  1.1395
   78SOPE   C37 7030   2.587   3.208   5.927 -0.3537  0.3778  0.5797
   78SOPE   H7X 7031   2.485   3.172   5.902  0.2858  0.3563 -2.4433
   78SOPE   H7Y 7032   2.655   3.125   5.898 -0.9574  0.0715 -0.0107
   78SOPE   C38 7033   2.605   3.335   5.835 -0.3371  0.5600 -0.6374
   78SOPE   H8X 7034   2.707   3.375   5.855  0.3567 -0.5643 -1.7671
   78SOPE   H8Y 7035   2.523   3.406   5.859  0.0212  0.1164  2.1640
   78SOPE   C39 7036   2.599   3.289   5.683 -0.6144 -0.3829  0.1733
   78SOPE   H9X 7037   2.491   3.264   5.671 -0.8909  1.1021 -0.6761
   78SOPE   H9Y 7038   2.662   3.199   5.665  0.1514  0.0794  0.4934
   78SOPE  C310 7039   2.656   3.388   5.580  0.0435  0.4990 -0.2746
   78SOPE  H10X 7040   2.674   3.327   5.490  0.3444  0.1742  0.0042
   78SOPE  H10Y 7041   2.753   3.421   5.623 -0.9967  1.5806  1.3844
   78SOPE  C311 7042   2.565   3.504   5.535 -0.2902 -0.4279 -0.6992
   78SOPE  H11X 7043   2.627   3.584   5.489 -0.1163 -0.6090 -0.7842
   78SOPE  H11Y 7044   2.523   3.552   5.627  1.3526 -0.3031  0.0209
   78SOPE  C312 7045   2.448   3.455   5.442  0.0173  0.5887 -0.0525
   78SOPE  H12X 7046   2.398   3.368   5.490  0.3946  0.0892 -0.5612
   78SOPE  H12Y 7047   2.489   3.411   5.349  1.6108 -0.4433  1.0904
   78SOPE  C313 7048   2.333   3.557   5.415  0.0918  0.6284  0.2628
   78SOPE  H13X 7049   2.290   3.575   5.515 -1.7447 -1.0902 -0.1549
   78SOPE  H13Y 7050   2.259   3.493   5.362  0.6542  0.2184 -0.0484
   78SOPE  C314 7051   2.367   3.690   5.348 -0.0821 -0.0595 -0.2432
   78SOPE  H14X 7052   2.420   3.754   5.422 -0.6042 -1.0079  0.9732
   78SOPE  H14Y 7053   2.267   3.733   5.324 -0.3740 -0.3183  0.4728
   78SOPE  C315 7054   2.448   3.678   5.217 -0.2267 -1.0082  0.0590
   78SOPE  H15X 7055   2.385   3.612   5.155 -1.8150 -2.1323  2.6797
   78SOPE  H15Y 7056   2.547   3.632   5.240  0.4791  0.2462 -0.3475
   78SOPE  C316 7057   2.458   3.808   5.136 -0.0182  0.8035 -0.1971
   78SOPE  H16X 7058   2.483   3.899   5.194 -0.2326  1.1317 -0.6173
   78SOPE  H16Y 7059   2.358   3.829   5.093 -0.4331  0.4001  0.5493
   78SOPE  C317 7060   2.553   3.799   5.023  0.7290 -0.0899  0.1771
   78SOPE  H17X 7061   2.540   3.704   4.967  1.3328 -0.4293  0.6002
   78SOPE  H17Y 7062   2.659   3.796   5.057 -0.2193  1.6899  3.9205
   78SOPE  C318 7063   2.532   3.928   4.936  0.1833  0.2981 -0.4175
   78SOPE  H18X 7064   2.428   3.962   4.917  0.9057  3.3187  0.5302
   78SOPE  H18Y 7065   2.590   3.900   4.846  3.8805 -1.4419  2.2180
   78SOPE  H18Z 7066   2.581   4.015   4.986 -2.9128  1.9325  0.0017
   79SOPE     N 7067   6.356   0.993   7.138 -0.8347  0.0263 -0.7842
   79SOPE   HN1 7068   6.447   0.951   7.165 -1.1414 -0.4518 -0.4732
   79SOPE   HN2 7069   6.290   0.912   7.135  0.0700 -0.8196  1.1609
   79SOPE   HN3 7070   6.364   1.048   7.050  0.7325  1.4021  0.1818
   79SOPE   C12 7071   6.312   1.092   7.248  0.3581 -0.3545 -0.1023
   79SOPE  H12A 7072   6.320   1.196   7.210 -0.8424  0.0146  0.6202
   79SOPE  H12B 7073   6.386   1.082   7.331 -0.1679 -0.9187  0.3076
   79SOPE   C11 7074   6.163   1.067   7.289  0.3423  0.6914  0.5537
   79SOPE  H11A 7075   6.135   1.126   7.379  1.5580 -1.3015  2.3497
   79SOPE  H11B 7076   6.142   0.962   7.318 -1.7101  0.5986 -0.9898
   79SOPE     P 7077   5.927   1.147   7.205  0.2208 -0.2229 -0.0258
   79SOPE   O13 7078   5.911   1.291   7.179  0.0942  0.5781 -0.0095
   79SOPE   O14 7079   5.890   1.105   7.340  0.1324  0.4921 -0.1765
   79SOPE   O12 7080   6.078   1.100   7.172 -0.3404 -0.6422  0.3208
   79SOPE   O11 7081   5.846   1.066   7.098 -0.5275 -0.9966  0.0855
   79SOPE    C1 7082   5.904   0.960   7.017 -0.2389  0.5164  0.1002
   79SOPE    HA 7083   5.818   0.900   6.982 -0.8316  0.9958  0.6975
   79SOPE    HB 7084   5.961   0.882   7.073  0.1411  0.8205  0.1391
   79SOPE    C2 7085   5.988   1.007   6.901 -0.1725  0.5716 -0.2277
   79SOPE    HS 7086   6.084   1.042   6.944 -0.3313  1.2464 -0.4164
   79SOPE   O21 7087   5.914   1.111   6.832 -0.4947  0.2105 -0.1002
   79SOPE   C21 7088   5.980   1.215   6.786  0.0957  0.9779  0.3505
   79SOPE   O22 7089   6.100   1.230   6.797  0.2624 -0.0258 -0.0672
   79SOPE   C22 7090   5.881   1.310   6.727  0.0208 -0.5891 -0.3784
   79SOPE   H2R 7091   5.838   1.374   6.806  0.6977  0.4686 -0.8469
   79SOPE   H2S 7092   5.792   1.256   6.689 -0.0793 -1.4598  1.0223
   79SOPE    C3 7093   6.023   0.900   6.788 -0.4801 -1.0032 -0.5321
   79SOPE    HX 7094   6.063   0.809   6.838  0.6333 -0.1587  0.1757
   79SOPE    HY 7095   6.105   0.939   6.724  0.4556 -2.3441 -0.1942
   79SOPE   O31 7096   5.896   0.866   6.721 -0.5773  0.6160 -0.1983
   79SOPE   C31 7097   5.882   0.916   6.592  0.3125 -0.1750 -0.9416
   79SOPE   O32 7098   5.964   0.985   6.533  0.4617  0.3174  0.2602
   79SOPE   C32 7099   5.741   0.881   6.550 -0.4516  0.0120 -0.1322
   79SOPE   H2X 7100   5.669   0.927   6.622 -1.6806  1.1583 -2.0017
   79SOPE   H2Y 7101   5.726   0.774   6.577 -1.0386 -0.1149 -0.9429
   79SOPE   C23 7102   5.947   1.415   6.632 -0.6551 -0.3006  0.6283
   79SOPE   H3R 7103   6.044   1.457   6.665 -1.1327  0.9630  0.4925
   79SOPE   H3S 7104   5.891   1.510   6.619 -0.1685 -0.1092 -0.1321
   79SOPE   C24 7105   5.982   1.345   6.501  0.0000 -0.1936 -0.4251
   79SOPE   H4R 7106   6.067   1.403   6.460  1.1009  0.8985  3.0564
   79SOPE   H4S 7107   6.026   1.244   6.518 -1.0059 -0.5438  0.2044
   79SOPE   C25 7108   5.865   1.330   6.410  0.3764  0.2993 -0.4077
   79SOPE   H5R 7109   5.794   1.273   6.473  1.9694  0.8139  1.9819
   79SOPE   H5S 7110   5.804   1.422   6.400  0.5281  0.2312 -2.3756
   79SOPE   C26 7111   5.909   1.277   6.276  1.1725 -0.3197 -0.4118
   79SOPE   H6R 7112   5.995   1.340   6.243  0.8204  0.5263  0.2487
   79SOPE   H6S 7113   5.951   1.174   6.283  2.0706  0.0756  0.2900
   79SOPE   C27 7114   5.797   1.282   6.171 -0.2932 -0.0524  0.1514
   79SOPE   H7R 7115   5.724   1.207   6.209  2.0346 -1.6261  1.7890
   79SOPE   H7S 7116   5.751   1.383   6.170  1.1082  0.7787  3.6535
   79SOPE   C28 7117   5.830   1.214   6.029  0.3522 -0.3135  0.0707
   79SOPE   H8R 7118   5.930   1.250   5.996 -0.1063  0.3412 -0.6480
   79SOPE   H8S 7119   5.855   1.106   6.042  1.4189  0.0345  1.1006
   79SOPE   C29 7120   5.718   1.238   5.927 -0.4709 -0.5143 -0.2280
   79SOPE   H91 7121   5.690   1.343   5.909  0.4480 -0.5822 -2.4032
   79SOPE  C210 7122   5.669   1.147   5.844 -0.0544  0.3063  0.1784
   79SOPE  H101 7123   5.592   1.181   5.773  0.2512 -0.9392 -0.7708
   79SOPE  C211 7124   5.709   0.998   5.843 -0.1832  0.2322  0.2004
   79SOPE  H11R 7125   5.617   0.941   5.868  0.3302 -0.7392 -0.1061
   79SOPE  H11S 7126   5.779   0.965   5.923  0.9250 -1.5240 -1.4234
   79SOPE  C212 7127   5.777   0.950   5.713  0.3507 -0.7363  0.3146
   79SOPE  H12R 7128   5.808   0.844   5.719  0.9616 -0.6591 -1.0373
   79SOPE  H12S 7129   5.872   1.006   5.701  1.3802 -2.4803 -0.0080
   79SOPE  C213 7130   5.687   0.970   5.585 -0.2414 -0.5097 -0.1828
   79SOPE  H13R 7131   5.679   1.077   5.554  1.5100 -0.5672 -0.9447
   79SOPE  H13S 7132   5.584   0.930   5.594  0.3809 -2.1619 -0.0248
   79SOPE  C214 7133   5.756   0.907   5.464 -0.2290  0.1780 -0.2129
   79SOPE  H14R 7134   5.792   0.804   5.485  1.2370 -0.1687 -3.7813
   79SOPE  H14S 7135   5.850   0.964   5.453  0.7346 -1.0056  1.4113
   79SOPE  C215 7136   5.681   0.910   5.332 -0.3469 -0.7210 -0.0445
   79SOPE  H15R 7137   5.680   1.019   5.310 -0.8708 -0.9162 -1.0507
   79SOPE  H15S 7138   5.577   0.874   5.344 -0.3717 -0.6265  0.0298
   79SOPE  C216 7139   5.749   0.835   5.212 -0.0949 -0.5818  0.4086
   79SOPE  H16R 7140   5.749   0.724   5.213  1.2484 -0.6165 -0.8382
   79SOPE  H16S 7141   5.852   0.872   5.193 -0.2007 -0.8177 -0.7061
   79SOPE  C217 7142   5.659   0.855   5.088  0.2439  0.0739  0.0724
   79SOPE  H17R 7143   5.645   0.964   5.072 -0.5810 -0.2216 -1.4137
   79SOPE  H17S 7144   5.555   0.831   5.119 -0.7855  0.9748 -2.3700
   79SOPE  C218 7145   5.691   0.792   4.956 -0.2943  0.4554 -0.2614
   79SOPE  H18R 7146   5.789   0.824   4.916 -0.0920 -0.1245 -0.2392
   79SOPE  H18S 7147   5.623   0.834   4.879  0.3357  0.3659 -0.8798
   79SOPE  H18T 7148   5.679   0.682   4.963  2.2949  0.1179 -0.3080
   79SOPE   C33 7149   5.703   0.916   6.412 -0.0819  0.0477  0.6280
   79SOPE   H3X 7150   5.761   0.860   6.336  1.3959  0.1509  1.6323
   79SOPE   H3Y 7151   5.738   1.021   6.397  1.1877 -0.3083  0.9715
   79SOPE   C34 7152   5.555   0.884   6.393 -0.2278 -0.6014 -0.0124
   79SOPE   H4X 7153   5.489   0.938   6.464 -1.0600  1.3863 -2.1813
   79SOPE   H4Y 7154   5.534   0.775   6.401 -0.6974 -0.4825  0.3765
   79SOPE   C35 7155   5.502   0.921   6.254 -0.3009 -0.3571 -0.0602
   79SOPE   H5X 7156   5.543   0.849   6.181  1.0540 -0.4853  0.7994
   79SOPE   H5Y 7157   5.524   1.024   6.220  2.3746 -0.2261  1.7812
   79SOPE   C36 7158   5.350   0.903   6.251  0.6374  0.3927  0.1635
   79SOPE   H6X 7159   5.299   0.959   6.333 -0.7447 -1.2071  0.4592
   79SOPE   H6Y 7160   5.325   0.794   6.252  0.1149  0.4602  2.5911
   79SOPE   C37 7161   5.295   0.959   6.118 -0.2147  0.5053  0.1600
   79SOPE   H7X 7162   5.330   1.063   6.105 -1.1235  0.5701 -2.4220
   79SOPE   H7Y 7163   5.184   0.968   6.124 -0.3211 -0.5709  0.0387
   79SOPE   C38 7164   5.319   0.887   5.983 -0.0880 -0.0163  0.3041
   79SOPE   H8X 7165   5.267   0.788   5.989 -0.7058  0.3748  1.8220
   79SOPE   H8Y 7166   5.425   0.854   5.980 -0.5751 -1.6322 -1.0857
   79SOPE   C39 7167   5.283   0.965   5.853  0.1680 -0.4762 -0.3796
   79SOPE   H9X 7168   5.361   1.041   5.833 -0.2338  0.6233  1.8438
   79SOPE   H9Y 7169   5.187   1.021   5.855  1.3980  1.8026  2.4051
   79SOPE  C310 7170   5.280   0.865   5.743 -0.7333  0.9443 -0.8132
   79SOPE  H10X 7171   5.202   0.788   5.763  1.6100 -1.9122 -1.8434
   79SOPE  H10Y 7172   5.368   0.798   5.728 -1.8632 -0.3156 -2.1441
   79SOPE  C311 7173   5.245   0.934   5.607 -0.5330  0.6606  0.2739
   79SOPE  H11X 7174   5.307   1.026   5.601  0.7595 -0.0734  1.6162
   79SOPE  H11Y 7175   5.135   0.946   5.609 -0.6793 -0.5677  0.8823
   79SOPE  C312 7176   5.274   0.840   5.492  0.2869 -0.5586  0.0717
   79SOPE  H12X 7177   5.209   0.751   5.508  0.8657 -1.3860 -1.8597
   79SOPE  H12Y 7178   5.379   0.804   5.492  0.3118 -0.4859 -0.0981
   79SOPE  C313 7179   5.227   0.898   5.358 -0.7312  0.1935 -0.8467
   79SOPE  H13X 7180   5.257   1.000   5.329  1.1810 -0.3923 -1.0411
   79SOPE  H13Y 7181   5.117   0.914   5.367 -0.5197  0.8121  1.0577
   79SOPE  C314 7182   5.243   0.799   5.239 -0.2852  0.0783  0.3360
   79SOPE  H14X 7183   5.175   0.715   5.265  2.5268 -2.4012  0.1483
   79SOPE  H14Y 7184   5.352   0.779   5.249  0.5525  2.0500 -3.0954
   79SOPE  C315 7185   5.215   0.855   5.101  0.6537 -0.4143 -0.1650
   79SOPE  H15X 7186   5.279   0.944   5.084  1.1506 -0.8719 -0.7405
   79SOPE  H15Y 7187   5.106   0.877   5.099  0.9900  1.3945 -0.0113
   79SOPE  C316 7188   5.252   0.765   4.978  0.2417  0.4574 -0.0680
   79SOPE  H16X 7189   5.353   0.718   4.969 -0.0393 -0.1024 -0.3428
   79SOPE  H16Y 7190   5.221   0.822   4.888 -1.0693  0.6134  0.4717
   79SOPE  C317 7191   5.143   0.653   4.973  0.0553  0.0880 -0.1065
   79SOPE  H17X 7192   5.045   0.698   4.947 -0.2402 -0.9627 -0.8748
   79SOPE  H17Y 7193   5.142   0.603   5.073  1.1465 -1.4756 -0.8382
   79SOPE  C318 7194   5.172   0.534   4.876  0.2555 -0.7586  0.2834
   79SOPE  H18X 7195   5.273   0.495   4.905 -0.3332 -1.4142  1.5522
   79SOPE  H18Y 7196   5.182   0.568   4.771  0.1704 -1.6811 -0.0307
   79SOPE  H18Z 7197   5.092   0.458   4.882 -1.4154  0.7291 -1.6330
   80SOPE     N 7198   3.300   4.318   7.747  0.2369  0.3711 -0.3002
   80SOPE   HN1 7199   3.358   4.232   7.742 -0.1746 -0.2313  3.0382
   80SOPE   HN2 7200   3.340   4.380   7.821 -0.3716  0.2678  0.1214
   80SOPE   HN3 7201   3.208   4.286   7.783 -0.5372  0.9571 -1.7026
   80SOPE   C12 7202   3.278   4.376   7.611  0.0193  0.6687  0.1744
   80SOPE  H12A 7203   3.371   4.426   7.577  1.3251 -1.4864  0.4340
   80SOPE  H12B 7204   3.191   4.445   7.617 -0.6640  0.6122 -4.8942
   80SOPE   C11 7205   3.235   4.266   7.516  0.1383 -0.6534  0.4647
   80SOPE  H11A 7206   3.323   4.198   7.510  1.4197  0.9992  0.0392
   80SOPE  H11B 7207   3.234   4.306   7.412 -0.0501 -0.0016  0.7128
   80SOPE     P 7208   2.975   4.243   7.510 -0.4051 -0.0410 -0.1739
   80SOPE   O13 7209   2.961   4.387   7.537 -0.0782 -0.5329  0.3630
   80SOPE   O14 7210   2.871   4.154   7.558  0.0419  0.4400  0.0028
   80SOPE   O12 7211   3.120   4.186   7.553  0.6589  0.2355 -0.1847
   80SOPE   O11 7212   2.999   4.230   7.354 -0.1812  0.1558  0.2762
   80SOPE    C1 7213   2.972   4.103   7.290  0.0156 -0.0673  0.9913
   80SOPE    HA 7214   2.929   4.121   7.189  0.6838 -1.7150  0.3665
   80SOPE    HB 7215   2.905   4.027   7.336  1.5267 -0.5726  2.4333
   80SOPE    C2 7216   3.107   4.033   7.257 -0.4888  0.3390  0.6455
   80SOPE    HS 7217   3.147   4.009   7.357 -0.7662  1.7334  1.1146
   80SOPE   O21 7218   3.189   4.111   7.182  0.7309 -0.2751  0.0904
   80SOPE   C21 7219   3.314   4.089   7.184 -0.3806 -0.2702 -1.1459
   80SOPE   O22 7220   3.372   3.998   7.246  0.4268  0.0722 -0.1207
   80SOPE   C22 7221   3.391   4.204   7.118 -1.1513  0.3368  0.2882
   80SOPE   H2R 7222   3.429   4.276   7.193  0.7267  2.1245 -2.2118
   80SOPE   H2S 7223   3.317   4.254   7.051  0.7179 -0.4540 -2.5380
   80SOPE    C3 7224   3.076   3.902   7.179  0.2072  0.0743 -0.5515
   80SOPE    HX 7225   2.997   3.839   7.224  0.1120 -0.3460 -1.3081
   80SOPE    HY 7226   3.175   3.851   7.185  0.1141 -0.2301 -1.4269
   80SOPE   O31 7227   3.042   3.933   7.040  0.0630  0.2135  0.7090
   80SOPE   C31 7228   3.108   3.869   6.949 -0.0435  0.5101  0.0123
   80SOPE   O32 7229   3.184   3.774   6.967 -0.1134  0.1960 -0.0421
   80SOPE   C32 7230   3.058   3.922   6.823  1.0088  0.8285  0.5624
   80SOPE   H2X 7231   2.965   3.980   6.837  0.2902  0.3409 -1.7094
   80SOPE   H2Y 7232   3.031   3.829   6.768  0.1935  0.7747  1.0443
   80SOPE   C23 7233   3.509   4.152   7.028 -0.0636  0.3904 -0.3276
   80SOPE   H3R 7234   3.587   4.104   7.091 -1.1506 -0.9304  0.0535
   80SOPE   H3S 7235   3.558   4.245   6.993  1.7227 -0.5030 -0.3383
   80SOPE   C24 7236   3.461   4.058   6.921 -0.8080 -0.2946 -0.1487
   80SOPE   H4R 7237   3.434   3.966   6.976  2.1468 -0.9956  0.3224
   80SOPE   H4S 7238   3.368   4.105   6.883 -1.0266  0.9348  1.7756
   80SOPE   C25 7239   3.578   4.020   6.835 -0.7488 -0.1488 -0.8019
   80SOPE   H5R 7240   3.593   4.099   6.758  0.1482 -0.9037 -1.4341
   80SOPE   H5S 7241   3.673   3.988   6.883 -0.5788  0.4380 -0.7474
   80SOPE   C26 7242   3.546   3.903   6.742  0.5217  0.8378  1.3172
   80SOPE   H6R 7243   3.570   3.816   6.807  1.0417 -0.7223 -0.8774
   80SOPE   H6S 7244   3.442   3.904   6.703  0.9610 -0.2739  0.0728
   80SOPE   C27 7245   3.640   3.906   6.615 -0.2862 -0.2605 -0.4668
   80SOPE   H7R 7246   3.737   3.941   6.657 -0.3020 -0.8879  0.1187
   80SOPE   H7S 7247   3.654   3.801   6.582  0.4329 -1.2606  2.6436
   80SOPE   C28 7248   3.612   4.003   6.496  0.2760  0.2504 -0.5641
   80SOPE   H8R 7249   3.589   4.104   6.535 -2.1262 -0.3739 -0.2078
   80SOPE   H8S 7250   3.709   4.012   6.443  2.0094 -3.4043  1.5906
   80SOPE   C29 7251   3.505   3.943   6.416 -0.0948  0.3133 -0.2071
   80SOPE   H91 7252   3.438   3.882   6.478  0.6327 -1.3129 -0.9509
   80SOPE  C210 7253   3.499   3.936   6.281 -0.1725 -0.1785 -0.1396
   80SOPE  H101 7254   3.405   3.903   6.233 -1.6596  1.2792  1.6110
   80SOPE  C211 7255   3.594   4.001   6.182 -0.5445  0.2660 -0.0669
   80SOPE  H11R 7256   3.694   4.016   6.228 -0.9119 -0.6174  1.0761
   80SOPE  H11S 7257   3.560   4.103   6.153 -2.0719 -0.5700 -1.4317
   80SOPE  C212 7258   3.623   3.920   6.053 -0.6328 -0.1459 -0.1239
   80SOPE  H12R 7259   3.531   3.915   5.991  0.1108  2.6196 -1.6286
   80SOPE  H12S 7260   3.654   3.816   6.074  2.1929  0.5269 -0.5654
   80SOPE  C213 7261   3.732   3.983   5.972  0.0843 -0.1715 -0.2282
   80SOPE  H13R 7262   3.832   3.941   5.997  1.4236  2.6336 -0.5025
   80SOPE  H13S 7263   3.737   4.093   5.984  2.2240 -0.2756  0.1779
   80SOPE  C214 7264   3.716   3.952   5.825  0.1906 -0.4718  0.2505
   80SOPE  H14R 7265   3.694   3.843   5.817  1.0720 -0.8106  1.8930
   80SOPE  H14S 7266   3.817   3.964   5.781  0.0077  1.0817  0.2267
   80SOPE  C215 7267   3.636   4.063   5.755 -0.5130  0.2928  0.1052
   80SOPE  H15R 7268   3.672   4.166   5.780 -1.9977  1.0861 -0.8709
   80SOPE  H15S 7269   3.527   4.058   5.777 -0.7389 -3.2560 -1.2631
   80SOPE  C216 7270   3.648   4.050   5.603  0.0554 -0.8767 -0.6790
   80SOPE  H16R 7271   3.602   3.956   5.565 -0.4937 -0.7641 -0.3179
   80SOPE  H16S 7272   3.756   4.039   5.581  0.3606  1.7917 -0.7418
   80SOPE  C217 7273   3.584   4.173   5.533  0.0374  0.2719 -0.0106
   80SOPE  H17R 7274   3.601   4.269   5.586 -0.7404 -1.2257  3.2008
   80SOPE  H17S 7275   3.476   4.148   5.537  0.4799 -2.0389 -0.7237
   80SOPE  C218 7276   3.613   4.194   5.381 -0.5664 -0.0492  0.1410
   80SOPE  H18R 7277   3.720   4.224   5.373  0.2851 -2.5342  1.4736
   80SOPE  H18S 7278   3.540   4.268   5.340 -0.8331 -0.5696 -0.3309
   80SOPE  H18T 7279   3.613   4.097   5.327 -2.9370  0.0332 -0.1246
   80SOPE   C33 7280   3.163   3.999   6.743 -0.4900 -0.7733 -0.0663
   80SOPE   H3X 7281   3.257   3.945   6.769 -1.6872 -3.6214 -1.2255
   80SOPE   H3Y 7282   3.180   4.099   6.789  2.0775 -1.4232  0.5584
   80SOPE   C34 7283   3.138   4.003   6.593  0.0132  0.8191 -0.3460
   80SOPE   H4X 7284   3.049   3.937   6.579 -0.4042  1.5287 -1.1119
   80SOPE   H4Y 7285   3.234   3.965   6.551  1.6780  3.3562  0.9098
   80SOPE   C35 7286   3.097   4.146   6.545  0.0852 -0.2967  0.3214
   80SOPE   H5X 7287   3.191   4.199   6.519 -0.1295  1.0462  2.0972
   80SOPE   H5Y 7288   3.061   4.205   6.633  1.6266  0.8107  0.2399
   80SOPE   C36 7289   2.995   4.153   6.423  0.1667  0.2953  0.1678
   80SOPE   H6X 7290   2.969   4.259   6.401  0.0462  0.7008  2.0651
   80SOPE   H6Y 7291   2.905   4.093   6.446 -0.4774  1.3455  0.4376
   80SOPE   C37 7292   3.051   4.088   6.287 -0.2389 -0.2569  0.4844
   80SOPE   H7X 7293   2.972   4.083   6.209  0.8230  1.3413 -0.7487
   80SOPE   H7Y 7294   3.072   3.980   6.302  0.4599 -0.2693 -0.4981
   80SOPE   C38 7295   3.186   4.156   6.241 -0.6211 -0.5204  0.3170
   80SOPE   H8X 7296   3.261   4.126   6.317 -0.1837 -0.2912 -0.0160
   80SOPE   H8Y 7297   3.175   4.267   6.238  0.4717 -0.4229 -1.3702
   80SOPE   C39 7298   3.232   4.104   6.101  0.0370 -0.3508 -0.2636
   80SOPE   H9X 7299   3.224   3.993   6.091 -0.5438 -0.2459 -1.0502
   80SOPE   H9Y 7300   3.338   4.136   6.088 -0.4433  2.2646  1.5194
   80SOPE  C310 7301   3.152   4.159   5.978 -0.0613 -0.3748 -0.7678
   80SOPE  H10X 7302   3.151   4.266   6.008 -0.3886 -1.1356  2.1749
   80SOPE  H10Y 7303   3.045   4.132   5.974  0.0764 -0.9623 -0.5187
   80SOPE  C311 7304   3.209   4.120   5.841 -0.9731 -0.7776  0.5731
   80SOPE  H11X 7305   3.236   4.013   5.834  0.4120 -0.3437 -1.3247
   80SOPE  H11Y 7306   3.305   4.176   5.836 -1.5658  0.4147  1.7436
   80SOPE  C312 7307   3.105   4.163   5.727 -0.8645  0.6691 -0.9861
   80SOPE  H12X 7308   3.103   4.273   5.733 -0.7877  0.7326 -2.0281
   80SOPE  H12Y 7309   3.007   4.111   5.737 -1.3163  1.5668 -0.6890
   80SOPE  C313 7310   3.173   4.131   5.593 -0.2538  0.4286  0.7829
   80SOPE  H13X 7311   3.144   4.026   5.569  1.6732  0.4075 -1.8770
   80SOPE  H13Y 7312   3.282   4.144   5.606  0.2843 -2.0100 -0.6381
   80SOPE  C314 7313   3.125   4.224   5.478 -0.1226 -0.0775  0.4994
   80SOPE  H14X 7314   3.157   4.328   5.502  0.1167 -0.0146 -0.0808
   80SOPE  H14Y 7315   3.014   4.223   5.474 -0.1286  0.3200 -3.1456
   80SOPE  C315 7316   3.191   4.198   5.340 -0.5187 -0.7885  0.3043
   80SOPE  H15X 7317   3.148   4.103   5.304 -0.7355 -0.6403  0.1748
   80SOPE  H15Y 7318   3.302   4.198   5.354 -0.5997 -2.5346  1.2522
   80SOPE  C316 7319   3.143   4.295   5.237  0.2188  0.0751 -0.1281
   80SOPE  H16X 7320   3.170   4.400   5.262 -1.0077  0.7306 -1.3729
   80SOPE  H16Y 7321   3.032   4.298   5.245  0.2083  0.2901 -0.3140
   80SOPE  C317 7322   3.191   4.286   5.091  0.4203 -0.9311  0.2793
   80SOPE  H17X 7323   3.130   4.354   5.028  2.0358  0.0274 -0.3330
   80SOPE  H17Y 7324   3.163   4.189   5.045 -0.6108  0.4273 -2.2136
   80SOPE  C318 7325   3.340   4.329   5.077 -0.2558  0.2248  0.2203
   80SOPE  H18X 7326   3.357   4.436   5.103 -0.9664  0.6547 -1.0255
   80SOPE  H18Y 7327   3.369   4.317   4.971 -1.5980 -1.2100 -0.0156
   80SOPE  H18Z 7328   3.406   4.258   5.131 -1.7459 -0.2198  1.5188
   81SOPE     N 7329   1.019   1.812   7.037 -0.0510 -0.8163 -0.2480
   81SOPE   HN1 7330   1.117   1.843   7.027 -0.9387  2.4607  0.1034
   81SOPE   HN2 7331   0.994   1.719   6.998  0.1551 -1.5523  1.2811
   81SOPE   HN3 7332   0.950   1.879   6.998 -2.5863 -2.5540  0.9197
   81SOPE   C12 7333   1.007   1.818   7.194  0.7847 -0.3408 -0.1192
   81SOPE  H12A 7334   1.080   1.891   7.234  0.5688  1.2480 -2.4524
   81SOPE  H12B 7335   1.037   1.721   7.239 -0.0080  0.8128  3.1219
   81SOPE   C11 7336   0.863   1.861   7.246 -0.6490  0.6691 -0.3267
   81SOPE  H11A 7337   0.868   1.848   7.357  2.1861 -0.7702 -0.5201
   81SOPE  H11B 7338   0.783   1.792   7.213 -1.3854  1.5417 -0.3782
   81SOPE     P 7339   0.731   2.032   7.106 -0.6195  0.1025 -0.2203
   81SOPE   O13 7340   0.754   2.168   7.067 -0.1403 -0.6632 -0.0453
   81SOPE   O14 7341   0.595   1.997   7.157  0.4043  0.2966 -0.2988
   81SOPE   O12 7342   0.844   1.998   7.220  0.3111  0.4037  0.5638
   81SOPE   O11 7343   0.778   1.928   6.993  0.8525 -0.1479  0.1997
   81SOPE    C1 7344   0.698   1.915   6.873  0.1685  0.1781  0.0649
   81SOPE    HA 7345   0.637   2.006   6.849  1.7805  1.9490  2.2584
   81SOPE    HB 7346   0.622   1.836   6.892 -0.9764  0.6821 -2.0850
   81SOPE    C2 7347   0.782   1.898   6.750  0.3863  0.0815  0.1780
   81SOPE    HS 7348   0.866   1.837   6.790 -1.5781 -0.4907  3.8125
   81SOPE   O21 7349   0.827   2.030   6.699 -0.4346 -0.1065 -0.5656
   81SOPE   C21 7350   0.930   2.086   6.749 -0.2079 -0.0976  0.2737
   81SOPE   O22 7351   1.015   2.036   6.818 -0.6043  0.0701  0.1123
   81SOPE   C22 7352   0.940   2.224   6.690 -0.4353 -0.5400  0.4537
   81SOPE   H2R 7353   1.009   2.278   6.759  0.3080 -2.2848  1.1220
   81SOPE   H2S 7354   0.842   2.276   6.706  0.0763  0.7892 -0.5431
   81SOPE    C3 7355   0.715   1.821   6.639  0.5053  0.2603  0.6510
   81SOPE    HX 7356   0.617   1.871   6.621  1.9640  2.6989 -1.0083
   81SOPE    HY 7357   0.684   1.720   6.675 -1.0476  0.3241 -0.3795
   81SOPE   O31 7358   0.793   1.822   6.518 -0.6301 -0.1068 -0.2072
   81SOPE   C31 7359   0.896   1.737   6.529  0.1163  0.0508  0.7582
   81SOPE   O32 7360   0.912   1.658   6.617 -0.2254 -0.1441  0.1384
   81SOPE   C32 7361   0.980   1.752   6.392 -0.4393 -0.2298 -0.2530
   81SOPE   H2X 7362   1.040   1.659   6.384 -1.2719 -0.7852 -0.1988
   81SOPE   H2Y 7363   1.043   1.844   6.398 -0.7900  0.0732 -0.9753
   81SOPE   C23 7364   0.984   2.231   6.547  0.0558  0.3180  0.6304
   81SOPE   H3R 7365   1.051   2.148   6.516  3.0456  2.8399 -0.1877
   81SOPE   H3S 7366   1.034   2.323   6.508  1.6296 -0.5538  0.5129
   81SOPE   C24 7367   0.863   2.230   6.453  1.5630 -0.0748  0.2265
   81SOPE   H4R 7368   0.804   2.142   6.485  2.4942  0.1519  2.8322
   81SOPE   H4S 7369   0.804   2.324   6.469  2.8085  0.7970 -0.1608
   81SOPE   C25 7370   0.904   2.223   6.306  0.3917  0.2899  0.8356
   81SOPE   H5R 7371   0.968   2.305   6.268 -1.4877  1.1431 -0.6688
   81SOPE   H5S 7372   0.956   2.127   6.286 -1.6350 -0.4993 -1.0996
   81SOPE   C26 7373   0.784   2.221   6.215 -0.2055  0.1312  0.3761
   81SOPE   H6R 7374   0.726   2.131   6.244  0.2256 -0.7878 -1.4252
   81SOPE   H6S 7375   0.717   2.308   6.229 -1.3771 -0.2773 -2.0931
   81SOPE   C27 7376   0.821   2.216   6.066  0.2358 -0.2307  0.1438
   81SOPE   H7R 7377   0.860   2.318   6.046  0.7471  0.2906  3.1940
   81SOPE   H7S 7378   0.904   2.146   6.044  0.4519  0.0838 -0.0576
   81SOPE   C28 7379   0.703   2.183   5.966  0.5876  0.9500  0.3716
   81SOPE   H8R 7380   0.753   2.181   5.866  2.2063  0.9340  1.1467
   81SOPE   H8S 7381   0.664   2.087   6.005  0.7544  0.4028 -0.7581
   81SOPE   C29 7382   0.602   2.297   5.969  0.6415  0.3373 -0.0423
   81SOPE   H91 7383   0.603   2.359   6.060  1.4948  1.2360 -0.6299
   81SOPE  C210 7384   0.518   2.334   5.870  0.2822  0.1402  0.5333
   81SOPE  H101 7385   0.450   2.418   5.889  0.3011  0.5053 -0.8982
   81SOPE  C211 7386   0.504   2.270   5.741 -0.0274 -0.1474 -0.3936
   81SOPE  H11R 7387   0.399   2.233   5.732 -1.0026  1.9082  1.4589
   81SOPE  H11S 7388   0.563   2.176   5.736  0.7958  0.3381 -0.0627
   81SOPE  C212 7389   0.538   2.365   5.623  0.4930 -0.4919 -0.4561
   81SOPE  H12R 7390   0.475   2.456   5.636  0.0607 -0.5952 -1.7412
   81SOPE  H12S 7391   0.511   2.303   5.535 -0.2644  0.5694 -0.9968
   81SOPE  C213 7392   0.687   2.402   5.623  0.1155  0.0832  0.2579
   81SOPE  H13R 7393   0.755   2.335   5.680  0.7649  0.4096 -0.1186
   81SOPE  H13S 7394   0.690   2.487   5.695  0.8329  0.2172  0.0861
   81SOPE  C214 7395   0.738   2.464   5.490 -0.2779  0.8306 -0.1085
   81SOPE  H14R 7396   0.699   2.568   5.489 -1.1697  0.5026 -0.8998
   81SOPE  H14S 7397   0.694   2.403   5.408 -0.7797 -1.0659  1.4987
   81SOPE  C215 7398   0.895   2.474   5.482  0.2386 -0.1647  0.4289
   81SOPE  H15R 7399   0.940   2.377   5.453 -3.4894 -1.9179  0.0068
   81SOPE  H15S 7400   0.940   2.508   5.578  3.2685 -0.1562 -0.8656
   81SOPE  C216 7401   0.939   2.560   5.367  0.4085 -0.4993  0.0074
   81SOPE  H16R 7402   1.037   2.604   5.397  0.8552 -2.3053  1.3740
   81SOPE  H16S 7403   0.868   2.646   5.364  1.4102  0.3801  0.5444
   81SOPE  C217 7404   0.946   2.482   5.228 -0.2227 -0.2658 -0.1546
   81SOPE  H17R 7405   0.841   2.468   5.195 -0.3197  0.2867 -0.0906
   81SOPE  H17S 7406   1.001   2.390   5.253  0.3848  0.5506  1.7268
   81SOPE  C218 7407   1.017   2.575   5.123 -0.5035  0.0897  0.1120
   81SOPE  H18R 7408   0.975   2.675   5.148 -2.2221 -0.7777  0.8784
   81SOPE  H18S 7409   1.006   2.543   5.017 -0.1254 -2.5915  0.8048
   81SOPE  H18T 7410   1.127   2.584   5.137 -0.6893  0.8783  1.2307
   81SOPE   C33 7411   0.888   1.746   6.269  0.5455 -0.0169 -0.2302
   81SOPE   H3X 7412   0.805   1.817   6.283 -0.1605 -0.5435 -1.5076
   81SOPE   H3Y 7413   0.852   1.642   6.254  2.8449 -0.6262 -2.2245
   81SOPE   C34 7414   0.973   1.784   6.143  0.7209 -0.3868  0.0238
   81SOPE   H4X 7415   1.039   1.697   6.121  0.1541 -1.1537  1.1973
   81SOPE   H4Y 7416   1.035   1.874   6.162 -0.7218  0.3659  1.3901
   81SOPE   C35 7417   0.881   1.829   6.025 -0.7616 -1.2528 -0.1792
   81SOPE   H5X 7418   0.840   1.931   6.041 -0.7773 -0.9611 -1.8981
   81SOPE   H5Y 7419   0.796   1.758   6.025  0.2384 -2.6777 -3.8350
   81SOPE   C36 7420   0.963   1.834   5.897  0.1100  0.6160 -0.0994
   81SOPE   H6X 7421   0.971   1.737   5.844 -2.5865  0.6473 -0.7111
   81SOPE   H6Y 7422   1.062   1.879   5.923  0.6116  2.1686 -4.0314
   81SOPE   C37 7423   0.908   1.935   5.797  0.1097  0.4204  0.3715
   81SOPE   H7X 7424   0.984   1.931   5.717  1.1777 -2.2554  1.3804
   81SOPE   H7Y 7425   0.910   2.035   5.846 -1.0252 -0.2603  1.9269
   81SOPE   C38 7426   0.768   1.903   5.744 -0.0915 -0.3219  0.7243
   81SOPE   H8X 7427   0.693   1.918   5.824  0.1836  4.0448  0.4266
   81SOPE   H8Y 7428   0.767   1.795   5.721  0.6823 -0.8422  2.9329
   81SOPE   C39 7429   0.731   1.987   5.619 -0.0804 -0.1436 -0.5687
   81SOPE   H9X 7430   0.747   2.092   5.652  0.7095 -1.0897  2.2814
   81SOPE   H9Y 7431   0.621   1.985   5.598 -0.3194  0.8136  0.5011
   81SOPE  C310 7432   0.820   1.964   5.496  0.2603 -0.6887 -0.3071
   81SOPE  H10X 7433   0.805   1.861   5.457 -1.5748 -1.2709  1.7274
   81SOPE  H10Y 7434   0.929   1.979   5.511 -0.0312  0.1944  1.0093
   81SOPE  C311 7435   0.781   2.064   5.393  0.2582  0.5540 -0.3879
   81SOPE  H11X 7436   0.825   2.160   5.427 -1.2988  1.5306 -0.9759
   81SOPE  H11Y 7437   0.670   2.069   5.381 -0.0057 -2.6027 -0.0468
   81SOPE  C312 7438   0.833   2.028   5.251  0.1530 -0.3473 -0.9968
   81SOPE  H12X 7439   0.764   1.948   5.215 -0.2008 -0.1222 -0.8233
   81SOPE  H12Y 7440   0.931   1.978   5.266  0.2172  0.0048 -0.2191
   81SOPE  C313 7441   0.850   2.143   5.161  0.9153 -0.1688 -0.1203
   81SOPE  H13X 7442   0.884   2.233   5.217 -2.1123  1.9932 -1.4652
   81SOPE  H13Y 7443   0.753   2.178   5.118  0.6914 -0.2750  0.2993
   81SOPE  C314 7444   0.975   2.129   5.064  0.3000 -0.0536  0.1628
   81SOPE  H14X 7445   1.071   2.113   5.118 -0.2536 -2.4102  0.5551
   81SOPE  H14Y 7446   0.979   2.232   5.023 -0.9221  0.7915  2.0735
   81SOPE  C315 7447   0.949   2.008   4.968 -0.0748 -0.8250  0.1927
   81SOPE  H15X 7448   0.842   2.006   4.939 -0.1882  1.1513  0.3139
   81SOPE  H15Y 7449   0.977   1.915   5.023  0.0003  1.8726  5.3007
   81SOPE  C316 7450   1.037   2.004   4.845  0.4786 -0.6756  0.3334
   81SOPE  H16X 7451   1.023   2.102   4.795 -1.8944  0.0847  2.3043
   81SOPE  H16Y 7452   1.001   1.928   4.771  0.3985  0.4644 -0.8314
   81SOPE  C317 7453   1.190   1.990   4.867 -0.1305 -0.1165 -0.6951
   81SOPE  H17X 7454   1.206   1.909   4.941 -1.0879 -1.9538 -2.3980
   81SOPE  H17Y 7455   1.209   2.080   4.930 -2.0681 -0.5378  0.6035
   81SOPE  C318 7456   1.288   1.973   4.750 -0.1033 -1.0898 -0.2888
   81SOPE  H18X 7457   1.292   1.878   4.694  0.2589 -1.2804  0.0516
   81SOPE  H18Y 7458   1.395   1.996   4.771  0.0557  0.2036 -2.1985
   81SOPE  H18Z 7459   1.263   2.047   4.671 -2.9230 -0.9843  0.6123
   82SOPE     N 7460   3.590   5.325   7.361  0.0584  0.1901 -0.2679
   82SOPE   HN1 7461   3.641   5.405   7.402 -0.2897 -0.8919  2.5221
   82SOPE   HN2 7462   3.647   5.264   7.299  1.0188  1.0671 -0.2704
   82SOPE   HN3 7463   3.507   5.364   7.310 -2.2473 -0.2165  2.8827
   82SOPE   C12 7464   3.548   5.230   7.467 -0.0835 -0.0266  0.3294
   82SOPE  H12A 7465   3.489   5.285   7.543 -0.0354  1.3191 -0.5622
   82SOPE  H12B 7466   3.640   5.184   7.508  0.4421  1.6657  1.1017
   82SOPE   C11 7467   3.481   5.107   7.403 -0.6516 -0.2108  0.1129
   82SOPE  H11A 7468   3.385   5.140   7.356  0.0633  1.6025 -0.1308
   82SOPE  H11B 7469   3.454   5.019   7.467 -1.6542 -0.5780 -0.7771
   82SOPE     P 7470   3.582   4.928   7.227 -0.1623 -0.1852 -0.0450
   82SOPE   O13 7471   3.568   4.808   7.319 -0.3300 -0.0471  0.1808
   82SOPE   O14 7472   3.695   4.927   7.135  0.0474  0.3628  0.0467
   82SOPE   O12 7473   3.583   5.065   7.307  0.4101 -0.1232  0.2093
   82SOPE   O11 7474   3.456   4.945   7.130  0.0824  0.4320 -0.5641
   82SOPE    C1 7475   3.446   5.066   7.054 -0.2384 -0.4198  0.1199
   82SOPE    HA 7476   3.503   5.076   6.959 -0.0817  1.5149  0.3831
   82SOPE    HB 7477   3.455   5.155   7.120 -1.6548 -0.4024  0.3175
   82SOPE    C2 7478   3.298   5.066   7.016  0.3304  0.1092  0.3316
   82SOPE    HS 7479   3.224   5.037   7.093 -0.2737  2.4252  0.6996
   82SOPE   O21 7480   3.286   4.976   6.909  0.9986 -0.0458 -0.1725
   82SOPE   C21 7481   3.172   4.947   6.863  1.0172  0.6417 -0.1262
   82SOPE   O22 7482   3.063   4.974   6.916  0.0129  0.4491 -0.2330
   82SOPE   C22 7483   3.184   4.871   6.735  0.4394  0.0546  0.9395
   82SOPE   H2R 7484   3.213   4.764   6.746 -1.1286 -0.4571  0.4627
   82SOPE   H2S 7485   3.262   4.927   6.681  2.3108  0.2990  3.6899
   82SOPE    C3 7486   3.253   5.207   6.966  0.0387  0.0967  0.0017
   82SOPE    HX 7487   3.258   5.274   7.055  1.2535 -0.6620  0.5395
   82SOPE    HY 7488   3.145   5.192   6.944 -0.2372  3.5007 -1.6302
   82SOPE   O31 7489   3.337   5.243   6.852  0.1433 -0.9180 -0.4630
   82SOPE   C31 7490   3.277   5.240   6.740  0.0152 -0.0943 -0.1685
   82SOPE   O32 7491   3.156   5.245   6.724 -0.4764 -0.3189 -0.2949
   82SOPE   C32 7492   3.379   5.255   6.628 -1.0780  0.0828 -0.4093
   82SOPE   H2X 7493   3.426   5.157   6.600 -1.4241  0.0481 -0.8869
   82SOPE   H2Y 7494   3.456   5.322   6.672 -0.5017 -1.4022  0.9603
   82SOPE   C23 7495   3.067   4.881   6.642  0.2768 -0.2689  0.5617
   82SOPE   H3R 7496   3.042   4.986   6.616  1.2556 -0.0120  0.6201
   82SOPE   H3S 7497   2.982   4.828   6.691  0.1655 -1.0788 -0.4750
   82SOPE   C24 7498   3.088   4.810   6.504  0.3834  0.5156  0.2175
   82SOPE   H4R 7499   3.119   4.705   6.520 -0.2490  0.2487 -0.2898
   82SOPE   H4S 7500   2.997   4.805   6.441  1.2076 -0.4426 -0.9239
   82SOPE   C25 7501   3.193   4.878   6.408  0.2127  0.5533 -0.0025
   82SOPE   H5R 7502   3.203   4.988   6.421  1.1574  0.4330  0.3405
   82SOPE   H5S 7503   3.291   4.836   6.438  0.7020 -1.1912 -3.5581
   82SOPE   C26 7504   3.162   4.849   6.262  0.2972  0.0419  0.3947
   82SOPE   H6R 7505   3.132   4.742   6.251  0.2770  0.0939 -0.1129
   82SOPE   H6S 7506   3.072   4.904   6.227 -0.1334  0.6196  2.3363
   82SOPE   C27 7507   3.277   4.876   6.159 -0.5820  0.3513 -0.0839
   82SOPE   H7R 7508   3.288   4.985   6.139 -0.9331  0.2450 -0.8822
   82SOPE   H7S 7509   3.365   4.825   6.205  0.8288  0.4578 -2.4876
   82SOPE   C28 7510   3.260   4.806   6.021 -0.0693 -0.3616  0.5498
   82SOPE   H8R 7511   3.353   4.816   5.962  1.3486  1.7811  2.9732
   82SOPE   H8S 7512   3.233   4.702   6.048  0.4068 -1.0925 -1.5772
   82SOPE   C29 7513   3.136   4.859   5.947 -0.1355  0.8653  0.5858
   82SOPE   H91 7514   3.039   4.829   5.989 -1.2509 -1.7489 -3.2916
   82SOPE  C210 7515   3.134   4.927   5.834  0.2647  0.3263  0.2463
   82SOPE  H101 7516   3.038   4.953   5.786 -0.6914  0.2996  2.0210
   82SOPE  C211 7517   3.255   4.949   5.750 -0.3620 -0.1159  0.5015
   82SOPE  H11R 7518   3.348   4.893   5.774 -0.4119 -0.9331 -1.1023
   82SOPE  H11S 7519   3.286   5.053   5.728 -0.4906 -0.7132 -3.0650
   82SOPE  C212 7520   3.210   4.885   5.609  0.5621 -0.1637  0.1817
   82SOPE  H12R 7521   3.116   4.939   5.584  0.3439 -0.6998 -0.1949
   82SOPE  H12S 7522   3.189   4.776   5.616  2.1594 -0.6302 -1.3608
   82SOPE  C213 7523   3.323   4.893   5.509 -0.0813  0.2582  0.2352
   82SOPE  H13R 7524   3.408   4.833   5.547  1.4539  2.1922  0.0011
   82SOPE  H13S 7525   3.368   4.990   5.480  0.7172 -1.0354 -3.5460
   82SOPE  C214 7526   3.275   4.836   5.370  0.5059  0.1337  0.4333
   82SOPE  H14R 7527   3.199   4.759   5.392 -1.1554  0.9361 -2.0635
   82SOPE  H14S 7528   3.366   4.794   5.323 -0.9998 -0.0079 -2.5612
   82SOPE  C215 7529   3.214   4.940   5.270 -0.1331  0.2451  0.4216
   82SOPE  H15R 7530   3.168   5.028   5.320 -0.2894 -0.2160  1.0948
   82SOPE  H15S 7531   3.140   4.887   5.207 -0.6930  0.0146  1.2568
   82SOPE  C216 7532   3.312   5.002   5.169  0.2293  0.1330  0.2969
   82SOPE  H16R 7533   3.332   4.917   5.099 -0.3906 -0.4761  0.8407
   82SOPE  H16S 7534   3.402   5.025   5.229 -1.4061  0.7894  2.6156
   82SOPE  C217 7535   3.241   5.120   5.095 -0.5454  0.0725 -0.0521
   82SOPE  H17R 7536   3.210   5.187   5.178  3.3400  1.1052  0.7627
   82SOPE  H17S 7537   3.159   5.078   5.033 -1.1039 -0.2097  0.8560
   82SOPE  C218 7538   3.330   5.201   5.015 -0.3561 -0.1968 -0.4894
   82SOPE  H18R 7539   3.395   5.145   4.944 -0.8800 -0.4671 -0.7547
   82SOPE  H18S 7540   3.399   5.265   5.075 -0.5375 -0.0948 -0.3899
   82SOPE  H18T 7541   3.281   5.286   4.962 -0.5894  0.2758  0.4615
   82SOPE   C33 7542   3.339   5.307   6.482  0.4010 -0.0412  0.1765
   82SOPE   H3X 7543   3.288   5.406   6.483 -1.2117 -0.7419 -2.4210
   82SOPE   H3Y 7544   3.270   5.238   6.428  0.6695  0.6998 -1.1656
   82SOPE   C34 7545   3.459   5.317   6.390  0.0379  0.6375 -0.2246
   82SOPE   H4X 7546   3.500   5.215   6.380 -2.5469 -0.4083 -1.0616
   82SOPE   H4Y 7547   3.526   5.393   6.435 -1.1673  1.8741 -0.4534
   82SOPE   C35 7548   3.396   5.355   6.259 -0.1614  0.6263 -0.3899
   82SOPE   H5X 7549   3.330   5.444   6.266 -3.4595 -1.7065  0.1539
   82SOPE   H5Y 7550   3.345   5.264   6.222  1.3309  0.3490 -1.9209
   82SOPE   C36 7551   3.508   5.382   6.155 -0.0208  0.4972  0.4283
   82SOPE   H6X 7552   3.571   5.292   6.169  0.4944  1.0445  1.8782
   82SOPE   H6Y 7553   3.575   5.468   6.178  1.4435 -0.2811 -0.8205
   82SOPE   C37 7554   3.455   5.390   6.010 -0.6500  0.8132  0.9186
   82SOPE   H7X 7555   3.375   5.467   6.004 -1.2937  0.0411 -1.8853
   82SOPE   H7Y 7556   3.399   5.295   5.995 -0.4015  1.0324 -1.8525
   82SOPE   C38 7557   3.562   5.422   5.912  0.6421  0.2030  0.0922
   82SOPE   H8X 7558   3.632   5.335   5.920  0.2605 -0.1159 -0.0023
   82SOPE   H8Y 7559   3.614   5.520   5.918 -0.0572  0.5654  0.3629
   82SOPE   C39 7560   3.498   5.415   5.773  0.0777 -0.7912  0.2077
   82SOPE   H9X 7561   3.418   5.487   5.747  1.7855  0.7807 -0.8893
   82SOPE   H9Y 7562   3.450   5.315   5.761  1.8066 -1.5513 -0.7947
   82SOPE  C310 7563   3.595   5.430   5.655 -0.7098 -0.8557  0.8149
   82SOPE  H10X 7564   3.670   5.349   5.667  0.1384 -0.0710  0.9307
   82SOPE  H10Y 7565   3.645   5.529   5.668 -0.8513 -0.9159  1.9098
   82SOPE  C311 7566   3.525   5.426   5.519 -0.0946 -0.2845 -0.3612
   82SOPE  H11X 7567   3.459   5.516   5.512  0.4388  0.0364 -1.7416
   82SOPE  H11Y 7568   3.469   5.331   5.506  1.9740 -1.6324  0.2699
   82SOPE  C312 7569   3.628   5.432   5.405 -0.0385 -0.0395  0.4953
   82SOPE  H12X 7570   3.717   5.368   5.426 -0.5002 -0.4389  1.2402
   82SOPE  H12Y 7571   3.669   5.536   5.403  1.0743 -0.4498  0.9940
   82SOPE  C313 7572   3.576   5.398   5.266  0.5015 -0.4147  0.4548
   82SOPE  H13X 7573   3.483   5.457   5.250  0.4366 -0.7539 -0.4799
   82SOPE  H13Y 7574   3.542   5.292   5.262 -0.9196  0.0163  0.3446
   82SOPE  C314 7575   3.680   5.430   5.156  0.0726 -0.1790 -0.3811
   82SOPE  H14X 7576   3.768   5.362   5.166 -1.0269 -1.4028  1.4933
   82SOPE  H14Y 7577   3.719   5.533   5.169 -0.4921 -0.1052  0.9019
   82SOPE  C315 7578   3.634   5.414   5.012  0.7924 -0.3452  0.0935
   82SOPE  H15X 7579   3.569   5.501   4.989 -0.4377 -1.5194 -1.0650
   82SOPE  H15Y 7580   3.572   5.323   4.995  0.3492 -0.1264  0.5047
   82SOPE  C316 7581   3.753   5.428   4.910 -0.1028  0.1462 -0.0626
   82SOPE  H16X 7582   3.826   5.345   4.923 -1.2673 -0.6775  1.7447
   82SOPE  H16Y 7583   3.800   5.523   4.941 -0.1769  0.5554 -1.1628
   82SOPE  C317 7584   3.717   5.424   4.757 -0.0029  0.7026  0.1127
   82SOPE  H17X 7585   3.615   5.450   4.721 -0.2121 -1.4107 -1.0227
   82SOPE  H17Y 7586   3.714   5.320   4.718  0.4616  0.5856  0.3765
   82SOPE  C318 7587   3.816   5.501   4.667  0.6375 -0.4307 -0.3076
   82SOPE  H18X 7588   3.783   5.514   4.562  0.5408 -1.8366 -0.4690
   82SOPE  H18Y 7589   3.911   5.445   4.653  1.4195  0.8273 -0.1962
   82SOPE  H18Z 7590   3.846   5.599   4.711  0.3825 -1.1571  1.6193
   83SOPE     N 7591   3.458   4.880   2.441 -1.0668 -0.1167  0.3532
   83SOPE   HN1 7592   3.408   4.961   2.399 -1.7564 -0.5659  0.3046
   83SOPE   HN2 7593   3.551   4.851   2.406 -0.5231 -1.3630  2.6373
   83SOPE   HN3 7594   3.388   4.804   2.436 -2.2227  0.9000  0.4773
   83SOPE   C12 7595   3.481   4.912   2.585 -0.2460 -1.0686 -0.3988
   83SOPE  H12A 7596   3.556   4.838   2.622  0.6380 -0.8526 -1.6864
   83SOPE  H12B 7597   3.379   4.912   2.630  0.2511 -0.3275  0.7819
   83SOPE   C11 7598   3.535   5.050   2.611 -0.1076 -0.1781  0.1791
   83SOPE  H11A 7599   3.529   5.062   2.722  0.4006  0.4171  0.1502
   83SOPE  H11B 7600   3.474   5.133   2.569  0.1715 -0.1095 -0.0946
   83SOPE     P 7601   3.803   5.050   2.628  0.2200 -0.6117  0.0915
   83SOPE   O13 7602   3.899   5.065   2.517 -0.5558 -0.6828 -0.6808
   83SOPE   O14 7603   3.793   4.913   2.672 -0.3549  0.1925 -0.1107
   83SOPE   O12 7604   3.669   5.080   2.562 -0.5392  0.3502  0.1409
   83SOPE   O11 7605   3.839   5.159   2.742  0.2049  0.7737 -0.2501
   83SOPE    C1 7606   3.877   5.288   2.699 -0.0766 -0.5364 -0.1081
   83SOPE    HA 7607   3.885   5.296   2.589  0.8190 -3.3328 -0.3271
   83SOPE    HB 7608   3.975   5.315   2.744  0.1568 -0.4182 -0.6859
   83SOPE    C2 7609   3.769   5.396   2.743  0.5984 -0.1325  0.5060
   83SOPE    HS 7610   3.802   5.489   2.691 -0.3706  0.1539  0.3902
   83SOPE   O21 7611   3.765   5.413   2.884  0.4404  0.0369  0.4701
   83SOPE   C21 7612   3.793   5.535   2.932 -0.1300  0.4030  0.4018
   83SOPE   O22 7613   3.832   5.625   2.864 -0.5940  0.2817 -0.5176
   83SOPE   C22 7614   3.750   5.550   3.080  0.7543 -0.3674  0.4828
   83SOPE   H2R 7615   3.669   5.475   3.093  1.2480 -1.6175 -2.6993
   83SOPE   H2S 7616   3.716   5.652   3.109  1.5522 -0.4198  1.6644
   83SOPE    C3 7617   3.627   5.366   2.688  0.7566 -0.0029  0.8599
   83SOPE    HX 7618   3.617   5.256   2.701  1.1970 -0.0690  0.6922
   83SOPE    HY 7619   3.616   5.376   2.578 -0.7493  1.1903  1.0841
   83SOPE   O31 7620   3.517   5.434   2.748  0.1868 -0.2663 -0.2696
   83SOPE   C31 7621   3.499   5.563   2.717 -0.1221  0.1424 -0.1938
   83SOPE   O32 7622   3.570   5.625   2.644 -0.7411 -0.2035 -0.2176
   83SOPE   C32 7623   3.367   5.612   2.783  0.0700 -0.6092  0.5200
   83SOPE   H2X 7624   3.288   5.536   2.767 -1.1420  0.8051 -0.4899
   83SOPE   H2Y 7625   3.340   5.709   2.736 -1.1893 -0.5163  1.4022
   83SOPE   C23 7626   3.865   5.513   3.172 -0.3850 -0.2453  0.2684
   83SOPE   H3R 7627   3.933   5.598   3.195 -0.0404 -0.2244 -0.7853
   83SOPE   H3S 7628   3.917   5.424   3.131  1.0716 -0.3420  2.1699
   83SOPE   C24 7629   3.811   5.469   3.317 -0.4571 -0.1930 -0.5128
   83SOPE   H4R 7630   3.733   5.542   3.349 -0.3393  0.3586 -1.4339
   83SOPE   H4S 7631   3.765   5.370   3.295  0.0453 -0.6119  0.2733
   83SOPE   C25 7632   3.924   5.452   3.415 -0.1788  0.5201  0.5445
   83SOPE   H5R 7633   3.987   5.369   3.376  0.7482  1.9282 -1.0855
   83SOPE   H5S 7634   3.983   5.546   3.418  0.7882 -0.0933  0.9901
   83SOPE   C26 7635   3.868   5.424   3.555 -0.4670  0.0313 -0.3044
   83SOPE   H6R 7636   3.788   5.499   3.573 -1.1556 -0.5720 -0.7769
   83SOPE   H6S 7637   3.818   5.327   3.535 -0.3269 -0.2314  0.5910
   83SOPE   C27 7638   3.969   5.426   3.678 -0.4378 -0.4058 -0.2814
   83SOPE   H7R 7639   4.061   5.370   3.650  1.4659  2.3336 -0.0088
   83SOPE   H7S 7640   4.003   5.529   3.702 -0.1999 -1.1544  3.0388
   83SOPE   C28 7641   3.904   5.367   3.803  0.6250  0.5044  0.3436
   83SOPE   H8R 7642   3.812   5.428   3.816  0.8309  1.3474 -1.7759
   83SOPE   H8S 7643   3.868   5.264   3.782  0.5315  0.2445  1.6760
   83SOPE   C29 7644   3.996   5.379   3.925  0.4819 -0.1742 -0.1454
   83SOPE   H91 7645   4.099   5.354   3.895 -0.4246 -2.7748 -1.4350
   83SOPE  C210 7646   3.951   5.396   4.048  0.1055  0.1139 -0.3524
   83SOPE  H101 7647   4.024   5.415   4.128  0.1132  1.8503 -0.7435
   83SOPE  C211 7648   3.812   5.414   4.098  0.3251 -0.6212  0.9221
   83SOPE  H11R 7649   3.737   5.427   4.018  0.7989 -0.9027  0.4239
   83SOPE  H11S 7650   3.800   5.502   4.164 -2.9160  0.4949 -0.9843
   83SOPE  C212 7651   3.773   5.296   4.182 -0.4781  0.2411  0.3054
   83SOPE  H12R 7652   3.763   5.217   4.105 -1.2145  0.9976 -0.3919
   83SOPE  H12S 7653   3.668   5.319   4.210 -1.1205  1.8115 -2.9553
   83SOPE  C213 7654   3.855   5.256   4.302 -0.1222  0.2085 -0.0967
   83SOPE  H13R 7655   3.853   5.337   4.377 -1.8989  0.7122 -0.6466
   83SOPE  H13S 7656   3.961   5.239   4.274  0.2665  0.5000  1.1653
   83SOPE  C214 7657   3.811   5.124   4.361 -0.3089 -0.0223 -0.4277
   83SOPE  H14R 7658   3.836   5.036   4.299  0.3389 -0.2794  0.1847
   83SOPE  H14S 7659   3.701   5.112   4.366 -0.2430 -0.2121  0.9852
   83SOPE  C215 7660   3.856   5.102   4.512  0.1607 -0.7080 -0.0148
   83SOPE  H15R 7661   3.776   5.161   4.561  0.9763  1.3457 -1.0235
   83SOPE  H15S 7662   3.951   5.159   4.528  0.9356 -1.8876 -0.3114
   83SOPE  C216 7663   3.849   4.961   4.566 -0.1621 -0.1640  0.0746
   83SOPE  H16R 7664   3.884   4.970   4.671  2.5977 -1.2671 -0.6639
   83SOPE  H16S 7665   3.919   4.891   4.516  1.4097  1.1067  0.4292
   83SOPE  C217 7666   3.710   4.899   4.553  0.0244 -0.4895 -0.3599
   83SOPE  H17R 7667   3.676   4.899   4.448 -0.4885 -0.3022 -0.1953
   83SOPE  H17S 7668   3.636   4.959   4.610 -0.2238 -0.5069 -0.6653
   83SOPE  C218 7669   3.716   4.754   4.606 -0.0695 -0.7239  0.3309
   83SOPE  H18R 7670   3.613   4.715   4.588 -0.5556  0.3093  0.7312
   83SOPE  H18S 7671   3.739   4.747   4.715  1.6108  0.5939  0.0977
   83SOPE  H18T 7672   3.788   4.690   4.551 -0.8705 -0.4281 -1.1105
   83SOPE   C33 7673   3.388   5.637   2.936 -0.2296 -0.8418  0.9175
   83SOPE   H3X 7674   3.310   5.694   2.991 -0.0018  0.9421 -0.5102
   83SOPE   H3Y 7675   3.485   5.690   2.949 -0.3299  0.4466 -2.4763
   83SOPE   C34 7676   3.396   5.499   3.002 -0.2544  0.2131  0.9892
   83SOPE   H4X 7677   3.494   5.451   2.981  0.4288  1.2779  1.6197
   83SOPE   H4Y 7678   3.309   5.435   2.977 -1.9114  0.6289  4.9626
   83SOPE   C35 7679   3.409   5.509   3.153 -0.4045  0.3066 -0.1771
   83SOPE   H5X 7680   3.483   5.589   3.175 -0.0162 -0.3164  0.8989
   83SOPE   H5Y 7681   3.464   5.419   3.187 -1.8736 -0.9067 -0.8738
   83SOPE   C36 7682   3.280   5.529   3.232 -0.4333  0.3475  0.4639
   83SOPE   H6X 7683   3.214   5.440   3.220  1.9617 -1.7937  2.1150
   83SOPE   H6Y 7684   3.227   5.617   3.189  0.9476  1.0825  0.2231
   83SOPE   C37 7685   3.306   5.545   3.381 -0.7548  0.7467  0.1298
   83SOPE   H7X 7686   3.211   5.542   3.438 -0.1924  0.0950  1.0697
   83SOPE   H7Y 7687   3.342   5.648   3.403  0.6894 -0.2207  2.7984
   83SOPE   C38 7688   3.394   5.438   3.447 -0.4337 -0.3507  0.3051
   83SOPE   H8X 7689   3.502   5.462   3.447 -0.8310  1.6569  1.5062
   83SOPE   H8Y 7690   3.379   5.347   3.385  0.4343 -0.3173  0.0326
   83SOPE   C39 7691   3.351   5.416   3.595 -0.6271  1.1216  0.1391
   83SOPE   H9X 7692   3.243   5.395   3.615 -0.0346 -1.2160  1.1675
   83SOPE   H9Y 7693   3.365   5.516   3.642  0.7935  1.0056  0.0071
   83SOPE  C310 7694   3.446   5.323   3.672  0.0247  0.1298 -0.1088
   83SOPE  H10X 7695   3.550   5.357   3.655  0.5212 -1.8072 -1.2061
   83SOPE  H10Y 7696   3.427   5.234   3.609 -0.0154  0.9791 -1.3352
   83SOPE  C311 7697   3.401   5.302   3.816 -0.2255 -0.4364  0.1874
   83SOPE  H11X 7698   3.291   5.286   3.817 -0.3574 -0.6454 -3.4490
   83SOPE  H11Y 7699   3.414   5.392   3.879 -1.4129 -1.2048  1.6171
   83SOPE  C312 7700   3.461   5.187   3.886 -0.2554  0.1748  0.4487
   83SOPE  H12X 7701   3.571   5.193   3.873  0.1310  0.1262  3.0880
   83SOPE  H12Y 7702   3.432   5.089   3.843 -0.1318  0.4844 -0.3447
   83SOPE  C313 7703   3.423   5.168   4.038  0.7557  0.4843 -0.5548
   83SOPE  H13X 7704   3.315   5.193   4.039  0.4738 -0.5847 -1.4742
   83SOPE  H13Y 7705   3.488   5.237   4.095 -3.2414  3.7378  0.5037
   83SOPE  C314 7706   3.454   5.029   4.077  0.1955  0.4079 -0.5908
   83SOPE  H14X 7707   3.551   4.996   4.034 -0.1665 -3.0191  0.8251
   83SOPE  H14Y 7708   3.384   4.963   4.022  0.1185 -1.1407  1.2319
   83SOPE  C315 7709   3.429   4.992   4.226 -0.5294 -0.1524  0.0849
   83SOPE  H15X 7710   3.338   5.044   4.262 -0.6784 -0.7660  0.6019
   83SOPE  H15Y 7711   3.514   5.038   4.280  0.9788 -0.9423 -1.4994
   83SOPE  C316 7712   3.438   4.840   4.271 -0.6980  0.3339  0.2343
   83SOPE  H16X 7713   3.408   4.835   4.378 -0.0690 -0.4764  0.3755
   83SOPE  H16Y 7714   3.541   4.802   4.255 -0.4269  1.0740  0.1651
   83SOPE  C317 7715   3.345   4.741   4.199  0.8388 -0.4160 -0.4433
   83SOPE  H17X 7716   3.344   4.741   4.088 -1.0597 -0.0220 -0.4614
   83SOPE  H17Y 7717   3.243   4.775   4.229  0.9456  0.0312 -0.5834
   83SOPE  C318 7718   3.360   4.592   4.246  0.5237  0.1838  0.2528
   83SOPE  H18X 7719   3.460   4.548   4.225  0.0045 -0.5436 -0.8006
   83SOPE  H18Y 7720   3.291   4.529   4.185 -0.9256  1.4656  0.4806
   83SOPE  H18Z 7721   3.334   4.579   4.353 -2.4808 -1.3724 -0.5505
   84SOPE     N 7722   1.833   4.285   2.380  0.2162 -0.0978 -0.3438
   84SOPE   HN1 7723   1.933   4.257   2.391 -0.0188 -0.7829  0.0968
   84SOPE   HN2 7724   1.779   4.201   2.407  1.1859 -0.1132  1.7754
   84SOPE   HN3 7725   1.825   4.305   2.278 -1.1982  1.2359 -0.0116
   84SOPE   C12 7726   1.811   4.403   2.468 -0.1006 -0.5041  0.6312
   84SOPE  H12A 7727   1.711   4.447   2.450 -1.3640 -3.0477  0.8679
   84SOPE  H12B 7728   1.888   4.478   2.443  0.2998 -1.2463 -0.4242
   84SOPE   C11 7729   1.820   4.362   2.620  0.4405  0.6725  0.0429
   84SOPE  H11A 7730   1.742   4.289   2.651  1.5245  0.0887  1.5084
   84SOPE  H11B 7731   1.801   4.457   2.674  0.0092  0.5533  0.0986
   84SOPE     P 7732   2.073   4.397   2.693  0.2400  0.0889  0.5619
   84SOPE   O13 7733   2.090   4.503   2.593  0.0952  0.0675  0.0027
   84SOPE   O14 7734   2.189   4.303   2.705 -0.5198 -0.3261  0.5372
   84SOPE   O12 7735   1.948   4.304   2.652 -0.3494 -0.0944  0.2425
   84SOPE   O11 7736   2.030   4.463   2.831 -0.0050  0.0803 -0.2711
   84SOPE    C1 7737   2.045   4.388   2.956  0.6175  0.8388 -0.0961
   84SOPE    HA 7738   2.042   4.464   3.037 -0.9602 -0.3609  1.0076
   84SOPE    HB 7739   2.145   4.342   2.969 -0.3832 -0.9722  1.6105
   84SOPE    C2 7740   1.926   4.295   2.976  0.5780 -0.0567 -0.2051
   84SOPE    HS 7741   1.908   4.249   2.876 -0.4684  0.6696 -0.3701
   84SOPE   O21 7742   1.816   4.373   3.007 -0.2032  0.2008 -0.2944
   84SOPE   C21 7743   1.700   4.320   2.986 -0.0611 -0.0792 -0.3666
   84SOPE   O22 7744   1.673   4.219   2.923  0.5093 -0.4876  0.2292
   84SOPE   C22 7745   1.588   4.403   3.048 -0.2447 -0.1132 -0.8426
   84SOPE   H2R 7746   1.544   4.467   2.968 -0.5892  1.9431  0.8910
   84SOPE   H2S 7747   1.636   4.473   3.120 -2.1329 -1.8711  2.2953
   84SOPE    C3 7748   1.949   4.174   3.075  0.1147 -0.1777 -0.6763
   84SOPE    HX 7749   2.036   4.113   3.041  0.2590  0.3513 -1.2584
   84SOPE    HY 7750   1.860   4.107   3.075  1.3826 -1.9519  0.4602
   84SOPE   O31 7751   1.966   4.221   3.209 -0.3360  0.3143  0.2062
   84SOPE   C31 7752   1.970   4.123   3.299  0.6231  0.0079 -0.3240
   84SOPE   O32 7753   1.926   4.009   3.271 -0.0148 -0.4132  0.6302
   84SOPE   C32 7754   1.996   4.177   3.440 -0.0896 -0.8741  0.2389
   84SOPE   H2X 7755   1.941   4.273   3.447  0.5425 -0.5161  0.3549
   84SOPE   H2Y 7756   2.105   4.193   3.450  0.4145 -2.6673 -1.7331
   84SOPE   C23 7757   1.482   4.330   3.127 -0.1569 -0.1858  0.0863
   84SOPE   H3R 7758   1.447   4.242   3.068 -2.2376 -0.4284  1.5656
   84SOPE   H3S 7759   1.389   4.386   3.152 -0.7983 -0.8760 -0.7157
   84SOPE   C24 7760   1.529   4.274   3.259  0.2442  0.0756  0.3621
   84SOPE   H4R 7761   1.442   4.223   3.306 -0.9572  0.0018 -1.7929
   84SOPE   H4S 7762   1.611   4.202   3.238 -0.0060 -0.0541 -0.2013
   84SOPE   C25 7763   1.578   4.370   3.366 -0.2502 -0.4003  0.6016
   84SOPE   H5R 7764   1.679   4.411   3.344  0.6703 -2.7423  0.1960
   84SOPE   H5S 7765   1.510   4.458   3.380 -0.7594 -0.4779 -1.0775
   84SOPE   C26 7766   1.588   4.289   3.503 -0.5024 -0.8918  0.2313
   84SOPE   H6R 7767   1.489   4.243   3.525 -1.2554  0.5805  0.0798
   84SOPE   H6S 7768   1.674   4.219   3.491  0.7154  0.4163  1.0646
   84SOPE   C27 7769   1.638   4.372   3.626 -0.4328 -0.5877  0.3683
   84SOPE   H7R 7770   1.746   4.388   3.605 -0.7853  0.3399 -0.8505
   84SOPE   H7S 7771   1.608   4.479   3.625  1.1330 -0.0674 -2.1880
   84SOPE   C28 7772   1.620   4.302   3.761 -0.2845  0.2433 -0.0585
   84SOPE   H8R 7773   1.656   4.198   3.773 -1.6517 -0.0459  2.2027
   84SOPE   H8S 7774   1.687   4.363   3.826  0.0782  0.3780 -0.5581
   84SOPE   C29 7775   1.475   4.317   3.805 -0.0078 -1.1447 -0.2539
   84SOPE   H91 7776   1.407   4.233   3.785 -1.4073  0.0052 -0.5020
   84SOPE  C210 7777   1.419   4.415   3.884  0.4675  0.1920  0.0389
   84SOPE  H101 7778   1.310   4.410   3.903  0.0967 -1.1653 -2.1775
   84SOPE  C211 7779   1.488   4.532   3.947  0.0023  0.1493 -0.1873
   84SOPE  H11R 7780   1.467   4.623   3.887  0.0149 -1.3912 -2.6764
   84SOPE  H11S 7781   1.598   4.519   3.943 -0.2141 -2.2035 -0.3457
   84SOPE  C212 7782   1.453   4.563   4.093 -0.4538 -1.2279 -0.5433
   84SOPE  H12R 7783   1.350   4.542   4.128 -0.1831  0.5535  1.5725
   84SOPE  H12S 7784   1.475   4.671   4.107 -2.2989 -0.8894  0.0268
   84SOPE  C213 7785   1.554   4.503   4.189  0.1881  0.2368 -0.2816
   84SOPE  H13R 7786   1.657   4.541   4.170 -0.1318  2.5047  1.9502
   84SOPE  H13S 7787   1.554   4.393   4.171 -3.4292  0.4890 -2.8851
   84SOPE  C214 7788   1.515   4.546   4.335 -0.2589 -0.2923 -0.6632
   84SOPE  H14R 7789   1.412   4.512   4.359 -0.2067  0.5481  0.8556
   84SOPE  H14S 7790   1.504   4.656   4.329 -0.9979 -0.4128 -1.8369
   84SOPE  C215 7791   1.594   4.486   4.454 -0.4420  0.3244 -0.4994
   84SOPE  H15R 7792   1.577   4.544   4.548  2.4468  0.1288  0.2452
   84SOPE  H15S 7793   1.702   4.495   4.430 -0.0080 -1.2103  0.6580
   84SOPE  C216 7794   1.558   4.339   4.481  0.0477 -0.8029 -0.1964
   84SOPE  H16R 7795   1.616   4.281   4.407  1.6145  3.0278 -2.2498
   84SOPE  H16S 7796   1.449   4.322   4.472  0.1888 -0.8763 -2.2154
   84SOPE  C217 7797   1.611   4.290   4.619  0.2158 -0.6666 -0.7635
   84SOPE  H17R 7798   1.526   4.282   4.689 -0.4762 -1.1380 -1.6326
   84SOPE  H17S 7799   1.682   4.365   4.660 -0.1830  0.2235 -1.6673
   84SOPE  C218 7800   1.681   4.153   4.599 -0.6506  0.3788 -0.0956
   84SOPE  H18R 7801   1.739   4.140   4.505 -0.9257  0.3494 -0.2606
   84SOPE  H18S 7802   1.607   4.072   4.586 -1.0974  0.4640  1.6165
   84SOPE  H18T 7803   1.749   4.130   4.685 -2.4644  0.6520  1.4862
   84SOPE   C33 7804   1.957   4.085   3.556  0.4773  0.1639  0.3967
   84SOPE   H3X 7805   2.007   3.987   3.566  0.2434 -0.2260 -1.7632
   84SOPE   H3Y 7806   1.849   4.061   3.541 -0.1491  3.0968 -0.4761
   84SOPE   C34 7807   1.980   4.143   3.694  0.1210  1.0685 -0.0406
   84SOPE   H4X 7808   1.943   4.248   3.687 -0.8820  0.7368  0.0871
   84SOPE   H4Y 7809   2.087   4.153   3.724 -0.3593  0.4740  2.0735
   84SOPE   C35 7810   1.910   4.070   3.815 -0.0107 -0.0958  0.5797
   84SOPE   H5X 7811   1.964   3.975   3.832 -2.2541 -1.5935 -0.1764
   84SOPE   H5Y 7812   1.805   4.042   3.790  0.5348  0.0540 -2.2612
   84SOPE   C36 7813   1.913   4.148   3.958 -0.8586  0.1987  1.0777
   84SOPE   H6X 7814   1.883   4.255   3.954 -1.1966  0.1176  1.4452
   84SOPE   H6Y 7815   2.018   4.148   3.994 -0.7976 -1.1521  0.9384
   84SOPE   C37 7816   1.835   4.077   4.076 -0.1339  0.1864  0.2843
   84SOPE   H7X 7817   1.891   4.103   4.168 -1.4583  1.2428  0.8260
   84SOPE   H7Y 7818   1.835   3.967   4.059  1.6491  0.4662 -2.2496
   84SOPE   C38 7819   1.701   4.149   4.097 -0.4205 -0.1762 -0.6130
   84SOPE   H8X 7820   1.651   4.130   4.000 -0.4781 -1.5316 -0.3329
   84SOPE   H8Y 7821   1.698   4.260   4.109 -0.5892 -0.3741  1.5474
   84SOPE   C39 7822   1.622   4.088   4.209  0.0917  0.6606  0.7457
   84SOPE   H9X 7823   1.550   4.156   4.261 -1.1859 -1.3667  1.7669
   84SOPE   H9Y 7824   1.692   4.058   4.290 -2.4816 -1.8837  2.2432
   84SOPE  C310 7825   1.540   3.962   4.161 -0.2282 -0.2676  0.2574
   84SOPE  H10X 7826   1.613   3.883   4.136  0.1739  0.4779 -1.0215
   84SOPE  H10Y 7827   1.468   3.976   4.078 -0.5281  2.3875  0.8665
   84SOPE  C311 7828   1.467   3.904   4.285 -0.4406 -0.0698  0.6990
   84SOPE  H11X 7829   1.416   3.988   4.336  3.3573  3.0152 -0.0724
   84SOPE  H11Y 7830   1.530   3.868   4.370 -0.7196  1.4885  1.5913
   84SOPE  C312 7831   1.377   3.791   4.248  0.4217 -0.2320  0.6260
   84SOPE  H12X 7832   1.424   3.703   4.200 -2.8494 -0.8578 -1.8453
   84SOPE  H12Y 7833   1.300   3.833   4.180 -1.8517 -0.8857  2.6521
   84SOPE  C313 7834   1.297   3.722   4.364 -0.2432 -0.9344  0.1808
   84SOPE  H13X 7835   1.364   3.653   4.419  0.1634  0.6146  1.7371
   84SOPE  H13Y 7836   1.210   3.673   4.315  0.2142 -1.0220 -0.5709
   84SOPE  C314 7837   1.246   3.825   4.476 -0.0930  0.2607 -0.1435
   84SOPE  H14X 7838   1.173   3.894   4.429 -0.1105  0.7227  0.5500
   84SOPE  H14Y 7839   1.340   3.869   4.517  0.4837 -0.8232 -0.2528
   84SOPE  C315 7840   1.165   3.755   4.583 -0.3796  0.5081 -0.6378
   84SOPE  H15X 7841   1.245   3.710   4.647 -1.1757  0.3178  0.2526
   84SOPE  H15Y 7842   1.098   3.684   4.530  1.8533 -1.5353 -0.8850
   84SOPE  C316 7843   1.099   3.843   4.680  0.1116 -0.3024 -0.8804
   84SOPE  H16X 7844   1.012   3.898   4.638  0.1063 -0.6827 -1.3749
   84SOPE  H16Y 7845   1.179   3.912   4.713  1.6107 -2.2410 -0.2885
   84SOPE  C317 7846   1.053   3.779   4.814  0.3062 -0.3852 -0.1499
   84SOPE  H17X 7847   1.137   3.717   4.853  0.4653 -0.0738  0.0109
   84SOPE  H17Y 7848   0.963   3.718   4.794  1.0202 -1.0911 -1.3521
   84SOPE  C318 7849   1.022   3.886   4.913  0.2901 -0.1176  0.1843
   84SOPE  H18X 7850   0.947   3.959   4.877 -0.0044 -0.3565  0.2991
   84SOPE  H18Y 7851   1.113   3.939   4.947 -0.3738  1.4022 -0.3383
   84SOPE  H18Z 7852   0.981   3.823   4.996 -1.8056 -2.9752 -2.7604
   85SOPE     N 7853   5.339   4.568   2.719  0.2110 -0.1679 -0.1135
   85SOPE   HN1 7854   5.338   4.552   2.616  0.8882 -0.8316 -0.0218
   85SOPE   HN2 7855   5.310   4.477   2.761  3.0881 -1.0540  0.1449
   85SOPE   HN3 7856   5.275   4.646   2.743  0.7468  0.4913 -0.7717
   85SOPE   C12 7857   5.483   4.610   2.749  0.0929 -0.1676 -0.1234
   85SOPE  H12A 7858   5.498   4.693   2.677 -2.3770 -0.1608 -0.7187
   85SOPE  H12B 7859   5.548   4.522   2.730  0.0957 -0.4210  0.9924
   85SOPE   C11 7860   5.501   4.677   2.892 -0.2011 -0.0767 -0.1556
   85SOPE  H11A 7861   5.600   4.723   2.908 -0.4876  0.4612  0.0992
   85SOPE  H11B 7862   5.482   4.586   2.952 -1.6100  1.2025  1.4462
   85SOPE     P 7863   5.328   4.796   3.051 -0.3639 -0.8009  0.0203
   85SOPE   O13 7864   5.238   4.674   3.064 -0.7175  0.6235  0.1243
   85SOPE   O14 7865   5.253   4.922   3.057  0.4370 -0.2546  0.1542
   85SOPE   O12 7866   5.394   4.770   2.911  0.2968 -0.0081  0.0562
   85SOPE   O11 7867   5.449   4.779   3.151 -0.2922 -0.2383  0.1063
   85SOPE    C1 7868   5.414   4.728   3.281 -0.2851  0.3329 -0.6008
   85SOPE    HA 7869   5.508   4.699   3.334 -0.5361 -0.0823 -0.3838
   85SOPE    HB 7870   5.351   4.637   3.277  0.9769 -0.5961 -0.1661
   85SOPE    C2 7871   5.352   4.837   3.372 -0.1185  0.1607  0.5107
   85SOPE    HS 7872   5.262   4.882   3.326 -0.8587  0.4146  2.1724
   85SOPE   O21 7873   5.458   4.935   3.380 -0.6644 -0.1073 -0.3537
   85SOPE   C21 7874   5.414   5.055   3.408 -0.3136 -0.0258 -0.1504
   85SOPE   O22 7875   5.302   5.083   3.445 -0.0379 -0.1664 -0.1018
   85SOPE   C22 7876   5.534   5.153   3.403 -0.0111  0.5088  0.0718
   85SOPE   H2R 7877   5.502   5.221   3.322  0.6667  0.3709 -0.3151
   85SOPE   H2S 7878   5.627   5.095   3.385  0.5238  0.5093  2.4313
   85SOPE    C3 7879   5.313   4.786   3.506  1.0515  0.7408 -0.0520
   85SOPE    HX 7880   5.238   4.856   3.549 -0.2378 -0.7397  0.1729
   85SOPE    HY 7881   5.397   4.783   3.578  0.7396 -1.9672  0.2800
   85SOPE   O31 7882   5.245   4.661   3.491 -0.1663  0.4821  0.2011
   85SOPE   C31 7883   5.116   4.672   3.441 -0.4830 -0.1144 -0.3733
   85SOPE   O32 7884   5.052   4.774   3.418 -0.4034 -0.0290 -0.2203
   85SOPE   C32 7885   5.067   4.533   3.405  0.4069  0.7359 -0.1590
   85SOPE   H2X 7886   5.138   4.460   3.450  0.1875  0.9817  0.5867
   85SOPE   H2Y 7887   5.071   4.535   3.294  2.8014  1.7193 -0.1244
   85SOPE   C23 7888   5.540   5.234   3.536 -0.8936 -0.6131 -0.1751
   85SOPE   H3R 7889   5.439   5.268   3.566 -1.3645 -0.7423 -1.5319
   85SOPE   H3S 7890   5.611   5.317   3.514 -0.1196 -1.1770  0.1499
   85SOPE   C24 7891   5.596   5.141   3.651  0.8124  0.8769 -0.3340
   85SOPE   H4R 7892   5.537   5.048   3.642  0.1010  1.1718  0.9025
   85SOPE   H4S 7893   5.703   5.118   3.638  0.5970 -0.8177  0.6419
   85SOPE   C25 7894   5.569   5.207   3.788 -0.6474  0.3371 -0.5437
   85SOPE   H5R 7895   5.626   5.303   3.788 -2.2373  1.3168 -0.5892
   85SOPE   H5S 7896   5.462   5.230   3.805 -0.1837  0.5320  2.8608
   85SOPE   C26 7897   5.625   5.125   3.908  0.5462 -1.2072  0.4042
   85SOPE   H6R 7898   5.571   5.028   3.903 -0.9709 -0.3341 -1.2853
   85SOPE   H6S 7899   5.735   5.118   3.909  0.5858 -0.7828 -0.3371
   85SOPE   C27 7900   5.579   5.191   4.044  0.2952 -0.1907 -0.1344
   85SOPE   H7R 7901   5.468   5.198   4.046  0.3547  0.8348  0.5437
   85SOPE   H7S 7902   5.593   5.109   4.116 -2.1096  0.1601  0.8266
   85SOPE   C28 7903   5.637   5.328   4.077 -0.2179 -0.4586  0.7753
   85SOPE   H8R 7904   5.628   5.396   3.989  0.1416  0.0280  1.1085
   85SOPE   H8S 7905   5.594   5.385   4.161 -0.1806  1.6379 -0.5464
   85SOPE   C29 7906   5.780   5.309   4.113 -0.4268  0.3043 -0.1684
   85SOPE   H91 7907   5.855   5.353   4.045 -1.0425  1.7909  0.0576
   85SOPE  C210 7908   5.824   5.262   4.225 -0.0465  0.5645 -0.6416
   85SOPE  H101 7909   5.933   5.266   4.244 -0.0385  2.1144 -0.8760
   85SOPE  C211 7910   5.748   5.218   4.351 -0.0803  1.1143 -0.2725
   85SOPE  H11R 7911   5.639   5.236   4.359  0.0245  1.0990  1.6967
   85SOPE  H11S 7912   5.800   5.275   4.431 -1.6096 -0.7831  2.2318
   85SOPE  C212 7913   5.773   5.069   4.380  0.4743  0.5676  0.0666
   85SOPE  H12R 7914   5.870   5.033   4.339 -0.7197 -0.8785 -1.6424
   85SOPE  H12S 7915   5.705   5.019   4.308 -0.1704  1.1913  0.2415
   85SOPE  C213 7916   5.763   5.008   4.518 -0.3673 -0.3958  1.1790
   85SOPE  H13R 7917   5.792   5.089   4.588 -1.3944  0.1471  0.9905
   85SOPE  H13S 7918   5.826   4.916   4.528  0.2696 -0.1133  0.0153
   85SOPE  C214 7919   5.619   4.991   4.568 -0.5631 -0.0322 -0.2369
   85SOPE  H14R 7920   5.617   4.937   4.665 -0.0485 -0.6306 -0.5542
   85SOPE  H14S 7921   5.564   4.925   4.498 -1.3315  1.5035 -1.1208
   85SOPE  C215 7922   5.552   5.127   4.591 -1.0159 -0.2338 -0.3087
   85SOPE  H15R 7923   5.510   5.155   4.492 -0.1247  1.6769 -0.1811
   85SOPE  H15S 7924   5.624   5.208   4.613 -1.8905  0.1718  1.1970
   85SOPE  C216 7925   5.437   5.118   4.691 -0.1402  0.0374  0.2449
   85SOPE  H16R 7926   5.479   5.091   4.790 -0.0654  1.4169  0.6161
   85SOPE  H16S 7927   5.375   5.029   4.666 -2.0921  1.0253  1.3269
   85SOPE  C217 7928   5.348   5.241   4.691 -0.4937  0.5273 -0.0059
   85SOPE  H17R 7929   5.331   5.268   4.584 -0.4455  0.5243 -0.0142
   85SOPE  H17S 7930   5.390   5.331   4.740  1.9471 -1.5462  2.0204
   85SOPE  C218 7931   5.211   5.207   4.753 -0.0095  0.0327 -0.2720
   85SOPE  H18R 7932   5.163   5.125   4.695 -1.2336  0.2224  0.4384
   85SOPE  H18S 7933   5.144   5.294   4.742  0.5473  0.2813 -1.9490
   85SOPE  H18T 7934   5.224   5.193   4.863  1.5227  0.6271 -0.3579
   85SOPE   C33 7935   4.925   4.504   3.457 -0.1697 -0.3885 -0.0800
   85SOPE   H3X 7936   4.892   4.414   3.401 -0.1487 -0.5380  0.1482
   85SOPE   H3Y 7937   4.852   4.582   3.426 -0.1219 -0.6656 -0.9083
   85SOPE   C34 7938   4.913   4.484   3.607  0.3177 -0.7117 -0.7715
   85SOPE   H4X 7939   4.803   4.483   3.620  0.3546  1.9072  0.2574
   85SOPE   H4Y 7940   4.955   4.572   3.660  1.4834 -1.8146  0.1890
   85SOPE   C35 7941   4.962   4.348   3.659  0.3191 -0.6096  0.8913
   85SOPE   H5X 7942   5.073   4.347   3.649  0.2508  1.9220 -1.1976
   85SOPE   H5Y 7943   4.923   4.271   3.589  0.9861 -0.3694  0.2394
   85SOPE   C36 7944   4.902   4.318   3.805  0.0413  0.2739  0.2293
   85SOPE   H6X 7945   4.957   4.384   3.875 -2.1091  1.8483  0.5405
   85SOPE   H6Y 7946   4.942   4.218   3.832  3.5132  0.6222 -2.8161
   85SOPE   C37 7947   4.756   4.342   3.837 -0.2716 -0.1463 -0.6539
   85SOPE   H7X 7948   4.701   4.309   3.746 -1.5215  2.0317 -0.7493
   85SOPE   H7Y 7949   4.723   4.446   3.857 -0.3681 -0.3738  0.4478
   85SOPE   C38 7950   4.714   4.273   3.964 -0.5530 -0.0357  0.2140
   85SOPE   H8X 7951   4.721   4.163   3.954 -2.5455 -0.1807 -0.0253
   85SOPE   H8Y 7952   4.604   4.287   3.974 -1.0878 -2.4014 -1.4482
   85SOPE   C39 7953   4.787   4.326   4.093  0.6826  0.0487  0.1753
   85SOPE   H9X 7954   4.784   4.437   4.103  0.6689 -0.0576  1.6496
   85SOPE   H9Y 7955   4.894   4.300   4.075  0.2578 -1.0262 -0.9352
   85SOPE  C310 7956   4.746   4.264   4.227  0.2991  0.1374  0.5929
   85SOPE  H10X 7957   4.635   4.271   4.226  0.3485  0.9725  0.4230
   85SOPE  H10Y 7958   4.794   4.318   4.311 -0.5370  1.5182  0.2174
   85SOPE  C311 7959   4.793   4.112   4.236  0.9658 -0.0714  0.1554
   85SOPE  H11X 7960   4.902   4.094   4.227  0.4215 -4.2595 -0.1779
   85SOPE  H11Y 7961   4.747   4.053   4.154  0.1066 -0.9801  1.2627
   85SOPE  C312 7962   4.746   4.054   4.371  0.7384 -0.5130  0.2860
   85SOPE  H12X 7963   4.636   4.062   4.380  0.9154  2.2968  0.9394
   85SOPE  H12Y 7964   4.794   4.127   4.440  2.2617 -1.1045 -0.0991
   85SOPE  C313 7965   4.789   3.915   4.410  0.3393 -0.0494 -0.0459
   85SOPE  H13X 7966   4.799   3.909   4.520  0.5752  1.8943  0.0784
   85SOPE  H13Y 7967   4.886   3.889   4.364  0.4893 -1.3985  1.0048
   85SOPE  C314 7968   4.679   3.810   4.374 -0.2842  0.6960 -0.1691
   85SOPE  H14X 7969   4.677   3.779   4.268 -2.8756  3.3201 -1.0195
   85SOPE  H14Y 7970   4.575   3.844   4.392 -0.8855 -1.1106  0.0030
   85SOPE  C315 7971   4.702   3.679   4.455 -0.1625 -0.0413 -0.0372
   85SOPE  H15X 7972   4.804   3.665   4.495 -0.2464 -1.3473 -0.2647
   85SOPE  H15Y 7973   4.690   3.601   4.377 -2.3220  1.0223 -0.8806
   85SOPE  C316 7974   4.605   3.649   4.568  0.3770  0.3403 -0.9981
   85SOPE  H16X 7975   4.497   3.661   4.544 -0.1326 -1.3635  0.2734
   85SOPE  H16Y 7976   4.623   3.731   4.642  0.7641  0.7198 -1.5094
   85SOPE  C317 7977   4.621   3.510   4.623  0.1088 -0.2884  0.5188
   85SOPE  H17X 7978   4.611   3.437   4.540 -0.2177  1.4393 -1.0262
   85SOPE  H17Y 7979   4.528   3.491   4.681 -0.1169  0.0596  0.2757
   85SOPE  C318 7980   4.738   3.495   4.721  0.5963  0.1428 -0.4246
   85SOPE  H18X 7981   4.703   3.509   4.825  1.3317 -0.2602 -0.1127
   85SOPE  H18Y 7982   4.823   3.564   4.706  0.4612  0.2436 -0.7516
   85SOPE  H18Z 7983   4.769   3.388   4.716  0.2554  0.0004  0.3871
   86SOPE     N 7984   4.951   1.989   2.036  0.0089 -0.2111  0.1858
   86SOPE   HN1 7985   4.945   1.954   2.133 -1.3092  1.1038  0.6130
   86SOPE   HN2 7986   4.876   1.947   1.976  0.4244 -0.8171  0.0872
   86SOPE   HN3 7987   5.045   1.956   2.007 -0.2759 -0.0147 -1.0517
   86SOPE   C12 7988   4.937   2.136   2.026  0.2691 -0.6480  0.0985
   86SOPE  H12A 7989   4.831   2.169   2.027  0.3697 -0.3071 -0.2752
   86SOPE  H12B 7990   4.982   2.156   1.927  0.5529  1.6584  0.6289
   86SOPE   C11 7991   5.021   2.198   2.130  1.0249 -0.6886  0.0154
   86SOPE  H11A 7992   4.987   2.149   2.224  0.2507 -0.1841  0.0102
   86SOPE  H11B 7993   4.998   2.305   2.151  1.5528 -0.6105  0.2191
   86SOPE     P 7994   5.264   2.207   2.214 -0.0519 -0.1235  0.2944
   86SOPE   O13 7995   5.253   2.349   2.252  0.2371  0.0063 -0.0408
   86SOPE   O14 7996   5.395   2.157   2.164 -0.3367  0.0548  0.1920
   86SOPE   O12 7997   5.157   2.171   2.104 -0.1183  0.4737 -0.1710
   86SOPE   O11 7998   5.232   2.124   2.341  0.3088 -0.6046  0.1672
   86SOPE    C1 7999   5.153   2.172   2.453 -0.2941  0.5667  0.6574
   86SOPE    HA 8000   5.104   2.088   2.506  0.8350  0.3480  1.3793
   86SOPE    HB 8001   5.069   2.239   2.423 -0.0910  0.5325 -0.0011
   86SOPE    C2 8002   5.234   2.252   2.556 -0.2848 -0.7322 -0.2494
   86SOPE    HS 8003   5.310   2.320   2.511  0.5847  0.8184  3.2749
   86SOPE   O21 8004   5.310   2.154   2.625 -0.3362  0.2113  0.1950
   86SOPE   C21 8005   5.404   2.198   2.711  1.0374 -0.0961  0.0818
   86SOPE   O22 8006   5.452   2.311   2.724 -0.2945  0.6138 -0.2997
   86SOPE   C22 8007   5.462   2.083   2.792 -0.0882 -0.8669  0.3034
   86SOPE   H2R 8008   5.526   2.023   2.724 -1.4405 -1.5045 -0.4327
   86SOPE   H2S 8009   5.382   2.012   2.823 -0.5171 -0.4269  0.2168
   86SOPE    C3 8010   5.152   2.332   2.651 -0.0479  0.6582  0.4429
   86SOPE    HX 8011   5.078   2.388   2.591 -0.0046 -0.2257 -0.4528
   86SOPE    HY 8012   5.201   2.420   2.700  1.8515 -0.0658 -0.0828
   86SOPE   O31 8013   5.064   2.252   2.739  0.5345 -0.4468  0.4426
   86SOPE   C31 8014   5.095   2.247   2.866  0.2592 -0.7978  0.5906
   86SOPE   O32 8015   5.193   2.297   2.918  0.3279  0.6915  0.2990
   86SOPE   C32 8016   4.987   2.162   2.942 -0.2923 -0.5437  0.1065
   86SOPE   H2X 8017   5.031   2.091   3.015  0.4141  1.2802  1.5465
   86SOPE   H2Y 8018   4.922   2.121   2.861 -0.1252 -0.5860 -0.0060
   86SOPE   C23 8019   5.567   2.114   2.906  0.4485  0.4924 -1.0013
   86SOPE   H3R 8020   5.664   2.158   2.874  1.1820 -0.0695  0.3587
   86SOPE   H3S 8021   5.597   2.013   2.939 -0.4449  0.8790  1.2211
   86SOPE   C24 8022   5.511   2.179   3.038 -0.1060  0.0329  0.1733
   86SOPE   H4R 8023   5.436   2.259   3.019 -1.2549 -0.8209  0.9664
   86SOPE   H4S 8024   5.461   2.099   3.097 -1.0589  0.4519 -0.0600
   86SOPE   C25 8025   5.625   2.246   3.122 -0.4864 -0.1720  0.6534
   86SOPE   H5R 8026   5.711   2.175   3.130  1.3606  1.6877 -1.3937
   86SOPE   H5S 8027   5.671   2.327   3.061  0.6804 -0.4682  1.1205
   86SOPE   C26 8028   5.584   2.302   3.257 -0.2264 -0.0195 -0.2848
   86SOPE   H6R 8029   5.523   2.393   3.243  0.5316  0.0844 -3.9411
   86SOPE   H6S 8030   5.524   2.228   3.315  0.0229 -0.0111 -0.0123
   86SOPE   C27 8031   5.702   2.340   3.338  0.7802  0.1267 -0.5648
   86SOPE   H7R 8032   5.770   2.252   3.344 -0.7254 -1.1640 -1.7194
   86SOPE   H7S 8033   5.768   2.417   3.293  0.4082  0.4637 -0.5450
   86SOPE   C28 8034   5.676   2.413   3.476 -0.2156 -0.2657  0.1159
   86SOPE   H8R 8035   5.778   2.444   3.508  0.2492 -0.5727 -0.9936
   86SOPE   H8S 8036   5.620   2.509   3.468  1.9844  1.3826  2.7005
   86SOPE   C29 8037   5.623   2.322   3.584 -0.3983  0.5696  0.5407
   86SOPE   H91 8038   5.561   2.238   3.551 -0.2721  1.5157 -2.3173
   86SOPE  C210 8039   5.663   2.321   3.713 -0.6429 -0.1963  0.4865
   86SOPE  H101 8040   5.622   2.245   3.781  0.5715  0.5386  2.1113
   86SOPE  C211 8041   5.759   2.421   3.770 -0.7546  0.8123 -0.1955
   86SOPE  H11R 8042   5.751   2.526   3.734 -1.2745  0.6726 -0.4912
   86SOPE  H11S 8043   5.856   2.388   3.727 -0.4432  1.6686 -0.1809
   86SOPE  C212 8044   5.759   2.406   3.925 -0.1854  0.6915 -0.2863
   86SOPE  H12R 8045   5.782   2.302   3.955  0.9854  0.8647 -0.5388
   86SOPE  H12S 8046   5.653   2.425   3.951  0.3164  2.6603  0.5062
   86SOPE  C213 8047   5.859   2.507   3.997  0.3210  0.9618  0.5562
   86SOPE  H13R 8048   5.843   2.609   3.955  2.3251  0.6633 -1.1426
   86SOPE  H13S 8049   5.958   2.475   3.957 -0.3795 -0.1243 -0.3483
   86SOPE  C214 8050   5.854   2.515   4.149  0.0656 -0.6048  0.0942
   86SOPE  H14R 8051   5.763   2.574   4.177  0.2223  0.6660 -1.8316
   86SOPE  H14S 8052   5.943   2.569   4.188  1.6713 -3.3077  0.3466
   86SOPE  C215 8053   5.842   2.379   4.217  0.5369 -0.0040  0.5572
   86SOPE  H15R 8054   5.919   2.311   4.174 -1.5144 -2.4936  0.5823
   86SOPE  H15S 8055   5.744   2.326   4.210  0.7349 -0.4640  1.1892
   86SOPE  C216 8056   5.874   2.388   4.364 -0.3641  0.2129 -0.1476
   86SOPE  H16R 8057   5.957   2.461   4.369  0.6786 -0.8003 -1.7882
   86SOPE  H16S 8058   5.910   2.289   4.402  1.4471  0.1558 -1.8566
   86SOPE  C217 8059   5.746   2.421   4.451  0.2529  0.6195 -0.7952
   86SOPE  H17R 8060   5.666   2.352   4.419  0.9137 -0.2370 -0.6398
   86SOPE  H17S 8061   5.716   2.526   4.428 -0.8418  0.1495 -1.5802
   86SOPE  C218 8062   5.769   2.403   4.610 -0.4014 -0.6176  0.4931
   86SOPE  H18R 8063   5.686   2.427   4.679 -1.2713 -2.4905  0.1693
   86SOPE  H18S 8064   5.860   2.461   4.638 -0.1059 -1.2943  0.9705
   86SOPE  H18T 8065   5.798   2.296   4.625 -0.0329 -0.6875 -0.6147
   86SOPE   C33 8066   4.886   2.249   3.019  0.4764 -0.5339  0.1560
   86SOPE   H3X 8067   4.800   2.186   3.049 -0.2451  0.9826  1.4820
   86SOPE   H3Y 8068   4.847   2.336   2.962  1.8781  0.5307  0.7422
   86SOPE   C34 8069   4.944   2.326   3.147  0.3477  0.1144  0.0462
   86SOPE   H4X 8070   4.863   2.381   3.199  0.3943 -0.5940  0.8889
   86SOPE   H4Y 8071   5.029   2.391   3.119  1.5415 -0.7586  1.4914
   86SOPE   C35 8072   4.990   2.238   3.257 -0.6118  0.5812 -0.2277
   86SOPE   H5X 8073   5.074   2.170   3.230  2.1544  3.1659  1.2854
   86SOPE   H5Y 8074   4.902   2.175   3.286 -0.9839  1.2469  0.1120
   86SOPE   C36 8075   5.039   2.319   3.378  0.9553 -0.3470 -0.1764
   86SOPE   H6X 8076   5.032   2.246   3.462 -0.6781 -0.2016 -0.1598
   86SOPE   H6Y 8077   4.971   2.404   3.399 -0.2960 -1.2312 -0.5566
   86SOPE   C37 8078   5.186   2.351   3.360 -0.1633  1.0436  0.1962
   86SOPE   H7X 8079   5.183   2.439   3.292 -1.7595 -0.6093 -2.0150
   86SOPE   H7Y 8080   5.230   2.267   3.303 -0.3686  0.7125  0.5292
   86SOPE   C38 8081   5.277   2.383   3.485  0.3237 -0.5414  0.1132
   86SOPE   H8X 8082   5.368   2.432   3.444  0.5892 -1.3590 -0.2897
   86SOPE   H8Y 8083   5.308   2.284   3.524  2.3435 -1.2769 -2.9679
   86SOPE   C39 8084   5.217   2.476   3.586 -0.2363 -0.0748  0.3008
   86SOPE   H9X 8085   5.129   2.428   3.633 -0.4495 -0.0342 -0.0491
   86SOPE   H9Y 8086   5.198   2.577   3.543  0.6249 -0.0519 -0.0431
   86SOPE  C310 8087   5.312   2.502   3.708 -0.5371 -0.5266 -0.2514
   86SOPE  H10X 8088   5.407   2.543   3.666 -0.3146  0.3815  1.0784
   86SOPE  H10Y 8089   5.347   2.410   3.760 -0.9306  0.1115  1.1851
   86SOPE  C311 8090   5.249   2.599   3.809  0.8082 -0.2829 -0.1991
   86SOPE  H11X 8091   5.167   2.545   3.862  1.0417  0.1948  0.6739
   86SOPE  H11Y 8092   5.203   2.685   3.755 -1.3122 -2.0427 -1.3848
   86SOPE  C312 8093   5.346   2.647   3.915  0.2638  0.4624 -0.0979
   86SOPE  H12X 8094   5.421   2.716   3.871  0.0261  0.1071 -1.0970
   86SOPE  H12Y 8095   5.401   2.557   3.951 -0.6741  0.1150  0.5013
   86SOPE  C313 8096   5.281   2.727   4.031 -0.1282 -0.3978 -0.0338
   86SOPE  H13X 8097   5.193   2.677   4.076 -0.6450  1.1454  0.7468
   86SOPE  H13Y 8098   5.238   2.819   3.985 -1.8813 -1.4307 -0.5691
   86SOPE  C314 8099   5.374   2.762   4.142  0.3157  0.2698  0.0253
   86SOPE  H14X 8100   5.476   2.756   4.098 -0.0372  0.3263 -0.8195
   86SOPE  H14Y 8101   5.361   2.686   4.222 -2.5536 -0.9419 -1.4123
   86SOPE  C315 8102   5.357   2.899   4.206  0.0135  0.3253 -0.0879
   86SOPE  H15X 8103   5.262   2.929   4.254 -0.0272 -0.0485  0.0689
   86SOPE  H15Y 8104   5.365   2.967   4.118 -0.4504 -1.9549 -2.0205
   86SOPE  C316 8105   5.482   2.936   4.293  0.7795  0.0864 -0.2104
   86SOPE  H16X 8106   5.566   2.942   4.221 -0.8317  0.7409 -2.1335
   86SOPE  H16Y 8107   5.499   2.856   4.368 -1.4551 -0.1755  0.0776
   86SOPE  C317 8108   5.466   3.073   4.363 -0.0703 -0.3404  0.7049
   86SOPE  H17X 8109   5.511   3.067   4.464  0.8412  0.0338  0.3312
   86SOPE  H17Y 8110   5.358   3.091   4.384  0.1135 -0.4644  1.8363
   86SOPE  C318 8111   5.525   3.194   4.292  0.1562  0.5435  0.0995
   86SOPE  H18X 8112   5.451   3.221   4.213 -2.0740 -3.5228  0.4738
   86SOPE  H18Y 8113   5.624   3.170   4.247 -0.4017  1.0709 -1.4933
   86SOPE  H18Z 8114   5.546   3.277   4.362 -0.3947 -0.0239  0.9589
   87SOPE     N 8115   6.659   0.917   2.714 -0.4189  0.1315  0.0702
   87SOPE   HN1 8116   6.557   0.903   2.708 -0.4424 -0.0306  0.8688
   87SOPE   HN2 8117   6.690   0.937   2.616 -0.4057  0.0368  0.0553
   87SOPE   HN3 8118   6.704   0.827   2.739  0.3630  0.7881  1.1310
   87SOPE   C12 8119   6.688   1.018   2.821  0.9384  0.1263 -0.1258
   87SOPE  H12A 8120   6.640   0.982   2.915  0.2647 -1.0517 -0.8999
   87SOPE  H12B 8121   6.638   1.113   2.792  0.4188 -0.1706 -0.2084
   87SOPE   C11 8122   6.833   1.044   2.831  0.1055 -0.3560  0.4645
   87SOPE  H11A 8123   6.886   0.950   2.854  1.2349  0.2223  0.3043
   87SOPE  H11B 8124   6.852   1.121   2.909  1.2570  1.2044 -1.2686
   87SOPE     P 8125   7.030   1.101   2.663 -0.1416 -0.0624 -0.0833
   87SOPE   O13 8126   7.070   1.232   2.606 -0.3305  0.6935  0.4382
   87SOPE   O14 8127   7.072   0.980   2.586  0.8108  0.1658  0.0569
   87SOPE   O12 8128   6.879   1.106   2.711 -0.0170 -0.1692  0.4423
   87SOPE   O11 8129   7.101   1.085   2.802 -0.5502  0.4891 -0.6774
   87SOPE    C1 8130   7.157   1.198   2.870  0.2388  0.4663 -0.2109
   87SOPE    HA 8131   7.075   1.268   2.897  1.0135  1.2176  0.2500
   87SOPE    HB 8132   7.230   1.242   2.798 -1.4637 -0.8974 -2.9470
   87SOPE    C2 8133   7.223   1.151   3.004  0.9910 -0.3935 -0.7617
   87SOPE    HS 8134   7.309   1.087   2.980  2.5785  0.6514  1.6933
   87SOPE   O21 8135   7.124   1.075   3.088  0.0111 -0.4335 -0.4145
   87SOPE   C21 8136   7.152   0.953   3.097 -0.0626  0.0297  0.8555
   87SOPE   O22 8137   7.261   0.904   3.065 -0.4232 -0.2445 -0.3613
   87SOPE   C22 8138   7.033   0.868   3.128 -0.2489  0.0869  0.6448
   87SOPE   H2R 8139   6.970   0.850   3.038  0.2009 -2.1758  0.7034
   87SOPE   H2S 8140   6.978   0.931   3.200 -0.2973  1.9006 -0.9101
   87SOPE    C3 8141   7.282   1.261   3.093 -0.8750  0.5391 -0.1727
   87SOPE    HX 8142   7.207   1.343   3.098  0.2254  1.8038 -2.5571
   87SOPE    HY 8143   7.376   1.309   3.059  0.9796 -1.1636  2.2216
   87SOPE   O31 8144   7.299   1.217   3.227 -0.5519 -0.2598  0.2457
   87SOPE   C31 8145   7.413   1.165   3.266 -0.3219  0.6286 -0.7387
   87SOPE   O32 8146   7.511   1.144   3.195 -0.1207 -0.4308 -0.4812
   87SOPE   C32 8147   7.421   1.149   3.426 -0.6179 -0.6386  0.1786
   87SOPE   H2X 8148   7.360   1.229   3.471  0.6707 -1.1233  3.0000
   87SOPE   H2Y 8149   7.522   1.172   3.466 -1.4754  1.2131  1.3919
   87SOPE   C23 8150   7.064   0.731   3.202 -0.1797  0.0539 -1.0230
   87SOPE   H3R 8151   7.119   0.758   3.295  0.7138  0.6483 -1.7011
   87SOPE   H3S 8152   7.132   0.658   3.151 -0.2106 -1.0832  0.4836
   87SOPE   C24 8153   6.932   0.661   3.235 -0.2520  0.0168  0.2552
   87SOPE   H4R 8154   6.848   0.734   3.231 -2.0988 -1.8151  2.7854
   87SOPE   H4S 8155   6.914   0.581   3.160  1.0153 -0.8248  0.8243
   87SOPE   C25 8156   6.930   0.601   3.377 -0.3401  0.0793  0.0990
   87SOPE   H5R 8157   6.981   0.503   3.370  1.0835  0.7163  1.0919
   87SOPE   H5S 8158   6.981   0.666   3.451 -0.5572  0.8054 -0.3710
   87SOPE   C26 8159   6.783   0.587   3.420 -0.3446 -0.2582 -0.0422
   87SOPE   H6R 8160   6.736   0.687   3.414 -0.7220 -0.4409 -0.1776
   87SOPE   H6S 8161   6.739   0.522   3.340  1.1132  0.1651 -1.2408
   87SOPE   C27 8162   6.758   0.530   3.560 -0.9149 -0.0208 -0.2338
   87SOPE   H7R 8163   6.825   0.585   3.628  0.4053 -1.2820 -0.4671
   87SOPE   H7S 8164   6.655   0.543   3.601  0.1186  0.8283  2.2540
   87SOPE   C28 8165   6.796   0.381   3.586 -0.3403  0.5510 -0.4865
   87SOPE   H8R 8166   6.897   0.376   3.540 -0.1848 -0.5604 -0.0741
   87SOPE   H8S 8167   6.806   0.366   3.696 -1.1975  0.4530 -0.4190
   87SOPE   C29 8168   6.709   0.268   3.530  0.4042 -0.9898  0.2178
   87SOPE   H91 8169   6.669   0.284   3.429 -0.6355 -0.3401  0.7057
   87SOPE  C210 8170   6.693   0.149   3.595 -0.1989 -0.8661 -0.6553
   87SOPE  H101 8171   6.631   0.074   3.543 -1.3110  0.8865 -1.9353
   87SOPE  C211 8172   6.752   0.111   3.736 -0.1734 -0.6926  0.4405
   87SOPE  H11R 8173   6.835   0.174   3.776 -0.4718 -0.8678  1.3576
   87SOPE  H11S 8174   6.798   0.010   3.732  0.5050 -0.3636 -0.9289
   87SOPE  C212 8175   6.640   0.112   3.836 -0.4828  0.2588  0.4621
   87SOPE  H12R 8176   6.548   0.057   3.806  0.9230 -1.2662 -1.2199
   87SOPE  H12S 8177   6.618   0.220   3.855 -2.1339  0.0804 -0.2380
   87SOPE  C213 8178   6.676   0.052   3.968  0.2996  0.0436 -0.9348
   87SOPE  H13R 8179   6.659   0.128   4.046 -4.0844 -1.4274 -0.1994
   87SOPE  H13S 8180   6.783   0.023   3.958 -0.0317 -1.7179  0.0934
   87SOPE  C214 8181   6.583  -0.060   4.005 -0.5189  0.2385 -0.2853
   87SOPE  H14R 8182   6.582  -0.127   3.916  0.4125  1.6220 -1.3780
   87SOPE  H14S 8183   6.482  -0.022   4.028 -0.7134 -1.3853  1.9286
   87SOPE  C215 8184   6.633  -0.128   4.136  0.2345 -0.7137 -0.7337
   87SOPE  H15R 8185   6.741  -0.147   4.114  0.8369 -0.3243  1.6016
   87SOPE  H15S 8186   6.566  -0.214   4.160 -0.8291 -0.2533 -1.9606
   87SOPE  C216 8187   6.631  -0.041   4.271 -0.2089  0.7679  0.0144
   87SOPE  H16R 8188   6.715   0.032   4.261  1.1081 -0.7650 -0.5515
   87SOPE  H16S 8189   6.670  -0.109   4.349 -2.1252 -2.1437 -1.3746
   87SOPE  C217 8190   6.493   0.008   4.314  0.6186 -0.5162  0.1089
   87SOPE  H17R 8191   6.458   0.067   4.226 -1.6464 -2.0396 -0.0939
   87SOPE  H17S 8192   6.495   0.079   4.399 -0.7492  0.0474 -0.3072
   87SOPE  C218 8193   6.386  -0.101   4.343 -0.6535 -0.3657 -0.1724
   87SOPE  H18R 8194   6.298  -0.035   4.358 -1.1052 -0.7515 -0.9972
   87SOPE  H18S 8195   6.397  -0.164   4.433  2.6796  1.1796  0.6536
   87SOPE  H18T 8196   6.381  -0.166   4.252  3.4956 -1.1508 -0.0052
   87SOPE   C33 8197   7.365   1.015   3.486 -0.1777 -0.0752 -0.2190
   87SOPE   H3X 8198   7.409   1.010   3.588 -0.5081  1.2392  0.0148
   87SOPE   H3Y 8199   7.410   0.930   3.431  0.2057  0.5496 -0.8801
   87SOPE   C34 8200   7.210   0.985   3.475 -0.4519 -0.9091  0.0275
   87SOPE   H4X 8201   7.202   0.894   3.538  1.1577 -0.0186  1.6289
   87SOPE   H4Y 8202   7.184   0.968   3.369  0.3662 -1.9757 -0.0200
   87SOPE   C35 8203   7.116   1.092   3.530 -0.4801 -0.4603 -0.1980
   87SOPE   H5X 8204   7.124   1.187   3.472 -2.6112 -1.3527 -2.0768
   87SOPE   H5Y 8205   7.147   1.124   3.632 -0.9939  0.9829 -0.4647
   87SOPE   C36 8206   6.967   1.048   3.523  0.0507 -0.3743  0.5814
   87SOPE   H6X 8207   6.940   1.004   3.425  1.5346 -1.9711  0.8360
   87SOPE   H6Y 8208   6.900   1.136   3.537 -0.2329 -0.5861  0.5685
   87SOPE   C37 8209   6.913   0.958   3.640  0.2695 -0.4503 -0.4182
   87SOPE   H7X 8210   6.948   0.854   3.628  0.1519 -0.6596  0.8871
   87SOPE   H7Y 8211   6.802   0.954   3.646  0.1889  1.8801  1.5914
   87SOPE   C38 8212   6.949   0.997   3.784  0.9180 -0.1368  0.4452
   87SOPE   H8X 8213   6.930   1.103   3.811 -1.5979 -0.2635 -0.5640
   87SOPE   H8Y 8214   7.055   0.968   3.802  1.9886  3.8204  1.6241
   87SOPE   C39 8215   6.888   0.907   3.898 -0.3520  0.1736  0.3722
   87SOPE   H9X 8216   6.777   0.909   3.896 -0.3978 -1.2464 -1.0454
   87SOPE   H9Y 8217   6.928   0.939   3.997  1.5303 -0.3183 -0.1789
   87SOPE  C310 8218   6.937   0.761   3.879  0.0638  0.2600 -0.0177
   87SOPE  H10X 8219   7.048   0.763   3.875  0.2532  0.5396  2.8022
   87SOPE  H10Y 8220   6.902   0.717   3.784 -0.9535 -1.6841  1.1829
   87SOPE  C311 8221   6.905   0.670   4.000 -0.6653  0.6450  0.3474
   87SOPE  H11X 8222   6.920   0.568   3.959  0.5195  1.1155 -0.4404
   87SOPE  H11Y 8223   6.800   0.687   4.030 -0.8369  1.6915 -0.7541
   87SOPE  C312 8224   7.002   0.691   4.123  0.5126 -0.3037  0.2648
   87SOPE  H12X 8225   7.007   0.797   4.154  1.0765  0.3748 -1.9749
   87SOPE  H12Y 8226   7.104   0.659   4.091  0.1853 -0.6511 -0.4472
   87SOPE  C313 8227   6.960   0.611   4.248 -0.5645 -0.0778  0.2556
   87SOPE  H13X 8228   6.945   0.505   4.222  1.8145 -0.1587 -1.0455
   87SOPE  H13Y 8229   6.873   0.664   4.292  0.0246  0.2638  1.0379
   87SOPE  C314 8230   7.075   0.613   4.355  0.4001 -0.6071  0.6335
   87SOPE  H14X 8231   7.102   0.717   4.383  0.8817 -0.1292 -1.4176
   87SOPE  H14Y 8232   7.162   0.570   4.302 -0.4587 -0.6210 -0.8315
   87SOPE  C315 8233   7.032   0.546   4.486  0.3970  0.2015  0.5505
   87SOPE  H15X 8234   7.010   0.439   4.468 -1.6795  0.5632  0.7404
   87SOPE  H15Y 8235   6.941   0.599   4.520  0.3775  0.4467  0.1215
   87SOPE  C316 8236   7.141   0.548   4.593 -0.6361  0.1834  0.5020
   87SOPE  H16X 8237   7.189   0.648   4.600 -0.3517  0.0114  1.0451
   87SOPE  H16Y 8238   7.216   0.469   4.571  0.5166  1.3559  0.1464
   87SOPE  C317 8239   7.087   0.529   4.738  0.3383 -0.8448 -0.2310
   87SOPE  H17X 8240   7.041   0.429   4.749 -0.0674 -0.8672 -1.8487
   87SOPE  H17Y 8241   7.001   0.599   4.745  2.0600  1.3856 -0.2061
   87SOPE  C318 8242   7.183   0.557   4.853 -0.3687  0.1724 -0.1581
   87SOPE  H18X 8243   7.237   0.652   4.831  3.6852 -1.5931  1.2100
   87SOPE  H18Y 8244   7.267   0.485   4.860  0.3388  1.0464  0.7088
   87SOPE  H18Z 8245   7.134   0.562   4.952 -2.4436  1.5839 -1.1660
   88SOPE     N 8246   2.869   1.081   2.766  0.4167  0.7530  0.0502
   88SOPE   HN1 8247   2.907   1.117   2.676  1.0873  0.5039  0.2268
   88SOPE   HN2 8248   2.950   1.061   2.829  0.1001 -3.0509 -0.5514
   88SOPE   HN3 8249   2.826   0.991   2.738  3.3671 -0.6397 -0.3872
   88SOPE   C12 8250   2.781   1.194   2.816  0.9613  0.4768 -0.1052
   88SOPE  H12A 8251   2.674   1.171   2.793  0.1789  1.4318  2.2652
   88SOPE  H12B 8252   2.814   1.290   2.770  0.7879  1.9430  2.6175
   88SOPE   C11 8253   2.800   1.229   2.964 -0.1735  0.5406 -0.0410
   88SOPE  H11A 8254   2.766   1.141   3.023 -1.2806 -0.1765 -1.6734
   88SOPE  H11B 8255   2.746   1.320   2.998  1.8789  1.9646 -0.4382
   88SOPE     P 8256   3.003   1.389   3.027 -0.3806  0.3787 -0.2546
   88SOPE   O13 8257   2.987   1.473   2.901  0.3947 -0.1998  0.1712
   88SOPE   O14 8258   3.141   1.389   3.083 -0.2790 -0.1216  0.2402
   88SOPE   O12 8259   2.937   1.250   2.995  1.2934  0.2083  0.0926
   88SOPE   O11 8260   2.907   1.436   3.143 -0.6387 -0.2440  0.0576
   88SOPE    C1 8261   2.879   1.357   3.270 -1.0067 -0.5228  0.2928
   88SOPE    HA 8262   2.948   1.271   3.283 -1.3373 -0.8681 -0.2303
   88SOPE    HB 8263   2.775   1.322   3.254 -0.1848 -2.0281 -2.4033
   88SOPE    C2 8264   2.907   1.443   3.401 -0.0245 -0.4626  0.3758
   88SOPE    HS 8265   3.018   1.442   3.411 -0.1385 -1.2648  1.9061
   88SOPE   O21 8266   2.849   1.362   3.502  0.4924 -0.2265 -0.1321
   88SOPE   C21 8267   2.889   1.392   3.630  0.1123 -0.3149 -0.0844
   88SOPE   O22 8268   2.993   1.445   3.654  0.0731 -0.3059  0.0618
   88SOPE   C22 8269   2.792   1.336   3.731 -0.3657  0.2250 -0.0675
   88SOPE   H2R 8270   2.840   1.330   3.831 -1.0800 -3.9685  0.1835
   88SOPE   H2S 8271   2.762   1.232   3.705  0.2671 -0.2100  0.8969
   88SOPE    C3 8272   2.843   1.588   3.381 -0.3766 -0.3414  0.2773
   88SOPE    HX 8273   2.735   1.566   3.365 -0.8532  2.6180 -1.3523
   88SOPE    HY 8274   2.881   1.632   3.286 -1.2189 -2.1702 -0.9667
   88SOPE   O31 8275   2.860   1.674   3.496 -0.1220 -0.0831 -0.0724
   88SOPE   C31 8276   2.936   1.781   3.487  0.4524  0.0843  0.7104
   88SOPE   O32 8277   3.009   1.803   3.390 -0.1743  0.9180  0.1605
   88SOPE   C32 8278   2.897   1.883   3.594  0.2991 -0.1492  0.2719
   88SOPE   H2X 8279   2.846   1.839   3.682  1.4841 -2.3404 -0.0797
   88SOPE   H2Y 8280   2.838   1.961   3.543  1.2473  3.2699  3.8818
   88SOPE   C23 8281   2.665   1.415   3.738  0.7491 -0.2757  0.6656
   88SOPE   H3R 8282   2.596   1.379   3.817  0.8011  2.4652  2.1044
   88SOPE   H3S 8283   2.619   1.407   3.638 -0.2372  0.9189  0.9998
   88SOPE   C24 8284   2.674   1.569   3.776  0.6784 -0.4721 -0.1085
   88SOPE   H4R 8285   2.726   1.634   3.702  0.4943 -0.9209 -0.6483
   88SOPE   H4S 8286   2.571   1.605   3.792  0.5436 -0.9548  0.1316
   88SOPE   C25 8287   2.747   1.599   3.907 -0.6735  0.9292  0.0922
   88SOPE   H5R 8288   2.722   1.515   3.976 -1.6260  0.5566 -0.6692
   88SOPE   H5S 8289   2.851   1.602   3.870 -0.7346  0.4144 -0.1339
   88SOPE   C26 8290   2.715   1.736   3.965 -0.6889 -0.2341 -0.4895
   88SOPE   H6R 8291   2.720   1.819   3.891  1.5764 -1.2637 -1.6113
   88SOPE   H6S 8292   2.611   1.746   4.003  0.0428  3.0100  1.0281
   88SOPE   C27 8293   2.810   1.786   4.074  0.4821  0.3200 -0.5522
   88SOPE   H7R 8294   2.853   1.701   4.130 -0.8915  1.9569  3.3729
   88SOPE   H7S 8295   2.894   1.844   4.031  0.7817 -1.7300 -2.9320
   88SOPE   C28 8296   2.739   1.876   4.180 -0.5036  0.2527  0.3549
   88SOPE   H8R 8297   2.825   1.919   4.235 -1.0595  0.5794  1.0012
   88SOPE   H8S 8298   2.676   1.956   4.136 -0.9586 -0.4043 -0.2170
   88SOPE   C29 8299   2.654   1.800   4.278 -0.2635  0.2697 -0.1319
   88SOPE   H91 8300   2.562   1.750   4.243 -0.1992  1.0109 -1.4354
   88SOPE  C210 8301   2.686   1.781   4.408 -0.1146  0.0517  0.4630
   88SOPE  H101 8302   2.628   1.712   4.471 -0.1238 -0.2932  0.0902
   88SOPE  C211 8303   2.809   1.838   4.466 -0.0829 -0.5088 -0.3875
   88SOPE  H11R 8304   2.794   1.947   4.484  4.7308  0.3738 -0.3306
   88SOPE  H11S 8305   2.903   1.824   4.408  0.1455 -1.0946  0.1126
   88SOPE  C212 8306   2.839   1.777   4.609 -0.5652 -0.7106 -0.4872
   88SOPE  H12R 8307   2.941   1.812   4.635 -1.0133 -0.1390  0.5232
   88SOPE  H12S 8308   2.843   1.667   4.595  1.9569 -0.5586 -1.5743
   88SOPE  C213 8309   2.734   1.817   4.718  0.1819  0.1909  0.0840
   88SOPE  H13R 8310   2.641   1.770   4.677  0.5918  0.2339 -0.9244
   88SOPE  H13S 8311   2.733   1.928   4.722  1.4294  0.2265 -0.3932
   88SOPE  C214 8312   2.759   1.758   4.860 -0.6506  0.2530 -0.1744
   88SOPE  H14R 8313   2.835   1.825   4.907  1.9633 -0.8825 -2.4869
   88SOPE  H14S 8314   2.801   1.655   4.863 -0.8778  0.1641  0.0556
   88SOPE  C215 8315   2.638   1.750   4.947  0.2978 -0.0823 -0.0514
   88SOPE  H15R 8316   2.567   1.667   4.927  0.0759  0.1281 -0.1371
   88SOPE  H15S 8317   2.589   1.849   4.940  1.3106  0.4873  0.6278
   88SOPE  C216 8318   2.673   1.728   5.094  0.0662 -0.3634  0.0918
   88SOPE  H16R 8319   2.759   1.791   5.125  0.5441 -0.8059 -0.3233
   88SOPE  H16S 8320   2.701   1.623   5.118  1.9352  0.4955  1.9167
   88SOPE  C217 8321   2.555   1.754   5.196  0.4954 -0.7881 -0.8194
   88SOPE  H17R 8322   2.470   1.695   5.157  1.5399 -3.0088  0.0883
   88SOPE  H17S 8323   2.533   1.863   5.195 -0.7865 -0.9983  0.3132
   88SOPE  C218 8324   2.586   1.707   5.342 -0.6661 -0.2459 -0.3640
   88SOPE  H18R 8325   2.505   1.721   5.417 -0.5941  0.1325 -0.3554
   88SOPE  H18S 8326   2.675   1.758   5.383 -1.2222  0.4724 -0.0323
   88SOPE  H18T 8327   2.602   1.597   5.346 -0.1341 -0.1407  1.5147
   88SOPE   C33 8328   3.018   1.966   3.648 -0.0183  0.9382  0.4864
   88SOPE   H3X 8329   2.989   2.071   3.667 -1.1756  0.6486  0.4299
   88SOPE   H3Y 8330   3.100   1.965   3.574 -0.3466 -0.3636  0.1093
   88SOPE   C34 8331   3.065   1.910   3.779 -0.0093  0.3902 -0.0727
   88SOPE   H4X 8332   2.995   1.918   3.864  3.2146  0.9551  2.7255
   88SOPE   H4Y 8333   3.151   1.971   3.814  1.1094 -0.8375 -0.5574
   88SOPE   C35 8334   3.106   1.758   3.773 -0.4907 -0.4972 -0.2215
   88SOPE   H5X 8335   3.177   1.747   3.688 -0.7433  1.8990 -0.8092
   88SOPE   H5Y 8336   3.024   1.691   3.740 -0.7917 -0.7349  0.9836
   88SOPE   C36 8337   3.173   1.701   3.899  0.3352 -0.0787  0.5631
   88SOPE   H6X 8338   3.107   1.714   3.987 -0.5318 -1.6321  0.1758
   88SOPE   H6Y 8339   3.269   1.752   3.922  0.0314 -0.3401  2.5206
   88SOPE   C37 8340   3.212   1.555   3.880  0.4293 -0.5645  0.2790
   88SOPE   H7X 8341   3.294   1.535   3.809 -0.0078 -1.7841  0.0918
   88SOPE   H7Y 8342   3.126   1.494   3.844  1.6042 -1.2394 -1.4582
   88SOPE   C38 8343   3.255   1.485   4.010  0.1812  0.3100 -0.0822
   88SOPE   H8X 8344   3.350   1.533   4.041 -0.4236  0.2945  1.8847
   88SOPE   H8Y 8345   3.269   1.379   3.980 -2.8873  0.3253 -1.9879
   88SOPE   C39 8346   3.147   1.489   4.120 -0.6309  0.1566 -0.5393
   88SOPE   H9X 8347   3.056   1.451   4.070  0.5246 -1.8752 -1.2141
   88SOPE   H9Y 8348   3.131   1.593   4.156  0.9879  0.5697 -0.9376
   88SOPE  C310 8349   3.178   1.399   4.241 -0.0667  0.3811  0.2940
   88SOPE  H10X 8350   3.284   1.414   4.272 -0.2819  0.0178  1.2463
   88SOPE  H10Y 8351   3.160   1.294   4.210  1.0607  0.1638  0.3453
   88SOPE  C311 8352   3.091   1.440   4.357 -1.2012 -0.1464 -0.0610
   88SOPE  H11X 8353   3.042   1.534   4.326  0.1190  0.0891 -1.5234
   88SOPE  H11Y 8354   3.156   1.460   4.445  1.4350  0.4249 -2.0135
   88SOPE  C312 8355   2.997   1.322   4.391 -0.8327  0.1785 -0.1642
   88SOPE  H12X 8356   3.043   1.222   4.409 -0.8873  0.2660  0.5143
   88SOPE  H12Y 8357   2.928   1.326   4.305 -0.7602  2.2534 -0.1900
   88SOPE  C313 8358   2.915   1.355   4.517 -0.6468  0.0677 -0.1712
   88SOPE  H13X 8359   2.873   1.458   4.509 -0.3741  0.3885  1.8945
   88SOPE  H13Y 8360   2.990   1.352   4.599  0.6314 -0.6399 -1.3368
   88SOPE  C314 8361   2.797   1.262   4.537  0.0676 -0.8292  0.8906
   88SOPE  H14X 8362   2.840   1.166   4.574  1.4465 -0.2245  0.9244
   88SOPE  H14Y 8363   2.750   1.245   4.438  0.6387 -2.5089  0.8755
   88SOPE  C315 8364   2.682   1.305   4.639 -0.0323  0.6463  0.4902
   88SOPE  H15X 8365   2.723   1.323   4.741  1.6987  5.5085 -0.8119
   88SOPE  H15Y 8366   2.606   1.224   4.635  0.3514  0.3436 -1.7079
   88SOPE  C316 8367   2.624   1.440   4.603  0.5933  0.3219  0.3134
   88SOPE  H16X 8368   2.622   1.458   4.493 -0.8246 -2.1531 -0.1293
   88SOPE  H16Y 8369   2.690   1.513   4.654 -1.4147  0.1590  3.3557
   88SOPE  C317 8370   2.481   1.463   4.660 -0.3693  0.2242  0.0807
   88SOPE  H17X 8371   2.415   1.394   4.602  0.0276 -0.8227  0.8502
   88SOPE  H17Y 8372   2.453   1.567   4.631  2.4799  0.9656 -0.3540
   88SOPE  C318 8373   2.474   1.419   4.803  0.6009 -0.2513 -0.4321
   88SOPE  H18X 8374   2.456   1.310   4.795 -2.3136 -0.0239  1.3776
   88SOPE  H18Y 8375   2.387   1.463   4.857  0.6047  0.6500 -1.1380
   88SOPE  H18Z 8376   2.568   1.436   4.859  0.1200  0.8951  0.0733
   89SAPC     N 8377   5.588   3.268   7.583  0.5848  0.3128 -0.2366
   89SAPC   C12 8378   5.502   3.316   7.465  1.0546  0.0685 -0.6784
   89SAPC  H12A 8379   5.548   3.403   7.420 -1.3382  0.0551 -3.4634
   89SAPC  H12B 8380   5.412   3.345   7.516  2.0278  1.4172  0.3447
   89SAPC   C13 8381   5.717   3.220   7.531  0.5035 -0.6788 -0.2224
   89SAPC  H13A 8382   5.762   3.163   7.611 -1.1359  1.1271  2.1267
   89SAPC  H13B 8383   5.701   3.149   7.452  1.2923 -1.8080  0.5921
   89SAPC  H13C 8384   5.781   3.299   7.493  0.7174 -0.3043  0.8773
   89SAPC   C14 8385   5.615   3.375   7.678  0.5362 -0.4955  0.0024
   89SAPC  H14A 8386   5.522   3.403   7.726 -0.1937 -0.7344 -1.1994
   89SAPC  H14B 8387   5.699   3.356   7.742 -1.3965  0.0568  2.9223
   89SAPC  H14C 8388   5.644   3.459   7.616 -0.3539 -0.7312 -0.7720
   89SAPC   C15 8389   5.513   3.160   7.658 -0.6445 -0.1545  0.2139
   89SAPC  H15A 8390   5.420   3.200   7.695  0.0702  1.6123  0.2054
   89SAPC  H15B 8391   5.485   3.085   7.586 -0.4979  1.1489 -1.2517
   89SAPC  H15C 8392   5.573   3.125   7.741  0.4265 -0.7788 -0.8005
   89SAPC   C11 8393   5.462   3.216   7.350  0.3845  0.0965 -0.4289
   89SAPC  H11A 8394   5.366   3.249   7.305 -0.3352 -2.5513 -1.0117
   89SAPC  H11B 8395   5.437   3.114   7.386 -0.1319  0.3477 -0.0649
   89SAPC     P 8396   5.548   3.131   7.120  0.2585  0.6765  0.4903
   89SAPC   O13 8397   5.684   3.141   7.054  0.9592  0.6149 -0.8498
   89SAPC   O14 8398   5.488   3.001   7.156 -0.5291 -0.3189 -0.0618
   89SAPC   O12 8399   5.562   3.210   7.250 -0.3058 -0.7133 -0.6406
   89SAPC   O11 8400   5.445   3.207   7.029  0.1339  0.7532 -0.1048
   89SAPC    C1 8401   5.449   3.352   7.027 -0.0907 -0.3500  0.5007
   89SAPC    HA 8402   5.347   3.396   7.029  1.2039  3.1313 -0.9937
   89SAPC    HB 8403   5.491   3.398   7.119  0.1354 -2.5183  1.5489
   89SAPC    C2 8404   5.502   3.413   6.896  0.1310 -0.0447  0.1802
   89SAPC    HS 8405   5.513   3.519   6.925  1.7045 -1.0241  3.6296
   89SAPC   O21 8406   5.418   3.394   6.777 -0.2914  0.1760 -0.2156
   89SAPC   C21 8407   5.297   3.444   6.773  0.7807 -0.3404  0.2398
   89SAPC   O22 8408   5.242   3.514   6.860  0.6556  0.5407 -0.1691
   89SAPC   C22 8409   5.229   3.391   6.645 -0.5406  0.7358 -0.2084
   89SAPC   H2R 8410   5.216   3.281   6.648  0.4946  0.6189  0.3168
   89SAPC   H2S 8411   5.132   3.446   6.638 -0.1531  1.9368  2.5197
   89SAPC    C3 8412   5.654   3.376   6.870 -0.5382 -0.5233 -0.1887
   89SAPC    HX 8413   5.661   3.265   6.870 -0.0585 -0.4947 -0.3429
   89SAPC    HY 8414   5.709   3.418   6.957 -2.5075  1.5227  0.1724
   89SAPC   O31 8415   5.697   3.441   6.748 -0.1234  0.2086  1.0292
   89SAPC   C31 8416   5.707   3.368   6.636  0.2133  0.9945  0.5665
   89SAPC   O32 8417   5.674   3.251   6.631  0.3144  0.0254 -0.3540
   89SAPC   C32 8418   5.765   3.451   6.526  0.0417 -0.2763  0.2044
   89SAPC   H2X 8419   5.870   3.469   6.555 -0.4513  0.0549  1.9005
   89SAPC   H2Y 8420   5.715   3.550   6.522  0.3863 -0.1185 -0.3477
   89SAPC   C23 8421   5.314   3.431   6.524  0.5024 -0.0620 -0.1339
   89SAPC   H3R 8422   5.413   3.382   6.533  0.9422  1.1020  2.3143
   89SAPC   H3S 8423   5.337   3.539   6.527 -0.1435  0.0827 -0.1422
   89SAPC   C24 8424   5.242   3.402   6.388 -0.3925 -0.3754 -0.5279
   89SAPC   H4R 8425   5.145   3.457   6.388  1.3613  3.3715  3.6769
   89SAPC   H4S 8426   5.215   3.294   6.396  0.2805 -0.5232 -0.1311
   89SAPC   C25 8427   5.322   3.432   6.270  0.1995  0.0561  0.9751
   89SAPC   H5R 8428   5.427   3.402   6.260  0.2399  0.8423 -2.2542
   89SAPC   C26 8429   5.284   3.506   6.166 -0.6996 -0.3226  0.6192
   89SAPC   H6R 8430   5.359   3.522   6.088  0.4316 -0.4240  1.6600
   89SAPC   C27 8431   5.147   3.571   6.141 -0.0758 -0.6159  0.7963
   89SAPC   H7R 8432   5.074   3.559   6.224 -0.0048 -0.8223  0.8308
   89SAPC   H7S 8433   5.110   3.508   6.057  0.5869  0.2314 -0.1455
   89SAPC   C28 8434   5.162   3.717   6.095  0.1213  0.3825  0.0318
   89SAPC   H8R 8435   5.166   3.787   6.180  0.1724 -1.2797  1.4553
   89SAPC   C29 8436   5.165   3.764   5.970  0.2451  0.1835  0.2385
   89SAPC   H9R 8437   5.179   3.872   5.957 -1.2135  0.6116  1.9489
   89SAPC  C210 8438   5.166   3.683   5.839  0.0422  0.2376  0.4739
   89SAPC  H10R 8439   5.136   3.578   5.860  0.3618 -0.1410 -0.8516
   89SAPC  H10S 8440   5.269   3.678   5.797  0.2966  1.2706  0.9382
   89SAPC  C211 8441   5.074   3.727   5.730  0.5950 -0.0418 -0.2055
   89SAPC  H11R 8442   4.969   3.695   5.742  1.5855 -3.1410  0.9932
   89SAPC  C212 8443   5.092   3.820   5.637 -0.7562  0.1142  0.3398
   89SAPC  H12R 8444   5.028   3.829   5.548 -1.2639 -2.6378  0.3371
   89SAPC  C213 8445   5.225   3.892   5.613  0.2337  0.2658  0.2659
   89SAPC  H13R 8446   5.259   3.856   5.514 -2.7489  3.2415 -2.0489
   89SAPC  H13S 8447   5.302   3.857   5.685  1.5176 -0.4383 -1.3986
   89SAPC  C214 8448   5.206   4.040   5.622 -0.3751  0.8468 -0.3904
   89SAPC  H14R 8449   5.144   4.059   5.711  0.0014 -0.3250  0.1394
   89SAPC  C215 8450   5.252   4.137   5.539 -0.4186 -0.2735  0.3679
   89SAPC  H15R 8451   5.231   4.242   5.566  0.7041 -0.2106  1.0665
   89SAPC  C216 8452   5.344   4.108   5.425  0.2110 -0.1422  0.4407
   89SAPC  H16R 8453   5.395   4.010   5.430  0.8770 -0.0218 -2.1692
   89SAPC  H16S 8454   5.422   4.186   5.411 -2.1855  2.0032 -2.3175
   89SAPC  C217 8455   5.274   4.088   5.289 -0.0605  0.8463 -0.0647
   89SAPC  H17R 8456   5.210   4.177   5.272  1.1158  1.4453 -1.6262
   89SAPC  H17S 8457   5.210   3.999   5.305 -0.3283  1.2759  1.3892
   89SAPC  C218 8458   5.368   4.058   5.182  0.0300 -0.0898 -0.6570
   89SAPC  H18R 8459   5.307   4.015   5.099  1.9903 -2.7845 -0.8517
   89SAPC  H18S 8460   5.440   3.982   5.218 -0.3910  0.3782  1.2355
   89SAPC  C219 8461   5.432   4.181   5.122  0.0113  0.5402  0.7390
   89SAPC  H19R 8462   5.522   4.198   5.185  2.0807  0.7349 -2.0637
   89SAPC  H19S 8463   5.358   4.263   5.130 -1.8632 -0.9387 -0.3773
   89SAPC  C220 8464   5.487   4.167   4.979 -0.3004  1.0930  0.6039
   89SAPC  H20R 8465   5.542   4.255   4.940 -0.7010  0.3747 -1.7331
   89SAPC  H20S 8466   5.402   4.142   4.912 -0.0442  3.0488 -0.5201
   89SAPC  H20T 8467   5.558   4.082   4.965  1.7744  3.0882 -1.9561
   89SAPC   C33 8468   5.733   3.373   6.397 -0.4457  0.0189 -0.4190
   89SAPC   H3X 8469   5.635   3.321   6.398 -0.1908 -0.4469  0.2276
   89SAPC   H3Y 8470   5.808   3.292   6.385 -1.3853 -1.1895  1.4650
   89SAPC   C34 8471   5.731   3.459   6.268 -0.0429  0.1725  0.3302
   89SAPC   H4X 8472   5.827   3.516   6.260  0.2982 -0.2951  1.0066
   89SAPC   H4Y 8473   5.644   3.526   6.278  0.4582  0.5810  2.5144
   89SAPC   C35 8474   5.717   3.374   6.135  0.1633 -0.9418 -0.2587
   89SAPC   H5X 8475   5.618   3.327   6.145 -0.1359  0.0467  2.4202
   89SAPC   H5Y 8476   5.801   3.301   6.138 -0.5251 -1.7277  0.9160
   89SAPC   C36 8477   5.722   3.475   6.023 -0.1473  0.3565  0.2439
   89SAPC   H6X 8478   5.819   3.529   6.019  0.3052 -0.4824 -0.5488
   89SAPC   H6Y 8479   5.654   3.557   6.053  0.9584  2.1503 -1.8575
   89SAPC   C37 8480   5.674   3.428   5.887 -0.2588 -0.4870  0.2573
   89SAPC   H7X 8481   5.663   3.523   5.830  0.2987 -0.3160  0.4296
   89SAPC   H7Y 8482   5.572   3.388   5.906 -1.1164  1.3105 -0.2961
   89SAPC   C38 8483   5.766   3.329   5.810 -0.7062  0.3762  0.4880
   89SAPC   H8X 8484   5.789   3.240   5.872 -1.6086  0.2203  0.6169
   89SAPC   H8Y 8485   5.865   3.375   5.789 -0.0086 -1.4468 -0.3982
   89SAPC   C39 8486   5.729   3.284   5.669  0.3362  0.5282 -0.2376
   89SAPC   H9X 8487   5.646   3.210   5.677 -0.7767  1.7809  0.0988
   89SAPC   H9Y 8488   5.808   3.216   5.630 -0.0104  0.0874 -0.1764
   89SAPC  C310 8489   5.718   3.392   5.569 -0.0051  0.0878  0.2396
   89SAPC  H10X 8490   5.813   3.448   5.577  2.3734 -3.6565  0.4315
   89SAPC  H10Y 8491   5.634   3.461   5.591  0.8193  1.3873 -0.5661
   89SAPC  C311 8492   5.712   3.343   5.424  0.1691  0.6705  0.0514
   89SAPC  H11X 8493   5.636   3.263   5.409 -1.8226  2.9244 -3.8835
   89SAPC  H11Y 8494   5.806   3.288   5.406 -0.4105 -1.4724  2.9571
   89SAPC  C312 8495   5.712   3.451   5.317  0.0989 -0.1051  0.8777
   89SAPC  H12X 8496   5.803   3.513   5.329  1.0309 -1.7990  3.2524
   89SAPC  H12Y 8497   5.629   3.522   5.334 -0.4018 -0.9088  1.8759
   89SAPC  C313 8498   5.693   3.398   5.173  0.1911 -0.3417  0.2573
   89SAPC  H13X 8499   5.660   3.483   5.109 -1.1583 -2.1952 -1.6487
   89SAPC  H13Y 8500   5.607   3.329   5.163 -0.4849  0.1764  2.1279
   89SAPC  C314 8501   5.824   3.331   5.123  0.3170  0.2605 -0.3605
   89SAPC  H14X 8502   5.861   3.244   5.182  1.8966  1.0235 -0.1607
   89SAPC  H14Y 8503   5.903   3.409   5.130 -1.7979  2.5630 -0.9012
   89SAPC  C315 8504   5.798   3.293   4.973 -0.0818  0.3448 -0.1840
   89SAPC  H15X 8505   5.774   3.376   4.903  0.2495 -1.7635 -2.9645
   89SAPC  H15Y 8506   5.709   3.226   4.963 -0.3135  0.7906 -1.3721
   89SAPC  C316 8507   5.914   3.211   4.912 -0.6946  0.0664  0.3155
   89SAPC  H16X 8508   5.883   3.175   4.811 -1.4203 -0.5238  0.7411
   89SAPC  H16Y 8509   5.935   3.123   4.977 -1.3126  1.0763  1.9091
   89SAPC  C317 8510   6.039   3.305   4.909  0.5327  0.3483 -0.3682
   89SAPC  H17X 8511   6.096   3.306   5.004  0.6804  0.7796 -0.4610
   89SAPC  H17Y 8512   6.000   3.408   4.898  0.0172  0.2024  0.0358
   89SAPC  C318 8513   6.141   3.269   4.801 -0.0276 -0.3828 -0.0182
   89SAPC  H18X 8514   6.177   3.166   4.822  0.6021 -0.2040 -0.2034
   89SAPC  H18Y 8515   6.229   3.335   4.810 -0.2605 -0.1089  0.2617
   89SAPC  H18Z 8516   6.093   3.273   4.701 -1.0623 -1.8148  0.3881
   90SAPC     N 8517   4.733   1.272   7.164  0.3192 -0.4549  0.1143
   90SAPC   C12 8518   4.656   1.230   7.038 -0.2472  0.3298 -0.6502
   90SAPC  H12A 8519   4.556   1.207   7.072  0.8643 -2.4975  1.0291
   90SAPC  H12B 8520   4.695   1.134   7.008 -2.3523  0.0561 -2.8041
   90SAPC   C13 8521   4.692   1.415   7.212 -0.5591  0.1861  0.1694
   90SAPC  H13A 8522   4.710   1.490   7.137  1.2951 -0.4092 -0.0227
   90SAPC  H13B 8523   4.587   1.416   7.237 -0.4745  2.4819  0.5975
   90SAPC  H13C 8524   4.730   1.448   7.308  0.6537  3.5970 -1.3351
   90SAPC   C14 8525   4.710   1.184   7.276  0.3533 -0.1098  0.0603
   90SAPC  H14A 8526   4.760   1.088   7.267  0.1249 -0.3172  0.8979
   90SAPC  H14B 8527   4.748   1.228   7.367  0.4214  2.2102 -1.0188
   90SAPC  H14C 8528   4.607   1.161   7.299 -0.3092 -0.0925 -2.6108
   90SAPC   C15 8529   4.882   1.271   7.130  0.3939  0.8013 -0.3494
   90SAPC  H15A 8530   4.908   1.170   7.101  1.0626  0.7636  0.3284
   90SAPC  H15B 8531   4.923   1.344   7.062  0.4309  0.5385 -0.6117
   90SAPC  H15C 8532   4.944   1.285   7.218  1.7358 -2.7137 -0.5637
   90SAPC   C11 8533   4.648   1.323   6.914  0.6389  0.1293  0.6633
   90SAPC  H11A 8534   4.633   1.267   6.819  0.0058  0.0721  0.7895
   90SAPC  H11B 8535   4.748   1.367   6.895  1.1202 -1.1989 -0.0697
   90SAPC     P 8536   4.401   1.396   6.918 -0.1396  0.0017  0.1993
   90SAPC   O13 8537   4.368   1.286   7.012 -0.3574  0.0862 -0.0017
   90SAPC   O14 8538   4.321   1.516   6.928  0.8161 -1.0888  0.1507
   90SAPC   O12 8539   4.555   1.429   6.932 -0.0490  0.1511 -0.2819
   90SAPC   O11 8540   4.399   1.339   6.767  0.1113 -0.0250  0.3560
   90SAPC    C1 8541   4.435   1.429   6.663 -0.1547 -0.1130 -0.0496
   90SAPC    HA 8542   4.503   1.515   6.683  1.5935 -0.8412 -2.2987
   90SAPC    HB 8543   4.498   1.375   6.589 -0.0511  0.9225 -0.7449
   90SAPC    C2 8544   4.311   1.474   6.577 -0.2853  0.4425 -0.4548
   90SAPC    HS 8545   4.268   1.545   6.651  1.7206  1.0578  0.1844
   90SAPC   O21 8546   4.225   1.357   6.551 -0.0340 -0.4205  0.1360
   90SAPC   C21 8547   4.096   1.392   6.539 -0.2395 -0.4239 -0.1228
   90SAPC   O22 8548   4.048   1.499   6.573 -0.3757 -0.1066  0.0954
   90SAPC   C22 8549   4.014   1.282   6.481  0.0612  0.1268 -0.1752
   90SAPC   H2R 8550   4.070   1.241   6.395 -0.3377 -2.5356  0.7432
   90SAPC   H2S 8551   4.018   1.200   6.555 -0.5288  0.5903  0.3852
   90SAPC    C3 8552   4.347   1.556   6.449 -1.2689 -0.6859 -0.2042
   90SAPC    HX 8553   4.420   1.636   6.473  0.4196 -2.5610  1.2759
   90SAPC    HY 8554   4.262   1.621   6.420 -1.2471 -1.4590 -2.1339
   90SAPC   O31 8555   4.381   1.480   6.332  0.0857 -0.0799  0.0447
   90SAPC   C31 8556   4.506   1.463   6.303 -0.3378 -0.6009 -0.0364
   90SAPC   O32 8557   4.604   1.502   6.367  0.2843  0.1049  0.1099
   90SAPC   C32 8558   4.523   1.390   6.171 -0.2135 -0.9027 -0.7240
   90SAPC   H2X 8559   4.468   1.452   6.098  1.0054 -0.1989 -1.0655
   90SAPC   H2Y 8560   4.473   1.292   6.187  0.2711 -0.9850  0.4288
   90SAPC   C23 8561   3.866   1.319   6.455  0.0626 -0.5532 -0.0976
   90SAPC   H3R 8562   3.869   1.408   6.389  0.7894  0.4160  1.2146
   90SAPC   H3S 8563   3.816   1.340   6.552  0.7403 -2.1642  0.6413
   90SAPC   C24 8564   3.797   1.201   6.391  1.2015  0.5079  0.6483
   90SAPC   H4R 8565   3.829   1.107   6.441 -1.5338 -1.5673 -1.2031
   90SAPC   H4S 8566   3.832   1.192   6.286  0.3126 -0.6816  0.4390
   90SAPC   C25 8567   3.649   1.235   6.400  0.2630  0.0486  0.2510
   90SAPC   H5R 8568   3.607   1.241   6.502 -1.1677  0.4450 -0.3358
   90SAPC   C26 8569   3.565   1.253   6.294 -0.5780  0.4711 -0.3800
   90SAPC   H6R 8570   3.459   1.273   6.314 -0.1907  1.1067  1.2127
   90SAPC   C27 8571   3.602   1.251   6.144 -0.1839  0.5238  0.1756
   90SAPC   H7R 8572   3.561   1.155   6.107 -2.5941  0.5828  2.3824
   90SAPC   H7S 8573   3.711   1.250   6.122  0.2433  0.4325  2.1562
   90SAPC   C28 8574   3.539   1.372   6.073  0.7109 -0.0272 -0.2661
   90SAPC   H8R 8575   3.447   1.407   6.122  0.1917 -0.9644 -0.5598
   90SAPC   C29 8576   3.576   1.436   5.962  0.9739 -0.3492  0.4120
   90SAPC   H9R 8577   3.513   1.516   5.922 -0.8557 -2.1261 -0.4288
   90SAPC  C210 8578   3.686   1.403   5.866 -0.4305 -0.1947 -0.6955
   90SAPC  H10R 8579   3.641   1.348   5.780 -2.8860 -1.0568  1.0236
   90SAPC  H10S 8580   3.751   1.322   5.905  0.8023  0.2002 -1.8757
   90SAPC  C211 8581   3.770   1.529   5.842 -0.4027 -0.2279 -1.5217
   90SAPC  H11R 8582   3.831   1.557   5.929 -2.1091  0.0716 -0.3532
   90SAPC  C212 8583   3.767   1.605   5.732 -0.0974 -0.1539 -0.5181
   90SAPC  H12R 8584   3.820   1.701   5.732 -1.0382  0.3721 -0.3933
   90SAPC  C213 8585   3.695   1.573   5.605 -0.3946  0.1714  0.7478
   90SAPC  H13R 8586   3.697   1.465   5.579  0.6768  0.7221 -1.8256
   90SAPC  H13S 8587   3.765   1.608   5.526  0.4552 -1.0153  0.9599
   90SAPC  C214 8588   3.564   1.635   5.600  0.8582  0.6141  0.3262
   90SAPC  H14R 8589   3.491   1.598   5.673  0.2425 -0.6286 -0.8720
   90SAPC  C215 8590   3.528   1.724   5.504 -0.1469  0.1497 -0.4343
   90SAPC  H15R 8591   3.427   1.768   5.510 -0.5318 -0.5713 -1.2929
   90SAPC  C216 8592   3.620   1.788   5.404 -0.0961 -0.0118 -0.6732
   90SAPC  H16R 8593   3.720   1.812   5.447 -2.0032  1.7027  3.3308
   90SAPC  H16S 8594   3.595   1.894   5.379  0.8309  0.3249 -0.2186
   90SAPC  C217 8595   3.613   1.721   5.266 -0.1998  0.2508 -0.4720
   90SAPC  H17R 8596   3.515   1.680   5.234  0.1730 -0.2279 -1.0217
   90SAPC  H17S 8597   3.673   1.628   5.276 -1.4451 -0.3157  3.5012
   90SAPC  C218 8598   3.649   1.813   5.158 -0.4826 -0.0465 -0.7702
   90SAPC  H18R 8599   3.751   1.855   5.169  0.7008 -2.4797 -1.7995
   90SAPC  H18S 8600   3.580   1.901   5.159 -0.0474  0.3352 -2.2358
   90SAPC  C219 8601   3.635   1.758   5.024  0.1999 -0.0077 -0.2571
   90SAPC  H19R 8602   3.661   1.848   4.963  1.3542  0.7062  1.2246
   90SAPC  H19S 8603   3.534   1.717   5.004 -0.3230  0.8608  0.5370
   90SAPC  C220 8604   3.724   1.633   5.008 -0.1260 -0.1957 -0.3887
   90SAPC  H20R 8605   3.833   1.651   5.018 -0.1939  2.2448 -2.9022
   90SAPC  H20S 8606   3.720   1.591   4.905 -0.2972  0.4855 -0.6611
   90SAPC  H20T 8607   3.693   1.548   5.073  1.1697  0.7526  1.5798
   90SAPC   C33 8608   4.672   1.376   6.137  0.6250  0.3025 -0.2273
   90SAPC   H3X 8609   4.710   1.311   6.219 -1.0850  0.0766  0.4261
   90SAPC   H3Y 8610   4.722   1.475   6.140 -2.4559  2.0225 -0.7779
   90SAPC   C34 8611   4.684   1.303   6.002 -0.2428 -0.2220 -1.1076
   90SAPC   H4X 8612   4.611   1.350   5.933 -1.9168 -1.3463 -0.1525
   90SAPC   H4Y 8613   4.646   1.199   6.012 -2.0605  0.4932 -0.3951
   90SAPC   C35 8614   4.828   1.300   5.939 -0.2013 -0.9797 -0.4610
   90SAPC   H5X 8615   4.889   1.238   6.008 -0.7361  0.7606  1.6745
   90SAPC   H5Y 8616   4.872   1.401   5.930 -0.0300 -0.6728  2.8594
   90SAPC   C36 8617   4.820   1.240   5.796  0.1270 -0.1805  0.1155
   90SAPC   H6X 8618   4.748   1.310   5.749 -2.0396 -1.8851  0.6998
   90SAPC   H6Y 8619   4.794   1.132   5.797  0.0062 -0.1527  0.0561
   90SAPC   C37 8620   4.950   1.245   5.717  0.3331 -0.3615  0.1794
   90SAPC   H7X 8621   5.021   1.168   5.755  3.4774  2.3032  0.1212
   90SAPC   H7Y 8622   5.005   1.339   5.737  0.3561 -0.0061 -1.4561
   90SAPC   C38 8623   4.928   1.231   5.567 -0.0671 -0.2756 -0.1838
   90SAPC   H8X 8624   4.830   1.181   5.554 -1.2730  1.9621 -0.2300
   90SAPC   H8Y 8625   5.010   1.172   5.520 -0.5564  0.5348 -2.1617
   90SAPC   C39 8626   4.930   1.372   5.497 -0.0504  0.2284 -0.2307
   90SAPC   H9X 8627   5.031   1.414   5.514  0.4954 -0.6439 -1.2476
   90SAPC   H9Y 8628   4.855   1.437   5.548 -0.0343  3.4556 -3.8300
   90SAPC  C310 8629   4.904   1.365   5.340  0.5182  0.1711  1.0581
   90SAPC  H10X 8630   4.905   1.469   5.301  0.8142  0.2912  1.3883
   90SAPC  H10Y 8631   4.807   1.311   5.333 -0.2464  1.4734  1.3970
   90SAPC  C311 8632   5.007   1.282   5.262 -0.0379  0.2859  0.0684
   90SAPC  H11X 8633   5.007   1.180   5.306  1.1578  1.4041  2.9105
   90SAPC  H11Y 8634   5.104   1.333   5.278  0.3785  0.5518 -2.7716
   90SAPC  C312 8635   4.984   1.276   5.117  0.0810  0.6169  0.3386
   90SAPC  H12X 8636   4.920   1.362   5.087 -1.6445 -1.3776 -2.1358
   90SAPC  H12Y 8637   4.918   1.187   5.105 -2.0551  2.2222 -0.5213
   90SAPC  C313 8638   5.109   1.259   5.038 -0.0359 -0.1591 -0.9332
   90SAPC  H13X 8639   5.159   1.171   5.084 -1.0358 -0.2713 -0.0176
   90SAPC  H13Y 8640   5.164   1.348   5.074 -0.5753  0.0332 -0.5795
   90SAPC  C314 8641   5.098   1.249   4.887 -0.6778  0.6895 -0.2789
   90SAPC  H14X 8642   5.203   1.268   4.854 -0.7827  1.0088 -0.4406
   90SAPC  H14Y 8643   5.031   1.323   4.838  0.2480  1.0471 -1.0477
   90SAPC  C315 8644   5.061   1.101   4.842 -0.2333 -0.8871  0.2434
   90SAPC  H15X 8645   4.951   1.093   4.831 -0.1645 -0.1487 -1.2813
   90SAPC  H15Y 8646   5.089   1.035   4.927 -2.6031  1.4869  3.0677
   90SAPC  C316 8647   5.128   1.069   4.710  0.9032  0.7021  0.6620
   90SAPC  H16X 8648   5.236   1.088   4.726  0.9390  0.0925  1.1438
   90SAPC  H16Y 8649   5.109   1.155   4.641  2.0300  1.0117  0.7202
   90SAPC  C317 8650   5.084   0.935   4.641 -0.0663  0.1185 -0.4932
   90SAPC  H17X 8651   5.083   0.859   4.722 -1.2785 -0.8000 -1.3385
   90SAPC  H17Y 8652   5.161   0.900   4.569  0.3692  1.3092 -0.6336
   90SAPC  C318 8653   4.951   0.965   4.578  0.8331  0.2839 -0.2143
   90SAPC  H18X 8654   4.899   0.871   4.547  0.5552  0.4106 -0.1405
   90SAPC  H18Y 8655   4.961   1.045   4.501 -0.7105  0.1576 -0.5818
   90SAPC  H18Z 8656   4.881   1.017   4.646  1.5963  0.6535  0.2917
   91SAPC     N 8657   2.501   0.534   7.465 -0.2129  0.2503 -0.1315
   91SAPC   C12 8658   2.557   0.433   7.366  0.3160  0.0665  0.3167
   91SAPC  H12A 8659   2.564   0.330   7.396  0.0956 -0.2302 -0.6188
   91SAPC  H12B 8660   2.657   0.464   7.341  0.1735 -0.9947 -1.7887
   91SAPC   C13 8661   2.376   0.485   7.523 -0.7246 -0.1032 -0.3972
   91SAPC  H13A 8662   2.299   0.481   7.447  0.6066 -0.1696 -1.7768
   91SAPC  H13B 8663   2.388   0.387   7.566 -0.5090  0.8375  1.8408
   91SAPC  H13C 8664   2.354   0.554   7.604 -0.5812 -2.6034  1.9289
   91SAPC   C14 8665   2.599   0.528   7.574 -0.0356 -0.1477  0.1529
   91SAPC  H14A 8666   2.701   0.543   7.543  0.2693  0.0860  1.2064
   91SAPC  H14B 8667   2.573   0.605   7.645  0.0445  1.7486 -1.7702
   91SAPC  H14C 8668   2.601   0.433   7.627  2.7595 -0.7774 -0.8873
   91SAPC   C15 8669   2.483   0.673   7.416 -0.3076  0.0398  0.1604
   91SAPC  H15A 8670   2.476   0.740   7.500 -0.2108 -2.7506  2.5743
   91SAPC  H15B 8671   2.571   0.700   7.360 -0.5339 -1.0413 -0.7470
   91SAPC  H15C 8672   2.398   0.690   7.352 -0.2792  1.8372  0.5490
   91SAPC   C11 8673   2.478   0.432   7.230  0.0002 -0.4511 -0.6211
   91SAPC  H11A 8674   2.541   0.382   7.153  0.9117 -1.1843  0.5616
   91SAPC  H11B 8675   2.461   0.538   7.200  0.0997  0.1716  1.3830
   91SAPC     P 8676   2.350   0.202   7.253 -0.2885  0.0911 -0.1738
   91SAPC   O13 8677   2.455   0.153   7.347  0.3447 -0.0410 -0.2858
   91SAPC   O14 8678   2.211   0.167   7.264  0.1907  0.4926 -0.6230
   91SAPC   O12 8679   2.359   0.361   7.259  0.0607 -0.7382  0.4339
   91SAPC   O11 8680   2.398   0.164   7.114  0.3129 -0.1573  0.0323
   91SAPC    C1 8681   2.355   0.214   6.987 -0.2384  0.4652  0.1836
   91SAPC    HA 8682   2.277   0.144   6.950 -1.8572  1.9097  0.7387
   91SAPC    HB 8683   2.298   0.309   6.987  1.4925  1.5738 -1.7202
   91SAPC    C2 8684   2.465   0.231   6.880  0.0028  0.4725 -0.2902
   91SAPC    HS 8685   2.520   0.135   6.896 -1.6324 -0.4382  0.0774
   91SAPC   O21 8686   2.568   0.327   6.920  0.7398 -0.5906  0.3389
   91SAPC   C21 8687   2.686   0.330   6.852  0.5411  0.7475  0.6458
   91SAPC   O22 8688   2.716   0.257   6.759 -0.4317 -0.1725 -0.0359
   91SAPC   C22 8689   2.779   0.440   6.915  0.4099  0.7202 -0.2149
   91SAPC   H2R 8690   2.729   0.480   7.006  2.3587 -0.2596  1.3760
   91SAPC   H2S 8691   2.869   0.380   6.941 -0.9784 -1.5604 -0.3655
   91SAPC    C3 8692   2.419   0.248   6.736 -0.5703 -0.5154 -0.4744
   91SAPC    HX 8693   2.498   0.284   6.666  1.1853 -0.7906  1.3084
   91SAPC    HY 8694   2.345   0.330   6.736 -0.4959 -0.4475  0.4473
   91SAPC   O31 8695   2.367   0.125   6.686  0.0434  0.2069  0.0039
   91SAPC   C31 8696   2.327   0.119   6.563 -0.1772 -0.5625 -0.7182
   91SAPC   O32 8697   2.329   0.208   6.476  0.1505  0.2096  0.1941
   91SAPC   C32 8698   2.316  -0.026   6.532 -0.4832  0.2332  0.4605
   91SAPC   H2X 8699   2.227  -0.067   6.584  2.2461 -2.8919  3.0928
   91SAPC   H2Y 8700   2.403  -0.077   6.578 -1.9806 -1.3454  1.6387
   91SAPC   C23 8701   2.814   0.545   6.811  0.3139  0.2694  0.4829
   91SAPC   H3R 8702   2.813   0.497   6.711 -0.5185 -0.6074  0.9019
   91SAPC   H3S 8703   2.919   0.576   6.829  0.1537  0.0979  1.7768
   91SAPC   C24 8704   2.728   0.667   6.816  0.4446 -0.7881 -0.0199
   91SAPC   H4R 8705   2.749   0.725   6.724 -0.7190  0.0554  0.2188
   91SAPC   H4S 8706   2.745   0.735   6.901 -1.5561  1.8578 -1.5698
   91SAPC   C25 8707   2.575   0.636   6.814  0.2544 -0.5171 -0.6350
   91SAPC   H5R 8708   2.522   0.641   6.910 -1.6064 -2.2373 -1.5093
   91SAPC   C26 8709   2.502   0.610   6.701 -0.2571 -0.3843  0.0990
   91SAPC   H6R 8710   2.397   0.579   6.709 -0.9036  1.1099 -1.6894
   91SAPC   C27 8711   2.556   0.604   6.553 -0.1198 -0.4862  0.3546
   91SAPC   H7R 8712   2.642   0.534   6.554 -0.2544 -0.7574  3.4434
   91SAPC   H7S 8713   2.607   0.697   6.521  1.9651 -1.6521  0.1279
   91SAPC   C28 8714   2.452   0.553   6.457  0.3117 -0.2311 -0.2011
   91SAPC   H8R 8715   2.379   0.490   6.510  0.8012 -1.1932 -0.6345
   91SAPC   C29 8716   2.435   0.587   6.324  0.5927 -0.2486 -0.2251
   91SAPC   H9R 8717   2.348   0.549   6.269  1.3619 -0.4036 -1.3484
   91SAPC  C210 8718   2.512   0.693   6.248 -0.2404 -0.4055 -0.0049
   91SAPC  H10R 8719   2.539   0.657   6.146  1.3585 -3.5430  1.3670
   91SAPC  H10S 8720   2.609   0.711   6.297  0.1800 -0.8204 -0.6665
   91SAPC  C211 8721   2.418   0.814   6.235 -0.3098  0.2546 -0.3955
   91SAPC  H11R 8722   2.415   0.854   6.337  0.3748 -0.5097 -0.0601
   91SAPC  C212 8723   2.359   0.866   6.133  0.0791 -0.6603 -0.3369
   91SAPC  H12R 8724   2.293   0.952   6.149 -0.8959 -1.3833 -0.3920
   91SAPC  C213 8725   2.383   0.820   5.990  0.8534  0.3292 -0.0029
   91SAPC  H13R 8726   2.375   0.709   5.988  1.2811  0.3051 -0.6786
   91SAPC  H13S 8727   2.486   0.843   5.956  2.4275 -1.6245  2.9448
   91SAPC  C214 8728   2.277   0.880   5.899 -0.5897  0.0468  0.4249
   91SAPC  H14R 8729   2.176   0.855   5.933 -1.6221  2.3145 -0.7629
   91SAPC  C215 8730   2.293   0.957   5.793  0.7365 -0.0485  0.6863
   91SAPC  H15R 8731   2.204   1.001   5.745 -0.2947 -1.1719  1.5029
   91SAPC  C216 8732   2.429   1.000   5.734 -0.3608  0.2433 -0.3532
   91SAPC  H16R 8733   2.508   0.983   5.811 -0.3019 -0.9103 -0.6468
   91SAPC  H16S 8734   2.428   1.111   5.732  2.1332  0.3190 -0.3388
   91SAPC  C217 8735   2.476   0.931   5.607  0.4216 -0.8146 -0.5077
   91SAPC  H17R 8736   2.484   0.821   5.617 -2.3637 -1.2623 -2.1441
   91SAPC  H17S 8737   2.567   0.977   5.562 -0.1774  1.2950  0.3431
   91SAPC  C218 8738   2.368   0.943   5.493  0.3936  0.1621  0.3662
   91SAPC  H18R 8739   2.325   1.045   5.491 -3.2223 -1.1914  0.0393
   91SAPC  H18S 8740   2.290   0.870   5.524  1.7921 -1.0308  1.2123
   91SAPC  C219 8741   2.435   0.917   5.358 -0.2557  0.8874 -0.3645
   91SAPC  H19R 8742   2.357   0.879   5.288  0.2202 -2.2869  0.6681
   91SAPC  H19S 8743   2.501   0.828   5.370  0.9832  1.5638 -1.9479
   91SAPC  C220 8744   2.514   1.039   5.294 -0.3253  0.0993 -0.5479
   91SAPC  H20R 8745   2.524   1.031   5.184 -2.0134  1.3019 -0.8336
   91SAPC  H20S 8746   2.608   1.048   5.353 -1.4137 -1.2371  1.5459
   91SAPC  H20T 8747   2.463   1.136   5.311  0.8045  0.3681  1.7981
   91SAPC   C33 8748   2.300  -0.061   6.381  0.0500 -0.0351  0.0262
   91SAPC   H3X 8749   2.220   0.002   6.337  0.5754  0.1133 -0.7345
   91SAPC   H3Y 8750   2.252  -0.161   6.385 -2.3704  1.0305 -0.5048
   91SAPC   C34 8751   2.430  -0.066   6.298 -0.3792  0.0205  0.0907
   91SAPC   H4X 8752   2.509  -0.114   6.359 -1.6535 -0.9605  1.0347
   91SAPC   H4Y 8753   2.453   0.038   6.266 -0.1913 -0.8082 -2.6516
   91SAPC   C35 8754   2.405  -0.159   6.172  0.5248  0.5296 -0.5347
   91SAPC   H5X 8755   2.318  -0.113   6.119  0.3193  0.1883 -0.4926
   91SAPC   H5Y 8756   2.387  -0.265   6.198  1.6810 -0.0825 -2.0531
   91SAPC   C36 8757   2.512  -0.146   6.054 -0.8165 -0.4973 -0.4122
   91SAPC   H6X 8758   2.599  -0.211   6.077  0.3453  1.1105 -0.0922
   91SAPC   H6Y 8759   2.560  -0.046   6.057  1.4124 -1.5295  0.1339
   91SAPC   C37 8760   2.460  -0.186   5.920 -0.3297 -0.1569 -0.0996
   91SAPC   H7X 8761   2.352  -0.163   5.908  0.0301  0.9316 -1.4847
   91SAPC   H7Y 8762   2.455  -0.297   5.917  1.1043 -0.2249 -1.8782
   91SAPC   C38 8763   2.530  -0.114   5.800 -0.2589  0.8820 -0.1575
   91SAPC   H8X 8764   2.629  -0.165   5.796 -0.9673 -0.5008 -1.1441
   91SAPC   H8Y 8765   2.556  -0.007   5.817  1.3212  0.6811 -1.0977
   91SAPC   C39 8766   2.450  -0.128   5.673 -0.7143  0.4695  0.2847
   91SAPC   H9X 8767   2.355  -0.070   5.676 -0.5327  0.8289 -0.7133
   91SAPC   H9Y 8768   2.444  -0.236   5.648 -0.4861  0.6762 -0.6792
   91SAPC  C310 8769   2.527  -0.063   5.561  0.5751 -0.1018 -0.1292
   91SAPC  H10X 8770   2.631  -0.100   5.559 -0.4655 -3.3462 -1.3514
   91SAPC  H10Y 8771   2.542   0.046   5.572  2.7598 -0.3553 -0.2031
   91SAPC  C311 8772   2.463  -0.085   5.416 -0.7742  0.2424  0.4323
   91SAPC  H11X 8773   2.354  -0.070   5.427 -0.9729 -0.9447  0.1898
   91SAPC  H11Y 8774   2.487  -0.190   5.390  2.0812  0.9379 -0.1153
   91SAPC  C312 8775   2.535   0.006   5.312  0.7651 -0.0849 -0.1774
   91SAPC  H12X 8776   2.644  -0.012   5.318  0.6697 -0.1092  2.8195
   91SAPC  H12Y 8777   2.518   0.107   5.355  1.1373 -0.2391  0.3383
   91SAPC  C313 8778   2.479  -0.015   5.169  0.7947  0.6256  0.9041
   91SAPC  H13X 8779   2.472  -0.124   5.146 -3.9612  0.6142  1.3784
   91SAPC  H13Y 8780   2.554   0.027   5.099  2.3325 -0.8188  1.5975
   91SAPC  C314 8781   2.344   0.046   5.147  0.0970  0.6138 -0.4278
   91SAPC  H14X 8782   2.353   0.155   5.165  0.0353  0.6541 -0.6351
   91SAPC  H14Y 8783   2.272   0.005   5.221  0.4309  2.3507  0.9131
   91SAPC  C315 8784   2.294   0.026   5.006  0.1199  0.2780  0.4127
   91SAPC  H15X 8785   2.364  -0.037   4.947  2.1204  0.4574  2.4764
   91SAPC  H15Y 8786   2.295   0.123   4.951 -2.3372  0.3050  0.2954
   91SAPC  C316 8787   2.151  -0.022   5.005 -0.3614  0.5720  0.5941
   91SAPC  H16X 8788   2.086   0.056   5.050 -1.0081 -0.6876  1.9400
   91SAPC  H16Y 8789   2.146  -0.117   5.063  0.9669  0.0311 -0.1466
   91SAPC  C317 8790   2.085  -0.045   4.863  0.0298 -0.0331 -0.4688
   91SAPC  H17X 8791   2.135  -0.131   4.814 -1.2726  0.6148 -3.0998
   91SAPC  H17Y 8792   2.105   0.033   4.787 -0.8787  0.0466 -0.6265
   91SAPC  C318 8793   1.937  -0.084   4.870  0.6490  0.2409  0.2557
   91SAPC  H18X 8794   1.880   0.004   4.905 -0.9959 -0.8307  0.3579
   91SAPC  H18Y 8795   1.915  -0.168   4.939 -0.1179  0.0541 -0.2064
   91SAPC  H18Z 8796   1.894  -0.109   4.771 -0.4423 -0.6383  0.9284
   92SAPC     N 8797   1.840   5.154   7.300 -0.4072  0.1069  0.7286
   92SAPC   C12 8798   1.922   5.285   7.302 -0.1606  0.7041 -0.2096
   92SAPC  H12A 8799   1.871   5.351   7.370 -1.7094  0.0846 -0.7188
   92SAPC  H12B 8800   1.912   5.323   7.201 -0.7081 -0.9210 -0.8098
   92SAPC   C13 8801   1.698   5.179   7.269 -0.3769 -0.5664  0.5248
   92SAPC  H13A 8802   1.683   5.250   7.189  1.2845  3.2738  3.3524
   92SAPC  H13B 8803   1.647   5.090   7.235 -0.0009  0.1501 -2.1790
   92SAPC  H13C 8804   1.654   5.220   7.358  0.9712 -1.1765  1.5084
   92SAPC   C14 8805   1.907   5.058   7.205 -0.3211 -0.8104 -0.0150
   92SAPC  H14A 8806   1.884   5.079   7.101  0.5893  2.7032  0.3657
   92SAPC  H14B 8807   2.012   5.041   7.226 -0.2986 -1.6169 -0.7235
   92SAPC  H14C 8808   1.859   4.962   7.211 -0.5459 -0.7901 -1.1411
   92SAPC   C15 8809   1.851   5.089   7.437 -0.3913 -0.1454 -0.2040
   92SAPC  H15A 8810   1.786   5.004   7.451  2.0810 -1.9851  0.8294
   92SAPC  H15B 8811   1.950   5.048   7.444  0.4422  1.5278 -1.5166
   92SAPC  H15C 8812   1.835   5.160   7.517  1.4590 -1.0500  1.0376
   92SAPC   C11 8813   2.071   5.278   7.348 -0.0424 -0.6234  0.0269
   92SAPC  H11A 8814   2.077   5.209   7.434  2.3934 -0.4918  0.0365
   92SAPC  H11B 8815   2.118   5.373   7.380  2.3189 -2.0400  1.0261
   92SAPC     P 8816   2.187   5.292   7.116  0.0716 -0.2247 -0.1058
   92SAPC   O13 8817   2.081   5.384   7.072 -0.0915 -0.0039  0.2720
   92SAPC   O14 8818   2.320   5.349   7.137 -0.8380 -0.4809  0.5104
   92SAPC   O12 8819   2.154   5.220   7.256 -0.2291  0.4784 -0.0860
   92SAPC   O11 8820   2.183   5.174   7.013  0.3075  0.3864 -0.6496
   92SAPC    C1 8821   2.297   5.080   6.993  0.7928 -0.1068 -0.7696
   92SAPC    HA 8822   2.395   5.132   6.987 -0.0253  1.3586 -2.1700
   92SAPC    HB 8823   2.293   5.006   7.077 -1.2559  2.0452  1.1757
   92SAPC    C2 8824   2.281   4.975   6.869 -0.2828  0.3746 -0.6293
   92SAPC    HS 8825   2.376   4.924   6.843 -0.7090 -0.3407 -0.8137
   92SAPC   O21 8826   2.230   5.045   6.749  0.0956  0.0731 -0.2134
   92SAPC   C21 8827   2.332   5.125   6.702 -0.8089  0.1480  0.0085
   92SAPC   O22 8828   2.443   5.139   6.749  0.2888 -0.4966  0.4947
   92SAPC   C22 8829   2.294   5.208   6.582 -0.2043  0.2046 -0.1739
   92SAPC   H2R 8830   2.209   5.272   6.614 -0.6573  0.4840 -1.8848
   92SAPC   H2S 8831   2.390   5.259   6.559  0.4876 -0.0582  1.9080
   92SAPC    C3 8832   2.181   4.854   6.899 -0.5612  0.3700 -0.0815
   92SAPC    HX 8833   2.081   4.898   6.918 -1.3697 -0.3370 -2.3101
   92SAPC    HY 8834   2.208   4.802   6.993  1.7530 -1.8975 -1.8440
   92SAPC   O31 8835   2.180   4.761   6.783  0.0958  0.1856  0.1310
   92SAPC   C31 8836   2.119   4.653   6.817  0.3703  0.0072  0.7274
   92SAPC   O32 8837   2.054   4.637   6.920  0.5568  0.2110  0.5297
   92SAPC   C32 8838   2.158   4.545   6.717  0.6304  0.6811  0.0545
   92SAPC   H2X 8839   2.113   4.454   6.761  1.4857 -0.3274 -1.0996
   92SAPC   H2Y 8840   2.267   4.526   6.707  0.7174  0.9478  0.4613
   92SAPC   C23 8841   2.237   5.127   6.458 -0.1441  0.5772  0.0125
   92SAPC   H3R 8842   2.128   5.147   6.452 -0.5384 -1.5005 -0.4785
   92SAPC   H3S 8843   2.242   5.016   6.466  0.1863  0.6118  0.3323
   92SAPC   C24 8844   2.314   5.166   6.331 -0.4275  0.0247 -0.1459
   92SAPC   H4R 8845   2.294   5.093   6.249  1.5056  0.2595 -0.8660
   92SAPC   H4S 8846   2.421   5.162   6.361 -0.8694 -0.8052  1.4417
   92SAPC   C25 8847   2.285   5.305   6.290  0.3754 -0.2716 -0.2086
   92SAPC   H5R 8848   2.211   5.363   6.347 -0.2877 -0.9650 -0.3570
   92SAPC   C26 8849   2.350   5.375   6.202  0.1521  0.3592  0.2437
   92SAPC   H6R 8850   2.305   5.474   6.185  0.8629  0.6906  0.2236
   92SAPC   C27 8851   2.450   5.328   6.109  0.2028 -0.1322  0.4908
   92SAPC   H7R 8852   2.403   5.278   6.021  1.1681 -0.6217  0.2379
   92SAPC   H7S 8853   2.498   5.240   6.157 -0.1410  0.2917  1.6563
   92SAPC   C28 8854   2.553   5.427   6.073 -0.3635 -0.1420  0.1512
   92SAPC   H8R 8855   2.586   5.490   6.158 -0.5229  1.0950 -0.6715
   92SAPC   C29 8856   2.601   5.448   5.946  0.1662 -0.2972  0.5734
   92SAPC   H9R 8857   2.679   5.523   5.927  0.1329 -0.4582 -0.2162
   92SAPC  C210 8858   2.561   5.376   5.816  0.0555  0.2511 -0.0095
   92SAPC  H10R 8859   2.529   5.271   5.833  1.2661  0.2614  2.9307
   92SAPC  H10S 8860   2.642   5.373   5.740 -0.0287 -1.2380 -0.0802
   92SAPC  C211 8861   2.434   5.441   5.763 -0.0166 -0.9420 -0.1202
   92SAPC  H11R 8862   2.361   5.483   5.834  1.2992 -2.5360  2.3309
   92SAPC  C212 8863   2.400   5.432   5.634  0.4354 -0.0084  0.3655
   92SAPC  H12R 8864   2.301   5.468   5.605 -0.0785  1.0797  3.1484
   92SAPC  C213 8865   2.495   5.371   5.533 -0.2535 -0.2484 -0.9944
   92SAPC  H13R 8866   2.513   5.268   5.570  3.2946  1.0150  1.2889
   92SAPC  H13S 8867   2.589   5.429   5.530 -0.6517  0.5164  0.3967
   92SAPC  C214 8868   2.443   5.347   5.394 -0.2655  0.2500  0.0411
   92SAPC  H14R 8869   2.334   5.330   5.389 -0.3448  0.9287 -0.7472
   92SAPC  C215 8870   2.516   5.352   5.277  0.2854 -0.4899  0.8832
   92SAPC  H15R 8871   2.460   5.329   5.186 -1.5590 -0.1452  1.8867
   92SAPC  C216 8872   2.656   5.381   5.249 -0.5011  0.4325  0.1755
   92SAPC  H16R 8873   2.726   5.319   5.310 -0.7487 -1.0940 -1.0450
   92SAPC  H16S 8874   2.680   5.489   5.262 -1.8602  0.6811  0.8056
   92SAPC  C217 8875   2.693   5.371   5.095  0.1632 -0.2869  0.4520
   92SAPC  H17R 8876   2.663   5.272   5.055 -1.8106  1.2138 -2.1066
   92SAPC  H17S 8877   2.803   5.364   5.081 -0.2936 -4.2635 -2.9629
   92SAPC  C218 8878   2.625   5.489   5.019 -0.2833 -0.1318  0.2583
   92SAPC  H18R 8879   2.701   5.570   5.010 -1.2951  0.5567 -3.6860
   92SAPC  H18S 8880   2.540   5.531   5.077  0.0298 -0.4142  0.9402
   92SAPC  C219 8881   2.594   5.462   4.871  0.0667  0.5763  0.2212
   92SAPC  H19R 8882   2.561   5.558   4.827  2.5357  1.8584  0.9694
   92SAPC  H19S 8883   2.514   5.385   4.861  0.9389 -0.1577 -1.6348
   92SAPC  C220 8884   2.723   5.418   4.798 -0.2878 -0.0939 -0.1094
   92SAPC  H20R 8885   2.799   5.499   4.797 -0.4780  0.1694  1.9560
   92SAPC  H20S 8886   2.716   5.377   4.695 -1.4112  2.3244 -1.0737
   92SAPC  H20T 8887   2.771   5.339   4.860 -1.1017 -0.3398  0.2171
   92SAPC   C33 8888   2.103   4.590   6.583 -0.3607 -0.0953 -0.0492
   92SAPC   H3X 8889   2.180   4.652   6.533  0.3318 -0.7456  0.1932
   92SAPC   H3Y 8890   2.008   4.647   6.573 -0.0796  0.2333 -0.9301
   92SAPC   C34 8891   2.076   4.467   6.492 -0.2875 -0.4396 -0.1473
   92SAPC   H4X 8892   2.015   4.395   6.550  0.5364 -2.1133 -1.2786
   92SAPC   H4Y 8893   2.174   4.415   6.491 -1.4871 -2.8847  0.0441
   92SAPC   C35 8894   2.030   4.479   6.348 -0.6518  1.1127  0.2315
   92SAPC   H5X 8895   1.933   4.533   6.358 -2.3869 -1.9804  1.5063
   92SAPC   H5Y 8896   2.016   4.378   6.303 -1.4377  1.4790 -0.3636
   92SAPC   C36 8897   2.131   4.548   6.257 -0.6324 -0.8515  0.0037
   92SAPC   H6X 8898   2.228   4.494   6.257 -0.6655 -0.9144 -0.4123
   92SAPC   H6Y 8899   2.149   4.648   6.302  1.1519 -0.3247 -1.7305
   92SAPC   C37 8900   2.088   4.565   6.112  0.3494 -0.2079  0.1433
   92SAPC   H7X 8901   2.011   4.645   6.105  3.7922  3.3995  0.1619
   92SAPC   H7Y 8902   2.057   4.464   6.076 -0.7933  0.1307  0.1412
   92SAPC   C38 8903   2.196   4.614   6.013 -0.1863  0.1505  0.2068
   92SAPC   H8X 8904   2.286   4.549   6.007  0.5751  1.2115 -0.3497
   92SAPC   H8Y 8905   2.227   4.716   6.047  0.0577  0.5437 -1.1324
   92SAPC   C39 8906   2.146   4.627   5.870  0.2892 -0.1393  0.6160
   92SAPC   H9X 8907   2.064   4.702   5.870 -0.2280 -0.6825  1.7437
   92SAPC   H9Y 8908   2.112   4.527   5.836 -1.2028  1.2761 -2.4371
   92SAPC  C310 8909   2.259   4.681   5.773  0.0460  0.2443 -0.0779
   92SAPC  H10X 8910   2.333   4.599   5.768  0.3848  0.4646  1.0715
   92SAPC  H10Y 8911   2.304   4.774   5.811  0.1003 -0.1074  0.7468
   92SAPC  C311 8912   2.212   4.711   5.630 -0.3368 -0.0704 -0.3151
   92SAPC  H11X 8913   2.115   4.763   5.618 -0.6446 -0.5905 -0.0941
   92SAPC  H11Y 8914   2.188   4.619   5.573 -0.3473  0.8444 -1.8538
   92SAPC  C312 8915   2.311   4.798   5.550 -0.4243  0.6566  0.0318
   92SAPC  H12X 8916   2.406   4.740   5.549 -0.4067  0.6796  0.2608
   92SAPC  H12Y 8917   2.335   4.888   5.611 -2.1717  0.8004  0.5494
   92SAPC  C313 8918   2.254   4.846   5.416 -0.7063  1.0200  0.0869
   92SAPC  H13X 8919   2.189   4.935   5.429 -2.1405  0.0602 -0.2786
   92SAPC  H13Y 8920   2.186   4.765   5.383 -1.5199  0.8605  2.0235
   92SAPC  C314 8921   2.374   4.870   5.322  0.1417  0.1222 -0.7601
   92SAPC  H14X 8922   2.443   4.783   5.313  1.0024  0.7142 -0.0115
   92SAPC  H14Y 8923   2.432   4.960   5.351  0.0601 -0.0885  0.0832
   92SAPC  C315 8924   2.323   4.890   5.176 -0.1692 -0.9368  0.2684
   92SAPC  H15X 8925   2.235   4.957   5.175 -0.6062 -1.4526 -2.0156
   92SAPC  H15Y 8926   2.269   4.802   5.135 -3.4947  0.6613  0.9667
   92SAPC  C316 8927   2.433   4.943   5.081 -0.1585 -0.5559  0.1021
   92SAPC  H16X 8928   2.498   4.862   5.043 -0.1552 -0.6965  0.4077
   92SAPC  H16Y 8929   2.497   5.013   5.138 -1.3685  0.3289  0.4085
   92SAPC  C317 8930   2.358   5.030   4.977  0.0710  1.0516 -0.1999
   92SAPC  H17X 8931   2.303   5.104   5.039  2.3587  1.9317  0.8917
   92SAPC  H17Y 8932   2.295   4.978   4.901 -0.7652  1.1379  0.4210
   92SAPC  C318 8933   2.457   5.119   4.895 -0.2693  0.6159 -0.3985
   92SAPC  H18X 8934   2.407   5.185   4.821 -1.9634  0.1862  0.3169
   92SAPC  H18Y 8935   2.513   5.051   4.827  3.1677  1.5417  1.2379
   92SAPC  H18Z 8936   2.531   5.177   4.954  2.0351 -0.5543 -1.9653
   93SAPC     N 8937   2.779   1.517   7.576  0.0929  0.0892 -0.0066
   93SAPC   C12 8938   2.652   1.521   7.491  0.2019  0.3948  0.3058
   93SAPC  H12A 8939   2.604   1.618   7.494 -0.2745  0.4442 -3.6722
   93SAPC  H12B 8940   2.580   1.446   7.521  0.2592  0.5178  0.7679
   93SAPC   C13 8941   2.747   1.531   7.719 -0.4242  0.1834  0.3698
   93SAPC  H13A 8942   2.687   1.618   7.740  0.8125  1.2577 -0.4361
   93SAPC  H13B 8943   2.687   1.449   7.757 -0.2675  1.0170  2.5744
   93SAPC  H13C 8944   2.838   1.532   7.777  1.6797 -0.5143 -2.6934
   93SAPC   C14 8945   2.842   1.383   7.559 -0.4869  0.1391  0.3514
   93SAPC  H14A 8946   2.944   1.393   7.593 -1.1882  3.4325  1.9083
   93SAPC  H14B 8947   2.788   1.297   7.597 -0.5731 -0.3638 -0.8769
   93SAPC  H14C 8948   2.844   1.357   7.455 -1.4926 -1.5407  0.7024
   93SAPC   C15 8949   2.882   1.616   7.541 -0.0061  0.2711 -0.3392
   93SAPC  H15A 8950   2.876   1.627   7.434  0.5101 -3.0248 -0.8023
   93SAPC  H15B 8951   2.876   1.712   7.590  1.6627 -0.4519  1.3988
   93SAPC  H15C 8952   2.981   1.580   7.561  1.1053  1.6364 -2.9012
   93SAPC   C11 8953   2.670   1.499   7.337 -0.5661  0.4338 -0.1784
   93SAPC  H11A 8954   2.564   1.481   7.311 -0.6492 -0.0923  0.4907
   93SAPC  H11B 8955   2.713   1.402   7.306  0.8607  0.4249  1.6437
   93SAPC     P 8956   2.833   1.609   7.162 -0.0363 -0.1980 -0.3235
   93SAPC   O13 8957   2.947   1.696   7.200  0.1167 -0.2370 -0.9768
   93SAPC   O14 8958   2.866   1.468   7.117  0.5219  0.3679  0.2812
   93SAPC   O12 8959   2.718   1.614   7.273 -0.0582 -0.1627  0.5299
   93SAPC   O11 8960   2.752   1.676   7.047 -0.1718  0.0618  0.2180
   93SAPC    C1 8961   2.627   1.621   7.006 -0.2708 -0.5711 -0.1360
   93SAPC    HA 8962   2.569   1.581   7.092 -4.5834  1.1183 -1.9528
   93SAPC    HB 8963   2.564   1.703   6.965  0.1918  0.2583  0.7847
   93SAPC    C2 8964   2.641   1.521   6.888 -0.0534 -0.4775 -0.0360
   93SAPC    HS 8965   2.717   1.445   6.917  2.2190  1.4003 -0.7563
   93SAPC   O21 8966   2.685   1.605   6.776  0.2544 -0.0290  0.2219
   93SAPC   C21 8967   2.742   1.541   6.679 -0.3559 -0.0329  1.3952
   93SAPC   O22 8968   2.763   1.419   6.676  0.4666 -0.1904 -0.3654
   93SAPC   C22 8969   2.773   1.633   6.564 -0.3514 -0.3948  0.2892
   93SAPC   H2R 8970   2.835   1.711   6.613  0.2557 -0.9353  0.3917
   93SAPC   H2S 8971   2.835   1.581   6.488 -2.1864 -1.0756 -0.8125
   93SAPC    C3 8972   2.514   1.444   6.856  1.3040  0.4142  0.1945
   93SAPC    HX 8973   2.486   1.376   6.939 -1.2814  1.9260  0.6580
   93SAPC    HY 8974   2.543   1.389   6.764 -1.9546  1.9463 -1.9220
   93SAPC   O31 8975   2.407   1.526   6.830  0.0729 -1.1710 -0.4328
   93SAPC   C31 8976   2.319   1.483   6.746  0.2039  0.9316  0.4011
   93SAPC   O32 8977   2.307   1.364   6.712 -0.1842  0.1487 -0.4123
   93SAPC   C32 8978   2.221   1.593   6.717  0.5181 -0.6163  0.3502
   93SAPC   H2X 8979   2.283   1.676   6.678  0.0727 -0.6532 -0.4623
   93SAPC   H2Y 8980   2.171   1.616   6.814 -0.4895 -2.5297  0.3232
   93SAPC   C23 8981   2.649   1.685   6.488 -0.1212  0.4613  0.1628
   93SAPC   H3R 8982   2.575   1.721   6.563  1.5803  0.1991  2.0405
   93SAPC   H3S 8983   2.600   1.604   6.430  1.5563 -0.0748 -0.5664
   93SAPC   C24 8984   2.680   1.808   6.410  0.4109  0.7201 -0.1130
   93SAPC   H4R 8985   2.728   1.878   6.482  0.6930  0.6170 -0.1997
   93SAPC   H4S 8986   2.586   1.855   6.374 -1.1013 -2.3799 -0.5225
   93SAPC   C25 8987   2.772   1.769   6.294 -0.3269 -0.0539 -0.3647
   93SAPC   H5R 8988   2.859   1.714   6.331 -0.4998  2.1409  3.8534
   93SAPC   C26 8989   2.772   1.819   6.164 -1.1371  0.4798 -0.2048
   93SAPC   H6R 8990   2.856   1.790   6.099 -0.7411 -0.8880  0.8760
   93SAPC   C27 8991   2.677   1.915   6.103  0.1524  0.3579 -0.1965
   93SAPC   H7R 8992   2.736   2.007   6.084  0.8842 -0.4454 -2.1239
   93SAPC   H7S 8993   2.590   1.932   6.170  0.6117  1.0853  0.2208
   93SAPC   C28 8994   2.634   1.868   5.958  0.4640  0.3705  0.5285
   93SAPC   H8R 8995   2.588   1.768   5.952 -0.0064  0.6575 -1.4945
   93SAPC   C29 8996   2.651   1.930   5.840 -0.1992  0.1990  0.0555
   93SAPC   H9R 8997   2.635   1.874   5.746  1.4539  1.2503 -0.8980
   93SAPC  C210 8998   2.719   2.061   5.812 -0.0576 -0.5640  0.5564
   93SAPC  H10R 8999   2.826   2.040   5.791  0.0964  1.6845 -1.2691
   93SAPC  H10S 9000   2.698   2.133   5.895 -1.9332  2.4750 -2.3233
   93SAPC  C211 9001   2.655   2.122   5.689  0.0019 -0.0510  0.7418
   93SAPC  H11R 9002   2.559   2.174   5.703 -0.5159 -0.7410 -0.1124
   93SAPC  C212 9003   2.708   2.110   5.566  0.2699 -0.2522 -0.2793
   93SAPC  H12R 9004   2.651   2.157   5.484 -1.1254 -0.8779  0.3080
   93SAPC  C213 9005   2.832   2.035   5.530 -0.6595 -0.1189 -0.0211
   93SAPC  H13R 9006   2.828   2.016   5.420 -1.5689 -0.8920  0.1320
   93SAPC  H13S 9007   2.828   1.937   5.582  1.6735  0.0002  0.4883
   93SAPC  C214 9008   2.961   2.117   5.555  0.0360 -0.7943 -0.8091
   93SAPC  H14R 9009   2.975   2.203   5.488 -2.5790  1.5405  1.4324
   93SAPC  C215 9010   3.065   2.093   5.640  0.1654 -0.3804  0.1780
   93SAPC  H15R 9011   3.146   2.167   5.644 -0.1773  0.0648 -0.8815
   93SAPC  C216 9012   3.083   1.979   5.739 -0.1050  0.0076 -0.0232
   93SAPC  H16R 9013   3.167   1.914   5.707 -0.7407 -1.0258  0.3586
   93SAPC  H16S 9014   2.998   1.909   5.748  1.3085 -1.5807  1.8286
   93SAPC  C217 9015   3.115   2.025   5.881 -0.5111 -1.5701  0.1020
   93SAPC  H17R 9016   3.080   2.129   5.895  2.0450 -0.3248 -2.0076
   93SAPC  H17S 9017   3.224   2.038   5.892 -0.2488 -0.9778 -2.5038
   93SAPC  C218 9018   3.069   1.922   5.989  0.6756 -0.3110 -0.3572
   93SAPC  H18R 9019   3.084   1.819   5.951  0.5392 -0.8135  0.9062
   93SAPC  H18S 9020   2.959   1.929   6.003  0.5225 -0.3669 -1.4583
   93SAPC  C219 9021   3.145   1.939   6.116  0.2920 -0.4727 -0.8086
   93SAPC  H19R 9022   3.255   1.946   6.099  0.4977  1.9668  0.8813
   93SAPC  H19S 9023   3.125   1.848   6.177  0.2690  1.1381  1.7625
   93SAPC  C220 9024   3.095   2.055   6.200 -0.0619  0.1897  0.4074
   93SAPC  H20R 9025   3.136   2.044   6.302 -1.8022 -2.8751  0.8980
   93SAPC  H20S 9026   2.984   2.056   6.195 -0.1211 -1.0827  1.2983
   93SAPC  H20T 9027   3.134   2.147   6.150 -1.6124  0.8614  0.3749
   93SAPC   C33 9028   2.126   1.555   6.605  0.1559  0.5981  0.0649
   93SAPC   H3X 9029   2.070   1.651   6.606 -1.0730 -0.1064  0.3695
   93SAPC   H3Y 9030   2.052   1.479   6.638  0.6007  1.1972  2.6944
   93SAPC   C34 9031   2.194   1.554   6.465  0.6935 -1.0806  0.6432
   93SAPC   H4X 9032   2.259   1.466   6.445  1.3586 -0.6364  0.8131
   93SAPC   H4Y 9033   2.264   1.640   6.458 -1.4193  0.6781  0.0331
   93SAPC   C35 9034   2.076   1.569   6.355 -0.2954  0.5216 -0.0129
   93SAPC   H5X 9035   2.025   1.665   6.378  1.3163  1.3172  0.3963
   93SAPC   H5Y 9036   2.002   1.487   6.363  0.9992 -0.6563  0.1515
   93SAPC   C36 9037   2.133   1.587   6.212  0.1871  0.3566  0.5149
   93SAPC   H6X 9038   2.204   1.503   6.202 -1.3860 -0.9833  0.2711
   93SAPC   H6Y 9039   2.189   1.678   6.182 -1.2954  0.2933 -2.9224
   93SAPC   C37 9040   2.023   1.569   6.107  0.1599  0.0818  0.3897
   93SAPC   H7X 9041   1.942   1.644   6.107 -1.6188 -1.7174  2.1316
   93SAPC   H7Y 9042   1.981   1.472   6.140 -1.2182  0.5604  0.1115
   93SAPC   C38 9043   2.075   1.553   5.961  0.0454 -0.0037 -0.1362
   93SAPC   H8X 9044   2.002   1.496   5.899  0.6711 -0.9914  0.0037
   93SAPC   H8Y 9045   2.170   1.495   5.955 -0.5208 -1.2967  2.1963
   93SAPC   C39 9046   2.112   1.687   5.891  0.0812 -0.4157 -0.1418
   93SAPC   H9X 9047   2.166   1.745   5.970 -0.7124 -0.9202  0.7951
   93SAPC   H9Y 9048   2.014   1.739   5.883  0.6099  0.9765  1.5659
   93SAPC  C310 9049   2.185   1.669   5.760  0.5739  0.0871  0.1671
   93SAPC  H10X 9050   2.122   1.605   5.695  1.2399  0.6346 -1.0546
   93SAPC  H10Y 9051   2.277   1.611   5.784  1.3855  1.4593  0.5026
   93SAPC  C311 9052   2.204   1.807   5.703  0.2013  0.1173  0.2493
   93SAPC  H11X 9053   2.280   1.857   5.766  1.6557 -0.5951 -0.8702
   93SAPC  H11Y 9054   2.113   1.870   5.707 -1.2008 -1.8026  0.1951
   93SAPC  C312 9055   2.240   1.816   5.549 -0.2287  0.1316 -0.4150
   93SAPC  H12X 9056   2.173   1.745   5.496 -1.8540  0.7881  0.6931
   93SAPC  H12Y 9057   2.346   1.784   5.549  0.6409  2.6546  1.9325
   93SAPC  C313 9058   2.214   1.958   5.494  0.4461  0.5082 -0.1100
   93SAPC  H13X 9059   2.265   2.030   5.562  0.5389 -1.0683  1.5701
   93SAPC  H13Y 9060   2.106   1.974   5.515  0.4310 -0.4519  0.5965
   93SAPC  C314 9061   2.249   1.965   5.341 -0.0124  0.2306 -0.2069
   93SAPC  H14X 9062   2.358   1.964   5.320 -0.4156  0.3330 -2.5921
   93SAPC  H14Y 9063   2.225   2.065   5.300 -0.0297  0.6771  0.8614
   93SAPC  C315 9064   2.176   1.870   5.247 -0.5193 -0.2457 -0.0244
   93SAPC  H15X 9065   2.073   1.907   5.267 -0.2258 -0.7700  2.8680
   93SAPC  H15Y 9066   2.186   1.766   5.283 -3.1077  0.3451  2.7763
   93SAPC  C316 9067   2.231   1.883   5.108 -0.5042 -0.6359 -0.4130
   93SAPC  H16X 9068   2.342   1.889   5.105 -0.4335 -0.2800  1.3911
   93SAPC  H16Y 9069   2.180   1.970   5.062 -0.9462 -1.2306 -1.0656
   93SAPC  C317 9070   2.207   1.755   5.026 -0.1483 -0.2786 -0.1020
   93SAPC  H17X 9071   2.277   1.688   5.080 -0.3058  1.3937  2.3338
   93SAPC  H17Y 9072   2.247   1.776   4.924 -0.3890 -1.8535 -0.5522
   93SAPC  C318 9073   2.066   1.692   5.017 -0.7745 -0.1163 -0.1452
   93SAPC  H18X 9074   2.052   1.609   4.944  0.2982 -0.9736  0.5896
   93SAPC  H18Y 9075   1.996   1.770   4.979  0.1201  1.0470  0.5742
   93SAPC  H18Z 9076   2.035   1.648   5.114 -0.4057  0.4119  0.2110
   94SAPC     N 9077   0.191   4.748   6.765  1.7746 -0.5354 -0.3238
   94SAPC   C12 9078   0.269   4.769   6.636  0.0030  1.1402  0.9712
   94SAPC  H12A 9079   0.230   4.719   6.549  1.3166  1.0134  0.4294
   94SAPC  H12B 9080   0.362   4.719   6.658 -0.6035  0.8429  3.1697
   94SAPC   C13 9081   0.243   4.835   6.883 -0.6296  0.8144 -0.1203
   94SAPC  H13A 9082   0.349   4.818   6.890 -0.8471 -1.6148 -1.4653
   94SAPC  H13B 9083   0.218   4.938   6.863 -0.0779  0.7335 -1.3338
   94SAPC  H13C 9084   0.184   4.810   6.969 -2.0147 -0.1302 -1.2900
   94SAPC   C14 9085   0.043   4.775   6.747 -0.4143 -0.0773  0.4555
   94SAPC  H14A 9086   0.015   4.741   6.648 -1.5656  0.9585  0.4039
   94SAPC  H14B 9087  -0.022   4.742   6.827 -2.0375 -0.9725 -1.1648
   94SAPC  H14C 9088   0.035   4.883   6.742 -0.8345 -0.1310 -0.2170
   94SAPC   C15 9089   0.198   4.602   6.805  0.0052  0.8799 -0.4270
   94SAPC  H15A 9090   0.148   4.586   6.899  1.8288  0.2294  0.4889
   94SAPC  H15B 9091   0.144   4.546   6.730  0.9114  1.4213 -1.5134
   94SAPC  H15C 9092   0.301   4.569   6.807  1.1458  3.6592 -3.9186
   94SAPC   C11 9093   0.299   4.910   6.585 -0.5773 -0.4704 -0.1055
   94SAPC  H11A 9094   0.202   4.960   6.563  0.1173  0.3493 -1.3760
   94SAPC  H11B 9095   0.355   4.922   6.490  0.3438  1.6210  0.6608
   94SAPC     P 9096   0.493   5.066   6.671 -0.3938 -0.2186  0.0897
   94SAPC   O13 9097   0.538   5.104   6.807  0.1371  0.5395  0.1040
   94SAPC   O14 9098   0.582   4.990   6.578 -0.6910 -0.0713 -0.5479
   94SAPC   O12 9099   0.355   5.002   6.682  0.0068  0.0672  0.3401
   94SAPC   O11 9100   0.466   5.203   6.592  0.4789 -0.7349 -0.3523
   94SAPC    C1 9101   0.337   5.255   6.586 -0.4029 -0.7696 -0.5202
   94SAPC    HA 9102   0.273   5.181   6.534  0.7983 -1.1401 -1.5481
   94SAPC    HB 9103   0.301   5.292   6.684  2.2229  1.0775 -0.1390
   94SAPC    C2 9104   0.338   5.383   6.498  0.0215 -0.0120 -0.2392
   94SAPC    HS 9105   0.235   5.422   6.483 -0.5793 -1.9648 -1.5478
   94SAPC   O21 9106   0.402   5.362   6.363  0.4226  0.5626 -0.1602
   94SAPC   C21 9107   0.357   5.261   6.289  0.7616 -0.3913  0.6398
   94SAPC   O22 9108   0.250   5.208   6.298  0.4971  0.7719 -0.6227
   94SAPC   C22 9109   0.466   5.224   6.184 -0.1457  0.5393  0.2401
   94SAPC   H2R 9110   0.501   5.306   6.119 -0.7383 -0.8481 -1.9416
   94SAPC   H2S 9111   0.546   5.189   6.253 -0.6182  1.5934  1.3393
   94SAPC    C3 9112   0.414   5.499   6.575 -0.1892  0.0138  0.4854
   94SAPC    HX 9113   0.522   5.471   6.569 -0.6039 -1.6043 -0.1215
   94SAPC    HY 9114   0.378   5.495   6.680  1.6681 -0.8373  1.1486
   94SAPC   O31 9115   0.396   5.630   6.525 -0.2723  0.2386  0.1861
   94SAPC   C31 9116   0.324   5.713   6.597 -0.7259 -0.0260  0.7902
   94SAPC   O32 9117   0.270   5.680   6.704 -0.3923 -0.1252 -0.3993
   94SAPC   C32 9118   0.321   5.857   6.535 -0.2719  0.3127 -0.0543
   94SAPC   H2X 9119   0.420   5.877   6.489  0.0809 -2.2384 -0.5515
   94SAPC   H2Y 9120   0.310   5.918   6.627  1.5469 -1.8599  1.7163
   94SAPC   C23 9121   0.433   5.107   6.086  0.0341 -0.3922  0.0034
   94SAPC   H3R 9122   0.373   5.025   6.132 -1.2373  0.2687 -0.4420
   94SAPC   H3S 9123   0.531   5.060   6.061 -0.4244 -1.8418  0.8147
   94SAPC   C24 9124   0.367   5.155   5.956 -0.1011 -0.2707 -0.1409
   94SAPC   H4R 9125   0.420   5.240   5.910 -0.7332 -0.6718 -1.6673
   94SAPC   H4S 9126   0.260   5.180   5.971  0.3996  1.4317  0.7666
   94SAPC   C25 9127   0.359   5.037   5.870  1.0262  0.2705 -0.2347
   94SAPC   H5R 9128   0.317   4.953   5.928 -0.0216  0.9487  0.0261
   94SAPC   C26 9129   0.394   5.007   5.739 -0.2379 -0.4927  0.5311
   94SAPC   H6R 9130   0.377   4.907   5.697  1.9430  0.4560 -3.0877
   94SAPC   C27 9131   0.462   5.104   5.641  0.6300  0.3010 -0.4185
   94SAPC   H7R 9132   0.510   5.182   5.704 -0.0112 -1.0577  1.8653
   94SAPC   H7S 9133   0.379   5.146   5.580 -2.1734 -1.1055  2.1396
   94SAPC   C28 9134   0.556   5.036   5.546 -1.2464 -0.3424 -0.7692
   94SAPC   H8R 9135   0.625   4.964   5.594  0.5723  1.8055  0.0228
   94SAPC   C29 9136   0.563   5.027   5.415 -0.4945 -0.0293 -0.1977
   94SAPC   H9R 9137   0.644   4.966   5.372 -0.5150 -1.9578  2.2210
   94SAPC  C210 9138   0.471   5.103   5.322  0.1361  0.7356 -0.5358
   94SAPC  H10R 9139   0.452   5.200   5.371 -0.8649 -0.4491  1.5788
   94SAPC  H10S 9140   0.379   5.041   5.311  0.4498  0.2181 -0.3207
   94SAPC  C211 9141   0.516   5.132   5.181  0.3439  0.5287 -0.5639
   94SAPC  H11R 9142   0.547   5.234   5.156  0.6206  0.5061 -0.3176
   94SAPC  C212 9143   0.538   5.035   5.092 -0.1456  0.1757 -0.3739
   94SAPC  H12R 9144   0.581   5.067   4.996 -0.3925 -0.5372 -0.7314
   94SAPC  C213 9145   0.547   4.884   5.113 -0.1239  0.2124 -0.2506
   94SAPC  H13R 9146   0.517   4.855   5.216  0.8695  0.1702  0.0335
   94SAPC  H13S 9147   0.653   4.851   5.111 -0.0815  0.3641 -1.5483
   94SAPC  C214 9148   0.463   4.815   5.002 -0.2109 -0.0436 -1.1155
   94SAPC  H14R 9149   0.507   4.841   4.905  2.9905 -0.9872 -0.0566
   94SAPC  C215 9150   0.342   4.749   5.013 -0.1533 -0.5519 -0.5055
   94SAPC  H15R 9151   0.307   4.699   4.921 -0.6445 -2.7804  0.8198
   94SAPC  C216 9152   0.279   4.712   5.145  0.2156  0.3506  0.4168
   94SAPC  H16R 9153   0.329   4.754   5.235 -1.7119 -0.6272  2.0163
   94SAPC  H16S 9154   0.276   4.601   5.156  0.9058  0.3024  0.1342
   94SAPC  C217 9155   0.137   4.764   5.161 -0.5118  0.6679  0.4794
   94SAPC  H17R 9156   0.145   4.873   5.175  1.0676  1.1336 -2.9391
   94SAPC  H17S 9157   0.090   4.722   5.253 -3.1943  0.0196 -1.0892
   94SAPC  C218 9158   0.037   4.738   5.054  0.5642 -0.8931  0.7898
   94SAPC  H18R 9159   0.067   4.774   4.954 -1.5883  2.4840  1.1967
   94SAPC  H18S 9160  -0.059   4.790   5.073  1.2981  0.0537  2.1764
   94SAPC  C219 9161  -0.018   4.595   5.045 -0.3174 -0.9014 -0.5985
   94SAPC  H19R 9162   0.066   4.533   5.083  1.7653  2.0000 -0.1686
   94SAPC  H19S 9163  -0.043   4.563   4.942 -0.5521  0.9058 -1.1291
   94SAPC  C220 9164  -0.141   4.564   5.142  0.0294  0.1519 -0.2564
   94SAPC  H20R 9165  -0.161   4.459   5.113 -1.1249  0.6962 -1.5778
   94SAPC  H20S 9166  -0.236   4.613   5.110 -0.4146 -0.0065  0.7803
   94SAPC  H20T 9167  -0.125   4.595   5.247  0.7348 -1.3351  0.0932
   94SAPC   C33 9168   0.198   5.892   6.448 -0.4608 -0.0911 -0.9174
   94SAPC   H3X 9169   0.177   6.001   6.450  1.4715  0.2925  1.0850
   94SAPC   H3Y 9170   0.109   5.843   6.493  0.5090 -1.7165 -0.6915
   94SAPC   C34 9171   0.217   5.860   6.295 -0.4712  0.4672  0.2086
   94SAPC   H4X 9172   0.310   5.915   6.272 -0.0682 -0.5123 -0.5559
   94SAPC   H4Y 9173   0.137   5.902   6.231 -0.6464 -0.1722 -0.0023
   94SAPC   C35 9174   0.225   5.706   6.277  0.3210 -0.4815  0.2157
   94SAPC   H5X 9175   0.146   5.654   6.335 -1.2946  0.1131 -1.3428
   94SAPC   H5Y 9176   0.323   5.660   6.301 -0.0887 -1.1191  0.6966
   94SAPC   C36 9177   0.191   5.669   6.135 -0.4102  0.0514 -0.8107
   94SAPC   H6X 9178   0.253   5.722   6.060  0.5607  1.0091  0.6238
   94SAPC   H6Y 9179   0.086   5.688   6.101 -0.8252  2.9769  1.6832
   94SAPC   C37 9180   0.211   5.521   6.102  0.0677  0.3814  0.5277
   94SAPC   H7X 9181   0.150   5.467   6.178  1.3979 -0.2138  1.1897
   94SAPC   H7Y 9182   0.317   5.489   6.105 -0.1318 -0.2407  1.0130
   94SAPC   C38 9183   0.146   5.488   5.963 -0.5516 -0.2329  0.3387
   94SAPC   H8X 9184   0.035   5.491   5.973 -0.5151 -0.4614  0.8488
   94SAPC   H8Y 9185   0.170   5.381   5.947 -0.2847 -0.1084 -0.1137
   94SAPC   C39 9186   0.191   5.572   5.845 -0.0350 -0.0230  0.1946
   94SAPC   H9X 9187   0.298   5.598   5.863 -0.4268  1.9472 -0.1910
   94SAPC   H9Y 9188   0.139   5.669   5.834  1.5798  0.8107 -0.3204
   94SAPC  C310 9189   0.171   5.485   5.718  0.1589 -0.3322 -0.6001
   94SAPC  H10X 9190   0.065   5.453   5.721  0.6266 -1.9434  2.2607
   94SAPC  H10Y 9191   0.215   5.385   5.735 -0.0427 -0.3449 -0.1395
   94SAPC  C311 9192   0.223   5.555   5.592  0.2324  0.0717  0.0472
   94SAPC  H11X 9193   0.333   5.566   5.601  0.1714 -0.0700  1.0847
   94SAPC  H11Y 9194   0.191   5.661   5.593 -1.1374 -0.3170  1.0084
   94SAPC  C312 9195   0.186   5.489   5.456 -0.3927 -1.1876 -0.3947
   94SAPC  H12X 9196   0.076   5.482   5.458 -0.4574 -0.6148 -1.3071
   94SAPC  H12Y 9197   0.227   5.388   5.436 -0.2212 -1.0139 -0.9618
   94SAPC  C313 9198   0.225   5.581   5.337 -0.2596  0.0411 -0.0685
   94SAPC  H13X 9199   0.210   5.686   5.369  0.2596 -0.6560  2.6890
   94SAPC  H13Y 9200   0.161   5.558   5.249  0.4100  0.8902 -0.7930
   94SAPC  C314 9201   0.366   5.555   5.294 -0.1029 -0.6902 -0.3722
   94SAPC  H14X 9202   0.373   5.446   5.271 -0.9488 -0.9149  0.3770
   94SAPC  H14Y 9203   0.438   5.567   5.377 -0.2054 -1.7552 -0.1130
   94SAPC  C315 9204   0.403   5.640   5.173  0.4882 -0.4958  0.2380
   94SAPC  H15X 9205   0.362   5.741   5.196 -3.9236 -1.5937 -1.6510
   94SAPC  H15Y 9206   0.352   5.610   5.079 -0.1679 -1.0025  0.7474
   94SAPC  C316 9207   0.557   5.656   5.155  0.9337  0.3982 -0.5184
   94SAPC  H16X 9208   0.592   5.716   5.242 -0.9375 -0.8791  1.1923
   94SAPC  H16Y 9209   0.569   5.709   5.058 -1.5014 -0.9171 -1.6178
   94SAPC  C317 9210   0.634   5.519   5.141 -0.4204 -0.0454  0.1025
   94SAPC  H17X 9211   0.602   5.448   5.221  1.9868 -1.2315  0.1007
   94SAPC  H17Y 9212   0.735   5.544   5.179 -0.0618 -1.2447 -0.0308
   94SAPC  C318 9213   0.636   5.470   5.000 -0.0288  0.0463  0.2533
   94SAPC  H18X 9214   0.628   5.557   4.931  0.6566 -0.6851 -0.7774
   94SAPC  H18Y 9215   0.542   5.415   4.978  0.0767 -0.2958  0.6474
   94SAPC  H18Z 9216   0.724   5.404   4.981 -0.3657 -1.3069  2.9923
   95SAPC     N 9217   5.624   2.450   2.323  0.0805  0.8220 -0.1179
   95SAPC   C12 9218   5.732   2.551   2.332  0.2004 -0.7596 -0.1409
   95SAPC  H12A 9219   5.700   2.643   2.286  0.9073  1.5097  3.4842
   95SAPC  H12B 9220   5.814   2.518   2.268  2.6316 -0.0169  2.3864
   95SAPC   C13 9221   5.653   2.323   2.407 -0.1305  0.6185  0.4555
   95SAPC  H13A 9222   5.574   2.251   2.397  1.8601 -1.4519 -1.5322
   95SAPC  H13B 9223   5.743   2.270   2.379  0.2941  0.1951  2.4709
   95SAPC  H13C 9224   5.670   2.351   2.510 -1.8145  0.0012  0.9345
   95SAPC   C14 9225   5.491   2.507   2.367  0.4397 -0.2208 -0.2295
   95SAPC  H14A 9226   5.406   2.455   2.325  1.8092 -1.6668 -1.3401
   95SAPC  H14B 9227   5.485   2.515   2.475  0.4409 -1.1527 -0.1555
   95SAPC  H14C 9228   5.486   2.607   2.327 -1.6558  0.2170  0.9558
   95SAPC   C15 9229   5.603   2.400   2.183  0.5328  0.3718  0.3590
   95SAPC  H15A 9230   5.586   2.491   2.126  2.3423  0.5520  0.0578
   95SAPC  H15B 9231   5.693   2.356   2.143  0.7465  2.4164 -1.6858
   95SAPC  H15C 9232   5.513   2.341   2.177  0.0656  1.0715  0.2782
   95SAPC   C11 9233   5.796   2.585   2.474 -0.3370  0.2207  0.2197
   95SAPC  H11A 9234   5.874   2.663   2.458 -0.4143  0.1951 -0.2947
   95SAPC  H11B 9235   5.844   2.491   2.507 -0.7122 -0.1425 -0.2615
   95SAPC     P 9236   5.651   2.768   2.592  0.3763  0.3831 -0.1897
   95SAPC   O13 9237   5.665   2.826   2.458 -0.6355 -0.3277  0.1265
   95SAPC   O14 9238   5.513   2.764   2.647 -0.0103  0.0597  0.8762
   95SAPC   O12 9239   5.697   2.620   2.569  0.4015 -0.4066  0.0363
   95SAPC   O11 9240   5.760   2.809   2.695 -0.5141 -0.1070 -0.3995
   95SAPC    C1 9241   5.824   2.722   2.779  0.7687  0.0946 -0.0403
   95SAPC    HA 9242   5.866   2.633   2.728 -0.1642 -0.0942 -0.5024
   95SAPC    HB 9243   5.911   2.773   2.825  1.5628 -0.7475 -0.5929
   95SAPC    C2 9244   5.738   2.665   2.896 -0.1473 -0.1650 -0.5715
   95SAPC    HS 9245   5.659   2.602   2.849 -0.5447 -0.8538  0.9635
   95SAPC   O21 9246   5.664   2.771   2.962 -0.6035 -0.5544  0.8954
   95SAPC   C21 9247   5.564   2.730   3.037  0.2647 -0.1428  0.2018
   95SAPC   O22 9248   5.516   2.618   3.024 -0.3624  0.5256 -0.0052
   95SAPC   C22 9249   5.534   2.841   3.135  0.1239 -0.1061  0.1925
   95SAPC   H2R 9250   5.625   2.905   3.131  0.0243  0.0352  0.1537
   95SAPC   H2S 9251   5.451   2.900   3.090  0.1765 -1.2396 -1.5020
   95SAPC    C3 9252   5.820   2.568   2.988 -0.0239  0.2373  0.1626
   95SAPC    HX 9253   5.869   2.485   2.933 -0.1138 -0.5973  1.3188
   95SAPC    HY 9254   5.753   2.521   3.063  1.6570  0.3886  1.8380
   95SAPC   O31 9255   5.934   2.627   3.046 -0.5678 -0.1549  0.1319
   95SAPC   C31 9256   5.915   2.668   3.165 -0.5949 -1.0632 -0.0801
   95SAPC   O32 9257   5.808   2.663   3.225  0.0576  0.3266 -0.9596
   95SAPC   C32 9258   6.046   2.701   3.225  0.7878  0.3825  0.4171
   95SAPC   H2X 9259   6.078   2.790   3.168 -0.9209 -0.1281 -1.4316
   95SAPC   H2Y 9260   6.110   2.612   3.207 -2.1049 -1.4729 -1.5719
   95SAPC   C23 9261   5.513   2.787   3.283  0.0693 -0.1251  0.4748
   95SAPC   H3R 9262   5.611   2.767   3.332 -0.3750  1.3600  2.1150
   95SAPC   H3S 9263   5.451   2.695   3.282 -0.0999 -0.0153  0.7419
   95SAPC   C24 9264   5.422   2.888   3.364  0.5783  0.4455  0.1977
   95SAPC   H4R 9265   5.323   2.903   3.317 -0.0146  2.2216  1.8892
   95SAPC   H4S 9266   5.469   2.988   3.382  0.8059  0.3822 -0.0320
   95SAPC   C25 9267   5.406   2.831   3.504  0.0926  0.1872 -1.0655
   95SAPC   H5R 9268   5.443   2.728   3.511 -0.1097  0.1335 -0.7799
   95SAPC   C26 9269   5.361   2.882   3.617  0.6713 -0.5553  0.5232
   95SAPC   H6R 9270   5.360   2.825   3.711  2.6441 -0.2513  0.7633
   95SAPC   C27 9271   5.300   3.018   3.626 -0.3307 -0.5022 -0.1017
   95SAPC   H7R 9272   5.369   3.087   3.573  3.9566 -1.5633  3.4923
   95SAPC   H7S 9273   5.303   3.058   3.730  0.3377  2.2207 -1.0920
   95SAPC   C28 9274   5.160   3.029   3.568  0.5090 -0.7418  0.3290
   95SAPC   H8R 9275   5.162   2.999   3.462 -0.6732 -1.7300  0.5592
   95SAPC   C29 9276   5.044   3.058   3.641  0.0887 -0.2653  0.6057
   95SAPC   H9R 9277   4.951   3.064   3.583  1.3595  1.0581 -1.4398
   95SAPC  C210 9278   5.033   3.096   3.781  1.0317  0.0942  0.7936
   95SAPC  H10R 9279   4.977   3.191   3.795  1.4905  0.3618  0.8502
   95SAPC  H10S 9280   5.133   3.120   3.824  1.6380  1.0581 -1.0186
   95SAPC  C211 9281   4.976   2.978   3.858 -0.1490  0.4579  0.0316
   95SAPC  H11R 9282   4.970   2.884   3.800 -1.5200  1.1948 -1.0928
   95SAPC  C212 9283   4.935   2.975   3.985 -0.0127  0.6958  0.2782
   95SAPC  H12R 9284   4.915   2.880   4.038 -0.2470 -0.2128 -1.3752
   95SAPC  C213 9285   4.915   3.086   4.083 -0.5030  0.0859 -0.2830
   95SAPC  H13R 9286   4.811   3.063   4.112  0.0715 -3.6179 -0.6851
   95SAPC  H13S 9287   4.918   3.184   4.031  0.4508  0.1974 -0.0482
   95SAPC  C214 9288   5.010   3.067   4.202  0.0605  0.1952  0.4516
   95SAPC  H14R 9289   5.038   2.965   4.235  2.4771  0.4367 -0.5873
   95SAPC  C215 9290   5.072   3.171   4.268  0.8867  0.1734  0.3981
   95SAPC  H15R 9291   5.149   3.147   4.343  2.3341  3.7987  0.2267
   95SAPC  C216 9292   5.061   3.321   4.237 -0.3963  0.8902 -1.2822
   95SAPC  H16R 9293   5.063   3.372   4.336 -0.5008 -0.6441 -0.4586
   95SAPC  H16S 9294   4.971   3.357   4.184 -0.5941  1.9928 -0.2425
   95SAPC  C217 9295   5.178   3.389   4.165 -0.2033 -0.0072  0.1530
   95SAPC  H17R 9296   5.267   3.371   4.229  0.7830 -1.0661 -1.4250
   95SAPC  H17S 9297   5.161   3.498   4.177  3.4021  0.7052  0.1663
   95SAPC  C218 9298   5.184   3.347   4.020  0.0056  0.1442 -0.3096
   95SAPC  H18R 9299   5.089   3.373   3.968  0.1429  0.6291 -0.3174
   95SAPC  H18S 9300   5.208   3.239   4.014 -0.7728  0.0150 -1.3732
   95SAPC  C219 9301   5.294   3.413   3.933  0.5820  0.2636 -0.2731
   95SAPC  H19R 9302   5.288   3.523   3.949 -0.0162  0.4589 -1.6375
   95SAPC  H19S 9303   5.270   3.395   3.826  0.0647  1.1808 -0.3246
   95SAPC  C220 9304   5.433   3.350   3.968  0.2338  0.3534 -0.0382
   95SAPC  H20R 9305   5.509   3.403   3.907 -1.1478  0.2336 -1.9917
   95SAPC  H20S 9306   5.440   3.243   3.940  1.4034  0.6592 -0.9637
   95SAPC  H20T 9307   5.448   3.367   4.077  0.6427 -2.5303  0.4393
   95SAPC   C33 9308   6.062   2.722   3.381 -0.7623 -0.7353  0.5550
   95SAPC   H3X 9309   5.979   2.791   3.409 -1.9319 -0.7142 -2.5473
   95SAPC   H3Y 9310   6.163   2.765   3.397 -0.9976  0.3828 -0.7721
   95SAPC   C34 9311   6.050   2.597   3.465  0.0134  0.4322  0.6733
   95SAPC   H4X 9312   6.110   2.511   3.429 -0.0272  0.1542  1.2519
   95SAPC   H4Y 9313   5.947   2.558   3.451  0.4954 -1.5397  2.1828
   95SAPC   C35 9314   6.046   2.619   3.614 -0.1369 -0.2171 -0.7055
   95SAPC   H5X 9315   6.036   2.520   3.665  1.9147 -0.4622 -0.7039
   95SAPC   H5Y 9316   5.960   2.685   3.639  0.6598  1.6320 -2.5847
   95SAPC   C36 9317   6.171   2.700   3.673 -0.4818  0.8303 -0.3269
   95SAPC   H6X 9318   6.167   2.802   3.630 -3.5449  1.1808  0.5012
   95SAPC   H6Y 9319   6.265   2.644   3.655 -1.7640 -1.8061  0.6433
   95SAPC   C37 9320   6.160   2.705   3.827  0.4878  0.1673 -0.0849
   95SAPC   H7X 9321   6.053   2.700   3.857  0.2870  3.7803  0.3072
   95SAPC   H7Y 9322   6.198   2.806   3.854  1.4345 -0.6548  1.7682
   95SAPC   C38 9323   6.246   2.606   3.898 -0.5911  0.1946 -0.4358
   95SAPC   H8X 9324   6.354   2.628   3.887  0.7502 -4.4916  0.9622
   95SAPC   H8Y 9325   6.215   2.508   3.857 -0.5253  0.4167 -1.0209
   95SAPC   C39 9326   6.218   2.614   4.050  0.4466  0.3772 -0.4083
   95SAPC   H9X 9327   6.115   2.576   4.068  0.2237  0.8210 -0.7230
   95SAPC   H9Y 9328   6.223   2.721   4.079 -2.7588  0.5958 -0.3216
   95SAPC  C310 9329   6.322   2.524   4.125  0.1141  0.3734 -0.0961
   95SAPC  H10X 9330   6.415   2.581   4.105 -0.1942  0.6381 -0.8086
   95SAPC  H10Y 9331   6.316   2.427   4.071 -0.4937 -0.7491  1.8547
   95SAPC  C311 9332   6.289   2.495   4.272  0.4015  0.1769 -0.2472
   95SAPC  H11X 9333   6.381   2.443   4.307 -0.4374 -1.6918 -0.7372
   95SAPC  H11Y 9334   6.199   2.432   4.265  0.6916 -0.4889  1.4788
   95SAPC  C312 9335   6.261   2.625   4.358  0.3806 -0.4394  0.1995
   95SAPC  H12X 9336   6.173   2.674   4.309 -0.1958 -1.0642  0.5937
   95SAPC  H12Y 9337   6.353   2.685   4.340  0.5825 -0.8526 -0.1564
   95SAPC  C313 9338   6.239   2.596   4.506  0.5597 -0.8553  0.9771
   95SAPC  H13X 9339   6.325   2.542   4.550  0.0619 -0.9701  1.8342
   95SAPC  H13Y 9340   6.148   2.535   4.522 -0.9194  1.1254  0.5445
   95SAPC  C314 9341   6.210   2.726   4.581  0.3814 -0.5608 -0.8711
   95SAPC  H14X 9342   6.133   2.703   4.658  0.7809  0.3583 -0.1768
   95SAPC  H14Y 9343   6.164   2.808   4.522  1.2029  0.6928  0.1801
   95SAPC  C315 9344   6.323   2.787   4.672  0.5538 -0.1426 -0.2779
   95SAPC  H15X 9345   6.403   2.838   4.615 -1.2137  3.3530  0.0797
   95SAPC  H15Y 9346   6.357   2.706   4.740  1.0196  0.3243  0.0539
   95SAPC  C316 9347   6.274   2.907   4.766  0.1940  0.6479  0.1134
   95SAPC  H16X 9348   6.186   2.864   4.818  0.2864  0.3875  0.0554
   95SAPC  H16Y 9349   6.253   2.986   4.691 -1.0540 -0.1333 -0.3785
   95SAPC  C317 9350   6.382   2.951   4.867 -0.2778  0.1388 -0.4036
   95SAPC  H17X 9351   6.429   2.861   4.911  1.1389  0.5510 -0.9831
   95SAPC  H17Y 9352   6.326   3.005   4.946 -3.5204 -1.3566 -1.5056
   95SAPC  C318 9353   6.480   3.042   4.792 -0.0678 -0.0913  0.1003
   95SAPC  H18X 9354   6.543   2.989   4.718  1.0747 -0.7420  1.4908
   95SAPC  H18Y 9355   6.541   3.099   4.866 -0.1458  1.0672 -0.6943
   95SAPC  H18Z 9356   6.423   3.123   4.742 -1.7976 -0.2848  1.6433
   96SAPC     N 9357   4.236   4.262   2.519  0.2023  0.3165  0.4029
   96SAPC   C12 9358   4.165   4.391   2.562  0.8097 -0.0654  0.2343
   96SAPC  H12A 9359   4.058   4.394   2.549  0.7883  0.9128  0.5944
   96SAPC  H12B 9360   4.195   4.476   2.503 -0.0503  0.3745  0.4266
   96SAPC   C13 9361   4.380   4.275   2.544 -0.3334  0.1147  0.3701
   96SAPC  H13A 9362   4.438   4.188   2.515  3.8648  2.0280  2.1875
   96SAPC  H13B 9363   4.420   4.357   2.486 -2.7097  1.5405  0.6349
   96SAPC  H13C 9364   4.395   4.289   2.650  0.4094  1.9229  0.0622
   96SAPC   C14 9365   4.167   4.142   2.580  0.0006 -0.0792 -0.3062
   96SAPC  H14A 9366   4.153   4.154   2.686  1.6244 -1.0525  0.0520
   96SAPC  H14B 9367   4.063   4.134   2.553 -0.3312 -2.3134  1.3377
   96SAPC  H14C 9368   4.215   4.048   2.557 -1.8786 -1.4049  0.9515
   96SAPC   C15 9369   4.219   4.244   2.368  0.7911 -0.6185 -0.6676
   96SAPC  H15A 9370   4.117   4.214   2.345  0.9028 -0.8692 -0.8448
   96SAPC  H15B 9371   4.226   4.334   2.309 -1.4575  0.3801  0.4413
   96SAPC  H15C 9372   4.280   4.160   2.338  0.8249 -1.4378  1.5062
   96SAPC   C11 9373   4.183   4.438   2.712  0.1092  0.8999  0.3843
   96SAPC  H11A 9374   4.150   4.544   2.722 -1.8855  0.3000  0.7038
   96SAPC  H11B 9375   4.293   4.445   2.724  0.4938 -0.1136 -1.9988
   96SAPC     P 9376   3.968   4.354   2.826  0.4969  0.1012 -0.0972
   96SAPC   O13 9377   3.887   4.445   2.744  0.4880  0.3161  1.0076
   96SAPC   O14 9378   3.925   4.218   2.835  0.4939  0.4831 -0.5905
   96SAPC   O12 9379   4.117   4.344   2.793  0.3395 -0.1724 -0.4624
   96SAPC   O11 9380   3.965   4.405   2.977 -0.4041 -0.7906 -0.2371
   96SAPC    C1 9381   4.056   4.395   3.084 -0.5686  1.2200 -0.9372
   96SAPC    HA 9382   4.006   4.352   3.174 -0.0369  3.9347  0.7620
   96SAPC    HB 9383   4.139   4.332   3.047 -1.3263 -0.2964 -0.1399
   96SAPC    C2 9384   4.112   4.533   3.131  0.2127 -0.0373 -0.3800
   96SAPC    HS 9385   4.204   4.499   3.184 -0.9365 -3.4329 -0.3629
   96SAPC   O21 9386   4.024   4.581   3.227  0.5478 -0.3047 -0.1247
   96SAPC   C21 9387   3.913   4.637   3.184 -0.6188 -0.1997 -0.0115
   96SAPC   O22 9388   3.875   4.649   3.069  0.2716  0.3552  0.1540
   96SAPC   C22 9389   3.844   4.698   3.311 -0.1911  0.5655 -0.3638
   96SAPC   H2R 9390   3.921   4.750   3.373  0.6178  1.5784 -2.1613
   96SAPC   H2S 9391   3.773   4.770   3.265 -2.2411 -0.2165  1.3710
   96SAPC    C3 9392   4.167   4.637   3.021  0.7453 -0.1490 -0.7216
   96SAPC    HX 9393   4.093   4.621   2.940 -2.0574  2.1078  1.1598
   96SAPC    HY 9394   4.265   4.614   2.974  0.6814  0.8244 -1.3656
   96SAPC   O31 9395   4.163   4.777   3.049 -0.0864  0.1253 -0.3791
   96SAPC   C31 9396   4.267   4.813   3.121 -0.1524  0.1381 -0.5559
   96SAPC   O32 9397   4.343   4.730   3.173  0.4649  0.1006 -0.1471
   96SAPC   C32 9398   4.265   4.960   3.133  0.3603 -0.1630 -0.0834
   96SAPC   H2X 9399   4.247   5.004   3.032 -1.8010 -2.2699 -0.7062
   96SAPC   H2Y 9400   4.368   4.993   3.156 -0.0662  2.9056 -2.0499
   96SAPC   C23 9401   3.760   4.591   3.390 -0.1729  0.0039  0.0307
   96SAPC   H3R 9402   3.716   4.519   3.317 -0.8843  1.1647 -0.7176
   96SAPC   H3S 9403   3.676   4.638   3.444  0.0983  0.7342 -0.1645
   96SAPC   C24 9404   3.835   4.496   3.485  0.0981  0.4469 -0.0072
   96SAPC   H4R 9405   3.916   4.443   3.431  0.5504  0.5528  0.5525
   96SAPC   H4S 9406   3.779   4.404   3.515  1.9112 -1.3863 -1.9430
   96SAPC   C25 9407   3.906   4.562   3.599  0.5080 -0.4334  0.4649
   96SAPC   H5R 9408   3.947   4.662   3.578  2.2696 -1.0879  0.6088
   96SAPC   C26 9409   3.950   4.500   3.713  0.6544  0.0416  0.6501
   96SAPC   H6R 9410   4.017   4.549   3.786  2.2343  1.2023 -1.4847
   96SAPC   C27 9411   3.920   4.362   3.752 -0.0357  0.7547  0.6377
   96SAPC   H7R 9412   3.841   4.324   3.684  1.0662  2.2350 -1.5514
   96SAPC   H7S 9413   3.883   4.360   3.857 -2.2545 -1.5544 -0.0809
   96SAPC   C28 9414   4.027   4.259   3.736 -0.5497  0.5795 -0.1832
   96SAPC   H8R 9415   4.073   4.263   3.636 -0.8014  2.8970 -0.2563
   96SAPC   C29 9416   4.048   4.153   3.814  0.1383  0.9254 -0.0516
   96SAPC   H9R 9417   4.127   4.085   3.779  1.1508  2.2824 -0.4966
   96SAPC  C210 9418   3.981   4.118   3.947  0.1191  0.7823 -0.6741
   96SAPC  H10R 9419   3.994   4.014   3.984 -1.9732  1.0725  1.0772
   96SAPC  H10S 9420   3.870   4.122   3.936 -0.0668 -2.0606 -0.5235
   96SAPC  C211 9421   4.009   4.218   4.057  0.5071 -1.0533  0.1006
   96SAPC  H11R 9422   4.051   4.317   4.030  2.4498 -0.6798  3.7986
   96SAPC  C212 9423   3.998   4.190   4.185  0.4074  0.1914 -0.2292
   96SAPC  H12R 9424   4.017   4.269   4.259 -1.6260  1.3186 -0.8280
   96SAPC  C213 9425   3.940   4.062   4.243 -0.0841  0.0840  0.4840
   96SAPC  H13R 9426   4.014   4.032   4.321 -1.9918 -0.6584  2.0872
   96SAPC  H13S 9427   3.942   3.972   4.178  1.6289 -0.1504  0.8031
   96SAPC  C214 9428   3.803   4.076   4.310 -0.0118  0.5972 -0.2068
   96SAPC  H14R 9429   3.720   4.032   4.253  1.4487 -0.7217 -1.3976
   96SAPC  C215 9430   3.786   4.119   4.437 -0.3414 -0.5159  0.7367
   96SAPC  H15R 9431   3.683   4.111   4.475 -0.3934 -1.9296  0.3570
   96SAPC  C216 9432   3.893   4.173   4.523  0.3684 -0.3138  0.4632
   96SAPC  H16R 9433   3.919   4.276   4.489 -0.1687 -0.2552  0.2315
   96SAPC  H16S 9434   3.984   4.109   4.525  0.5317 -0.1479 -0.7261
   96SAPC  C217 9435   3.832   4.179   4.667  0.4643 -0.4873  0.4776
   96SAPC  H17R 9436   3.916   4.186   4.740  0.7825  0.8912  0.0109
   96SAPC  H17S 9437   3.773   4.087   4.688 -0.8154 -0.2453 -1.7884
   96SAPC  C218 9438   3.760   4.314   4.693 -0.0877 -0.0350 -0.2258
   96SAPC  H18R 9439   3.681   4.328   4.615  0.3941 -0.8483 -0.8899
   96SAPC  H18S 9440   3.841   4.389   4.691 -1.0424  1.0237 -0.4752
   96SAPC  C219 9441   3.691   4.327   4.829 -0.2584  0.2289 -0.0232
   96SAPC  H19R 9442   3.766   4.349   4.909 -1.6233  1.4699  0.9528
   96SAPC  H19S 9443   3.646   4.232   4.866 -0.7332  0.7544  0.7619
   96SAPC  C220 9444   3.583   4.437   4.842 -0.1840  0.2567 -0.2886
   96SAPC  H20R 9445   3.563   4.459   4.949  1.7671  2.3121 -0.2610
   96SAPC  H20S 9446   3.504   4.406   4.771  2.0676 -3.2790 -1.5266
   96SAPC  H20T 9447   3.636   4.528   4.805  0.5059  0.0979  0.2772
   96SAPC   C33 9448   4.166   5.014   3.243 -0.1239  0.0543  0.3830
   96SAPC   H3X 9449   4.065   4.979   3.215  0.7922 -1.9208 -0.6541
   96SAPC   H3Y 9450   4.169   5.125   3.236  4.2490  0.0174 -1.8230
   96SAPC   C34 9451   4.209   4.969   3.382 -0.0890 -0.3853  0.0664
   96SAPC   H4X 9452   4.317   4.995   3.391  0.0751  0.4500 -3.0820
   96SAPC   H4Y 9453   4.202   4.858   3.394 -0.3096 -0.2533  1.2681
   96SAPC   C35 9454   4.116   5.030   3.489  0.1314 -0.2557  0.2166
   96SAPC   H5X 9455   4.008   5.018   3.470  0.3849  0.0068 -1.5771
   96SAPC   H5Y 9456   4.146   5.137   3.492 -1.3397  0.1640  0.4065
   96SAPC   C36 9457   4.153   4.963   3.622  0.7694  0.3110 -1.1503
   96SAPC   H6X 9458   4.260   4.934   3.622  0.0114 -2.8485 -2.3287
   96SAPC   H6Y 9459   4.096   4.867   3.624  0.8651  0.2553  0.3872
   96SAPC   C37 9460   4.101   5.043   3.751  0.2076  0.0151 -0.3036
   96SAPC   H7X 9461   3.990   5.038   3.752  0.0861  1.2951  2.1020
   96SAPC   H7Y 9462   4.126   5.151   3.745 -1.5901  0.4776 -0.2163
   96SAPC   C38 9463   4.146   4.973   3.883 -0.1128  0.0781 -1.0277
   96SAPC   H8X 9464   4.256   4.964   3.899 -0.0319 -0.2750 -1.7530
   96SAPC   H8Y 9465   4.126   4.864   3.882 -0.9672  0.2107 -0.0429
   96SAPC   C39 9466   4.095   5.037   4.010  0.1156  0.2239 -0.3214
   96SAPC   H9X 9467   3.990   5.004   4.018 -0.0487  0.1497 -2.3709
   96SAPC   H9Y 9468   4.096   5.148   4.017 -0.3429  0.1295  2.1056
   96SAPC  C310 9469   4.173   4.995   4.138 -0.0642 -0.3276  0.2832
   96SAPC  H10X 9470   4.172   5.074   4.217  0.6452 -0.3902  0.3533
   96SAPC  H10Y 9471   4.278   4.975   4.110 -0.7763 -2.1109 -1.2825
   96SAPC  C311 9472   4.097   4.873   4.196  0.4524  0.1518  0.3295
   96SAPC  H11X 9473   4.098   4.793   4.119 -1.5485 -2.4009  2.7367
   96SAPC  H11Y 9474   3.990   4.902   4.206 -0.0619 -2.2543  3.7415
   96SAPC  C312 9475   4.151   4.820   4.328 -0.3459 -0.0521 -0.2741
   96SAPC  H12X 9476   4.122   4.899   4.400 -0.7398 -1.5947  1.3225
   96SAPC  H12Y 9477   4.262   4.826   4.335 -0.4511  1.1790  0.8279
   96SAPC  C313 9478   4.088   4.688   4.377 -0.3045 -0.0738 -0.6197
   96SAPC  H13X 9479   4.115   4.598   4.318 -1.3945 -1.7275  1.3115
   96SAPC  H13Y 9480   3.977   4.692   4.368 -0.4907  2.4196  1.5300
   96SAPC  C314 9481   4.130   4.665   4.521  0.0964  0.6119 -0.1593
   96SAPC  H14X 9482   4.109   4.746   4.594 -1.3826 -1.8634  2.3380
   96SAPC  H14Y 9483   4.241   4.652   4.523 -0.0965 -1.2249  0.5190
   96SAPC  C315 9484   4.056   4.536   4.573  0.5084 -0.1415  0.4539
   96SAPC  H15X 9485   4.050   4.466   4.487  2.7801 -0.5939  0.6103
   96SAPC  H15Y 9486   3.954   4.563   4.607  0.3702  1.7657 -1.2966
   96SAPC  C316 9487   4.121   4.465   4.691 -0.0444  0.1295  0.3081
   96SAPC  H16X 9488   4.213   4.411   4.660 -0.1300 -0.1799  0.5860
   96SAPC  H16Y 9489   4.055   4.382   4.725  0.8568 -1.2859 -1.2499
   96SAPC  C317 9490   4.131   4.570   4.808  0.0178 -0.0192 -0.0637
   96SAPC  H17X 9491   4.197   4.659   4.794 -0.6259  0.6897  1.2689
   96SAPC  H17Y 9492   4.200   4.514   4.875  0.4488  1.3244  0.6651
   96SAPC  C318 9493   4.005   4.610   4.882  0.4712 -0.7689 -0.5691
   96SAPC  H18X 9494   3.955   4.516   4.913  0.6497 -0.3883  0.9323
   96SAPC  H18Y 9495   3.950   4.685   4.822  0.5028  0.0848  0.4355
   96SAPC  H18Z 9496   4.021   4.666   4.976 -0.9375  2.0760 -1.8859
   97SAPC     N 9497   4.453   1.981   2.255 -0.0433 -0.4735  0.3915
   97SAPC   C12 9498   4.507   1.996   2.396  0.2558  0.2711 -0.0543
   97SAPC  H12A 9499   4.428   2.020   2.466  1.4222  0.6440  1.1815
   97SAPC  H12B 9500   4.580   2.074   2.408 -0.3880  0.5914  2.0991
   97SAPC   C13 9501   4.562   1.947   2.158 -0.0839 -0.2763 -0.8183
   97SAPC  H13A 9502   4.516   1.940   2.061 -1.4108 -0.5956 -0.1774
   97SAPC  H13B 9503   4.635   2.026   2.150  0.5446 -0.7193  0.2283
   97SAPC  H13C 9504   4.617   1.855   2.172 -0.0724 -0.2819 -0.8987
   97SAPC   C14 9505   4.348   1.878   2.238  0.5143  0.8093  0.2855
   97SAPC  H14A 9506   4.301   1.889   2.142 -0.8248 -1.2450  0.6489
   97SAPC  H14B 9507   4.379   1.776   2.251  1.5722  1.0485 -0.2330
   97SAPC  H14C 9508   4.274   1.881   2.316  0.9201 -1.3532  0.8203
   97SAPC   C15 9509   4.401   2.118   2.208  0.5063  1.0101 -0.3721
   97SAPC  H15A 9510   4.490   2.180   2.204  0.3216  1.2730 -0.4141
   97SAPC  H15B 9511   4.366   2.110   2.106  0.2857 -0.6216 -0.1884
   97SAPC  H15C 9512   4.331   2.159   2.280  0.8892 -0.1569  0.6984
   97SAPC   C11 9513   4.571   1.865   2.458  0.3025 -0.1969  0.0112
   97SAPC  H11A 9514   4.499   1.781   2.453  0.2506 -0.4022  2.7005
   97SAPC  H11B 9515   4.591   1.889   2.565 -1.6795  0.7438  0.2160
   97SAPC     P 9516   4.824   1.918   2.391 -0.0294 -0.0865  0.0565
   97SAPC   O13 9517   4.925   1.882   2.288  0.0439  0.4566  0.7296
   97SAPC   O14 9518   4.779   2.054   2.380 -0.1885 -0.4708  0.3189
   97SAPC   O12 9519   4.696   1.826   2.388  0.1153 -0.3728 -1.3174
   97SAPC   O11 9520   4.894   1.899   2.528  0.6480 -0.0403  0.1309
   97SAPC    C1 9521   4.937   1.764   2.562  0.5101  1.0218  1.2196
   97SAPC    HA 9522   4.869   1.680   2.538  2.0890  0.5215 -2.0539
   97SAPC    HB 9523   5.033   1.739   2.512 -1.3252 -2.9269 -0.8274
   97SAPC    C2 9524   4.965   1.784   2.716  0.8546 -0.0041  0.3742
   97SAPC    HS 9525   4.963   1.686   2.768 -1.0169  0.4545  1.2699
   97SAPC   O21 9526   4.863   1.865   2.786  0.1502 -0.4456  0.2607
   97SAPC   C21 9527   4.745   1.820   2.781  0.0366  0.1266  1.0969
   97SAPC   O22 9528   4.708   1.716   2.721  0.1418 -0.1651 -0.5867
   97SAPC   C22 9529   4.657   1.909   2.865 -0.4592 -0.7558  0.6395
   97SAPC   H2R 9530   4.724   1.990   2.898  0.7665 -1.3520 -0.3130
   97SAPC   H2S 9531   4.587   1.955   2.792  1.5197 -0.2744 -1.0510
   97SAPC    C3 9532   5.096   1.858   2.739 -0.2405 -0.3392  0.0118
   97SAPC    HX 9533   5.062   1.958   2.704 -0.9772 -1.1700 -1.7765
   97SAPC    HY 9534   5.179   1.830   2.671  0.5447  3.0300 -0.6301
   97SAPC   O31 9535   5.148   1.860   2.881  0.6272 -0.4931 -0.1589
   97SAPC   C31 9536   5.186   1.738   2.924  0.3657 -0.4007 -0.2519
   97SAPC   O32 9537   5.199   1.638   2.856  0.0224  0.6703 -0.3311
   97SAPC   C32 9538   5.212   1.742   3.079 -0.3175  0.1612  0.8067
   97SAPC   H2X 9539   5.306   1.683   3.090 -0.1046  0.2708 -0.3288
   97SAPC   H2Y 9540   5.137   1.678   3.130  1.8065 -2.1218  1.3184
   97SAPC   C23 9541   4.581   1.854   2.983 -0.3891 -0.8689 -0.3447
   97SAPC   H3R 9542   4.506   1.784   2.939 -0.2632 -0.3624 -1.3726
   97SAPC   H3S 9543   4.520   1.937   3.025  0.5590 -0.3898  0.1109
   97SAPC   C24 9544   4.674   1.792   3.097  0.9385  0.1249  0.0501
   97SAPC   H4R 9545   4.728   1.709   3.046 -1.3276 -1.8809  0.7359
   97SAPC   H4S 9546   4.602   1.741   3.164  0.2223 -0.6765 -1.2885
   97SAPC   C25 9547   4.770   1.886   3.168  0.0872  0.9325 -0.0461
   97SAPC   H5R 9548   4.847   1.929   3.101  2.1508 -0.0119  1.5969
   97SAPC   C26 9549   4.780   1.901   3.302  0.1720 -0.1763  0.6067
   97SAPC   H6R 9550   4.860   1.965   3.342  0.6453 -0.5847  0.3172
   97SAPC   C27 9551   4.715   1.815   3.406  0.1690  0.4796 -0.3139
   97SAPC   H7R 9552   4.683   1.718   3.363 -1.0954  0.9630 -0.5209
   97SAPC   H7S 9553   4.620   1.864   3.438 -1.5119 -0.5593 -3.3348
   97SAPC   C28 9554   4.797   1.800   3.533 -0.4804 -0.1382  0.1548
   97SAPC   H8R 9555   4.846   1.702   3.531  0.5729  0.3846 -1.2994
   97SAPC   C29 9556   4.807   1.880   3.637  1.3713 -0.4042  0.1677
   97SAPC   H9R 9557   4.851   1.845   3.731 -1.6351  1.7427  2.6114
   97SAPC  C210 9558   4.745   2.020   3.660  0.1946  0.7043 -0.0357
   97SAPC  H10R 9559   4.678   2.008   3.748  1.1561 -1.2853  0.4810
   97SAPC  H10S 9560   4.694   2.062   3.570  1.0699  3.6411  0.7309
   97SAPC  C211 9561   4.851   2.117   3.700 -0.1342 -0.5426 -0.5777
   97SAPC  H11R 9562   4.898   2.181   3.625 -1.5801  1.5028  0.1577
   97SAPC  C212 9563   4.884   2.152   3.825 -0.2758 -0.0693 -0.3291
   97SAPC  H12R 9564   4.968   2.222   3.832  0.8186 -1.2480 -1.1605
   97SAPC  C213 9565   4.843   2.098   3.957 -0.0757 -0.2203  0.0708
   97SAPC  H13R 9566   4.752   2.036   3.940 -0.1092 -0.1046 -0.1747
   97SAPC  H13S 9567   4.807   2.188   4.011  0.3363  1.6569 -2.6251
   97SAPC  C214 9568   4.949   2.016   4.024  0.1006 -0.0941 -0.3523
   97SAPC  H14R 9569   5.021   1.967   3.958 -0.3533 -0.7188 -0.3922
   97SAPC  C215 9570   4.969   1.997   4.154 -0.1349  0.5716 -0.4190
   97SAPC  H15R 9571   5.046   1.930   4.197  1.9577  2.7017 -0.6329
   97SAPC  C216 9572   4.893   2.071   4.262  0.1233 -0.2612  0.0265
   97SAPC  H16R 9573   4.845   2.163   4.223 -1.2481  0.2743  2.7636
   97SAPC  H16S 9574   4.972   2.106   4.332  0.6571  2.4128 -1.7672
   97SAPC  C217 9575   4.788   1.988   4.348 -0.2868  0.1296 -0.3041
   97SAPC  H17R 9576   4.829   1.888   4.371  0.7998  0.3363 -1.2510
   97SAPC  H17S 9577   4.701   1.968   4.281 -0.0912  1.7642 -1.0936
   97SAPC  C218 9578   4.751   2.056   4.479 -0.1594 -0.3356 -0.1678
   97SAPC  H18R 9579   4.741   2.166   4.473  3.4948  0.1079 -0.3931
   97SAPC  H18S 9580   4.828   2.046   4.559 -1.3718 -0.0360  1.0611
   97SAPC  C219 9581   4.617   2.009   4.550  0.6384 -0.1009 -0.3336
   97SAPC  H19R 9582   4.546   2.014   4.465  0.4276 -0.1395 -0.1583
   97SAPC  H19S 9583   4.584   2.089   4.619 -0.3134 -0.4350 -0.3988
   97SAPC  C220 9584   4.623   1.876   4.615  0.5925  0.0347 -0.2525
   97SAPC  H20R 9585   4.672   1.805   4.546 -0.4411 -1.8036  0.8164
   97SAPC  H20S 9586   4.518   1.851   4.644  0.5344  1.4770  0.9459
   97SAPC  H20T 9587   4.677   1.880   4.712  2.0507  0.3681 -1.0590
   97SAPC   C33 9588   5.253   1.880   3.136  0.5261 -0.0739 -0.4425
   97SAPC   H3X 9589   5.169   1.951   3.121 -0.5293 -0.9391  1.0406
   97SAPC   H3Y 9590   5.336   1.908   3.068  0.6947  0.4047 -0.0402
   97SAPC   C34 9591   5.285   1.878   3.286 -0.0849 -0.0043 -0.4485
   97SAPC   H4X 9592   5.311   1.979   3.325 -2.3809  0.5452 -0.2414
   97SAPC   H4Y 9593   5.368   1.806   3.308  0.8150  1.3471  0.8063
   97SAPC   C35 9594   5.165   1.841   3.370  0.4875 -0.3736  0.0902
   97SAPC   H5X 9595   5.143   1.735   3.343  3.1541 -0.3080 -3.0119
   97SAPC   H5Y 9596   5.079   1.905   3.342  2.7083  1.6029 -2.8662
   97SAPC   C36 9597   5.193   1.833   3.521  0.1609  0.3106  0.1590
   97SAPC   H6X 9598   5.279   1.765   3.535  2.0576  2.7449  1.1095
   97SAPC   H6Y 9599   5.102   1.786   3.563  0.6587 -1.4211 -0.6102
   97SAPC   C37 9600   5.210   1.972   3.580  0.4897 -0.3040 -0.1609
   97SAPC   H7X 9601   5.126   2.038   3.550  1.2960  1.1189  0.6097
   97SAPC   H7Y 9602   5.306   2.012   3.540  0.8175 -0.2685  0.6417
   97SAPC   C38 9603   5.213   1.969   3.731  0.0595  0.1983 -0.0586
   97SAPC   H8X 9604   5.278   1.885   3.765 -1.1560 -0.6766  0.1930
   97SAPC   H8Y 9605   5.111   1.951   3.770 -0.3316  2.7095  0.2220
   97SAPC   C39 9606   5.269   2.101   3.792 -0.8281  0.5845 -0.0274
   97SAPC   H9X 9607   5.200   2.182   3.759 -2.2347 -0.6236 -0.1300
   97SAPC   H9Y 9608   5.363   2.120   3.735  0.3277 -0.1360  1.5823
   97SAPC  C310 9609   5.302   2.097   3.942 -0.1030  0.5083  0.4166
   97SAPC  H10X 9610   5.372   2.012   3.958  0.3423  0.7366 -0.2579
   97SAPC  H10Y 9611   5.212   2.097   4.006  0.4340  1.2375  1.1978
   97SAPC  C311 9612   5.384   2.222   3.991 -0.8306  0.3507  0.2683
   97SAPC  H11X 9613   5.331   2.320   3.991 -1.0907  0.2348  1.7528
   97SAPC  H11Y 9614   5.477   2.223   3.929 -1.6634 -1.9076 -1.1679
   97SAPC  C312 9615   5.437   2.202   4.134 -0.0799 -0.3773  0.0959
   97SAPC  H12X 9616   5.510   2.283   4.157 -0.5042  0.5685 -1.6883
   97SAPC  H12Y 9617   5.474   2.099   4.152 -0.4801 -0.5943 -0.3218
   97SAPC  C313 9618   5.334   2.224   4.239 -0.4138  0.0561 -0.0769
   97SAPC  H13X 9619   5.260   2.141   4.233 -0.6951  0.4057 -1.8012
   97SAPC  H13Y 9620   5.266   2.307   4.210  0.8595  0.6448 -1.4886
   97SAPC  C314 9621   5.384   2.245   4.383 -0.4751 -0.2094  0.0562
   97SAPC  H14X 9622   5.431   2.346   4.385  0.9484 -0.8461  2.3102
   97SAPC  H14Y 9623   5.463   2.171   4.406  1.8304  2.1170  0.1476
   97SAPC  C315 9624   5.274   2.235   4.495 -0.5667 -0.3335  0.8508
   97SAPC  H15X 9625   5.210   2.146   4.480 -2.2739  0.8581  0.8052
   97SAPC  H15Y 9626   5.210   2.320   4.465  0.7442  0.8139  1.1654
   97SAPC  C316 9627   5.324   2.257   4.639 -0.1914  0.0525  0.3576
   97SAPC  H16X 9628   5.239   2.282   4.706  1.1777  3.3535  1.0367
   97SAPC  H16Y 9629   5.403   2.334   4.646  1.4870 -1.6291  0.9854
   97SAPC  C317 9630   5.409   2.145   4.694  0.2819 -0.0752  0.1746
   97SAPC  H17X 9631   5.457   2.173   4.790  0.6105 -0.7361  0.2035
   97SAPC  H17Y 9632   5.494   2.140   4.623  0.8013  2.5221  0.5109
   97SAPC  C318 9633   5.339   2.010   4.717  0.2428  0.9431  0.2040
   97SAPC  H18X 9634   5.249   2.020   4.781 -2.0018  0.6187 -2.7111
   97SAPC  H18Y 9635   5.415   1.937   4.752  0.4767 -0.0640 -2.2056
   97SAPC  H18Z 9636   5.298   1.974   4.620 -1.3293  0.8317  0.8742
   98SAPC     N 9637   2.008   2.878   2.648 -0.6004  0.5375 -0.0478
   98SAPC   C12 9638   1.861   2.876   2.634 -0.6814  0.1238  0.3851
   98SAPC  H12A 9639   1.815   2.912   2.724 -0.5951  1.0195  0.0764
   98SAPC  H12B 9640   1.839   2.771   2.620  1.2706 -0.1322 -1.3123
   98SAPC   C13 9641   2.079   2.830   2.521 -0.5210 -0.1347  0.4521
   98SAPC  H13A 9642   2.184   2.828   2.545 -0.4535  0.5558  0.2517
   98SAPC  H13B 9643   2.046   2.733   2.487 -0.3877 -0.5829  1.5508
   98SAPC  H13C 9644   2.065   2.901   2.441 -0.0652 -1.1414 -0.5466
   98SAPC   C14 9645   2.056   3.009   2.685 -0.0076 -0.1969 -0.1086
   98SAPC  H14A 9646   2.009   3.036   2.779  0.0033 -1.2240  0.2025
   98SAPC  H14B 9647   2.161   3.034   2.688 -0.3086  1.0433  1.1974
   98SAPC  H14C 9648   2.029   3.084   2.612 -0.7614 -2.3418 -2.1244
   98SAPC   C15 9649   2.044   2.781   2.754  0.5718  0.3318 -0.0199
   98SAPC  H15A 9650   2.002   2.686   2.727  1.0537 -0.1887  1.0109
   98SAPC  H15B 9651   2.151   2.764   2.754  0.8915  1.9813  1.9387
   98SAPC  H15C 9652   2.015   2.806   2.855 -2.0879  1.5100 -0.9811
   98SAPC   C11 9653   1.795   2.963   2.516 -0.0644 -0.0012  0.4582
   98SAPC  H11A 9654   1.696   2.920   2.492  0.2084  1.1218 -3.2269
   98SAPC  H11B 9655   1.856   2.954   2.424  1.0199 -1.7379  1.2802
   98SAPC     P 9656   1.682   3.146   2.665 -0.4226  0.1134  0.7811
   98SAPC   O13 9657   1.689   3.290   2.690  0.1428 -0.0874 -0.3097
   98SAPC   O14 9658   1.548   3.095   2.629  0.2862 -0.3082  0.1241
   98SAPC   O12 9659   1.797   3.102   2.560  0.3353  0.1160  0.5968
   98SAPC   O11 9660   1.723   3.066   2.792 -0.6445 -0.0132 -1.2996
   98SAPC    C1 9661   1.640   2.993   2.883  0.7511  0.5683 -0.5409
   98SAPC    HA 9662   1.570   2.929   2.826 -0.3908 -1.0382  2.4323
   98SAPC    HB 9663   1.696   2.926   2.952 -0.1622  1.7226  1.3989
   98SAPC    C2 9664   1.555   3.084   2.976  0.2308 -0.3987 -0.2666
   98SAPC    HS 9665   1.513   3.169   2.917 -2.6666 -1.5092  0.0351
   98SAPC   O21 9666   1.638   3.127   3.089 -0.2890  0.0060 -0.3643
   98SAPC   C21 9667   1.618   3.246   3.138 -0.7712  0.3438 -0.2407
   98SAPC   O22 9668   1.563   3.340   3.080  0.0892 -0.0249 -0.3812
   98SAPC   C22 9669   1.686   3.255   3.279 -0.2977 -0.4571 -0.2340
   98SAPC   H2R 9670   1.613   3.202   3.344  0.8722  0.8009  2.2515
   98SAPC   H2S 9671   1.772   3.191   3.252 -0.9591 -0.9596 -1.2509
   98SAPC    C3 9672   1.438   3.011   3.039 -0.2557 -0.3771  1.1941
   98SAPC    HX 9673   1.486   2.929   3.098  0.7234 -1.2001 -0.6658
   98SAPC    HY 9674   1.384   2.958   2.958 -0.2456  2.5850 -0.9259
   98SAPC   O31 9675   1.345   3.089   3.118  0.0867 -0.1589 -0.0424
   98SAPC   C31 9676   1.264   3.173   3.055  0.5899 -0.3956  0.2232
   98SAPC   O32 9677   1.277   3.212   2.942  0.1481 -0.4471  0.8493
   98SAPC   C32 9678   1.138   3.203   3.149 -0.5737 -0.0549  0.3852
   98SAPC   H2X 9679   1.184   3.260   3.232  0.2078 -0.1182  0.0076
   98SAPC   H2Y 9680   1.119   3.106   3.200  1.0676 -1.4083 -1.4374
   98SAPC   C23 9681   1.723   3.397   3.337 -0.3912 -0.2025  0.2566
   98SAPC   H3R 9682   1.723   3.467   3.251 -2.2241  1.1824  1.3171
   98SAPC   H3S 9683   1.827   3.387   3.376 -0.1178 -1.3501 -0.6979
   98SAPC   C24 9684   1.643   3.440   3.462 -0.0523 -0.5815  0.5918
   98SAPC   H4R 9685   1.695   3.534   3.490 -2.5339  1.0310  0.0439
   98SAPC   H4S 9686   1.653   3.362   3.540 -2.2012  0.5124  2.0630
   98SAPC   C25 9687   1.504   3.476   3.424  0.7808 -0.0325  0.4527
   98SAPC   H5R 9688   1.485   3.566   3.363 -2.3068 -1.4452 -0.9598
   98SAPC   C26 9689   1.384   3.415   3.463  0.2502 -0.5304 -0.2940
   98SAPC   H6R 9690   1.295   3.462   3.419  1.4767  0.5632 -1.6853
   98SAPC   C27 9691   1.379   3.295   3.547  0.6382  0.1811  0.4438
   98SAPC   H7R 9692   1.320   3.313   3.639 -0.0584 -0.3405  0.1068
   98SAPC   H7S 9693   1.477   3.275   3.595  0.4397 -1.1508  0.3111
   98SAPC   C28 9694   1.329   3.171   3.483 -0.2547  0.4264  0.0363
   98SAPC   H8R 9695   1.380   3.149   3.388 -0.7696 -0.5123 -0.0394
   98SAPC   C29 9696   1.238   3.085   3.536  0.1652  0.6634  0.0220
   98SAPC   H9R 9697   1.219   2.994   3.478  0.0500  0.3257  0.5774
   98SAPC  C210 9698   1.174   3.108   3.671  0.2190  0.7678 -0.5279
   98SAPC  H10R 9699   1.135   3.211   3.686  0.0212  1.0692 -2.8377
   98SAPC  H10S 9700   1.250   3.094   3.752 -2.1433  0.1870  1.7132
   98SAPC  C211 9701   1.068   3.002   3.686  0.8296 -0.3097 -0.1078
   98SAPC  H11R 9702   1.037   2.938   3.603  1.6079  0.3379 -0.9231
   98SAPC  C212 9703   1.014   2.978   3.810  0.4072 -0.7228 -0.0790
   98SAPC  H12R 9704   0.941   2.896   3.822 -0.3450 -0.0332  0.1248
   98SAPC  C213 9705   1.039   3.055   3.940 -0.2048  0.7206  0.9571
   98SAPC  H13R 9706   1.147   3.074   3.952 -0.3537  1.3079  1.4249
   98SAPC  H13S 9707   1.011   2.993   4.028 -0.5955  0.7402  0.8505
   98SAPC  C214 9708   0.969   3.189   3.940 -0.8410 -0.0919 -0.8391
   98SAPC  H14R 9709   0.917   3.217   3.847  1.6470  2.0109 -1.7051
   98SAPC  C215 9710   0.967   3.280   4.037 -0.3547 -0.3328 -0.1311
   98SAPC  H15R 9711   0.902   3.368   4.025  2.1466  1.3904 -1.7315
   98SAPC  C216 9712   1.045   3.263   4.172  0.3978  0.8103 -0.0509
   98SAPC  H16R 9713   1.109   3.352   4.188 -0.3012  1.4428 -0.7415
   98SAPC  H16S 9714   1.098   3.165   4.168  0.2681  0.5238  3.2105
   98SAPC  C217 9715   0.947   3.259   4.290  0.3409 -0.2644 -0.7614
   98SAPC  H17R 9716   0.879   3.171   4.287  0.1702 -0.1302 -0.7928
   98SAPC  H17S 9717   0.879   3.347   4.284  0.5082 -0.1979 -2.0936
   98SAPC  C218 9718   1.034   3.248   4.420  0.4106  0.4228  0.5385
   98SAPC  H18R 9719   1.076   3.147   4.437 -2.0907 -0.5569  1.2987
   98SAPC  H18S 9720   0.967   3.258   4.508  0.1138  4.0007  0.0683
   98SAPC  C219 9721   1.147   3.354   4.435  0.9161  0.0374 -0.5831
   98SAPC  H19R 9722   1.100   3.453   4.417 -0.1492 -0.2392  0.5152
   98SAPC  H19S 9723   1.225   3.334   4.359  0.9359  0.6743 -0.7300
   98SAPC  C220 9724   1.212   3.338   4.575 -0.2620  0.0064  0.2609
   98SAPC  H20R 9725   1.277   3.426   4.594  2.1453 -0.6215 -3.8877
   98SAPC  H20S 9726   1.282   3.252   4.570  0.9840  0.9948  0.2813
   98SAPC  H20T 9727   1.137   3.322   4.656 -1.5845 -2.0917 -1.2788
   98SAPC   C33 9728   1.019   3.261   3.084 -0.2095 -0.0134 -0.1405
   98SAPC   H3X 9729   1.007   3.221   2.981 -0.5633 -0.0765 -0.0774
   98SAPC   H3Y 9730   1.040   3.370   3.081  2.5245 -0.5033 -1.6374
   98SAPC   C34 9731   0.890   3.241   3.165  0.0002 -0.3361 -0.0632
   98SAPC   H4X 9732   0.860   3.135   3.149 -1.0487 -0.3279  1.5708
   98SAPC   H4Y 9733   0.818   3.308   3.114  1.9816  0.6067 -1.7808
   98SAPC   C35 9734   0.894   3.266   3.314  0.0651 -0.6113 -0.1350
   98SAPC   H5X 9735   0.911   3.375   3.332  0.7410 -0.7978  0.3958
   98SAPC   H5Y 9736   0.972   3.204   3.363  0.9790 -0.6677 -1.5868
   98SAPC   C36 9737   0.764   3.240   3.389  0.4640  0.3496  0.1393
   98SAPC   H6X 9738   0.754   3.130   3.382  1.6784  0.1782  0.8767
   98SAPC   H6Y 9739   0.673   3.286   3.344  1.3251  0.6718 -1.3400
   98SAPC   C37 9740   0.773   3.283   3.532  0.0900 -0.0019  0.1672
   98SAPC   H7X 9741   0.774   3.393   3.521  1.7429  0.1912  1.8039
   98SAPC   H7Y 9742   0.875   3.264   3.572  0.6652  0.0315 -1.2220
   98SAPC   C38 9743   0.653   3.230   3.615  0.4967 -0.2630 -0.5270
   98SAPC   H8X 9744   0.646   3.119   3.610  1.4032 -0.3743  0.2601
   98SAPC   H8Y 9745   0.560   3.283   3.586  2.2501  4.0057  0.7577
   98SAPC   C39 9746   0.651   3.276   3.765 -0.9189 -0.5615 -0.5548
   98SAPC   H9X 9747   0.683   3.383   3.761  0.8484 -0.9732  0.9321
   98SAPC   H9Y 9748   0.733   3.227   3.823 -0.3617  0.9860  0.0241
   98SAPC  C310 9749   0.513   3.262   3.840 -0.5847  1.0253  0.1126
   98SAPC  H10X 9750   0.492   3.155   3.863 -2.7967  1.4687  0.3623
   98SAPC  H10Y 9751   0.428   3.296   3.778 -0.7194 -0.5009 -0.5704
   98SAPC  C311 9752   0.504   3.355   3.964 -0.1713  0.1054 -0.1210
   98SAPC  H11X 9753   0.398   3.374   3.989 -0.1012  1.5878 -0.8403
   98SAPC  H11Y 9754   0.567   3.445   3.950  0.2980 -0.3284 -0.9012
   98SAPC  C312 9755   0.566   3.286   4.089 -0.0939 -0.2064 -0.3355
   98SAPC  H12X 9756   0.612   3.361   4.158  0.3716 -0.7370 -0.0597
   98SAPC  H12Y 9757   0.660   3.232   4.063  0.7604  0.9687  0.2373
   98SAPC  C313 9758   0.475   3.194   4.159 -0.7335 -0.3504 -0.3791
   98SAPC  H13X 9759   0.452   3.109   4.093 -0.6437  1.0597 -2.3120
   98SAPC  H13Y 9760   0.381   3.247   4.184 -0.9252 -1.2167  0.8617
   98SAPC  C314 9761   0.534   3.161   4.294  0.3327 -0.3647 -0.0125
   98SAPC  H14X 9762   0.548   3.252   4.356 -2.0055  0.2339 -0.2663
   98SAPC  H14Y 9763   0.631   3.110   4.282  0.4498 -0.0350 -0.4927
   98SAPC  C315 9764   0.451   3.066   4.379 -0.3722 -0.2697  0.0723
   98SAPC  H15X 9765   0.442   2.968   4.328  2.6768 -0.4715 -0.2591
   98SAPC  H15Y 9766   0.348   3.102   4.397 -0.3881 -0.6375  0.7066
   98SAPC  C316 9767   0.511   3.039   4.523  0.3054 -0.1749  0.3980
   98SAPC  H16X 9768   0.502   3.133   4.583  2.3738  0.4149 -0.1070
   98SAPC  H16Y 9769   0.620   3.018   4.523  0.3909  0.1796  1.5869
   98SAPC  C317 9770   0.447   2.922   4.602  0.2946 -0.6631  0.3437
   98SAPC  H17X 9771   0.339   2.938   4.620  0.2442 -0.1839 -0.3498
   98SAPC  H17Y 9772   0.491   2.918   4.704 -0.2903  1.5125  0.7237
   98SAPC  C318 9773   0.474   2.782   4.535  0.1643 -0.9551 -0.3612
   98SAPC  H18X 9774   0.443   2.777   4.428 -0.8461 -2.2619 -0.0352
   98SAPC  H18Y 9775   0.441   2.689   4.586  0.2392 -1.0555 -0.4912
   98SAPC  H18Z 9776   0.585   2.784   4.528  0.1532  1.7402 -0.6841
   99SAPC     N 9777   6.242   5.909   3.101 -0.9633 -0.1518  0.7831
   99SAPC   C12 9778   6.209   5.893   2.952  1.3058  1.2338 -0.3970
   99SAPC  H12A 9779   6.258   5.808   2.906 -0.3446 -0.2986  0.5444
   99SAPC  H12B 9780   6.234   5.985   2.901  2.0013  0.5346 -1.3592
   99SAPC   C13 9781   6.389   5.938   3.096  0.4843 -0.0026 -0.5332
   99SAPC  H13A 9782   6.421   5.937   3.199  0.4667 -2.6835 -0.4798
   99SAPC  H13B 9783   6.457   5.876   3.039 -2.0900 -4.4949  0.7554
   99SAPC  H13C 9784   6.403   6.038   3.057 -0.3714  1.0676  1.7400
   99SAPC   C14 9785   6.172   6.021   3.159 -1.3165 -0.0318 -0.6222
   99SAPC  H14A 9786   6.066   6.015   3.138 -1.7243  0.5415  1.1087
   99SAPC  H14B 9787   6.178   6.020   3.266 -0.8442 -0.9080 -0.6502
   99SAPC  H14C 9788   6.212   6.117   3.127  0.9790 -0.4211  0.8346
   99SAPC   C15 9789   6.204   5.783   3.179 -0.0213  0.8905 -0.3526
   99SAPC  H15A 9790   6.096   5.773   3.178 -0.0212  0.8027 -1.6504
   99SAPC  H15B 9791   6.247   5.702   3.122  2.6205  1.9036  0.0585
   99SAPC  H15C 9792   6.228   5.790   3.284 -2.6432  0.3811  0.3620
   99SAPC   C11 9793   6.059   5.862   2.920 -0.3342 -0.1159 -0.5356
   99SAPC  H11A 9794   6.018   5.779   2.981  1.4711 -0.7793 -0.1409
   99SAPC  H11B 9795   6.053   5.809   2.822  0.2872 -0.3869 -0.4359
   99SAPC     P 9796   5.959   6.104   2.841 -0.3769 -0.1182 -0.0964
   99SAPC   O13 9797   6.075   6.116   2.748  0.1988  0.0171 -0.2071
   99SAPC   O14 9798   5.821   6.091   2.781  0.1259 -0.2020  0.5986
   99SAPC   O12 9799   5.988   5.983   2.939 -0.6533  0.0951 -0.4036
   99SAPC   O11 9800   5.950   6.236   2.932  0.2541 -0.0156 -0.2539
   99SAPC    C1 9801   5.869   6.241   3.046  0.2522  0.2116 -0.3366
   99SAPC    HA 9802   5.765   6.231   3.007 -0.5539  2.7399  0.9578
   99SAPC    HB 9803   5.890   6.153   3.111 -0.0517 -0.9372 -1.7373
   99SAPC    C2 9804   5.881   6.377   3.127  0.1079  0.4212 -0.2425
   99SAPC    HS 9805   5.991   6.392   3.135  0.3677 -0.6804 -1.2778
   99SAPC   O21 9806   5.823   6.364   3.257 -0.1847  0.1630  0.5239
   99SAPC   C21 9807   5.893   6.285   3.345  0.3511  0.0404  0.6686
   99SAPC   O22 9808   6.005   6.247   3.327  0.3020  0.7935  0.0242
   99SAPC   C22 9809   5.814   6.273   3.474  0.2903 -0.2472  0.1587
   99SAPC   H2R 9810   5.818   6.373   3.522 -1.4926 -0.4290  0.7529
   99SAPC   H2S 9811   5.711   6.241   3.448  0.4094  0.2359 -0.9763
   99SAPC    C3 9812   5.817   6.495   3.050 -0.2062  0.4083 -0.4927
   99SAPC    HX 9813   5.712   6.478   3.017  0.3118 -1.1215 -1.4666
   99SAPC    HY 9814   5.871   6.510   2.954 -1.6389  1.2165 -1.1975
   99SAPC   O31 9815   5.833   6.619   3.129  0.4506  0.3573 -0.2753
   99SAPC   C31 9816   5.762   6.720   3.076 -0.2580 -0.6140  0.2514
   99SAPC   O32 9817   5.689   6.715   2.977 -0.0758 -0.0507 -0.0199
   99SAPC   C32 9818   5.789   6.847   3.159 -0.1929  0.1512  0.5221
   99SAPC   H2X 9819   5.798   6.922   3.078  0.3475  1.1243  1.4582
   99SAPC   H2Y 9820   5.888   6.835   3.206 -0.5997  0.4596  1.4869
   99SAPC   C23 9821   5.874   6.156   3.554  0.2250  0.2951 -0.2507
   99SAPC   H3R 9822   5.968   6.197   3.599  0.2303 -0.9607  0.9293
   99SAPC   H3S 9823   5.892   6.073   3.483  0.7901 -0.1512  0.4010
   99SAPC   C24 9824   5.800   6.115   3.681  0.2806  0.6366  0.4337
   99SAPC   H4R 9825   5.851   6.036   3.741  1.5828  0.6912 -0.5679
   99SAPC   H4S 9826   5.706   6.062   3.654  0.5001  1.5580 -2.4288
   99SAPC   C25 9827   5.765   6.227   3.770  0.4784 -0.3031  0.3560
   99SAPC   H5R 9828   5.710   6.308   3.720  1.5272  1.0428  1.2904
   99SAPC   C26 9829   5.796   6.241   3.900  0.4199  0.3714 -0.4055
   99SAPC   H6R 9830   5.764   6.332   3.953 -1.1948 -0.5964  0.3797
   99SAPC   C27 9831   5.876   6.142   3.991 -0.0978 -0.6822 -0.2015
   99SAPC   H7R 9832   5.940   6.204   4.057 -0.3978  0.7519 -1.1985
   99SAPC   H7S 9833   5.938   6.082   3.921  2.4835  1.0320  0.4496
   99SAPC   C28 9834   5.790   6.049   4.072 -0.0915 -0.4410  0.2227
   99SAPC   H8R 9835   5.762   5.952   4.029 -0.6066  0.0853 -0.6666
   99SAPC   C29 9836   5.746   6.069   4.193 -0.2581 -0.3194 -0.7056
   99SAPC   H9R 9837   5.675   5.993   4.231  0.1722  0.4797  1.9009
   99SAPC  C210 9838   5.761   6.193   4.280 -0.1132  0.2976  0.0244
   99SAPC  H10R 9839   5.686   6.264   4.240  1.1843  0.5409 -2.1216
   99SAPC  H10S 9840   5.860   6.241   4.268 -0.5284  1.4102  0.9095
   99SAPC  C211 9841   5.737   6.174   4.431  0.5143  0.5466 -0.1215
   99SAPC  H11R 9842   5.644   6.205   4.481  0.3546 -0.9029  0.5190
   99SAPC  C212 9843   5.827   6.125   4.517 -0.1136 -0.6764 -0.1819
   99SAPC  H12R 9844   5.799   6.128   4.623  3.2040 -0.0574  0.7909
   99SAPC  C213 9845   5.972   6.084   4.478  0.6115  0.1966 -0.6711
   99SAPC  H13R 9846   6.043   6.166   4.501 -1.1594  1.4447  0.5332
   99SAPC  H13S 9847   5.979   6.063   4.369 -1.1798  1.0637 -0.9882
   99SAPC  C214 9848   6.012   5.966   4.567 -0.2511  0.4632 -0.6762
   99SAPC  H14R 9849   6.008   5.863   4.527 -1.1750 -0.4022  1.4781
   99SAPC  C215 9850   6.062   5.977   4.694 -0.2091  0.0884 -1.0590
   99SAPC  H15R 9851   6.089   5.888   4.752 -0.9192  0.8842  0.5828
   99SAPC  C216 9852   6.082   6.109   4.767  0.0251 -0.3027  0.2732
   99SAPC  H16R 9853   5.981   6.152   4.783 -1.2069 -2.2552 -1.8008
   99SAPC  H16S 9854   6.130   6.192   4.710  0.1236 -1.3854 -1.2772
   99SAPC  C217 9855   6.149   6.079   4.902  0.7065  0.6983 -0.5380
   99SAPC  H17R 9856   6.253   6.045   4.883  0.7954  0.4052  0.3732
   99SAPC  H17S 9857   6.091   6.012   4.970 -0.4517  3.1504  1.0492
   99SAPC  C218 9858   6.162   6.206   4.980 -0.6230  0.2285  0.2308
   99SAPC  H18R 9859   6.064   6.257   4.995  0.5178  3.3177 -1.6862
   99SAPC  H18S 9860   6.232   6.272   4.924 -0.1674 -0.5802 -0.1668
   99SAPC  C219 9861   6.228   6.189   5.115 -0.4152 -0.3534  0.3175
   99SAPC  H19R 9862   6.184   6.106   5.175 -0.2067 -0.4772  0.3018
   99SAPC  H19S 9863   6.221   6.278   5.181  1.7442 -1.2120  1.8180
   99SAPC  C220 9864   6.371   6.148   5.116  0.5069  0.3607  0.3518
   99SAPC  H20R 9865   6.430   6.193   5.033 -2.6702  0.5769 -1.9850
   99SAPC  H20S 9866   6.371   6.040   5.093  1.3610  0.4771 -0.2521
   99SAPC  H20T 9867   6.406   6.158   5.221 -1.6873  2.2008  0.9728
   99SAPC   C33 9868   5.682   6.882   3.268  0.6717 -0.3357 -0.1798
   99SAPC   H3X 9869   5.693   6.820   3.360 -0.6860  1.1862  1.0745
   99SAPC   H3Y 9870   5.579   6.875   3.226 -0.1593  2.6078  1.0945
   99SAPC   C34 9871   5.703   7.029   3.305 -0.4370  0.5077  0.0238
   99SAPC   H4X 9872   5.705   7.093   3.214  2.9969 -0.6748 -0.8606
   99SAPC   H4Y 9873   5.798   7.051   3.357 -0.7532  1.6058  0.1709
   99SAPC   C35 9874   5.588   7.063   3.408 -0.2075  0.6935 -0.0318
   99SAPC   H5X 9875   5.495   7.017   3.368  0.6954  0.0529 -1.5008
   99SAPC   H5Y 9876   5.579   7.174   3.404  0.9344  0.8101  0.3244
   99SAPC   C36 9877   5.604   7.031   3.556  0.1080 -0.2449 -0.7619
   99SAPC   H6X 9878   5.684   7.089   3.607 -0.9784  0.9013 -0.3091
   99SAPC   H6Y 9879   5.623   6.926   3.588  0.0127  0.4024  1.5864
   99SAPC   C37 9880   5.486   7.075   3.645 -0.3595 -0.3158 -0.2463
   99SAPC   H7X 9881   5.398   7.016   3.613 -0.7864  0.4304 -0.4906
   99SAPC   H7Y 9882   5.472   7.177   3.603 -0.1222 -0.3481 -0.4049
   99SAPC   C38 9883   5.510   7.063   3.795 -0.3020 -0.6960 -0.0498
   99SAPC   H8X 9884   5.609   7.100   3.830 -0.2062 -0.5366 -0.4843
   99SAPC   H8Y 9885   5.511   6.954   3.814 -2.1204 -0.9832 -1.3107
   99SAPC   C39 9886   5.413   7.140   3.878 -0.4541 -0.1248 -0.2037
   99SAPC   H9X 9887   5.309   7.110   3.854 -0.2809 -2.0280  1.1841
   99SAPC   H9Y 9888   5.426   7.250   3.866 -2.2076  0.1549  0.2629
   99SAPC  C310 9889   5.420   7.109   4.031 -0.3384  0.0875  0.4491
   99SAPC  H10X 9890   5.358   7.174   4.096 -0.2042 -0.1041  0.7759
   99SAPC  H10Y 9891   5.523   7.124   4.071  1.0248 -2.2785 -1.8761
   99SAPC  C311 9892   5.384   6.964   4.066 -0.0072  0.0566  0.0645
   99SAPC  H11X 9893   5.465   6.897   4.029 -1.5580 -1.4899 -0.6640
   99SAPC  H11Y 9894   5.298   6.927   4.006 -1.5206  1.0601  1.5607
   99SAPC  C312 9895   5.364   6.937   4.215  0.0678 -0.0936 -0.6626
   99SAPC  H12X 9896   5.456   6.967   4.270  2.5208 -3.1069 -2.7514
   99SAPC  H12Y 9897   5.353   6.826   4.216 -2.7942  0.1192  0.0348
   99SAPC  C313 9898   5.237   6.997   4.285 -0.3408 -0.2640  0.3365
   99SAPC  H13X 9899   5.165   7.017   4.203 -1.1121  0.6217  1.1984
   99SAPC  H13Y 9900   5.248   7.102   4.322  0.5016  0.0002 -0.6172
   99SAPC  C314 9901   5.180   6.914   4.403 -0.0779 -0.2860  0.4300
   99SAPC  H14X 9902   5.175   6.808   4.370  2.9285 -0.2360 -0.5482
   99SAPC  H14Y 9903   5.075   6.946   4.415 -0.3497 -0.5882 -0.9419
   99SAPC  C315 9904   5.259   6.935   4.533 -0.1173  0.4544  0.4934
   99SAPC  H15X 9905   5.365   6.957   4.507 -0.0204 -0.2618  0.2893
   99SAPC  H15Y 9906   5.262   6.835   4.580  2.9462  0.9638  1.6320
   99SAPC  C316 9907   5.222   7.050   4.635  0.1408 -0.3860 -0.5602
   99SAPC  H16X 9908   5.111   7.053   4.644  0.1082 -1.4000 -0.4305
   99SAPC  H16Y 9909   5.249   7.149   4.594  0.0412  1.4827  3.4088
   99SAPC  C317 9910   5.285   7.032   4.775 -0.3019  0.0632 -0.1004
   99SAPC  H17X 9911   5.258   6.932   4.817  0.7338  0.0065  0.4507
   99SAPC  H17Y 9912   5.246   7.113   4.839  1.2248  1.0406 -0.3672
   99SAPC  C318 9913   5.439   7.046   4.781  0.6459 -0.2732 -0.6693
   99SAPC  H18X 9914   5.474   7.035   4.886  1.5990 -0.8172 -1.0334
   99SAPC  H18Y 9915   5.476   7.146   4.750 -0.6318  0.5705  0.3891
   99SAPC  H18Z 9916   5.492   6.964   4.727  3.4351  1.1903 -0.3332
  100SAPC     N 9917   4.119   0.826   2.476 -0.4956 -0.1051  0.0059
  100SAPC   C12 9918   4.056   0.758   2.594  0.4312 -1.0258 -0.0152
  100SAPC  H12A 9919   4.023   0.827   2.670 -2.4464  0.5951 -2.5452
  100SAPC  H12B 9920   4.140   0.712   2.646  2.1015  0.8383 -0.9042
  100SAPC   C13 9921   4.004   0.877   2.395 -0.0585 -0.4830 -0.0074
  100SAPC  H13A 9922   3.959   0.970   2.428 -0.5265 -0.3562 -0.9498
  100SAPC  H13B 9923   4.042   0.915   2.301  1.7930  0.7921  1.1800
  100SAPC  H13C 9924   3.918   0.812   2.390 -0.0160 -0.5422  0.0320
  100SAPC   C14 9925   4.203   0.939   2.514 -0.2568 -0.1530  0.2225
  100SAPC  H14A 9926   4.286   0.904   2.574 -0.7183 -2.2673 -0.2929
  100SAPC  H14B 9927   4.240   0.991   2.427 -0.9267  2.0447  1.1931
  100SAPC  H14C 9928   4.147   1.008   2.575 -0.4282  1.4179 -1.6022
  100SAPC   C15 9929   4.199   0.727   2.395  0.1974 -0.2699  0.0949
  100SAPC  H15A 9930   4.209   0.777   2.300 -1.1598 -1.6551 -0.8285
  100SAPC  H15B 9931   4.287   0.692   2.445  0.2757 -1.7656 -1.0285
  100SAPC  H15C 9932   4.143   0.640   2.364 -1.0651  0.6690 -0.3909
  100SAPC   C11 9933   3.952   0.654   2.567 -0.0475  0.3776  0.0705
  100SAPC  H11A 9934   3.949   0.588   2.657 -3.2161  1.8020  1.1453
  100SAPC  H11B 9935   3.973   0.580   2.487 -0.3398  0.2114  0.1454
  100SAPC     P 9936   3.741   0.804   2.628 -0.4738  0.1491 -0.1369
  100SAPC   O13 9937   3.801   0.943   2.607 -0.2651 -0.6119  0.3942
  100SAPC   O14 9938   3.596   0.789   2.601  0.3617  0.5026 -1.0225
  100SAPC   O12 9939   3.825   0.706   2.542 -0.2651  0.9294  0.6345
  100SAPC   O11 9940   3.762   0.760   2.780  0.1769  0.2842 -0.0572
  100SAPC    C1 9941   3.735   0.622   2.809 -0.8131  0.5441 -0.0639
  100SAPC    HA 9942   3.704   0.564   2.720 -1.0197  0.5145  0.0272
  100SAPC    HB 9943   3.820   0.577   2.865 -1.8327 -2.0384 -0.4385
  100SAPC    C2 9944   3.605   0.604   2.905  0.7070 -0.0759  0.1109
  100SAPC    HS 9945   3.524   0.657   2.852  1.1395  0.4388 -0.0401
  100SAPC   O21 9946   3.643   0.660   3.034  0.4880  0.3322  1.1525
  100SAPC   C21 9947   3.548   0.705   3.109 -0.1959 -0.6972 -0.4844
  100SAPC   O22 9948   3.429   0.703   3.084  0.2649 -0.0435 -0.1826
  100SAPC   C22 9949   3.612   0.741   3.242 -0.0854 -0.1081 -0.3597
  100SAPC   H2R 9950   3.722   0.748   3.226 -0.2420  2.6949 -0.7819
  100SAPC   H2S 9951   3.593   0.850   3.249  0.6337  0.5692 -5.4875
  100SAPC    C3 9952   3.585   0.455   2.923  0.4908  0.6314  0.2226
  100SAPC    HX 9953   3.683   0.406   2.944  0.3148  1.2119  2.6400
  100SAPC    HY 9954   3.549   0.406   2.830  0.5950  1.5023 -0.2830
  100SAPC   O31 9955   3.504   0.417   3.039  0.1361  0.5826 -0.0942
  100SAPC   C31 9956   3.374   0.413   3.009  0.1826 -0.2853  0.4644
  100SAPC   O32 9957   3.329   0.424   2.899  0.1982  0.4513 -0.0489
  100SAPC   C32 9958   3.297   0.398   3.136  0.0703  0.2722  0.3715
  100SAPC   H2X 9959   3.304   0.485   3.206 -0.0704  0.3693  0.2669
  100SAPC   H2Y 9960   3.336   0.310   3.190  0.7999 -0.2330 -0.9416
  100SAPC   C23 9961   3.577   0.645   3.359  0.5656  0.0946  0.2868
  100SAPC   H3R 9962   3.475   0.604   3.350  0.6326  0.0905 -0.5411
  100SAPC   H3S 9963   3.581   0.708   3.451  1.2319  0.2680  0.1459
  100SAPC   C24 9964   3.676   0.520   3.369 -0.3363 -0.1294  0.3155
  100SAPC   H4R 9965   3.773   0.555   3.412  1.0660 -1.5686 -1.4999
  100SAPC   H4S 9966   3.705   0.485   3.267 -2.3799 -4.0959  0.9438
  100SAPC   C25 9967   3.610   0.415   3.455 -0.1773 -0.2273 -0.0306
  100SAPC   H5R 9968   3.535   0.369   3.390 -0.5028 -0.0828  0.2411
  100SAPC   C26 9969   3.631   0.367   3.579 -0.4572  0.3950  0.1565
  100SAPC   H6R 9970   3.564   0.287   3.613 -0.9339  0.2490 -1.1016
  100SAPC   C27 9971   3.735   0.418   3.680 -0.2399  0.8127  0.1194
  100SAPC   H7R 9972   3.825   0.440   3.620 -1.4272  2.1061 -1.2568
  100SAPC   H7S 9973   3.780   0.334   3.738  2.1396  3.0105  1.6202
  100SAPC   C28 9974   3.704   0.539   3.772  0.9589 -0.0012 -0.1909
  100SAPC   H8R 9975   3.675   0.630   3.717 -0.3744 -1.6457 -2.3771
  100SAPC   C29 9976   3.694   0.536   3.908  0.0026 -0.1303 -0.9662
  100SAPC   H9R 9977   3.681   0.633   3.958  1.6512 -1.3594  2.1239
  100SAPC  C210 9978   3.703   0.426   4.007  0.2926  0.4050 -0.0283
  100SAPC  H10R 9979   3.673   0.336   3.949 -0.2190 -0.9785  2.2653
  100SAPC  H10S 9980   3.624   0.444   4.083  0.8631  0.5366  0.5415
  100SAPC  C211 9981   3.841   0.430   4.069 -0.4056  0.3887  0.2105
  100SAPC  H11R 9982   3.914   0.415   3.989 -1.7337 -0.2780 -0.9216
  100SAPC  C212 9983   3.877   0.439   4.201 -0.5099  0.2634  0.5540
  100SAPC  H12R 9984   3.985   0.433   4.225 -0.4436 -1.4271 -0.0491
  100SAPC  C213 9985   3.776   0.453   4.312 -0.5531  0.0668 -0.2023
  100SAPC  H13R 9986   3.779   0.370   4.385 -0.3885  0.0908 -0.1800
  100SAPC  H13S 9987   3.675   0.429   4.273 -0.9549  0.8521  0.3223
  100SAPC  C214 9988   3.767   0.587   4.390 -0.3154 -0.5301  0.5284
  100SAPC  H14R 9989   3.739   0.673   4.327 -0.3917 -1.4183 -0.6950
  100SAPC  C215 9990   3.779   0.604   4.526 -0.0417 -0.5544  0.5018
  100SAPC  H15R 9991   3.777   0.708   4.562 -0.1037 -0.2600 -0.3132
  100SAPC  C216 9992   3.828   0.507   4.630  0.2408  0.3780  0.0335
  100SAPC  H16R 9993   3.864   0.415   4.579  0.1194  0.0343  0.5663
  100SAPC  H16S 9994   3.738   0.473   4.685 -0.1434  1.0145 -0.1847
  100SAPC  C217 9995   3.928   0.568   4.734 -0.1765 -0.0187 -0.2000
  100SAPC  H17R 9996   3.876   0.644   4.796 -1.2729 -1.2001  0.3580
  100SAPC  H17S 9997   4.015   0.609   4.678  1.6199 -2.0083  0.9900
  100SAPC  C218 9998   3.974   0.464   4.836 -0.4898  0.6624  0.3662
  100SAPC  H18R 9999   3.885   0.423   4.889 -0.6606  1.7965  0.9712
  100SAPC  H18S10000   4.042   0.517   4.905 -0.1678  0.8246 -0.0714
  100SAPC  C21910001   4.061   0.354   4.765  0.2471 -0.4079  0.1040
  100SAPC  H19R10002   4.152   0.411   4.735  1.2238 -2.0399 -0.1404
  100SAPC  H19S10003   3.999   0.311   4.683  0.5680  1.1132 -0.9787
  100SAPC  C22010004   4.110   0.239   4.854  0.6359 -0.2133  0.2314
  100SAPC  H20R10005   4.162   0.162   4.792 -0.6661 -1.0000  0.0835
  100SAPC  H20S10006   4.028   0.182   4.902 -1.4054  0.9576 -1.7145
  100SAPC  H20T10007   4.166   0.301   4.927  0.4310 -0.8796  0.9669
  100SAPC   C3310008   3.150   0.376   3.109 -0.6956  0.4923 -0.4872
  100SAPC   H3X10009   3.131   0.271   3.079  0.0990  0.9263 -2.6828
  100SAPC   H3Y10010   3.120   0.447   3.029  2.6459 -0.5198 -2.8434
  100SAPC   C3410011   3.069   0.403   3.236  0.4128  0.5622  1.0509
  100SAPC   H4X10012   2.964   0.371   3.226  0.0594  2.0163 -0.2942
  100SAPC   H4Y10013   3.069   0.514   3.250 -0.3983  0.6687  0.2664
  100SAPC   C3510014   3.132   0.346   3.363 -0.5295 -0.2327  0.2583
  100SAPC   H5X10015   3.225   0.403   3.384 -1.5214  1.3099  0.6237
  100SAPC   H5Y10016   3.160   0.239   3.359 -0.2571 -0.1356 -1.2478
  100SAPC   C3610017   3.056   0.368   3.501  0.1761 -0.7098 -0.6244
  100SAPC   H6X10018   2.969   0.299   3.496  0.7308 -1.5099  0.4744
  100SAPC   H6Y10019   3.021   0.474   3.500 -1.2317 -1.1480 -0.2524
  100SAPC   C3710020   3.121   0.335   3.635 -0.0611  0.3073  0.3315
  100SAPC   H7X10021   3.124   0.225   3.643  2.1700  0.2432 -0.6451
  100SAPC   H7Y10022   3.050   0.368   3.714 -0.6766 -1.7406  0.6854
  100SAPC   C3810023   3.268   0.386   3.657 -0.2397  0.1616 -0.6272
  100SAPC   H8X10024   3.268   0.497   3.646  0.8446  0.3948  1.2210
  100SAPC   H8Y10025   3.321   0.330   3.578 -0.5188 -2.7985  1.1304
  100SAPC   C3910026   3.320   0.344   3.797 -0.0112 -0.2086 -0.0773
  100SAPC   H9X10027   3.430   0.358   3.804 -0.2682  1.6461  0.9400
  100SAPC   H9Y10028   3.298   0.235   3.801  0.0360 -0.1868  1.2840
  100SAPC  C31010029   3.256   0.415   3.921 -0.2800 -0.0863  0.3062
  100SAPC  H10X10030   3.145   0.413   3.921 -0.2811 -0.3927 -0.3925
  100SAPC  H10Y10031   3.285   0.522   3.918 -0.5213  0.0770  2.3023
  100SAPC  C31110032   3.307   0.352   4.053 -0.1155  0.6491  0.1282
  100SAPC  H11X10033   3.416   0.373   4.050 -0.1023  0.4592 -0.7656
  100SAPC  H11Y10034   3.289   0.243   4.062 -2.2981  1.0460  1.5011
  100SAPC  C31210035   3.234   0.411   4.177 -0.9999 -0.1352 -0.3808
  100SAPC  H12X10036   3.125   0.405   4.161 -1.4335 -0.3527  2.2741
  100SAPC  H12Y10037   3.260   0.519   4.186 -0.9759 -0.2373  1.0108
  100SAPC  C31310038   3.273   0.349   4.309 -0.0557 -0.0371 -0.4656
  100SAPC  H13X10039   3.291   0.240   4.301  0.1636 -0.1466  1.1538
  100SAPC  H13Y10040   3.188   0.360   4.379 -0.2117  0.8584 -0.7822
  100SAPC  C31410041   3.401   0.406   4.375  0.3815 -0.1957 -0.2619
  100SAPC  H14X10042   3.397   0.516   4.354 -0.5409 -0.1771 -0.0255
  100SAPC  H14Y10043   3.497   0.371   4.330  0.8616  1.3005 -0.4754
  100SAPC  C31510044   3.407   0.390   4.528  0.0277  0.5521 -0.8201
  100SAPC  H15X10045   3.511   0.400   4.566 -0.3472  1.4704  0.0255
  100SAPC  H15Y10046   3.376   0.285   4.547 -0.3324  0.8329  0.2509
  100SAPC  C31610047   3.336   0.484   4.630 -0.3156 -0.2624  0.7529
  100SAPC  H16X10048   3.357   0.444   4.731 -1.0065 -3.0506 -0.1164
  100SAPC  H16Y10049   3.228   0.463   4.618  0.0955 -1.7387 -0.6675
  100SAPC  C31710050   3.385   0.628   4.613 -0.0148 -0.2233  0.4349
  100SAPC  H17X10051   3.347   0.658   4.513  1.2860 -2.5674 -0.8512
  100SAPC  H17Y10052   3.496   0.626   4.606 -0.0807 -0.5713 -0.9364
  100SAPC  C31810053   3.339   0.718   4.725  0.0317 -0.3832 -0.0701
  100SAPC  H18X10054   3.386   0.818   4.726 -0.9080  0.0937 -1.0457
  100SAPC  H18Y10055   3.361   0.670   4.823 -1.0064 -0.4803  0.1262
  100SAPC  H18Z10056   3.228   0.730   4.727 -0.0494 -0.6801  2.9814
  101OSM      N10057   5.647   2.457   7.360  0.3598 -0.3958 -0.7523
  101OSM    C1510058   5.516   2.400   7.317 -0.3153 -0.4795  0.2177
  101OSM   H15A10059   5.433   2.418   7.384 -0.4362  0.8063 -0.2471
  101OSM   H15B10060   5.527   2.299   7.281  1.4287 -0.4955  0.7140
  101OSM   H15C10061   5.485   2.442   7.223 -0.8043 -0.0253  0.5820
  101OSM    C1410062   5.642   2.609   7.345 -0.1263 -0.6910  0.0690
  101OSM   H14A10063   5.635   2.628   7.239 -0.4403  1.6998  0.4738
  101OSM   H14B10064   5.739   2.644   7.378 -0.4079 -0.6975  0.9243
  101OSM   H14C10065   5.562   2.652   7.404  1.4587  3.3240 -0.3954
  101OSM    C1310066   5.657   2.425   7.501  0.5832  0.0417 -0.1379
  101OSM   H13A10067   5.566   2.459   7.548 -0.1753  0.0484 -1.5617
  101OSM   H13B10068   5.744   2.468   7.549 -0.0008  1.2848 -0.1373
  101OSM   H13C10069   5.651   2.319   7.518 -3.1195  0.0439 -0.6320
  101OSM    C1210070   5.768   2.403   7.283  0.2701 -1.3525  0.8009
  101OSM   H12A10071   5.771   2.295   7.292  2.4672 -1.3613  0.6092
  101OSM   H12B10072   5.862   2.446   7.315 -0.4800  0.6682  0.4087
  101OSM    C1110073   5.764   2.423   7.129  0.4148  0.8811  0.5754
  101OSM   H11A10074   5.669   2.379   7.090  1.0484  0.5352 -0.6317
  101OSM   H11B10075   5.846   2.360   7.087 -0.2760  0.1992  0.2216
  101OSM      P10076   5.894   2.625   7.058  0.5137  0.1827 -0.3914
  101OSM    O1310077   5.884   2.771   7.065  0.3344  0.4805  0.4218
  101OSM    O1410078   6.000   2.562   7.142 -0.1050  0.1788 -0.5489
  101OSM    O1110079   5.911   2.587   6.914 -0.0719  0.3076 -0.8115
  101OSM    O1210080   5.759   2.558   7.093  0.0161  0.0739  0.3803
  101OSM    C1S10081   5.814   2.597   6.815  0.0138  0.2039  0.8497
  101OSM    H1S10082   5.801   2.707   6.806  0.5255  0.1107 -1.7495
  101OSM    H1T10083   5.720   2.545   6.843  1.0300 -1.6043  1.0489
  101OSM     NF10084   5.781   2.604   6.570  0.2536  0.9111 -0.2856
  101OSM    HNF10085   5.710   2.538   6.545 -0.5837  1.4583  0.5603
  101OSM    C2S10086   5.856   2.544   6.675 -0.8584  0.5008 -0.1678
  101OSM    H2S10087   5.962   2.571   6.655 -0.9025  0.2545 -0.7665
  101OSM    C3S10088   5.852   2.393   6.683 -0.0267 -0.0250  0.7954
  101OSM    H3S10089   5.747   2.359   6.690  0.1735 -0.7164  0.5355
  101OSM     O310090   5.911   2.343   6.801  0.0290  0.0987  0.3846
  101OSM    HO310091   5.925   2.420   6.857 -1.6301 -0.1339  1.1765
  101OSM    C4S10092   5.919   2.329   6.566 -0.6173 -0.5560 -0.2345
  101OSM    H4S10093   6.029   2.339   6.574 -0.7109 -0.9805  2.0851
  101OSM    C5S10094   5.864   2.267   6.461 -0.0092  0.0127 -0.3612
  101OSM    H5S10095   5.755   2.254   6.453 -0.0830 -0.8139  1.4591
  101OSM    C6S10096   5.932   2.206   6.342  0.4745 -0.1437 -1.1138
  101OSM    H6S10097   5.885   2.105   6.341  1.8652 -0.8257 -1.0986
  101OSM    H6T10098   6.042   2.189   6.349  0.5700 -0.6813 -3.1313
  101OSM    C7S10099   5.902   2.264   6.205 -0.1421 -0.1905  0.5919
  101OSM    H7S10100   5.939   2.369   6.202  0.0972 -0.2674 -2.3794
  101OSM    H7T10101   5.793   2.270   6.186  0.2548 -0.7798 -2.5247
  101OSM    C8S10102   5.956   2.180   6.083 -0.4306  0.6684  0.1205
  101OSM    H8S10103   5.919   2.076   6.072  0.4726  0.5062 -1.8350
  101OSM    H8T10104   6.062   2.155   6.102 -1.5455 -3.0532  2.4004
  101OSM    C9S10105   5.935   2.254   5.948 -0.3513  0.0278 -0.4110
  101OSM    H9S10106   5.988   2.351   5.958  2.1158 -1.1832 -0.9977
  101OSM    H9T10107   5.829   2.282   5.930 -0.5429  0.0646  0.6857
  101OSM   C10S10108   5.995   2.183   5.829 -0.0018 -0.3911 -0.1883
  101OSM   H10S10109   5.960   2.078   5.819  1.2174 -0.6812 -1.8114
  101OSM   H10T10110   6.103   2.162   5.845 -0.1857 -2.3570 -1.2871
  101OSM   C11S10111   5.983   2.244   5.692  0.0916 -0.0538 -0.0408
  101OSM   H11S10112   6.028   2.346   5.698  3.5977 -1.5226  1.5392
  101OSM   H11T10113   5.877   2.248   5.658  0.6664  0.6037 -1.8560
  101OSM   C12S10114   6.049   2.168   5.571 -0.2410  0.1250 -0.3254
  101OSM   H12S10115   6.014   2.063   5.558  0.4395 -0.1716  0.1285
  101OSM   H12T10116   6.160   2.166   5.585 -0.5590  0.0385  3.2035
  101OSM   C13S10117   6.027   2.222   5.434 -0.5741 -0.1820  0.1010
  101OSM   H13S10118   6.098   2.182   5.358 -1.4920 -1.4269 -0.1220
  101OSM   H13T10119   6.051   2.331   5.439  0.6442 -0.4036 -0.6181
  101OSM   C14S10120   5.890   2.203   5.377  0.0242 -0.5252 -0.3799
  101OSM   H14S10121   5.815   2.255   5.440  0.9001 -0.3494  0.5417
  101OSM   H14T10122   5.858   2.098   5.358  3.6196 -1.4235 -2.4103
  101OSM   C15S10123   5.882   2.263   5.229  0.0529  0.0951 -0.2837
  101OSM   H15S10124   5.953   2.211   5.162  0.7085 -1.8351  1.8054
  101OSM   H15T10125   5.923   2.366   5.217 -0.8750  0.6529  1.0276
  101OSM   C16S10126   5.737   2.263   5.175 -0.3482 -1.3793  0.5795
  101OSM   H16S10127   5.668   2.310   5.248 -0.4703  1.2481 -1.0893
  101OSM   H16T10128   5.703   2.161   5.146 -0.3417 -0.6346 -2.3295
  101OSM   C17S10129   5.721   2.346   5.051 -0.6256 -1.0633 -0.0200
  101OSM   H17S10130   5.645   2.290   4.993 -1.0588 -1.5147  0.9552
  101OSM   H17T10131   5.811   2.338   4.986 -1.3769 -0.2615 -1.1856
  101OSM   C18S10132   5.684   2.488   5.080 -0.7442 -0.1727 -0.3581
  101OSM   H18S10133   5.630   2.493   5.177  0.8058 -0.9922  0.5883
  101OSM   H18T10134   5.617   2.519   4.998 -1.9003  0.0881  0.6601
  101OSM   H18U10135   5.772   2.555   5.092 -1.1577  0.4265 -0.6593
  101OSM    C1F10136   5.782   2.733   6.540 -0.2569 -0.7202 -0.0753
  101OSM     OF10137   5.860   2.808   6.587 -0.4434  0.6131  0.2278
  101OSM    C2F10138   5.673   2.780   6.447 -0.3945 -0.1186 -0.4470
  101OSM    H2F10139   5.574   2.734   6.468 -0.3306 -0.4988 -0.9723
  101OSM    H2G10140   5.699   2.749   6.344  1.6888  0.5136 -0.1413
  101OSM    C3F10141   5.657   2.937   6.448 -0.2864  0.7806  0.2758
  101OSM    H3F10142   5.756   2.985   6.433 -0.5866  1.2513 -0.2097
  101OSM    H3G10143   5.634   2.972   6.551  0.4857  0.4778  0.5563
  101OSM    C4F10144   5.545   2.994   6.359 -0.6763  0.0815 -0.5092
  101OSM    H4F10145   5.526   3.096   6.399 -3.4353  0.7021 -3.0509
  101OSM    H4G10146   5.448   2.943   6.377 -0.2850 -1.0295 -1.4083
  101OSM    C5F10147   5.559   2.985   6.213  0.5901 -0.1333  0.5364
  101OSM    H5F10148   5.561   2.877   6.187  1.9795  0.0035 -0.0338
  101OSM    H5G10149   5.658   3.022   6.178  0.9386 -1.4810  0.0151
  101OSM    C6F10150   5.441   3.054   6.133  0.0931 -0.1887  0.0398
  101OSM    H6F10151   5.426   3.156   6.175 -1.0244 -0.1383 -0.4438
  101OSM    H6G10152   5.343   3.004   6.145 -0.7404  1.4936  0.6036
  101OSM    C7F10153   5.477   3.057   5.985  0.3263  0.0810  0.7300
  101OSM    H7F10154   5.519   2.958   5.958  1.8280  0.5831  1.1183
  101OSM    H7G10155   5.547   3.142   5.967  0.3985  0.2003  1.5328
  101OSM    C8F10156   5.348   3.077   5.900  0.0961  0.0775  0.1696
  101OSM    H8F10157   5.297   3.168   5.938  1.2408  0.9885 -0.4010
  101OSM    H8G10158   5.278   2.994   5.918 -1.5742  1.2135 -0.8015
  101OSM    C9F10159   5.387   3.071   5.751 -0.2781  0.6068 -0.6339
  101OSM    H9F10160   5.411   2.970   5.717  0.9851  0.5483  0.3404
  101OSM   C10F10161   5.388   3.176   5.668 -0.2299 -0.0660  0.1019
  101OSM   H10F10162   5.401   3.167   5.559  0.4390  3.3918 -0.2059
  101OSM   C11F10163   5.338   3.312   5.704 -0.3492  0.2168  0.5675
  101OSM   H11F10164   5.423   3.383   5.700 -0.5798  0.9273  4.5623
  101OSM   H11G10165   5.296   3.313   5.807 -2.9914 -1.7143 -0.3754
  101OSM   C12F10166   5.218   3.361   5.618  0.2615  0.3200  0.7663
  101OSM   H12F10167   5.188   3.460   5.658  0.1460  0.5484  0.1120
  101OSM   H12G10168   5.127   3.300   5.638  0.1243  0.5271  0.7709
  101OSM   C13F10169   5.248   3.365   5.466 -0.2591 -0.5730  0.2995
  101OSM   H13F10170   5.277   3.263   5.432  2.8868  0.6059 -1.0218
  101OSM   H13G10171   5.334   3.428   5.433 -0.2920 -1.0872 -0.8144
  101OSM   C14F10172   5.130   3.410   5.377  0.9341  0.7897 -0.9164
  101OSM   H14F10173   5.101   3.508   5.422  0.5462  0.5673 -0.6767
  101OSM   H14G10174   5.056   3.329   5.394  0.4024  1.7185  1.6678
  101OSM   C15F10175   5.170   3.434   5.230 -0.3845  0.1206 -0.7448
  101OSM   H15F10176   5.232   3.350   5.192  0.4689  0.0349  0.7582
  101OSM   H15G10177   5.231   3.526   5.230 -1.3276  0.7696  0.1984
  101OSM   C16F10178   5.046   3.449   5.142 -0.8557 -0.0457 -0.0153
  101OSM   H16F10179   5.071   3.515   5.056 -2.4322  1.0190  0.2863
  101OSM   H16G10180   4.971   3.509   5.198 -1.4213 -0.4707 -0.3045
  101OSM   C17F10181   4.991   3.319   5.086  0.1078 -0.2357  1.4635
  101OSM   H17F10182   4.945   3.257   5.166 -2.3912 -0.8562 -0.3013
  101OSM   H17G10183   5.069   3.258   5.037 -1.4166  1.5295 -3.8866
  101OSM   C18F10184   4.886   3.332   4.977  0.2642 -0.7088 -0.3703
  101OSM   H18F10185   4.928   3.379   4.886 -0.0564  0.6335  0.1421
  101OSM   H18G10186   4.814   3.409   5.012  0.2720 -1.5593  1.6867
  101OSM   H18H10187   4.834   3.236   4.958  0.5821 -1.0425  0.3774
  102OSM      N10188   0.052   1.128   7.566  0.1981 -0.0871  0.4539
  102OSM    C1510189  -0.081   1.075   7.524  0.2143 -0.0444  0.1286
  102OSM   H15A10190  -0.148   1.123   7.594  0.1790  0.3354 -0.1647
  102OSM   H15B10191  -0.089   0.970   7.547 -1.7386 -0.4063 -1.8802
  102OSM   H15C10192  -0.107   1.086   7.420 -0.8987 -0.4922  0.3510
  102OSM    C1410193   0.059   1.116   7.716  0.0096 -0.4714 -0.2576
  102OSM   H14A10194   0.158   1.118   7.760 -0.0094 -0.9429 -0.1903
  102OSM   H14B10195   0.015   1.026   7.755  1.0968 -0.2868  1.5305
  102OSM   H14C10196  -0.006   1.187   7.764 -0.3925 -2.0910  1.7473
  102OSM    C1310197   0.151   1.034   7.506 -0.1837  0.7297 -0.5183
  102OSM   H13A10198   0.136   1.031   7.399  3.3111  1.3983 -1.1548
  102OSM   H13B10199   0.156   0.934   7.547  3.4513  0.7132 -0.6790
  102OSM   H13C10200   0.251   1.074   7.516  0.3172 -0.7502  0.9132
  102OSM    C1210201   0.081   1.262   7.519 -0.6811  0.1557  0.3331
  102OSM   H12A10202   0.166   1.303   7.572  0.0731 -1.1296  0.1661
  102OSM   H12B10203  -0.009   1.321   7.529  0.8457  2.9302 -1.1325
  102OSM    C1110204   0.099   1.279   7.366  0.1835  0.4321  0.5628
  102OSM   H11A10205   0.189   1.220   7.338 -0.6347 -0.5331 -0.1016
  102OSM   H11B10206   0.129   1.383   7.340  2.0928 -0.7408 -2.5201
  102OSM      P10207  -0.133   1.316   7.266  0.1020  0.2435  0.4405
  102OSM    O1310208  -0.228   1.246   7.178 -0.6258 -0.3100 -0.8552
  102OSM    O1410209  -0.187   1.386   7.383 -0.1422  0.4985  0.3429
  102OSM    O1110210  -0.072   1.435   7.182 -0.4796 -0.0927  0.6727
  102OSM    O1210211  -0.008   1.225   7.291 -0.4799  0.0727  0.4389
  102OSM    C1S10212   0.022   1.423   7.070  0.1534 -0.3858 -0.4453
  102OSM    H1S10213   0.063   1.320   7.062  0.7232 -0.2898  0.8895
  102OSM    H1T10214   0.103   1.495   7.092  0.4357 -0.4663 -1.2102
  102OSM     NF10215   0.024   1.445   6.817 -0.0448 -0.3832 -0.0229
  102OSM    HNF10216   0.090   1.509   6.776 -0.4355 -1.1924 -2.0579
  102OSM    C2S10217  -0.052   1.480   6.939 -0.6805  0.0004  0.4057
  102OSM    H2S10218  -0.154   1.436   6.927 -1.0159  0.4758  1.4077
  102OSM    C3S10219  -0.064   1.635   6.948  0.0182 -0.1049 -0.4127
  102OSM    H3S10220   0.037   1.682   6.953  0.5303 -1.2865  3.4113
  102OSM     O310221  -0.136   1.673   7.065  0.4687 -0.7374  0.1176
  102OSM    HO310222  -0.121   1.609   7.135 -0.6681  0.8463  1.9140
  102OSM    C4S10223  -0.134   1.695   6.829 -0.2046 -0.1544  0.6077
  102OSM    H4S10224  -0.240   1.668   6.822  0.0540 -0.8881 -1.3897
  102OSM    C5S10225  -0.073   1.765   6.728  0.1984 -0.6533  0.1031
  102OSM    H5S10226   0.033   1.787   6.745  0.4772 -2.0949  0.4492
  102OSM    C6S10227  -0.141   1.829   6.610 -0.4845  0.0800 -0.4864
  102OSM    H6S10228  -0.109   1.935   6.607  0.5263  0.0163  3.1977
  102OSM    H6T10229  -0.252   1.838   6.619 -0.7177  0.0990 -2.7343
  102OSM    C7S10230  -0.111   1.772   6.466 -0.0051 -0.6043 -1.0208
  102OSM    H7S10231  -0.162   1.673   6.470  0.2304 -0.7252 -0.9967
  102OSM    H7T10232  -0.001   1.762   6.459  0.1565  0.4329 -0.1978
  102OSM    C8S10233  -0.193   1.864   6.366 -0.7008  0.2206  0.3047
  102OSM    H8S10234  -0.171   1.970   6.389 -2.1366  0.8926 -1.2241
  102OSM    H8T10235  -0.302   1.843   6.372 -0.5668 -1.9841 -2.3340
  102OSM    C9S10236  -0.161   1.836   6.215 -0.3749 -0.0531  0.1458
  102OSM    H9S10237  -0.209   1.743   6.177  1.2353 -1.0333  0.4222
  102OSM    H9T10238  -0.052   1.823   6.202 -0.3450  0.3404 -0.0068
  102OSM   C10S10239  -0.201   1.943   6.114  0.0646 -0.3761 -0.0626
  102OSM   H10S10240  -0.139   2.033   6.135  1.1864 -1.1713  0.1290
  102OSM   H10T10241  -0.308   1.973   6.114  0.0149 -0.4593 -1.8493
  102OSM   C11S10242  -0.187   1.906   5.961  0.1298 -0.9537 -0.6043
  102OSM   H11S10243  -0.248   1.814   5.948  0.3745 -1.3851  1.0333
  102OSM   H11T10244  -0.083   1.873   5.938 -0.9489 -3.3912 -2.5315
  102OSM   C12S10245  -0.235   2.012   5.858  0.7751 -0.4184 -0.2872
  102OSM   H12S10246  -0.164   2.098   5.849  0.4144 -0.1202 -0.3233
  102OSM   H12T10247  -0.332   2.046   5.900  0.8115 -0.6002 -0.0535
  102OSM   C13S10248  -0.256   1.962   5.715 -0.4769 -0.2524  0.2458
  102OSM   H13S10249  -0.319   1.871   5.705 -2.0482  0.7401  0.9229
  102OSM   H13T10250  -0.156   1.949   5.667 -0.5106 -0.8839  0.3341
  102OSM   C14S10251  -0.327   2.059   5.623 -0.6287  0.1353  0.3672
  102OSM   H14S10252  -0.286   2.159   5.650  0.5583  0.1503 -1.3106
  102OSM   H14T10253  -0.435   2.064   5.649 -0.2863 -0.6984  2.0682
  102OSM   C15S10254  -0.289   2.043   5.469  0.1654  0.3508 -0.1981
  102OSM   H15S10255  -0.211   1.964   5.458 -0.8891 -0.7120 -0.2214
  102OSM   H15T10256  -0.241   2.135   5.430 -0.7088  1.1909  0.6358
  102OSM   C16S10257  -0.398   1.998   5.375 -0.5101  0.0951 -0.2779
  102OSM   H16S10258  -0.497   2.047   5.389 -0.5119 -0.3213  1.4585
  102OSM   H16T10259  -0.415   1.889   5.390 -1.7340  0.1626 -1.0225
  102OSM   C17S10260  -0.350   2.020   5.228  0.2210 -0.7609 -0.1447
  102OSM   H17S10261  -0.262   1.957   5.207  1.2495  0.8295 -0.8054
  102OSM   H17T10262  -0.318   2.127   5.221 -2.0999 -0.1126 -2.1202
  102OSM   C18S10263  -0.465   2.008   5.129 -0.5414  0.5006  0.3207
  102OSM   H18S10264  -0.532   2.094   5.147 -0.1680  1.1590 -1.2968
  102OSM   H18T10265  -0.512   1.909   5.147 -1.2702  0.6909 -0.4766
  102OSM   H18U10266  -0.419   2.020   5.029  2.6857 -1.1525  1.4264
  102OSM    C1F10267   0.008   1.328   6.762  0.2404 -0.3020  0.7430
  102OSM     OF10268  -0.071   1.244   6.802 -0.4218 -0.0122  0.4738
  102OSM    C2F10269   0.075   1.311   6.635 -0.0434 -0.3583 -0.2823
  102OSM    H2F10270   0.178   1.350   6.640  0.0192 -0.6524  1.1763
  102OSM    H2G10271   0.020   1.378   6.566 -2.3253  0.5599  2.2350
  102OSM    C3F10272   0.083   1.169   6.581  0.0470  0.2965  0.2651
  102OSM    H3F10273  -0.016   1.119   6.578 -0.1846  0.6955  1.0274
  102OSM    H3G10274   0.158   1.111   6.639  2.5883  3.1959  0.1398
  102OSM    C4F10275   0.147   1.173   6.439 -0.2686 -0.5010  0.1630
  102OSM    H4F10276   0.250   1.213   6.443 -0.4057 -0.0226 -0.8881
  102OSM    H4G10277   0.087   1.238   6.372 -0.1924 -0.7950 -0.1881
  102OSM    C5F10278   0.173   1.037   6.356  0.3769 -0.4717 -0.3930
  102OSM    H5F10279   0.084   0.971   6.358 -0.7572  1.0268  1.7474
  102OSM    H5G10280   0.264   0.987   6.395  1.5874  1.5772 -0.4229
  102OSM    C6F10281   0.219   1.064   6.211 -0.3259 -0.1063  0.4903
  102OSM    H6F10282   0.256   0.974   6.158 -2.3349  0.3406 -1.8240
  102OSM    H6G10283   0.288   1.151   6.214  0.3476 -0.6426  1.0948
  102OSM    C7F10284   0.090   1.100   6.131  0.7899  0.0863 -0.1500
  102OSM    H7F10285   0.120   1.189   6.071  1.2738  2.8783  3.8381
  102OSM    H7G10286   0.001   1.122   6.194  0.7443 -2.7406  0.9067
  102OSM    C8F10287   0.045   0.997   6.033  0.2403 -0.0835  0.6179
  102OSM    H8F10288  -0.065   1.003   6.020  0.2476 -2.5801 -1.4682
  102OSM    H8G10289   0.036   0.899   6.085  1.0988 -0.6576 -0.2810
  102OSM    C9F10290   0.128   0.990   5.905  0.0764  0.2041 -0.1130
  102OSM    H9F10291   0.238   0.989   5.912  0.2724 -0.4987 -2.4496
  102OSM   C10F10292   0.089   0.988   5.781  0.9608  0.0928  0.3082
  102OSM   H10F10293   0.168   0.999   5.706 -1.6838  0.6525 -2.6065
  102OSM   C11F10294  -0.051   0.988   5.718  0.0975 -0.2747 -0.2416
  102OSM   H11F10295  -0.128   1.012   5.794 -0.2408 -2.4488  0.1510
  102OSM   H11G10296  -0.070   0.883   5.690  0.9593  0.0317 -2.1890
  102OSM   C12F10297  -0.078   1.066   5.589  0.8754  0.5079 -1.0834
  102OSM   H12F10298   0.001   1.042   5.515  2.0931 -0.7390  0.5400
  102OSM   H12G10299  -0.084   1.177   5.599  1.7566  0.4682  0.0703
  102OSM   C13F10300  -0.224   1.046   5.533  0.2068  0.1680  0.3144
  102OSM   H13F10301  -0.309   1.069   5.601 -1.7467  0.2168 -1.9913
  102OSM   H13G10302  -0.233   0.937   5.514 -1.4850  0.4790 -0.9484
  102OSM   C14F10303  -0.266   1.130   5.406 -0.2670 -0.0055 -0.8862
  102OSM   H14F10304  -0.182   1.131   5.333  0.7912 -0.0172  0.3114
  102OSM   H14G10305  -0.287   1.227   5.456  0.3483 -1.4583  2.4551
  102OSM   C15F10306  -0.386   1.071   5.334 -0.4474  0.1196 -0.0668
  102OSM   H15F10307  -0.474   1.060   5.401 -0.2321  0.2593  0.2409
  102OSM   H15G10308  -0.356   0.971   5.296  2.3191 -0.0264  2.1855
  102OSM   C16F10309  -0.446   1.156   5.217  0.2429  0.5035 -0.6991
  102OSM   H16F10310  -0.361   1.180   5.149 -0.2645  1.2601 -1.0744
  102OSM   H16G10311  -0.495   1.247   5.256 -0.6761 -1.4058  3.0476
  102OSM   C17F10312  -0.550   1.074   5.137 -0.6176 -0.3523 -0.5438
  102OSM   H17F10313  -0.496   0.985   5.100 -1.1760 -1.4331  1.1457
  102OSM   H17G10314  -0.573   1.137   5.049  0.5486  0.1020 -0.5405
  102OSM   C18F10315  -0.684   1.040   5.211  0.1410 -0.0857 -0.6797
  102OSM   H18F10316  -0.663   0.971   5.296  0.4167  1.2057  0.3299
  102OSM   H18G10317  -0.764   0.995   5.148 -0.1078 -0.3274 -0.1938
  102OSM   H18H10318  -0.727   1.134   5.252  1.0241  0.0004  0.0767
  103OSM      N10319   2.626   2.964   7.014  0.1637  0.1829 -0.3660
  103OSM    C1510320   2.665   2.838   6.933 -0.5151  0.2093  0.8146
  103OSM   H15A10321   2.742   2.858   6.861 -0.1968 -4.2718 -0.4245
  103OSM   H15B10322   2.582   2.794   6.879 -0.4770  0.2155  0.7504
  103OSM   H15C10323   2.703   2.761   6.999 -1.6101 -0.7531  0.3640
  103OSM    C1410324   2.513   3.035   6.939  0.1700  0.4794 -0.2020
  103OSM   H14A10325   2.446   3.085   7.008 -0.6106  0.7311 -1.1261
  103OSM   H14B10326   2.449   2.970   6.881 -1.6952  0.4130  1.7982
  103OSM   H14C10327   2.556   3.109   6.873  0.7273  0.1966 -0.1550
  103OSM    C1310328   2.584   2.916   7.145 -0.0657  0.5999 -0.1298
  103OSM   H13A10329   2.559   2.992   7.218 -0.6869  0.0218  0.2626
  103OSM   H13B10330   2.667   2.863   7.190  1.7867  3.0541 -0.4454
  103OSM   H13C10331   2.506   2.845   7.121 -1.1182  2.2820 -1.9911
  103OSM    C1210332   2.737   3.059   7.031  0.0408 -0.1663 -0.7762
  103OSM   H12A10333   2.812   3.019   7.098 -0.2125  0.4512 -0.1204
  103OSM   H12B10334   2.704   3.145   7.087  0.6234  0.4247 -1.3120
  103OSM    C1110335   2.817   3.111   6.910 -0.6918 -0.6464 -0.0734
  103OSM   H11A10336   2.873   3.204   6.933 -1.1870 -0.5793  0.8888
  103OSM   H11B10337   2.747   3.157   6.837  1.4594  0.9650 -1.2750
  103OSM      P10338   3.034   2.973   6.931  0.4733 -0.3621 -0.1117
  103OSM    O1310339   3.019   2.976   7.080  0.5517 -0.7385 -0.3891
  103OSM    O1410340   3.090   2.850   6.866  0.2997  0.5471  0.0782
  103OSM    O1110341   3.137   3.093   6.896  0.6622  0.8411 -0.3120
  103OSM    O1210342   2.904   3.010   6.843  0.2096 -0.4636  0.7465
  103OSM    C1S10343   3.234   3.085   6.789  0.9885  0.0703  0.0527
  103OSM    H1S10344   3.288   2.988   6.780 -1.1405 -1.3210  1.2977
  103OSM    H1T10345   3.308   3.167   6.799  0.7636  0.3597 -0.5982
  103OSM     NF10346   3.271   3.090   6.542 -0.4542  0.4461 -0.2821
  103OSM    HNF10347   3.298   3.176   6.499  1.3785  0.8283  1.4759
  103OSM    C2S10348   3.174   3.100   6.646  0.4421 -0.2205 -0.0004
  103OSM    H2S10349   3.101   3.017   6.631  0.3051  0.3668 -3.1078
  103OSM    C3S10350   3.084   3.222   6.621 -0.3570  0.1272  0.3599
  103OSM    H3S10351   3.155   3.307   6.627 -0.8959  0.4956  3.2245
  103OSM     O310352   2.981   3.247   6.717  0.1394  0.2597 -0.2087
  103OSM    HO310353   2.988   3.176   6.782  2.5582 -0.8179 -1.5414
  103OSM    C4S10354   3.018   3.225   6.488  0.0607 -0.2796  0.0827
  103OSM    H4S10355   2.953   3.138   6.473 -0.5543  0.2682 -0.5334
  103OSM    C5S10356   3.038   3.309   6.384 -0.3852 -0.3772  0.4729
  103OSM    H5S10357   3.114   3.388   6.388  0.1829 -0.8462 -0.6150
  103OSM    C6S10358   2.974   3.295   6.246  0.0143 -0.4067 -0.4084
  103OSM    H6S10359   2.937   3.398   6.226  0.7921 -0.1013 -0.3263
  103OSM    H6T10360   2.889   3.224   6.249  0.3370 -0.7637  1.0268
  103OSM    C7S10361   3.073   3.268   6.128  0.2524 -0.7375  0.1091
  103OSM    H7S10362   3.089   3.158   6.120 -1.0471 -1.0340  1.2043
  103OSM    H7T10363   3.173   3.307   6.157  1.0647 -2.3605 -0.3901
  103OSM    C8S10364   3.013   3.323   5.997 -0.0672 -0.4796  0.3514
  103OSM    H8S10365   3.023   3.433   5.994  1.2486 -0.5831  0.2634
  103OSM    H8T10366   2.907   3.293   5.987  0.2387 -1.9899  1.2560
  103OSM    C9S10367   3.104   3.269   5.879 -0.2319  0.3923 -0.5141
  103OSM    H9S10368   3.101   3.158   5.873  2.5046  0.0104  2.6652
  103OSM    H9T10369   3.212   3.280   5.902 -0.5186 -1.4309  2.1288
  103OSM   C10S10370   3.074   3.353   5.754  0.0628  0.6384 -0.6148
  103OSM   H10S10371   3.082   3.462   5.775  1.2169  0.8670 -2.0956
  103OSM   H10T10372   2.972   3.336   5.715 -0.4186 -1.1187  1.2331
  103OSM   C11S10373   3.169   3.328   5.649  0.6367 -0.1511  0.5118
  103OSM   H11S10374   3.189   3.221   5.627  3.2617 -0.1336  2.4005
  103OSM   H11T10375   3.264   3.380   5.672 -0.3788  1.6088  0.9751
  103OSM   C12S10376   3.111   3.382   5.515 -0.3575 -0.1069 -0.8471
  103OSM   H12S10377   3.091   3.491   5.516  2.3918  0.6009 -4.0466
  103OSM   H12T10378   3.018   3.324   5.498 -1.3574  1.8616 -2.5117
  103OSM   C13S10379   3.201   3.358   5.391  0.1742 -0.4681  0.1936
  103OSM   H13S10380   3.187   3.250   5.370  2.2558 -1.3339  2.7092
  103OSM   H13T10381   3.310   3.368   5.405 -0.1531  0.4726  2.5417
  103OSM   C14S10382   3.154   3.449   5.276  0.5401 -0.0578 -0.1817
  103OSM   H14S10383   3.170   3.558   5.291  0.9485 -0.0981 -0.3095
  103OSM   H14T10384   3.045   3.434   5.261  0.1262 -0.8198  2.9437
  103OSM   C15S10385   3.220   3.411   5.147  0.0709 -0.0572  0.0732
  103OSM   H15S10386   3.200   3.307   5.113 -3.4061 -0.0807  1.7174
  103OSM   H15T10387   3.327   3.426   5.171 -0.5570  2.4467  1.6676
  103OSM   C16S10388   3.196   3.512   5.036  0.4319  0.3171 -0.1507
  103OSM   H16S10389   3.213   3.618   5.067  2.2720  0.5493 -1.7085
  103OSM   H16T10390   3.090   3.500   5.006 -0.3956  2.4555  1.6406
  103OSM   C17S10391   3.292   3.490   4.912 -0.0486 -0.2891  0.3914
  103OSM   H17S10392   3.394   3.519   4.946 -0.2394 -2.2726  2.9201
  103OSM   H17T10393   3.264   3.554   4.826 -1.0542 -2.5493 -1.0557
  103OSM   C18S10394   3.300   3.345   4.853  0.5334 -0.7453 -0.1117
  103OSM   H18S10395   3.385   3.288   4.895  0.3290 -0.0926  1.2482
  103OSM   H18T10396   3.313   3.340   4.743 -0.0765  1.7468 -0.3554
  103OSM   H18U10397   3.208   3.289   4.881  0.2177 -0.7904 -1.1835
  103OSM    C1F10398   3.353   2.993   6.511 -0.0827 -0.6256  0.1603
  103OSM     OF10399   3.359   2.889   6.576  0.7080 -0.2223  0.1178
  103OSM    C2F10400   3.428   3.017   6.379  0.5756  0.5527 -0.0411
  103OSM    H2F10401   3.510   3.091   6.393  0.1061  1.2231 -0.7359
  103OSM    H2G10402   3.351   3.064   6.314  1.0229 -1.0565 -1.8174
  103OSM    C3F10403   3.492   2.894   6.319 -0.0971  0.0203  0.1518
  103OSM    H3F10404   3.420   2.809   6.326  1.0088 -1.0793 -1.0998
  103OSM    H3G10405   3.579   2.863   6.381  0.4231 -0.1231 -0.6256
  103OSM    C4F10406   3.546   2.903   6.173  0.6744 -0.2570 -0.6531
  103OSM    H4F10407   3.617   2.821   6.149  2.1720  0.2272  1.7670
  103OSM    H4G10408   3.605   2.996   6.157 -0.0318  0.4769  0.8408
  103OSM    C5F10409   3.444   2.907   6.058 -0.0882 -0.5250  0.0955
  103OSM    H5F10410   3.381   2.997   6.073 -1.5536 -1.2294 -1.5462
  103OSM    H5G10411   3.372   2.823   6.060 -1.5401  0.6656 -0.6225
  103OSM    C6F10412   3.513   2.919   5.920  0.1209  0.3003 -0.0804
  103OSM    H6F10413   3.579   2.831   5.902  0.6860  0.0554  2.7834
  103OSM    H6G10414   3.594   2.995   5.924 -0.2010  0.6081  0.9847
  103OSM    C7F10415   3.421   2.968   5.804  0.2323  0.0517 -0.4883
  103OSM    H7F10416   3.367   3.061   5.832  0.8141  0.5129 -0.8741
  103OSM    H7G10417   3.349   2.884   5.789  1.5574 -1.3459  0.6350
  103OSM    C8F10418   3.497   2.996   5.678  0.0186 -0.1843 -0.0942
  103OSM    H8F10419   3.579   3.067   5.704  0.3462 -0.2778 -0.8370
  103OSM    H8G10420   3.442   3.056   5.602  2.1666  2.8818  0.5630
  103OSM    C9F10421   3.564   2.875   5.624  0.5431  0.6987  0.0553
  103OSM    H9F10422   3.619   2.816   5.699  0.1052  0.1952 -0.0096
  103OSM   C10F10423   3.557   2.824   5.499  0.4026 -0.6479  0.2007
  103OSM   H10F10424   3.615   2.732   5.479  0.8274 -0.6776  1.4695
  103OSM   C11F10425   3.482   2.886   5.386 -0.3965 -0.6801 -0.4261
  103OSM   H11F10426   3.551   2.899   5.300 -0.8367  0.8367 -0.5819
  103OSM   H11G10427   3.446   2.987   5.418  1.5135  0.7485 -2.4412
  103OSM   C12F10428   3.361   2.803   5.354 -0.5807  0.4449 -0.1014
  103OSM   H12F10429   3.286   2.849   5.286 -0.7787 -1.4146 -1.2166
  103OSM   H12G10430   3.313   2.777   5.451  0.2012  1.0310  0.4507
  103OSM   C13F10431   3.395   2.670   5.278  0.1229  0.0608 -0.6645
  103OSM   H13F10432   3.321   2.594   5.309  0.4631  0.8481  2.3246
  103OSM   H13G10433   3.496   2.635   5.308 -0.1808 -1.2630 -1.1320
  103OSM   C14F10434   3.401   2.677   5.119  0.1094  0.2399 -0.7706
  103OSM   H14F10435   3.462   2.766   5.091  0.2893 -0.1901 -1.8080
  103OSM   H14G10436   3.300   2.705   5.084 -1.4337 -0.0980  2.9557
  103OSM   C15F10437   3.446   2.538   5.060 -0.2782 -0.3419  0.3779
  103OSM   H15F10438   3.376   2.457   5.091 -0.5748  0.2780  1.3904
  103OSM   H15G10439   3.550   2.533   5.099 -0.1040  1.2496  0.1741
  103OSM   C16F10440   3.447   2.556   4.906 -0.2956  0.6381  0.4397
  103OSM   H16F10441   3.512   2.638   4.870  1.4039 -0.4427  0.8815
  103OSM   H16G10442   3.344   2.565   4.867 -0.9675 -1.9671  1.3754
  103OSM   C17F10443   3.521   2.429   4.832  0.7648 -0.2734 -0.3185
  103OSM   H17F10444   3.629   2.432   4.859  1.3913  0.4556 -2.6516
  103OSM   H17G10445   3.515   2.443   4.721  0.2131  1.9941 -0.0544
  103OSM   C18F10446   3.464   2.293   4.870  0.0265  0.2223 -0.7203
  103OSM   H18F10447   3.480   2.273   4.979  1.7262  0.1808 -0.9447
  103OSM   H18G10448   3.525   2.217   4.816 -0.9670 -1.2411  0.1198
  103OSM   H18H10449   3.357   2.287   4.840 -0.1059 -1.4344 -0.0594
  104OSM      N10450   5.186   4.535   7.459  0.4686 -0.0695  1.4258
  104OSM    C1510451   5.106   4.420   7.401 -0.2246 -0.7226 -0.4441
  104OSM   H15A10452   4.999   4.434   7.407 -0.0949  0.3440 -0.3904
  104OSM   H15B10453   5.128   4.332   7.460  2.8071 -0.1190 -0.5416
  104OSM   H15C10454   5.134   4.402   7.298 -0.4320 -0.9350 -0.4660
  104OSM    C1410455   5.161   4.654   7.373  0.4621  0.3104  0.4259
  104OSM   H14A10456   5.201   4.630   7.275  0.1159  1.1477  0.0704
  104OSM   H14B10457   5.216   4.741   7.407 -2.0217  2.6203 -1.1396
  104OSM   H14C10458   5.056   4.678   7.378  1.0168  2.8278  1.5789
  104OSM    C1310459   5.151   4.563   7.602  0.3046  0.1039 -0.3612
  104OSM   H13A10460   5.049   4.597   7.604  0.7041  1.3933 -0.8690
  104OSM   H13B10461   5.209   4.647   7.639 -1.5168  0.8857  0.8360
  104OSM   H13C10462   5.164   4.476   7.665  1.8016  0.4650 -0.1293
  104OSM    C1210463   5.341   4.502   7.458  0.0993 -0.4485  0.6276
  104OSM   H12A10464   5.357   4.420   7.527  0.1391 -0.1602  0.9642
  104OSM   H12B10465   5.395   4.587   7.498  1.5360 -0.8500 -0.3416
  104OSM    C1110466   5.409   4.456   7.320  0.1232 -0.1522  0.0184
  104OSM   H11A10467   5.360   4.364   7.283  0.4961  0.3978 -2.0166
  104OSM   H11B10468   5.514   4.420   7.329 -0.3543 -2.1076 -1.4305
  104OSM      P10469   5.511   4.646   7.164 -0.2152  0.0487  0.2294
  104OSM    O1310470   5.452   4.750   7.078 -0.0730  0.3194 -0.1282
  104OSM    O1410471   5.596   4.674   7.281  0.0931 -0.1044 -0.5247
  104OSM    O1110472   5.601   4.566   7.068  0.2563  0.0731 -0.2790
  104OSM    O1210473   5.398   4.553   7.214 -0.2942  0.4031 -0.1889
  104OSM    C1S10474   5.546   4.498   6.958 -0.0604 -0.1513  0.1765
  104OSM    H1S10475   5.444   4.528   6.926  0.1997  0.3850 -0.1645
  104OSM    H1T10476   5.546   4.391   6.988 -0.0956 -0.0032  0.7196
  104OSM     NF10477   5.565   4.446   6.728 -0.2108 -0.0796  0.2651
  104OSM    HNF10478   5.566   4.346   6.720 -2.1449 -0.0247 -1.3301
  104OSM    C2S10479   5.636   4.502   6.841 -0.3604  0.4911  0.4117
  104OSM    H2S10480   5.653   4.608   6.812 -0.1075  0.0180 -1.2361
  104OSM    C3S10481   5.775   4.436   6.873 -0.7395  0.4954 -1.0245
  104OSM    H3S10482   5.756   4.328   6.891 -1.4790  0.6251 -0.9774
  104OSM     O310483   5.838   4.464   7.000 -0.3322 -0.4497 -0.1382
  104OSM    HO310484   5.762   4.501   7.044 -0.5191  0.2394 -1.0048
  104OSM    C4S10485   5.870   4.443   6.747  0.9954  0.1006 -0.5719
  104OSM    H4S10486   5.853   4.363   6.674 -1.3934  0.0144 -0.0019
  104OSM    C5S10487   5.949   4.544   6.708  0.2422  0.4263 -0.0648
  104OSM    H5S10488   5.948   4.634   6.772 -1.8520  0.0143  0.5542
  104OSM    C6S10489   6.028   4.551   6.580  0.5666  0.0625  0.1387
  104OSM    H6S10490   5.995   4.471   6.510  3.4461 -0.3779 -0.8899
  104OSM    H6T10491   6.136   4.541   6.605  0.7299  0.2446 -0.4710
  104OSM    C7S10492   6.011   4.690   6.516  0.5336 -0.0871  0.0947
  104OSM    H7S10493   6.040   4.775   6.581 -0.2800  1.5228 -1.5462
  104OSM    H7T10494   5.902   4.698   6.495  0.6071 -1.2387 -0.8118
  104OSM    C8S10495   6.096   4.710   6.394 -0.0597  0.4261  0.5463
  104OSM    H8S10496   6.203   4.688   6.413  0.2170  1.1228 -0.1388
  104OSM    H8T10497   6.099   4.816   6.361 -1.2276  0.5341  0.7356
  104OSM    C9S10498   6.051   4.627   6.276 -0.3075 -0.3128  0.0492
  104OSM    H9S10499   5.951   4.582   6.292 -0.4988 -0.0646 -0.4154
  104OSM    H9T10500   6.126   4.549   6.253  0.4878  0.5295 -0.2935
  104OSM   C10S10501   6.031   4.713   6.152 -0.7548 -0.0573  0.3261
  104OSM   H10S10502   6.134   4.742   6.125 -0.4943 -1.0447  0.2048
  104OSM   H10T10503   5.984   4.810   6.177  1.9748  1.1155  1.2663
  104OSM   C11S10504   5.950   4.637   6.047 -0.1829  0.2214  0.6391
  104OSM   H11S10505   5.844   4.620   6.076 -0.7490  1.1775 -0.7378
  104OSM   H11T10506   6.005   4.541   6.042  0.2385  0.1385  4.1241
  104OSM   C12S10507   5.946   4.709   5.903 -0.3202 -0.1139  0.7465
  104OSM   H12S10508   6.049   4.731   5.865 -1.6927  2.2352 -2.0377
  104OSM   H12T10509   5.898   4.807   5.925 -2.3402 -0.9326  0.1769
  104OSM   C13S10510   5.868   4.636   5.802 -0.3084 -0.8345  0.4138
  104OSM   H13S10511   5.763   4.658   5.833 -0.3756 -1.0442  0.3352
  104OSM   H13T10512   5.876   4.525   5.801 -0.5886 -0.8733 -1.7247
  104OSM   C14S10513   5.883   4.684   5.658  0.2239  0.1923 -1.0426
  104OSM   H14S10514   5.804   4.632   5.600  0.1928  0.2583 -1.0602
  104OSM   H14T10515   5.979   4.643   5.621  1.7430  2.2949  0.3113
  104OSM   C15S10516   5.890   4.833   5.640  0.3763  0.0432  0.2243
  104OSM   H15S10517   5.973   4.870   5.704  0.8368 -0.7806  0.1118
  104OSM   H15T10518   5.794   4.886   5.659  1.2002  2.5049 -1.9425
  104OSM   C16S10519   5.927   4.874   5.496  0.3616  0.0545  0.5640
  104OSM   H16S10520   5.876   4.808   5.422 -0.8373 -0.5318  1.8520
  104OSM   H16T10521   6.036   4.855   5.487  0.4670  0.3260  1.2375
  104OSM   C17S10522   5.901   5.025   5.476  0.3141  0.3924  0.2349
  104OSM   H17S10523   5.904   5.075   5.575 -0.7307  1.1909 -0.1103
  104OSM   H17T10524   5.802   5.044   5.429  0.4409  0.9499  0.1870
  104OSM   C18S10525   6.004   5.095   5.380 -0.1534 -0.4632 -0.0498
  104OSM   H18S10526   5.991   5.043   5.283  1.0399 -0.6792 -0.1121
  104OSM   H18T10527   6.101   5.072   5.430 -0.2330 -2.0563 -0.5518
  104OSM   H18U10528   5.974   5.201   5.385  0.2129 -0.3836  0.6958
  104OSM    C1F10529   5.459   4.483   6.661  0.5991 -0.0045 -0.2800
  104OSM     OF10530   5.407   4.590   6.691  0.8648  0.1436 -0.0885
  104OSM    C2F10531   5.399   4.397   6.553  0.1968 -0.1622  0.6781
  104OSM    H2F10532   5.288   4.405   6.555  0.0893 -1.6072  1.3599
  104OSM    H2G10533   5.429   4.290   6.561  2.1386  0.1552 -1.3614
  104OSM    C3F10534   5.457   4.442   6.416 -0.3368  0.1127 -0.3268
  104OSM    H3F10535   5.433   4.374   6.331  1.4606  1.6865 -2.1712
  104OSM    H3G10536   5.566   4.458   6.422 -0.2573 -0.5585  0.1963
  104OSM    C4F10537   5.391   4.570   6.361  0.1945  0.0099 -0.2433
  104OSM    H4F10538   5.410   4.656   6.429 -0.8870 -0.9265  1.3141
  104OSM    H4G10539   5.280   4.569   6.370  0.3264  1.8198  2.7732
  104OSM    C5F10540   5.433   4.608   6.219  0.4995  0.3876 -0.2736
  104OSM    H5F10541   5.352   4.640   6.149  1.5145 -0.8165 -2.0866
  104OSM    H5G10542   5.471   4.512   6.178 -1.0752  0.3390 -1.7657
  104OSM    C6F10543   5.544   4.711   6.196  0.4990  0.6842  0.6654
  104OSM    H6F10544   5.628   4.665   6.251  0.8706 -0.8502 -1.1023
  104OSM    H6G10545   5.515   4.803   6.252  1.2365 -0.5574  3.2544
  104OSM    C7F10546   5.590   4.743   6.058  0.0124  0.8663  0.3635
  104OSM    H7F10547   5.619   4.645   6.014  0.9767  1.0824  0.4959
  104OSM    H7G10548   5.687   4.797   6.065  0.6000  0.2437 -1.9000
  104OSM    C8F10549   5.494   4.805   5.958  0.3943  0.3582  0.6889
  104OSM    H8F10550   5.407   4.736   5.956  1.4858 -1.0742  0.9645
  104OSM    H8G10551   5.535   4.812   5.855 -1.3724  2.2050  0.0342
  104OSM    C9F10552   5.468   4.950   6.009  0.0185  1.1384  0.4481
  104OSM    H9F10553   5.412   4.965   6.102  1.4710  2.9462  1.0975
  104OSM   C10F10554   5.508   5.059   5.951 -0.2791  1.1423 -0.6433
  104OSM   H10F10555   5.476   5.157   5.992 -0.3463  1.2070 -0.8524
  104OSM   C11F10556   5.570   5.066   5.814  0.0716 -0.0220 -0.5217
  104OSM   H11F10557   5.650   4.989   5.804 -1.2863 -1.5688  0.1717
  104OSM   H11G10558   5.625   5.163   5.808  2.6095 -1.3338  0.1405
  104OSM   C12F10559   5.463   5.048   5.701 -0.0903  0.7790 -0.0194
  104OSM   H12F10560   5.400   5.138   5.711  0.0491  0.7767  0.9679
  104OSM   H12G10561   5.393   4.966   5.729 -1.0445  0.9390 -1.8014
  104OSM   C13F10562   5.524   5.016   5.565  0.6884 -1.1926 -0.6724
  104OSM   H13F10563   5.606   4.940   5.571  1.2079 -0.7755 -2.0282
  104OSM   H13G10564   5.577   5.107   5.528 -1.2442  0.8492  1.3044
  104OSM   C14F10565   5.407   4.984   5.473  0.2741  0.3416 -0.7706
  104OSM   H14F10566   5.340   5.071   5.481 -0.7147 -0.2893 -1.8229
  104OSM   H14G10567   5.341   4.900   5.504 -0.7494  1.6571  0.7558
  104OSM   C15F10568   5.443   4.951   5.335  0.4453  0.9211  0.4123
  104OSM   H15F10569   5.483   4.847   5.338 -1.9897 -0.1549 -1.1536
  104OSM   H15G10570   5.520   5.017   5.290  1.5410 -0.2179  0.5439
  104OSM   C16F10571   5.321   4.939   5.243 -0.7600 -1.0629 -0.2774
  104OSM   H16F10572   5.257   5.030   5.238  0.3150 -0.2524  0.2531
  104OSM   H16G10573   5.268   4.845   5.268 -1.6596 -0.1459  1.4610
  104OSM   C17F10574   5.382   4.938   5.100  0.2660 -0.3819 -0.4193
  104OSM   H17F10575   5.464   4.864   5.109 -0.3631 -0.8239  2.7991
  104OSM   H17G10576   5.421   5.038   5.071 -0.3907 -0.6611 -2.4385
  104OSM   C18F10577   5.279   4.878   5.003  0.0917  0.5041 -0.1723
  104OSM   H18F10578   5.252   4.776   5.039 -0.7739  0.7889 -0.0041
  104OSM   H18G10579   5.319   4.874   4.899  0.0929  1.6290 -0.2288
  104OSM   H18H10580   5.186   4.938   4.993 -0.7279 -0.5968  0.6865
  105OSM      N10581   5.879   4.900   7.068  0.5380  0.5226 -0.1131
  105OSM    C1510582   5.752   4.951   7.139  0.1961 -0.0689  0.2894
  105OSM   H15A10583   5.777   5.021   7.216  2.3385  1.4185 -1.6006
  105OSM   H15B10584   5.697   4.867   7.179 -0.6174 -0.3517 -1.3068
  105OSM   H15C10585   5.679   4.997   7.074 -0.0913  2.1454  2.0638
  105OSM    C1410586   5.970   4.848   7.168 -0.5308  0.3915 -0.4870
  105OSM   H14A10587   6.055   4.806   7.116 -1.0632 -0.9870 -0.2817
  105OSM   H14B10588   5.919   4.768   7.219 -1.0394  2.3504  2.2755
  105OSM   H14C10589   6.013   4.922   7.233 -1.5656 -0.6387  1.4569
  105OSM    C1310590   5.846   4.790   6.965  0.4869  0.3181  0.1568
  105OSM   H13A10591   5.785   4.833   6.888  2.0457 -0.3259 -1.5199
  105OSM   H13B10592   5.794   4.707   7.011  0.9050  0.7576  1.4815
  105OSM   H13C10593   5.938   4.772   6.911 -0.7242  1.0363 -2.2763
  105OSM    C1210594   5.942   5.013   6.997 -0.1190  0.2884 -0.0813
  105OSM   H12A10595   5.992   5.077   7.069 -1.3065  0.1217  0.9183
  105OSM   H12B10596   5.867   5.070   6.945 -0.5925 -0.3754 -0.1368
  105OSM    C1110597   6.045   4.992   6.887  0.2983 -0.4454 -0.6095
  105OSM   H11A10598   6.074   5.089   6.841 -0.2513  0.5084  0.9925
  105OSM   H11B10599   5.997   4.926   6.811  0.0656 -0.6048 -0.3266
  105OSM      P10600   6.294   5.011   7.002  0.2185 -0.1295 -0.1796
  105OSM    O1310601   6.249   5.137   7.074  0.2127  0.2727  0.8032
  105OSM    O1410602   6.376   4.911   7.078 -0.4258  0.0152  0.3526
  105OSM    O1110603   6.363   5.054   6.873 -0.0653  0.5178  0.4325
  105OSM    O1210604   6.167   4.933   6.941  0.7402 -0.4443  0.8319
  105OSM    C1S10605   6.435   4.973   6.780  0.3680 -0.2235 -0.6588
  105OSM    H1S10606   6.460   4.872   6.817  1.0002  0.6865  1.5526
  105OSM    H1T10607   6.535   5.011   6.750  0.7076 -1.2304 -0.8222
  105OSM     NF10608   6.429   4.874   6.552 -0.4129 -0.4456  0.3050
  105OSM    HNF10609   6.512   4.905   6.505 -0.7893  0.3371  0.1430
  105OSM    C2S10610   6.363   4.965   6.643  0.6678  0.4696  0.0056
  105OSM    H2S10611   6.265   4.927   6.681  1.9928 -0.5990  2.6135
  105OSM    C3S10612   6.331   5.117   6.595 -0.4286  0.1297 -0.0276
  105OSM    H3S10613   6.430   5.164   6.579 -0.0051 -0.9428 -0.6709
  105OSM     O310614   6.255   5.193   6.675  0.0332 -0.8363 -0.0200
  105OSM    HO310615   6.289   5.172   6.762 -1.3448 -1.0377  0.5062
  105OSM    C4S10616   6.262   5.103   6.464  0.0387 -0.3185 -0.7337
  105OSM    H4S10617   6.164   5.056   6.480 -0.4501  0.4041 -1.5214
  105OSM    C5S10618   6.304   5.128   6.340  0.4434 -0.1881  0.2171
  105OSM    H5S10619   6.406   5.164   6.322  0.2985 -0.7163 -2.0672
  105OSM    C6S10620   6.219   5.107   6.213  0.0606  0.2632  0.7080
  105OSM    H6S10621   6.200   5.209   6.173 -0.2580  1.0585  2.7442
  105OSM    H6T10622   6.119   5.066   6.241 -0.2948 -0.3080 -1.2841
  105OSM    C7S10623   6.275   5.004   6.117  0.0594  0.0579  0.0439
  105OSM    H7S10624   6.289   4.907   6.171  2.3448 -0.0308 -0.5737
  105OSM    H7T10625   6.379   5.028   6.085  1.1398 -0.4497  2.8016
  105OSM    C8S10626   6.172   4.980   6.003 -0.6870  0.0550 -0.1101
  105OSM    H8S10627   6.074   4.958   6.050 -0.1262 -0.5629  0.8219
  105OSM    H8T10628   6.206   4.893   5.942  0.0307  2.0053 -2.6808
  105OSM    C9S10629   6.155   5.095   5.905  0.1131  0.1093 -0.4202
  105OSM    H9S10630   6.147   5.185   5.969  0.3068 -0.8058  0.9248
  105OSM    H9T10631   6.051   5.082   5.869  0.3356  0.0050 -1.0444
  105OSM   C10S10632   6.251   5.106   5.792 -0.3086  0.2258 -0.2371
  105OSM   H10S10633   6.239   5.022   5.720  0.7939 -0.5064  0.4010
  105OSM   H10T10634   6.351   5.083   5.836  1.0569  0.8130 -2.8652
  105OSM   C11S10635   6.257   5.233   5.709  0.8309  0.0144  0.3379
  105OSM   H11S10636   6.297   5.315   5.771 -1.5605  1.7063 -0.2051
  105OSM   H11T10637   6.153   5.264   5.685 -0.3370 -2.7685  1.2834
  105OSM   C12S10638   6.345   5.226   5.583 -0.4213  0.0572  0.4012
  105OSM   H12S10639   6.299   5.152   5.514 -0.2010  0.9073 -0.6861
  105OSM   H12T10640   6.439   5.172   5.608 -0.5752 -1.2983 -1.7075
  105OSM   C13S10641   6.370   5.354   5.503  0.1596  0.2940  0.2453
  105OSM   H13S10642   6.450   5.334   5.429  0.4018  0.6674  0.4028
  105OSM   H13T10643   6.398   5.445   5.560  0.5899  1.0792 -1.1692
  105OSM   C14S10644   6.255   5.386   5.408 -0.0979  0.1358 -0.2857
  105OSM   H14S10645   6.165   5.421   5.464 -0.3082  2.4040 -1.9048
  105OSM   H14T10646   6.235   5.291   5.354 -0.6118 -0.3143  0.6708
  105OSM   C15S10647   6.286   5.499   5.319 -0.6167 -0.0826 -0.0309
  105OSM   H15S10648   6.367   5.457   5.256 -0.4398  0.3856 -0.1264
  105OSM   H15T10649   6.308   5.590   5.380  0.2449  1.7576 -2.8778
  105OSM   C16S10650   6.158   5.526   5.239  0.5292  0.1485 -1.0439
  105OSM   H16S10651   6.077   5.565   5.305  1.0179 -1.1262  0.3775
  105OSM   H16T10652   6.121   5.432   5.193  0.8013 -0.8453  0.6799
  105OSM   C17S10653   6.188   5.640   5.138 -0.7515 -0.6530  0.8069
  105OSM   H17S10654   6.268   5.627   5.063 -0.2261 -1.1779  1.4514
  105OSM   H17T10655   6.233   5.721   5.199  0.6651 -0.9307  0.1544
  105OSM   C18S10656   6.060   5.673   5.062  0.3738  1.0636  0.5121
  105OSM   H18S10657   6.021   5.579   5.018  3.8045  0.0682 -0.6830
  105OSM   H18T10658   6.091   5.730   4.972  1.6886 -1.6887 -0.9010
  105OSM   H18U10659   5.983   5.713   5.131 -0.8016  0.7119 -0.5501
  105OSM    C1F10660   6.434   4.742   6.570 -0.1107 -0.3150  0.1157
  105OSM     OF10661   6.355   4.693   6.646  0.6149  0.4642 -0.4450
  105OSM    C2F10662   6.547   4.668   6.525 -0.7219  0.4260  0.5001
  105OSM    H2F10663   6.579   4.597   6.605 -3.6752 -1.7156 -0.0778
  105OSM    H2G10664   6.630   4.742   6.513 -0.3832  0.0853  0.7013
  105OSM    C3F10665   6.527   4.585   6.400 -1.0360 -0.4452 -0.0973
  105OSM    H3F10666   6.430   4.530   6.402 -2.3167  1.7322  0.2965
  105OSM    H3G10667   6.611   4.512   6.393  0.0726  0.8449 -0.6544
  105OSM    C4F10668   6.518   4.672   6.268  0.1203  0.1317 -0.1343
  105OSM    H4F10669   6.619   4.716   6.254 -0.6007  1.6659 -0.7436
  105OSM    H4G10670   6.450   4.756   6.293 -0.9639 -0.1642 -1.9101
  105OSM    C5F10671   6.472   4.594   6.140  0.0508  0.0657  0.6667
  105OSM    H5F10672   6.394   4.522   6.173 -1.2464  0.0276 -2.1812
  105OSM    H5G10673   6.556   4.535   6.099  0.0643  1.3556 -1.2676
  105OSM    C6F10674   6.435   4.680   6.019 -0.0275  0.1573 -0.0994
  105OSM    H6F10675   6.516   4.755   6.006 -0.0746 -0.1778 -2.7847
  105OSM    H6G10676   6.346   4.742   6.042  0.3356  0.5250  0.3487
  105OSM    C7F10677   6.421   4.607   5.886  0.2556  0.0709 -1.1465
  105OSM    H7F10678   6.343   4.529   5.902  1.2108 -0.6656  0.1302
  105OSM    H7G10679   6.516   4.551   5.873  1.1622  1.0307  0.9435
  105OSM    C8F10680   6.387   4.696   5.767  0.1478  0.1044 -0.0484
  105OSM    H8F10681   6.447   4.789   5.776  0.1678  0.1507 -0.5966
  105OSM    H8G10682   6.279   4.719   5.774 -0.7116 -3.5205  0.7267
  105OSM    C9F10683   6.401   4.621   5.637 -0.5283 -0.4689  0.3567
  105OSM    H9F10684   6.337   4.531   5.629 -1.3929  0.0954  0.7540
  105OSM   C10F10685   6.473   4.663   5.530 -0.5549 -0.1509 -0.3735
  105OSM   H10F10686   6.497   4.588   5.453 -0.3916 -2.0688  1.4606
  105OSM   C11F10687   6.547   4.793   5.528  0.3236 -0.1202  0.4556
  105OSM   H11F10688   6.477   4.863   5.578 -2.5588 -2.7804  0.4289
  105OSM   H11G10689   6.566   4.822   5.422 -0.9893 -1.2507 -0.1186
  105OSM   C12F10690   6.687   4.787   5.608 -0.5174  0.4010  0.3798
  105OSM   H12F10691   6.670   4.732   5.703  0.1306  0.6532  0.6498
  105OSM   H12G10692   6.720   4.885   5.650 -2.3858  2.5051 -2.6125
  105OSM   C13F10693   6.808   4.714   5.536  0.4307 -0.1722 -0.4417
  105OSM   H13F10694   6.841   4.782   5.454  0.1359 -0.0332 -0.4498
  105OSM   H13G10695   6.757   4.625   5.493 -0.2877 -0.6696  1.3477
  105OSM   C14F10696   6.922   4.673   5.632 -0.2877  0.4354 -0.3172
  105OSM   H14F10697   6.902   4.575   5.681  1.8996  0.0628 -0.0671
  105OSM   H14G10698   6.948   4.747   5.710  1.1976 -1.1425  0.7674
  105OSM   C15F10699   7.049   4.666   5.544 -0.3511 -0.1954 -0.0167
  105OSM   H15F10700   7.066   4.767   5.501 -0.3225  0.2495  1.0149
  105OSM   H15G10701   7.032   4.596   5.460 -1.1551 -0.5747  0.4565
  105OSM   C16F10702   7.173   4.627   5.624 -0.1946  0.0969 -0.3722
  105OSM   H16F10703   7.163   4.700   5.707  1.2942  2.1996 -1.9285
  105OSM   H16G10704   7.269   4.639   5.570  1.0479 -2.1549  1.2131
  105OSM   C17F10705   7.181   4.480   5.658 -0.0556  0.7003 -0.1470
  105OSM   H17F10706   7.169   4.416   5.569 -0.3475 -2.6178  2.1073
  105OSM   H17G10707   7.097   4.466   5.730  0.0381  0.9588  0.0151
  105OSM   C18F10708   7.313   4.429   5.731  0.9470  0.4209  0.6961
  105OSM   H18F10709   7.303   4.323   5.761  3.4684  0.1860  0.9370
  105OSM   H18G10710   7.332   4.490   5.822  0.6594  1.9801 -0.2508
  105OSM   H18H10711   7.401   4.436   5.663 -0.6152  1.6146 -1.2731
  106OSM      N10712   5.789   1.373   7.584 -0.3730  0.2011  0.1724
  106OSM    C1510713   5.690   1.295   7.657  0.2299  0.8170  0.2316
  106OSM   H15A10714   5.590   1.331   7.636  0.5941  2.1399  0.7162
  106OSM   H15B10715   5.703   1.307   7.763  2.0144 -1.8478  0.4147
  106OSM   H15C10716   5.701   1.188   7.644  2.0024  1.1692 -1.7599
  106OSM    C1410717   5.806   1.497   7.664 -0.0372 -0.8462 -0.3322
  106OSM   H14A10718   5.717   1.556   7.678 -0.4138 -1.5541  0.3006
  106OSM   H14B10719   5.870   1.566   7.610  2.8522 -0.7155  2.9006
  106OSM   H14C10720   5.858   1.492   7.758 -0.5703  0.8670  0.0829
  106OSM    C1310721   5.926   1.306   7.583  0.1610 -0.2193 -0.1504
  106OSM   H13A10722   5.914   1.223   7.516 -0.6305 -1.1809  1.1437
  106OSM   H13B10723   5.956   1.265   7.679 -1.8264 -1.6230 -0.0669
  106OSM   H13C10724   6.000   1.376   7.546  2.1833 -2.5087 -0.6482
  106OSM    C1210725   5.751   1.394   7.441  0.2000 -1.1301 -0.5367
  106OSM   H12A10726   5.741   1.297   7.394 -0.5665 -0.7675 -1.1457
  106OSM   H12B10727   5.835   1.439   7.391  1.0744 -1.9051  0.1876
  106OSM    C1110728   5.633   1.486   7.407  0.0676  0.2386 -0.5507
  106OSM   H11A10729   5.548   1.449   7.468  1.1094 -1.3356  0.0246
  106OSM   H11B10730   5.596   1.466   7.305  0.0622 -0.8339 -0.3578
  106OSM      P10731   5.778   1.707   7.350  0.4194 -0.1430 -0.2588
  106OSM    O1310732   5.759   1.852   7.372 -0.3536 -0.1718  0.4309
  106OSM    O1410733   5.909   1.646   7.372  0.0314 -0.6269 -0.0731
  106OSM    O1110734   5.734   1.680   7.200  0.5403  0.5700 -0.4951
  106OSM    O1210735   5.661   1.631   7.431 -0.0231  0.0689  0.0914
  106OSM    C1S10736   5.761   1.764   7.088 -0.3627  0.8091  0.2008
  106OSM    H1S10737   5.872   1.764   7.086 -0.3524  1.5958  0.4608
  106OSM    H1T10738   5.732   1.870   7.099  5.0555  2.4094  2.1480
  106OSM     NF10739   5.778   1.765   6.839  0.0318  0.0627 -0.3449
  106OSM    HNF10740   5.730   1.834   6.785 -0.5776  0.0148  0.1125
  106OSM    C2S10741   5.709   1.703   6.948 -0.1323  0.0387  0.7950
  106OSM    H2S10742   5.743   1.597   6.946  1.4146  0.4348  2.8778
  106OSM    C3S10743   5.550   1.705   6.946  0.3684 -0.1449 -0.3731
  106OSM    H3S10744   5.524   1.811   6.928 -0.2159  0.1133  1.7484
  106OSM     O310745   5.493   1.686   7.081 -0.2579 -0.2840 -0.5910
  106OSM    HO310746   5.576   1.689   7.129  0.4162 -0.4894 -1.6865
  106OSM    C4S10747   5.490   1.628   6.829 -0.2003  0.7117 -0.3209
  106OSM    H4S10748   5.514   1.661   6.726  0.0001 -1.8058 -1.1434
  106OSM    C5S10749   5.418   1.517   6.841 -0.2371  0.1708 -0.1444
  106OSM    H5S10750   5.394   1.484   6.943  0.0825 -0.6225 -0.3105
  106OSM    C6S10751   5.373   1.435   6.725  0.1415  0.5499  0.0612
  106OSM    H6S10752   5.262   1.437   6.722 -0.0552 -0.0803  3.2882
  106OSM    H6T10753   5.397   1.328   6.743  0.3444  0.5901  0.0314
  106OSM    C7S10754   5.444   1.467   6.596 -0.2366 -0.1143 -0.0060
  106OSM    H7S10755   5.555   1.468   6.587 -0.4072  0.3684 -3.2647
  106OSM    H7T10756   5.415   1.571   6.571  3.1902  1.0490  0.2618
  106OSM    C8S10757   5.410   1.365   6.481 -0.8044 -0.4314  0.5094
  106OSM    H8S10758   5.308   1.332   6.510 -1.5514  0.9203 -0.4389
  106OSM    H8T10759   5.481   1.280   6.484 -1.9315 -1.5761 -2.3323
  106OSM    C9S10760   5.409   1.430   6.340 -0.7568  0.0308 -0.3176
  106OSM    H9S10761   5.513   1.465   6.319  0.4073 -3.8198 -1.7971
  106OSM    H9T10762   5.352   1.526   6.344  3.0808  2.5448  0.0952
  106OSM   C10S10763   5.372   1.332   6.232 -0.3107 -0.2527  0.2469
  106OSM   H10S10764   5.276   1.282   6.255 -0.5344  0.1771  0.2508
  106OSM   H10T10765   5.452   1.255   6.233 -0.2556 -0.1991  0.1156
  106OSM   C11S10766   5.365   1.402   6.096  0.4845  0.0687 -0.0935
  106OSM   H11S10767   5.468   1.436   6.073  0.4516 -1.7962 -3.6319
  106OSM   H11T10768   5.288   1.482   6.103  1.0088  0.6670 -1.0071
  106OSM   C12S10769   5.322   1.296   5.983  0.4340 -0.6349 -0.2549
  106OSM   H12S10770   5.230   1.236   5.996 -0.7482  1.5975  3.1373
  106OSM   H12T10771   5.408   1.226   5.988  0.5446 -0.5428 -0.7304
  106OSM   C13S10772   5.320   1.371   5.846  0.1070 -0.1690  0.4932
  106OSM   H13S10773   5.409   1.437   5.834  0.2274 -0.4524 -0.1872
  106OSM   H13T10774   5.225   1.427   5.835  0.3787 -0.1442 -2.1373
  106OSM   C14S10775   5.316   1.282   5.725  0.3791 -0.0715 -0.8009
  106OSM   H14S10776   5.218   1.229   5.723 -0.4192  1.3352  0.1065
  106OSM   H14T10777   5.393   1.201   5.723 -0.6904 -1.2540  1.6546
  106OSM   C15S10778   5.342   1.360   5.593 -0.1550 -0.4970 -0.7757
  106OSM   H15S10779   5.433   1.421   5.612  0.8141 -2.5567  1.6803
  106OSM   H15T10780   5.269   1.444   5.584  0.7719  0.6966  1.9390
  106OSM   C16S10781   5.356   1.274   5.467  0.0861  0.5179 -0.1088
  106OSM   H16S10782   5.269   1.205   5.454  0.1728 -0.0203  1.8116
  106OSM   H16T10783   5.449   1.215   5.476  1.1605  1.9602 -1.2765
  106OSM   C17S10784   5.380   1.348   5.331  0.7334 -0.1390  0.1062
  106OSM   H17S10785   5.457   1.427   5.344  0.7035 -0.1821  0.5775
  106OSM   H17T10786   5.284   1.394   5.298  0.6421 -0.7098 -0.4515
  106OSM   C18S10787   5.441   1.248   5.233  0.7031  0.2232 -0.2093
  106OSM   H18S10788   5.374   1.160   5.243  0.4683  0.6227  2.1385
  106OSM   H18T10789   5.535   1.204   5.274  1.0186  2.4685  1.6587
  106OSM   H18U10790   5.475   1.277   5.131  1.5776 -1.1411 -0.3374
  106OSM    C1F10791   5.901   1.754   6.817 -0.0205  0.2946  0.2230
  106OSM     OF10792   5.963   1.669   6.883  0.1393 -0.1999 -0.0926
  106OSM    C2F10793   5.961   1.843   6.711  0.6873  0.3297 -0.1120
  106OSM    H2F10794   6.007   1.935   6.754 -0.1861  2.0197 -2.5398
  106OSM    H2G10795   5.870   1.884   6.661 -0.3121 -1.9731 -0.2902
  106OSM    C3F10796   6.063   1.769   6.612 -0.0957 -0.3577  0.2326
  106OSM    H3F10797   6.038   1.661   6.606  2.7095 -1.0757  0.1430
  106OSM    H3G10798   6.163   1.768   6.660 -0.1420  0.7836  0.3941
  106OSM    C4F10799   6.070   1.829   6.475  0.1634 -0.5621 -0.4611
  106OSM    H4F10800   6.091   1.937   6.493 -0.2330 -0.3570 -1.1701
  106OSM    H4G10801   5.966   1.823   6.436 -0.9623 -0.5620  2.3132
  106OSM    C5F10802   6.166   1.761   6.381  0.2836 -0.4378  0.2239
  106OSM    H5F10803   6.151   1.652   6.363  2.5180 -1.2392  2.6370
  106OSM    H5G10804   6.265   1.760   6.431  0.8309  0.9333 -0.7734
  106OSM    C6F10805   6.172   1.837   6.247  0.4313 -0.0476  0.5496
  106OSM    H6F10806   6.269   1.820   6.195  0.0682 -1.8452  0.3880
  106OSM    H6G10807   6.157   1.943   6.277 -1.9844 -0.3131  0.4202
  106OSM    C7F10808   6.074   1.777   6.147  0.1350  0.4111  0.4054
  106OSM    H7F10809   6.046   1.849   6.067 -0.2721 -0.2788 -0.0759
  106OSM    H7G10810   5.977   1.762   6.200  0.1889  1.4763  0.8493
  106OSM    C8F10811   6.119   1.644   6.077 -0.7800  0.3191 -0.9852
  106OSM    H8F10812   6.139   1.572   6.159  1.4913  0.8720 -0.9670
  106OSM    H8G10813   6.223   1.663   6.042 -1.2118  2.0828 -1.4584
  106OSM    C9F10814   6.033   1.597   5.961  0.3789  0.5420 -0.5878
  106OSM    H9F10815   5.962   1.514   5.977  0.8297  0.0741 -0.9696
  106OSM   C10F10816   6.040   1.645   5.839  0.1777  0.4231  0.5032
  106OSM   H10F10817   5.975   1.610   5.758 -0.1816 -0.1453  1.0243
  106OSM   C11F10818   6.125   1.763   5.802 -0.0095  0.7155 -0.3350
  106OSM   H11F10819   6.217   1.766   5.864  0.0597  0.9665 -0.4449
  106OSM   H11G10820   6.079   1.862   5.823 -0.1403  0.8406 -1.1446
  106OSM   C12F10821   6.175   1.764   5.656  0.3590 -0.4681  0.1753
  106OSM   H12F10822   6.236   1.674   5.636  0.0533 -0.0920 -2.8346
  106OSM   H12G10823   6.241   1.851   5.636  1.0108 -0.7427  1.0456
  106OSM   C13F10824   6.056   1.774   5.556  0.8721 -0.0065 -0.5644
  106OSM   H13F10825   5.986   1.851   5.594  0.4293 -0.5553 -0.2661
  106OSM   H13G10826   5.995   1.682   5.550 -1.7741  1.7122 -2.2617
  106OSM   C14F10827   6.107   1.803   5.416  0.4448 -0.8221 -0.8223
  106OSM   H14F10828   6.167   1.720   5.372 -0.1134 -3.4103  2.7825
  106OSM   H14G10829   6.170   1.895   5.417 -0.2601 -0.1452  3.5039
  106OSM   C15F10830   5.985   1.820   5.325 -0.1581  0.1670 -0.1691
  106OSM   H15F10831   5.901   1.880   5.365 -0.9459 -0.3458 -1.0098
  106OSM   H15G10832   5.946   1.717   5.304 -0.7311  0.2235  0.5865
  106OSM   C16F10833   6.022   1.876   5.189  0.2511  0.6673 -0.0240
  106OSM   H16F10834   6.113   1.828   5.147  0.5677  1.2116  0.0458
  106OSM   H16G10835   6.044   1.985   5.194 -0.7533  1.0881 -2.7051
  106OSM   C17F10836   5.914   1.856   5.080  0.0433  0.0930 -0.2042
  106OSM   H17F10837   5.819   1.894   5.123 -0.7158 -1.0927 -0.7777
  106OSM   H17G10838   5.890   1.748   5.075 -0.6529  0.2810 -1.2762
  106OSM   C18F10839   5.948   1.929   4.951  0.1700 -0.2559 -0.3098
  106OSM   H18F10840   5.972   2.035   4.974  1.4563 -0.3569 -1.0993
  106OSM   H18G10841   5.865   1.930   4.877  1.4346  1.4673 -1.8092
  106OSM   H18H10842   6.042   1.891   4.906  0.4861  0.0825  0.0548
  107OSM      N10843   6.148   0.364   7.477 -0.3009  0.7560  0.3596
  107OSM    C1510844   6.255   0.409   7.573 -0.0850  0.3478 -0.0800
  107OSM   H15A10845   6.220   0.382   7.671  1.0380  0.8317  0.4706
  107OSM   H15B10846   6.271   0.516   7.567  1.9147  0.0158 -2.3361
  107OSM   H15C10847   6.350   0.366   7.546 -0.5609 -1.5474  1.0799
  107OSM    C1410848   6.175   0.224   7.457  0.2293 -0.0232  0.3220
  107OSM   H14A10849   6.136   0.173   7.370 -0.5680  0.2220  0.5251
  107OSM   H14B10850   6.140   0.166   7.540  0.1333  1.5639  1.4355
  107OSM   H14C10851   6.278   0.194   7.452  0.3261  0.3869 -0.3576
  107OSM    C1310852   6.012   0.375   7.541  0.2059  0.0668  0.3301
  107OSM   H13A10853   5.938   0.338   7.473 -1.0413 -1.3254  2.3477
  107OSM   H13B10854   5.994   0.478   7.570 -1.0311 -0.8800  3.3091
  107OSM   H13C10855   6.020   0.315   7.631  3.3775  0.2802  0.3257
  107OSM    C1210856   6.159   0.435   7.345 -0.4774  0.0128  0.3995
  107OSM   H12A10857   6.255   0.412   7.301 -1.2074  1.1625 -2.0089
  107OSM   H12B10858   6.151   0.539   7.370  1.8992  0.6093 -0.9682
  107OSM    C1110859   6.049   0.396   7.240 -0.4911 -0.1062 -0.1514
  107OSM   H11A10860   6.041   0.285   7.237  2.6485 -0.4269 -0.9850
  107OSM   H11B10861   6.088   0.422   7.139  0.8856 -4.7971 -1.0655
  107OSM      P10862   5.906   0.606   7.241  0.1485 -0.1511 -0.0540
  107OSM    O1310863   5.766   0.648   7.271 -0.1149  0.5549 -0.2228
  107OSM    O1410864   6.016   0.689   7.301  0.5178 -0.1228  0.0705
  107OSM    O1110865   5.916   0.619   7.075 -0.0035  0.7501  0.4389
  107OSM    O1210866   5.926   0.455   7.269  0.5132  0.2520 -0.1455
  107OSM    C1S10867   5.833   0.540   6.995 -0.1408  0.5046 -0.4499
  107OSM    H1S10868   5.729   0.577   6.992 -0.6259 -0.4150  2.0636
  107OSM    H1T10869   5.818   0.437   7.035  0.3533  1.6381  2.9400
  107OSM     NF10870   5.791   0.433   6.783 -0.0643 -0.9045 -0.1609
  107OSM    HNF10871   5.805   0.334   6.780  0.2302 -0.8601 -0.3636
  107OSM    C2S10872   5.885   0.515   6.854 -0.2311 -0.0780  0.6360
  107OSM    H2S10873   5.886   0.613   6.803 -1.3995  1.3476  3.1365
  107OSM    C3S10874   6.029   0.454   6.849  0.0437  0.0196 -0.0294
  107OSM    H3S10875   6.029   0.352   6.894 -0.8515  0.6076  1.4109
  107OSM     O310876   6.139   0.521   6.915 -0.3923 -0.0542  0.3635
  107OSM    HO310877   6.103   0.586   6.976  1.3071  2.1456 -0.8469
  107OSM    C4S10878   6.060   0.419   6.702 -0.2361  0.7630 -0.4671
  107OSM    H4S10879   6.005   0.340   6.650 -0.6876 -0.1601  1.3092
  107OSM    C5S10880   6.145   0.484   6.625 -0.3818  0.0641  0.2384
  107OSM    H5S10881   6.190   0.573   6.671 -1.0690 -0.1599  1.3785
  107OSM    C6S10882   6.172   0.470   6.474  0.2201 -0.1781  0.1015
  107OSM    H6S10883   6.144   0.369   6.437 -0.5235  0.4829 -1.2241
  107OSM    H6T10884   6.280   0.489   6.458  0.3864 -1.4271 -0.3578
  107OSM    C7S10885   6.087   0.575   6.402 -1.0205  0.0157  0.3745
  107OSM    H7S10886   6.118   0.679   6.426 -2.1712  0.5566 -0.3679
  107OSM    H7T10887   5.983   0.572   6.441 -1.4125  0.9677 -0.5495
  107OSM    C8S10888   6.063   0.567   6.248  0.6828 -0.5419  0.1730
  107OSM    H8S10889   6.059   0.462   6.211 -0.1931 -0.7584  0.8441
  107OSM    H8T10890   6.149   0.605   6.190  0.2578  0.0669 -0.0681
  107OSM    C9S10891   5.938   0.646   6.213  0.3695 -0.0025  0.6909
  107OSM    H9S10892   5.925   0.726   6.289 -2.4773  0.4772 -0.1693
  107OSM    H9T10893   5.845   0.585   6.212 -0.4779  1.2038 -1.5224
  107OSM   C10S10894   5.945   0.736   6.087  0.7426 -0.2391 -0.7474
  107OSM   H10S10895   6.035   0.801   6.082  1.8589 -1.8230 -2.6643
  107OSM   H10T10896   5.850   0.792   6.079 -1.1132 -2.4062  3.1880
  107OSM   C11S10897   5.966   0.647   5.967  0.2483 -0.0690  0.0911
  107OSM   H11S10898   5.869   0.624   5.917  1.0591 -0.4710 -1.3768
  107OSM   H11T10899   6.024   0.553   5.978  0.8761  0.1567 -1.1181
  107OSM   C12S10900   6.050   0.714   5.851  0.6459 -0.1292 -0.2457
  107OSM   H12S10901   6.152   0.752   5.872  0.7523  1.4994 -3.1432
  107OSM   H12T10902   5.999   0.810   5.825 -0.5330 -0.8498 -0.6639
  107OSM   C13S10903   6.060   0.623   5.727 -0.6296 -0.2119 -0.3302
  107OSM   H13S10904   5.954   0.589   5.738 -0.1401 -0.9789  3.2739
  107OSM   H13T10905   6.124   0.534   5.746 -2.1425 -1.4760 -0.9304
  107OSM   C14S10906   6.103   0.705   5.604  0.1935  0.0316 -0.1416
  107OSM   H14S10907   6.209   0.734   5.617  0.3015 -0.6659  0.6144
  107OSM   H14T10908   6.042   0.797   5.588 -1.2402 -0.7330  0.7629
  107OSM   C15S10909   6.098   0.615   5.482 -0.0677  0.2387 -0.3820
  107OSM   H15S10910   5.997   0.571   5.466 -0.6442  1.1127  0.6723
  107OSM   H15T10911   6.164   0.527   5.497 -0.5746  0.0011  0.4654
  107OSM   C16S10912   6.149   0.687   5.359  0.0295  0.5123  0.7220
  107OSM   H16S10913   6.237   0.751   5.382  1.0421 -1.1028  1.4568
  107OSM   H16T10914   6.069   0.743   5.304  1.0605 -0.2936 -1.7360
  107OSM   C17S10915   6.207   0.589   5.247  0.2056 -0.8840  0.1730
  107OSM   H17S10916   6.128   0.519   5.212 -1.3843 -0.3367  2.4255
  107OSM   H17T10917   6.296   0.536   5.285  1.8102  2.9797  2.3737
  107OSM   C18S10918   6.257   0.663   5.121  0.1396 -0.2331 -0.2132
  107OSM   H18S10919   6.164   0.698   5.070 -0.8314 -1.4122  0.6806
  107OSM   H18T10920   6.318   0.600   5.053  0.9290  0.8563 -0.5392
  107OSM   H18U10921   6.325   0.745   5.150 -1.5500  0.8766  0.7360
  107OSM    C1F10922   5.672   0.472   6.746 -0.2899 -0.7550 -0.1819
  107OSM     OF10923   5.644   0.589   6.761 -0.5003  0.3514 -0.1376
  107OSM    C2F10924   5.576   0.366   6.691  0.1468 -0.2407 -0.2533
  107OSM    H2F10925   5.502   0.347   6.773  0.5427 -1.1900 -0.1099
  107OSM    H2G10926   5.624   0.266   6.691 -0.6260 -0.6269  0.3303
  107OSM    C3F10927   5.492   0.404   6.563 -0.0752 -0.7547 -0.0539
  107OSM    H3F10928   5.424   0.488   6.590  1.5809  0.7929 -0.4685
  107OSM    H3G10929   5.432   0.313   6.548  0.9158 -1.6845  1.3862
  107OSM    C4F10930   5.579   0.445   6.440 -0.0837  0.0186 -0.2976
  107OSM    H4F10931   5.653   0.365   6.422  1.5357  1.2285  0.6697
  107OSM    H4G10932   5.636   0.538   6.460  0.6578 -0.1920 -1.3421
  107OSM    C5F10933   5.492   0.456   6.318 -0.0859 -0.0376  0.0316
  107OSM    H5F10934   5.403   0.511   6.355  0.2818  0.3643  0.3165
  107OSM    H5G10935   5.466   0.352   6.287  1.2096 -0.3528 -0.0587
  107OSM    C6F10936   5.560   0.521   6.199  0.3273  0.4031  0.4353
  107OSM    H6F10937   5.647   0.457   6.170  0.0047  0.0832  0.1584
  107OSM    H6G10938   5.603   0.618   6.232 -0.1484  0.7684 -0.0033
  107OSM    C7F10939   5.452   0.539   6.080 -0.4155  0.4447  0.9580
  107OSM    H7F10940   5.380   0.616   6.116 -1.6450  0.4639 -1.3875
  107OSM    H7G10941   5.406   0.439   6.063  1.0803  0.2084 -2.5002
  107OSM    C8F10942   5.534   0.588   5.956  0.1734  0.1101  1.0386
  107OSM    H8F10943   5.599   0.671   5.990 -0.9638  2.2677 -1.6734
  107OSM    H8G10944   5.467   0.624   5.876  3.3841 -0.2942 -2.0658
  107OSM    C9F10945   5.617   0.483   5.892 -0.7404  0.4946 -0.2348
  107OSM    H9F10946   5.657   0.405   5.959 -0.9517 -0.6385 -1.3930
  107OSM   C10F10947   5.661   0.476   5.762  0.1605  0.2979 -0.4473
  107OSM   H10F10948   5.715   0.388   5.722  0.2981  0.7796 -1.3402
  107OSM   C11F10949   5.642   0.584   5.655  0.2668 -0.2266  0.8297
  107OSM   H11F10950   5.737   0.643   5.652  0.0768  0.0515 -0.2425
  107OSM   H11G10951   5.561   0.657   5.679 -0.7918 -0.0606 -2.7207
  107OSM   C12F10952   5.614   0.549   5.503 -0.5911 -0.6735 -0.2714
  107OSM   H12F10953   5.715   0.516   5.471 -0.2992  0.4361 -0.5397
  107OSM   H12G10954   5.602   0.645   5.448 -0.3780 -1.5949 -1.9669
  107OSM   C13F10955   5.496   0.457   5.477 -0.7023 -0.6905 -0.3700
  107OSM   H13F10956   5.411   0.467   5.548 -0.5099  0.7107 -0.3127
  107OSM   H13G10957   5.533   0.354   5.491  1.3965 -0.2681 -2.1946
  107OSM   C14F10958   5.441   0.470   5.330  0.4227  0.1748 -0.8062
  107OSM   H14F10959   5.381   0.564   5.330 -1.4611 -0.9763 -0.7581
  107OSM   H14G10960   5.366   0.389   5.321  0.1383  0.1469  1.3121
  107OSM   C15F10961   5.542   0.468   5.224 -0.2294 -0.2303  0.7545
  107OSM   H15F10962   5.639   0.520   5.240  0.3231 -0.8381 -0.5098
  107OSM   H15G10963   5.505   0.517   5.131 -0.3904 -0.7211  0.5598
  107OSM   C16F10964   5.575   0.324   5.180 -0.0232 -0.6350 -0.4682
  107OSM   H16F10965   5.483   0.268   5.155  0.7490 -1.5054 -1.4802
  107OSM   H16G10966   5.624   0.278   5.268 -2.2930 -0.2044  1.1041
  107OSM   C17F10967   5.669   0.322   5.054  0.0887 -0.0749 -1.3766
  107OSM   H17F10968   5.627   0.384   4.972 -0.6939  1.5282  0.1701
  107OSM   H17G10969   5.670   0.215   5.022 -3.2028 -1.0649  1.2553
  107OSM   C18F10970   5.808   0.370   5.094  0.0526 -0.0661  0.2293
  107OSM   H18F10971   5.844   0.474   5.079  0.8109  0.0399  2.3200
  107OSM   H18G10972   5.888   0.301   5.058 -0.8559 -0.6802 -0.6591
  107OSM   H18H10973   5.811   0.362   5.205  0.0326  1.2867  0.3471
  108OSM      N10974   3.091   6.515   7.238  0.1248  0.3016  0.5437
  108OSM    C1510975   3.045   6.642   7.301  0.1149  0.0437 -0.3090
  108OSM   H15A10976   2.958   6.638   7.364 -0.6486  0.2881 -1.3352
  108OSM   H15B10977   3.030   6.724   7.232  1.2180  0.5148 -0.0186
  108OSM   H15C10978   3.129   6.687   7.352  0.6114 -0.6117 -0.5185
  108OSM    C1410979   3.233   6.539   7.189  0.6649 -0.0911  0.2122
  108OSM   H14A10980   3.231   6.610   7.107  0.0231  0.8670  1.0295
  108OSM   H14B10981   3.281   6.447   7.159 -0.7795 -0.4701 -1.1063
  108OSM   H14C10982   3.295   6.584   7.265 -1.0021 -0.5602  1.9353
  108OSM    C1310983   3.093   6.417   7.351 -0.7771  0.3840 -0.2838
  108OSM   H13A10984   3.110   6.317   7.314  0.0584  0.8933 -1.3246
  108OSM   H13B10985   2.996   6.413   7.399 -0.9434  1.2596 -0.5281
  108OSM   H13C10986   3.171   6.445   7.419 -1.1476 -1.0467  0.7659
  108OSM    C1210987   3.004   6.458   7.130  0.1457 -0.2980  0.4469
  108OSM   H12A10988   3.044   6.368   7.086 -1.1730 -0.9262  0.4829
  108OSM   H12B10989   3.007   6.519   7.041 -0.3951 -0.9751 -0.0510
  108OSM    C1110990   2.862   6.423   7.172  0.1003 -0.3784 -0.0730
  108OSM   H11A10991   2.795   6.412   7.084 -0.4795 -0.2013  0.3421
  108OSM   H11B10992   2.823   6.515   7.219 -0.6492 -0.4666 -0.5001
  108OSM      P10993   2.855   6.157   7.181  0.0319  0.2048  0.2415
  108OSM    O1310994   2.989   6.093   7.169 -0.2115  0.7068  0.2800
  108OSM    O1410995   2.750   6.083   7.255 -0.9826 -0.2448  0.0938
  108OSM    O1110996   2.805   6.177   7.030 -0.6616  0.1492  0.1080
  108OSM    O1210997   2.864   6.304   7.246  0.2930  0.4160  0.0466
  108OSM    C1S10998   2.809   6.072   6.933 -0.1086  0.7206 -0.5801
  108OSM    H1S10999   2.742   5.989   6.964  0.6744 -0.3194 -1.5899
  108OSM    H1T11000   2.909   6.024   6.921  0.2661  1.3195  0.0801
  108OSM     NF11001   2.714   5.998   6.725 -0.3526 -0.0177  0.0589
  108OSM    HNF11002   2.778   5.955   6.663 -0.6124 -0.0114 -0.2151
  108OSM    C2S11003   2.760   6.109   6.795  0.2004 -0.1242  0.0389
  108OSM    H2S11004   2.674   6.178   6.809 -1.2422 -1.7140 -0.6748
  108OSM    C3S11005   2.872   6.196   6.724 -0.2071 -0.9117  0.6560
  108OSM    H3S11006   2.961   6.134   6.700  0.4541 -0.2627  1.3859
  108OSM     O311007   2.917   6.306   6.802 -0.0419 -0.0551 -0.0438
  108OSM    HO311008   2.869   6.278   6.880 -1.3360 -1.0981 -1.1483
  108OSM    C4S11009   2.830   6.254   6.596  0.2798 -0.7538  0.8728
  108OSM    H4S11010   2.852   6.196   6.505 -0.2368  2.2466 -1.3448
  108OSM    C5S11011   2.785   6.380   6.569  0.1886 -0.1230 -0.8270
  108OSM    H5S11012   2.774   6.449   6.655  0.9892 -0.0371 -0.7808
  108OSM    C6S11013   2.748   6.443   6.440 -0.4542 -0.1786  0.0175
  108OSM    H6S11014   2.683   6.533   6.447  0.5047  0.7389 -2.0268
  108OSM    H6T11015   2.685   6.371   6.384 -1.2933 -2.3280  3.3826
  108OSM    C7S11016   2.875   6.493   6.374 -0.4951 -0.1020  0.8446
  108OSM    H7S11017   2.953   6.414   6.375  0.8620  1.2011  1.7052
  108OSM    H7T11018   2.917   6.579   6.430 -0.1286  2.1037 -2.4899
  108OSM    C8S11019   2.853   6.546   6.234 -0.3763 -0.6138  0.1554
  108OSM    H8S11020   2.789   6.637   6.241  0.1657 -0.1574 -0.7305
  108OSM    H8T11021   2.808   6.464   6.174 -3.3297  0.3997  0.8077
  108OSM    C9S11022   2.984   6.586   6.167  0.2455 -0.1858 -0.1319
  108OSM    H9S11023   3.040   6.491   6.181  0.2704  0.0289  1.3697
  108OSM    H9T11024   3.054   6.661   6.210 -1.2108  1.0035  0.2596
  108OSM   C10S11025   2.963   6.604   6.018  0.0693 -0.5721 -0.3192
  108OSM   H10S11026   2.898   6.520   5.986 -0.7560 -1.2354  2.7840
  108OSM   H10T11027   3.065   6.584   5.979 -0.6959 -1.7336 -1.8408
  108OSM   C11S11028   2.912   6.743   5.955 -0.6088  0.2480  0.6534
  108OSM   H11S11029   2.969   6.833   5.988 -0.9166  0.4726  0.5695
  108OSM   H11T11030   2.809   6.759   5.991 -0.8755 -0.3304  0.1591
  108OSM   C12S11031   2.916   6.749   5.806  0.4214  0.1867  0.2700
  108OSM   H12S11032   2.842   6.821   5.763  2.3730  2.8670  1.1389
  108OSM   H12T11033   2.900   6.649   5.760 -0.2005  0.1322  0.5931
  108OSM   C13S11034   3.053   6.804   5.759 -0.0794  0.4331 -0.0447
  108OSM   H13S11035   3.123   6.742   5.819  0.7852 -0.2594 -1.7096
  108OSM   H13T11036   3.062   6.909   5.792  0.3445  0.6690 -0.8990
  108OSM   C14S11037   3.079   6.789   5.607  0.2854  0.0430 -0.3536
  108OSM   H14S11038   3.037   6.690   5.578  2.0813 -0.8749  0.0609
  108OSM   H14T11039   3.187   6.803   5.585  0.8502 -0.1821  2.0818
  108OSM   C15S11040   3.007   6.895   5.516  0.7566  0.1912  0.9301
  108OSM   H15S11041   3.060   6.993   5.516  0.5155  0.3448  2.6043
  108OSM   H15T11042   2.917   6.925   5.574 -1.3074 -0.8241 -1.5707
  108OSM   C16S11043   2.959   6.843   5.382 -0.6081  0.4989  0.3239
  108OSM   H16S11044   2.856   6.885   5.379 -1.0230 -0.3439  1.9889
  108OSM   H16T11045   2.959   6.732   5.384  2.1360  0.4229  0.1998
  108OSM   C17S11046   3.038   6.894   5.262  0.2908  0.2403  0.7958
  108OSM   H17S11047   3.025   7.003   5.246  0.6490  0.1107 -0.4675
  108OSM   H17T11048   2.994   6.836   5.178  0.0967  2.7154 -0.8947
  108OSM   C18S11049   3.188   6.869   5.283 -0.5020  0.2561 -0.1008
  108OSM   H18S11050   3.219   6.765   5.309 -1.0379  0.0051 -0.4301
  108OSM   H18T11051   3.219   6.941   5.362  2.2370  1.0289 -1.7668
  108OSM   H18U11052   3.240   6.902   5.191 -2.4303  0.4518 -1.1921
  108OSM    C1F11053   2.600   5.940   6.739 -0.0505 -0.3418 -0.0329
  108OSM     OF11054   2.511   5.978   6.817  0.4824  0.1507  0.1022
  108OSM    C2F11055   2.579   5.813   6.663 -0.4142 -0.6856  0.1635
  108OSM    H2F11056   2.574   5.723   6.728  1.5374 -1.1228 -0.2156
  108OSM    H2G11057   2.668   5.785   6.603 -0.6180 -1.4222  0.1896
  108OSM    C3F11058   2.464   5.819   6.567  0.2694 -0.3649  0.2413
  108OSM    H3F11059   2.490   5.883   6.480  1.3349 -2.0618 -0.7563
  108OSM    H3G11060   2.375   5.873   6.605 -0.9031 -1.7611 -0.4096
  108OSM    C4F11061   2.429   5.681   6.513  0.5741  0.3228 -0.5135
  108OSM    H4F11062   2.442   5.612   6.599 -1.1997 -2.0415 -2.0230
  108OSM    H4G11063   2.509   5.647   6.445 -0.6832  0.0568 -1.9122
  108OSM    C5F11064   2.288   5.671   6.450  0.1166 -0.0186 -0.1129
  108OSM    H5F11065   2.216   5.674   6.534 -0.0294 -1.0756 -0.1772
  108OSM    H5G11066   2.284   5.568   6.409  2.4171 -0.1188 -0.2167
  108OSM    C6F11067   2.247   5.773   6.340  0.0710  0.2469 -0.2137
  108OSM    H6F11068   2.221   5.869   6.389  0.1666  1.5582 -2.5528
  108OSM    H6G11069   2.149   5.740   6.300 -1.1732  3.6981 -0.3495
  108OSM    C7F11070   2.352   5.787   6.233 -0.0057  0.3496  0.1275
  108OSM    H7F11071   2.379   5.694   6.177  1.9961 -0.6823  2.5817
  108OSM    H7G11072   2.450   5.809   6.281  1.7238 -1.2694 -2.3322
  108OSM    C8F11073   2.308   5.887   6.126  0.7580 -0.1845 -0.1476
  108OSM    H8F11074   2.397   5.898   6.061  1.0576 -2.3260 -0.1657
  108OSM    H8G11075   2.287   5.984   6.178 -0.5813  0.4228 -1.7037
  108OSM    C9F11076   2.188   5.846   6.045  0.2670 -0.0236 -0.2709
  108OSM    H9F11077   2.174   5.738   6.029 -2.5103  0.4502 -1.5143
  108OSM   C10F11078   2.106   5.924   5.968 -0.5974 -0.2359 -0.5252
  108OSM   H10F11079   2.028   5.870   5.914 -0.8066 -1.1667  0.6625
  108OSM   C11F11080   2.124   6.076   5.946  0.6394  0.0513  0.0048
  108OSM   H11F11081   2.170   6.132   6.030  2.3220  0.5676 -1.2088
  108OSM   H11G11082   2.022   6.120   5.939  0.0419 -1.2428  0.2932
  108OSM   C12F11083   2.206   6.106   5.830  0.2927 -0.5503  0.5618
  108OSM   H12F11084   2.310   6.080   5.862  1.1669  3.6739  1.7957
  108OSM   H12G11085   2.209   6.215   5.809  1.8818 -0.7249 -0.3236
  108OSM   C13F11086   2.162   6.026   5.704  0.1902  0.1232 -0.0947
  108OSM   H13F11087   2.141   6.102   5.625 -0.0199 -1.0395 -1.1862
  108OSM   H13G11088   2.073   5.961   5.712  1.7615 -2.1180  0.1297
  108OSM   C14F11089   2.274   5.938   5.656 -0.1027 -0.0741 -0.1912
  108OSM   H14F11090   2.285   5.860   5.734  0.9205  1.1614  0.9295
  108OSM   H14G11091   2.359   6.008   5.649  0.6002 -0.9595 -0.8645
  108OSM   C15F11092   2.247   5.867   5.523  0.1489  0.2737  0.3782
  108OSM   H15F11093   2.249   5.938   5.437  2.2923  2.0656  1.7827
  108OSM   H15G11094   2.144   5.825   5.528  1.3563 -3.1396 -0.3221
  108OSM   C16F11095   2.334   5.740   5.498 -0.1936 -0.3122  0.0280
  108OSM   H16F11096   2.325   5.678   5.590 -0.0953 -1.3406 -0.6344
  108OSM   H16G11097   2.440   5.764   5.525 -1.0385  1.9391  1.6471
  108OSM   C17F11098   2.317   5.680   5.358  0.0956  0.2618 -0.3859
  108OSM   H17F11099   2.398   5.604   5.357  2.3695  2.5298 -0.7629
  108OSM   H17G11100   2.349   5.750   5.278 -0.2816  0.3910 -0.4269
  108OSM   C18F11101   2.180   5.622   5.327 -0.0891  0.8316  0.9211
  108OSM   H18F11102   2.110   5.702   5.294  0.0059  1.0566  1.2702
  108OSM   H18G11103   2.134   5.585   5.421 -0.7175  1.9501  1.0617
  108OSM   H18H11104   2.176   5.542   5.249 -0.3879  0.8260  0.9390
  109OSM      N11105   5.110   1.952   7.079  0.1701 -0.0509  0.1788
  109OSM    C1511106   5.220   1.851   7.076 -0.2253 -0.2842  0.0928
  109OSM   H15A11107   5.308   1.905   7.045 -0.2739 -0.8961 -1.1875
  109OSM   H15B11108   5.208   1.780   6.995  1.1251  2.0193 -2.2921
  109OSM   H15C11109   5.223   1.797   7.170 -0.0779 -2.7416 -1.2348
  109OSM    C1411110   5.118   2.036   7.197  0.6563  0.1797 -0.8589
  109OSM   H14A11111   5.062   2.128   7.188 -0.2845 -0.3778 -0.8083
  109OSM   H14B11112   5.219   2.052   7.233  0.0674 -2.9324  2.8655
  109OSM   H14C11113   5.091   1.984   7.288  1.5646 -2.0951 -1.8027
  109OSM    C1311114   5.155   2.040   6.962 -0.0972  0.1307 -0.6419
  109OSM   H13A11115   5.079   2.116   6.947 -1.5211 -1.0818  0.1350
  109OSM   H13B11116   5.161   1.982   6.870  0.1325 -1.8229  0.5427
  109OSM   H13C11117   5.256   2.075   6.972  0.0791 -0.4175 -0.4742
  109OSM    C1211118   4.978   1.882   7.052 -0.1509  0.0513 -0.3841
  109OSM   H12A11119   4.904   1.957   7.073  0.9373  1.1279 -0.2690
  109OSM   H12B11120   4.965   1.801   7.123  3.1009  2.0279  2.7992
  109OSM    C1111121   4.960   1.812   6.912  0.1124  0.6336  0.0536
  109OSM   H11A11122   4.983   1.890   6.837 -1.1408  1.0489  0.0702
  109OSM   H11B11123   4.852   1.786   6.903  0.1132  0.0698  1.3086
  109OSM      P11124   5.014   1.569   6.958 -0.1066  0.3916 -0.3752
  109OSM    O1311125   5.136   1.513   7.017  0.9355 -1.1346 -0.0267
  109OSM    O1411126   4.899   1.584   7.047  0.1794  1.0005 -0.7787
  109OSM    O1111127   4.965   1.477   6.836  0.1406  0.4206 -0.1840
  109OSM    O1211128   5.046   1.706   6.884 -0.2820  0.4916 -0.3274
  109OSM    C1S11129   4.915   1.529   6.709 -0.0691 -0.0602 -0.5541
  109OSM    H1S11130   4.976   1.613   6.670 -0.7224  0.1683 -1.0986
  109OSM    H1T11131   4.809   1.559   6.723 -0.3727 -1.3478  0.1195
  109OSM     NF11132   4.901   1.496   6.459 -0.1608 -0.4666  0.2282
  109OSM    HNF11133   4.810   1.509   6.421  0.7152  1.3746 -1.3943
  109OSM    C2S11134   4.923   1.429   6.588 -0.1380 -0.2253  0.1858
  109OSM    H2S11135   5.030   1.397   6.583 -0.1524 -0.1437 -0.7932
  109OSM    C3S11136   4.845   1.299   6.612  0.2319 -0.1268 -0.5551
  109OSM    H3S11137   4.736   1.318   6.620  0.0999 -0.8637 -0.5431
  109OSM     O311138   4.884   1.236   6.741 -0.1970 -0.5315 -0.1817
  109OSM    HO311139   4.914   1.314   6.788 -0.4779  0.5823 -1.7671
  109OSM    C4S11140   4.859   1.203   6.499  0.3655 -0.1139 -0.5282
  109OSM    H4S11141   4.769   1.210   6.436 -0.4729 -1.1301  0.5153
  109OSM    C5S11142   4.965   1.128   6.459 -0.5931  0.3896 -1.2593
  109OSM    H5S11143   5.056   1.127   6.520 -0.1024 -2.1471 -1.8946
  109OSM    C6S11144   4.963   1.051   6.330 -1.1956  0.4422 -0.1563
  109OSM    H6S11145   5.042   0.974   6.343 -1.1517  0.9250  3.1472
  109OSM    H6T11146   4.985   1.127   6.252 -0.8060  0.6132  0.1163
  109OSM    C7S11147   4.828   0.992   6.287  0.4496  0.0085 -0.4517
  109OSM    H7S11148   4.741   1.061   6.298 -0.6820 -1.4653  0.1444
  109OSM    H7T11149   4.807   0.906   6.353 -0.6551  1.1855  0.7951
  109OSM    C8S11150   4.825   0.951   6.136  0.2531 -0.4020  0.3239
  109OSM    H8S11151   4.906   0.877   6.120 -1.5495 -3.0388  2.4815
  109OSM    H8T11152   4.845   1.043   6.077  0.9748 -2.5974 -3.1390
  109OSM    C9S11153   4.686   0.910   6.078  0.4346  0.4909  0.2139
  109OSM    H9S11154   4.679   0.951   5.975  0.2329  0.1030  0.0698
  109OSM    H9T11155   4.609   0.968   6.134  0.8634 -0.8328  2.2784
  109OSM   C10S11156   4.656   0.761   6.080  0.7480  0.2651 -0.0086
  109OSM   H10S11157   4.556   0.744   6.036  0.7835 -0.2449  0.0993
  109OSM   H10T11158   4.646   0.723   6.184 -1.5336  2.0399  0.4922
  109OSM   C11S11159   4.762   0.667   6.015  0.5982  0.1924 -0.3200
  109OSM   H11S11160   4.713   0.571   5.986 -1.1806  0.7710  0.6552
  109OSM   H11T11161   4.851   0.643   6.077 -0.4055 -1.1278  0.6779
  109OSM   C12S11162   4.819   0.718   5.878 -0.0373  1.0179 -0.4013
  109OSM   H12S11163   4.888   0.638   5.844  2.6549  2.7620  0.5934
  109OSM   H12T11164   4.885   0.807   5.886  1.6311 -0.3045  1.5729
  109OSM   C13S11165   4.720   0.728   5.752  0.0755  0.6131 -0.5278
  109OSM   H13S11166   4.635   0.800   5.764 -2.1499 -1.8229 -0.8300
  109OSM   H13T11167   4.679   0.626   5.737  0.4727  0.4229 -0.3220
  109OSM   C14S11168   4.791   0.783   5.630 -0.2184  0.1636 -0.3348
  109OSM   H14S11169   4.877   0.716   5.609 -1.3886 -1.0346 -1.3820
  109OSM   H14T11170   4.825   0.886   5.655 -2.4766  0.7272  0.6892
  109OSM   C15S11171   4.708   0.799   5.499 -0.1485  0.7713 -0.8914
  109OSM   H15S11172   4.618   0.864   5.510 -0.4485  0.2173  0.0184
  109OSM   H15T11173   4.677   0.694   5.480  1.0108 -0.4429  3.0772
  109OSM   C16S11174   4.795   0.847   5.382  0.5233  0.0767 -0.0868
  109OSM   H16S11175   4.893   0.802   5.408  2.0029  3.4622  0.8802
  109OSM   H16T11176   4.807   0.958   5.389  4.2981 -0.1986 -0.3908
  109OSM   C17S11177   4.746   0.799   5.245 -0.3575 -0.2250  0.5127
  109OSM   H17S11178   4.668   0.872   5.212  0.1077 -0.3072 -0.8331
  109OSM   H17T11179   4.703   0.697   5.249  0.9360 -0.8763 -1.0153
  109OSM   C18S11180   4.860   0.800   5.145  0.1991 -0.2963  0.5060
  109OSM   H18S11181   4.913   0.898   5.150 -1.1472  0.5586 -0.9294
  109OSM   H18T11182   4.817   0.792   5.043 -3.9713  0.2487  2.0385
  109OSM   H18U11183   4.932   0.720   5.171 -0.1384  0.2079  3.2903
  109OSM    C1F11184   4.989   1.579   6.405  0.1063  0.7925 -0.2026
  109OSM     OF11185   5.104   1.583   6.453 -0.3681  0.2517  0.6463
  109OSM    C2F11186   4.942   1.662   6.287 -0.2308 -0.4198 -0.5530
  109OSM    H2F11187   4.902   1.762   6.315  2.7373  1.1272 -1.4519
  109OSM    H2G11188   4.865   1.610   6.226 -1.5564  0.1839  0.5481
  109OSM    C3F11189   5.070   1.708   6.202  0.2605  0.4928  0.5926
  109OSM    H3F11190   5.133   1.619   6.184 -0.0250  0.2862  0.5994
  109OSM    H3G11191   5.126   1.788   6.254 -1.9640  2.5844 -0.0443
  109OSM    C4F11192   5.026   1.768   6.067 -0.9228  0.2371 -0.0159
  109OSM    H4F11193   5.018   1.879   6.066  2.0233  0.5837  1.7303
  109OSM    H4G11194   4.924   1.727   6.050 -0.0939 -2.6419  1.2496
  109OSM    C5F11195   5.116   1.725   5.946  0.1636 -0.2629  0.0613
  109OSM    H5F11196   5.115   1.614   5.935 -1.0435 -0.2324 -0.2957
  109OSM    H5G11197   5.223   1.754   5.957  0.0238  2.1082 -3.3090
  109OSM    C6F11198   5.075   1.790   5.814 -0.2412 -0.0129  0.5057
  109OSM    H6F11199   5.094   1.899   5.805 -0.1714 -0.0901 -0.3120
  109OSM    H6G11200   4.964   1.781   5.804 -0.5292  1.6866  1.6120
  109OSM    C7F11201   5.141   1.728   5.685 -0.3712  0.9786 -0.0029
  109OSM    H7F11202   5.122   1.618   5.690  1.1491  0.7448  2.8337
  109OSM    H7G11203   5.251   1.738   5.702 -0.4953  1.7568  0.3578
  109OSM    C8F11204   5.100   1.802   5.563 -0.3994 -0.2964  0.2189
  109OSM    H8F11205   5.175   1.774   5.486  1.3411  2.8928  0.5653
  109OSM    H8G11206   5.105   1.913   5.574  0.0846 -0.3880  1.0081
  109OSM    C9F11207   4.963   1.763   5.505  0.8520  0.1857 -0.1022
  109OSM    H9F11208   4.920   1.668   5.539  0.3559 -0.6260 -2.7797
  109OSM   C10F11209   4.895   1.836   5.412 -0.5377 -0.3705  0.3704
  109OSM   H10F11210   4.800   1.798   5.370  0.0924  0.5712 -2.1044
  109OSM   C11F11211   4.956   1.959   5.345 -0.4819  0.2064 -0.3464
  109OSM   H11F11212   5.055   1.983   5.390 -0.1636 -1.8858  0.1838
  109OSM   H11G11213   4.885   2.044   5.342 -2.5439 -1.4207 -0.1940
  109OSM   C12F11214   4.993   1.924   5.191  0.4675 -0.0822  0.0117
  109OSM   H12F11215   4.914   1.860   5.145 -0.8038  1.5389 -0.1661
  109OSM   H12G11216   5.085   1.862   5.189 -0.0420 -0.8392 -0.8665
  109OSM   C13F11217   5.016   2.038   5.094 -0.8503  0.6131  0.1487
  109OSM   H13F11218   4.923   2.098   5.082 -2.4814 -1.4543  1.5909
  109OSM   H13G11219   5.036   1.992   4.995 -0.0404 -0.5407  0.8295
  109OSM   C14F11220   5.114   2.144   5.147 -0.1154  0.7291  0.0945
  109OSM   H14F11221   5.211   2.091   5.155 -0.3401  0.0355 -1.4430
  109OSM   H14G11222   5.089   2.195   5.243  2.3974  0.3268  1.0396
  109OSM   C15F11223   5.138   2.254   5.037 -0.0920 -0.4856 -0.6036
  109OSM   H15F11224   5.040   2.300   5.014  0.1464 -0.7001 -2.1167
  109OSM   H15G11225   5.172   2.199   4.947 -0.2082 -1.1540 -0.2548
  109OSM   C16F11226   5.234   2.367   5.090  0.8436 -0.1757 -0.2060
  109OSM   H16F11227   5.318   2.316   5.143  2.5572  1.5491 -1.1577
  109OSM   H16G11228   5.168   2.429   5.154 -1.4408  0.7489 -3.2688
  109OSM   C17F11229   5.297   2.454   4.985  0.1811 -0.2444  0.4460
  109OSM   H17F11230   5.216   2.480   4.913 -0.3562 -1.0842  0.7324
  109OSM   H17G11231   5.378   2.397   4.935 -1.5362 -1.5862 -0.9589
  109OSM   C18F11232   5.348   2.587   5.039  0.1866 -0.8183 -0.3764
  109OSM   H18F11233   5.431   2.562   5.109  0.2280 -2.1824 -0.8918
  109OSM   H18G11234   5.272   2.645   5.095  0.6801 -1.4560  1.0081
  109OSM   H18H11235   5.387   2.657   4.962 -0.8562 -0.1192 -0.2831
  110OSM      N11236   1.655   6.461   7.322  0.3485 -0.1025 -0.4714
  110OSM    C1511237   1.584   6.372   7.415  0.8052 -0.0654 -0.1350
  110OSM   H15A11238   1.523   6.294   7.372 -0.2994  0.2354  0.8321
  110OSM   H15B11239   1.516   6.426   7.480  0.7453 -1.2203  0.8065
  110OSM   H15C11240   1.647   6.315   7.483  1.1252  0.9210  0.4290
  110OSM    C1411241   1.547   6.545   7.266  0.2873 -0.3427  0.0829
  110OSM   H14A11242   1.474   6.474   7.229  0.1706 -1.4604  2.2956
  110OSM   H14B11243   1.584   6.618   7.196  0.0836  0.2416  0.5748
  110OSM   H14C11244   1.486   6.604   7.333 -0.1525 -2.0138  1.2165
  110OSM    C1311245   1.749   6.545   7.396 -0.9971  0.7047 -0.1216
  110OSM   H13A11246   1.702   6.601   7.475  0.6564 -2.2721  3.2805
  110OSM   H13B11247   1.794   6.611   7.323 -1.5453  1.5462  0.2886
  110OSM   H13C11248   1.824   6.489   7.450 -0.1883  2.8876  1.1913
  110OSM    C1211249   1.717   6.379   7.206 -0.8108 -0.1275 -0.1527
  110OSM   H12A11250   1.787   6.304   7.239 -0.3083 -0.2628 -1.4446
  110OSM   H12B11251   1.788   6.440   7.152 -1.8487 -1.2953 -3.0603
  110OSM    C1111252   1.617   6.318   7.103 -0.4799 -0.1351 -0.6874
  110OSM   H11A11253   1.672   6.248   7.037 -0.8090 -0.0265 -1.0845
  110OSM   H11B11254   1.585   6.402   7.037 -1.7113  0.0570  0.1202
  110OSM      P11255   1.457   6.110   7.193 -0.5580 -0.0020  0.0512
  110OSM    O1311256   1.517   6.050   7.316  0.2400 -0.0974  0.0012
  110OSM    O1411257   1.308   6.109   7.184  0.3142 -0.3431  0.0476
  110OSM    O1111258   1.521   6.044   7.060  0.2002  0.1719  0.2538
  110OSM    O1211259   1.502   6.267   7.168 -0.7272 -0.2900 -0.1726
  110OSM    C1S11260   1.461   6.068   6.931 -0.1222 -0.4371 -0.1836
  110OSM    H1S11261   1.448   6.175   6.902 -0.2353 -0.8175 -1.6065
  110OSM    H1T11262   1.356   6.030   6.936 -0.7789  1.4465  1.5987
  110OSM     NF11263   1.465   6.027   6.684 -0.1156 -0.2797 -0.7255
  110OSM    HNF11264   1.400   5.957   6.655  0.6601 -1.0581 -0.6546
  110OSM    C2S11265   1.537   5.994   6.810  0.9447 -0.8376 -0.2837
  110OSM    H2S11266   1.641   6.031   6.801  1.3263 -0.4664  3.7489
  110OSM    C3S11267   1.537   5.840   6.834 -0.6093 -0.8837  0.5984
  110OSM    H3S11268   1.431   5.816   6.810 -1.2720 -0.6022  3.0050
  110OSM     O311269   1.552   5.800   6.968  0.0022 -0.2126 -0.3411
  110OSM    HO311270   1.513   5.866   7.025 -0.3499 -0.6484 -0.0706
  110OSM    C4S11271   1.632   5.762   6.748  0.6357 -0.1618 -0.0945
  110OSM    H4S11272   1.572   5.698   6.681 -1.0347 -2.5427  3.3482
  110OSM    C5S11273   1.767   5.760   6.757  0.2683  0.2199  0.6925
  110OSM    H5S11274   1.813   5.831   6.827 -1.7549  1.2266  1.0711
  110OSM    C6S11275   1.859   5.678   6.663  0.2282 -0.2013 -0.0996
  110OSM    H6S11276   1.905   5.597   6.722 -1.6649 -0.8988  0.5097
  110OSM    H6T11277   1.940   5.748   6.633  0.0143 -0.5448 -1.5751
  110OSM    C7S11278   1.789   5.623   6.536 -0.4418 -0.6723  0.1729
  110OSM    H7S11279   1.745   5.693   6.463  1.8419  0.1861 -0.4790
  110OSM    H7T11280   1.700   5.566   6.570 -0.5037  0.2437  1.6319
  110OSM    C8S11281   1.880   5.526   6.456  0.4658 -0.4952 -0.4683
  110OSM    H8S11282   1.938   5.468   6.531  1.6972  0.5952 -0.5611
  110OSM    H8T11283   1.956   5.583   6.399  0.6282 -0.3862 -0.1456
  110OSM    C9S11284   1.788   5.437   6.369 -0.4419  0.4179  0.1450
  110OSM    H9S11285   1.706   5.501   6.329 -1.0911  0.5521  1.6443
  110OSM    H9T11286   1.739   5.364   6.437 -0.9083 -0.7478 -1.3872
  110OSM   C10S11287   1.864   5.367   6.258 -0.4449 -0.2668  0.0411
  110OSM   H10S11288   1.801   5.281   6.226  1.2620 -1.2313 -0.8485
  110OSM   H10T11289   1.957   5.317   6.292 -1.4760 -2.6365 -0.4490
  110OSM   C11S11290   1.895   5.462   6.141  0.6670  0.3083 -0.4629
  110OSM   H11S11291   1.930   5.564   6.170 -2.0562  1.7743 -1.8584
  110OSM   H11T11292   1.799   5.478   6.087 -0.2727  1.3094  1.3712
  110OSM   C12S11293   1.993   5.408   6.041  0.1097 -0.0282  1.2481
  110OSM   H12S11294   1.955   5.306   6.015  0.1915  0.3592 -0.5046
  110OSM   H12T11295   2.093   5.394   6.088  0.8886  0.1097 -0.3261
  110OSM   C13S11296   2.015   5.479   5.903  0.1985 -0.6473  0.0496
  110OSM   H13S11297   2.045   5.414   5.818  1.1409 -1.2372  0.8203
  110OSM   H13T11298   2.095   5.555   5.913  1.8208 -2.1391 -1.0620
  110OSM   C14S11299   1.897   5.561   5.848 -0.2930 -0.3447  0.2108
  110OSM   H14S11300   1.873   5.629   5.932  3.4843 -1.6812  2.6561
  110OSM   H14T11301   1.809   5.495   5.836  0.0436 -0.5195 -1.7323
  110OSM   C15S11302   1.927   5.636   5.715  0.3579 -0.0055  0.4495
  110OSM   H15S11303   1.971   5.562   5.644  0.2892  1.1189 -0.8020
  110OSM   H15T11304   1.994   5.723   5.733 -2.1005  1.6484  2.3410
  110OSM   C16S11305   1.806   5.685   5.642 -0.0622 -0.3752  0.1907
  110OSM   H16S11306   1.747   5.752   5.708 -1.2412  0.3449 -1.5185
  110OSM   H16T11307   1.735   5.606   5.613 -1.6552  1.2043 -0.4230
  110OSM   C17S11308   1.834   5.758   5.509 -0.7145 -0.4397 -0.1073
  110OSM   H17S11309   1.908   5.705   5.445  0.6390  1.9032 -0.6160
  110OSM   H17T11310   1.891   5.850   5.536 -0.9889 -0.0513 -0.8280
  110OSM   C18S11311   1.717   5.792   5.426  0.7373 -0.3459  0.0087
  110OSM   H18S11312   1.652   5.703   5.412  1.8485 -1.0238 -1.0882
  110OSM   H18T11313   1.753   5.819   5.324  3.1167 -3.2368 -0.0569
  110OSM   H18U11314   1.663   5.871   5.482  0.5787 -0.2665 -0.2547
  110OSM    C1F11315   1.458   6.151   6.629 -0.3330  0.1183 -0.3481
  110OSM     OF11316   1.525   6.244   6.676  0.0821 -0.0121  0.5002
  110OSM    C2F11317   1.363   6.172   6.521  0.5334 -0.1049 -0.0470
  110OSM    H2F11318   1.261   6.136   6.550  0.1837  0.1657 -0.8965
  110OSM    H2G11319   1.401   6.119   6.431  2.9530 -1.5812  1.7374
  110OSM    C3F11320   1.369   6.317   6.472 -0.5992 -0.1069 -0.2285
  110OSM    H3F11321   1.474   6.337   6.441 -1.1208 -0.6755 -2.4795
  110OSM    H3G11322   1.360   6.384   6.561 -0.0898 -0.2432 -0.0669
  110OSM    C4F11323   1.289   6.361   6.360  0.7205 -0.6955  0.1026
  110OSM    H4F11324   1.184   6.332   6.383 -0.0135  0.7483 -1.1854
  110OSM    H4G11325   1.320   6.308   6.267 -2.4404 -0.6595 -1.1337
  110OSM    C5F11326   1.282   6.515   6.322  0.6033  0.6622 -0.6240
  110OSM    H5F11327   1.228   6.575   6.398  0.9572  0.6028 -0.3237
  110OSM    H5G11328   1.215   6.514   6.234  0.3053 -0.1196 -0.3933
  110OSM    C6F11329   1.415   6.581   6.281 -0.1354  0.0245 -0.2194
  110OSM    H6F11330   1.486   6.577   6.367  1.8568  0.0433 -1.7817
  110OSM    H6G11331   1.389   6.688   6.265 -2.7616 -0.7696 -1.9680
  110OSM    C7F11332   1.473   6.539   6.151  0.3418 -0.0698  0.7569
  110OSM    H7F11333   1.390   6.542   6.078  0.8674  1.8772  0.1715
  110OSM    H7G11334   1.509   6.434   6.149 -1.6431 -0.8105  1.2959
  110OSM    C8F11335   1.585   6.643   6.106  0.4056  0.8023 -0.1654
  110OSM    H8F11336   1.636   6.594   6.020 -1.3556  2.3733 -2.2109
  110OSM    H8G11337   1.663   6.652   6.185  1.6881 -0.7081 -1.2103
  110OSM    C9F11338   1.539   6.783   6.066 -0.1060 -0.3066 -0.2497
  110OSM    H9F11339   1.506   6.849   6.148 -0.5570  0.4089 -0.9932
  110OSM   C10F11340   1.551   6.833   5.943  0.1438  0.5736  0.5203
  110OSM   H10F11341   1.516   6.934   5.918 -1.0224 -0.3375 -1.7991
  110OSM   C11F11342   1.618   6.767   5.827  0.4514  0.2926 -0.5070
  110OSM   H11F11343   1.699   6.695   5.856 -0.3053 -1.5871 -2.7868
  110OSM   H11G11344   1.669   6.829   5.750  0.6984  0.6198 -0.0856
  110OSM   C12F11345   1.524   6.679   5.738  0.1764  0.4898 -0.2424
  110OSM   H12F11346   1.438   6.744   5.713 -0.3153 -0.4348 -1.0042
  110OSM   H12G11347   1.485   6.587   5.787  0.8089  0.2744 -0.1216
  110OSM   C13F11348   1.601   6.630   5.614  0.2061  0.6550 -0.7813
  110OSM   H13F11349   1.669   6.548   5.646  0.8867  1.3487 -0.3948
  110OSM   H13G11350   1.670   6.711   5.581  0.6010  0.6077 -0.0918
  110OSM   C14F11351   1.521   6.588   5.490  0.9359 -0.7010  0.8143
  110OSM   H14F11352   1.416   6.611   5.519  1.4634 -0.0909  2.3732
  110OSM   H14G11353   1.526   6.479   5.471 -2.2127 -0.8498  0.4060
  110OSM   C15F11354   1.553   6.670   5.362 -0.3072 -0.4391 -0.2385
  110OSM   H15F11355   1.545   6.777   5.392 -0.8581 -1.1086  2.3088
  110OSM   H15G11356   1.480   6.639   5.284 -0.2701  0.2319 -0.5416
  110OSM   C16F11357   1.695   6.655   5.304  0.4366  0.6539 -0.5385
  110OSM   H16F11358   1.704   6.586   5.218  0.2643  0.0634 -0.0839
  110OSM   H16G11359   1.752   6.625   5.394 -0.1401 -0.4819 -0.5392
  110OSM   C17F11360   1.754   6.786   5.255  0.2254  0.4993 -0.6216
  110OSM   H17F11361   1.862   6.778   5.230 -0.1006  0.6444 -2.1534
  110OSM   H17G11362   1.737   6.852   5.343 -1.5064  0.3764 -0.8256
  110OSM   C18F11363   1.688   6.838   5.123 -0.5997 -0.1322  0.1699
  110OSM   H18F11364   1.683   6.758   5.047  0.4593 -0.5234  0.4921
  110OSM   H18G11365   1.742   6.920   5.071  1.4777 -1.4776  0.1111
  110OSM   H18H11366   1.588   6.884   5.140 -0.5950 -0.0928  0.0913
  111OSM      N11367   2.613   4.445   7.658 -0.7555  0.0340 -0.1544
  111OSM    C1511368   2.492   4.508   7.717 -0.0140 -0.4643  0.6117
  111OSM   H15A11369   2.472   4.467   7.815  0.2564 -1.7653  0.1484
  111OSM   H15B11370   2.407   4.481   7.657 -0.1876 -0.3891  0.8186
  111OSM   H15C11371   2.495   4.615   7.734 -0.8041 -0.4981  1.0196
  111OSM    C1411372   2.721   4.460   7.760 -0.0583 -0.3582 -0.3876
  111OSM   H14A11373   2.696   4.423   7.858  0.3763 -3.0538 -1.2355
  111OSM   H14B11374   2.739   4.565   7.782  1.3297 -0.8310  0.8794
  111OSM   H14C11375   2.817   4.425   7.727  0.1487 -0.8478  0.6895
  111OSM    C1311376   2.583   4.305   7.630  0.2465  0.0325 -0.0162
  111OSM   H13A11377   2.557   4.256   7.722 -0.4780  0.7803  0.1877
  111OSM   H13B11378   2.667   4.261   7.578 -0.3668  1.8414 -2.7516
  111OSM   H13C11379   2.500   4.294   7.563  0.5580  2.4027 -0.9013
  111OSM    C1211380   2.657   4.519   7.532  0.1104  0.2358 -0.6025
  111OSM   H12A11381   2.757   4.485   7.511 -0.4541 -1.5782 -0.5640
  111OSM   H12B11382   2.670   4.624   7.553 -2.8727  0.6958 -0.5517
  111OSM    C1111383   2.576   4.507   7.405  0.1905 -0.4621 -1.4586
  111OSM   H11A11384   2.623   4.584   7.340  2.4909  1.0112  1.6381
  111OSM   H11B11385   2.471   4.537   7.425  0.6816 -1.0361  3.1524
  111OSM      P11386   2.467   4.332   7.249 -0.3171 -0.1913 -0.1329
  111OSM    O1311387   2.486   4.188   7.240 -0.4601  0.4410 -0.3581
  111OSM    O1411388   2.338   4.392   7.283 -0.3008 -0.0529 -0.0198
  111OSM    O1111389   2.517   4.386   7.109 -0.1871 -0.0495 -0.1824
  111OSM    O1211390   2.578   4.376   7.353  0.2015  0.6003  0.6875
  111OSM    C1S11391   2.654   4.432   7.089  0.1784 -0.0466 -0.0363
  111OSM    H1S11392   2.707   4.338   7.062  1.7477  1.3528 -2.1709
  111OSM    H1T11393   2.705   4.472   7.179 -1.0727 -1.0998  1.1972
  111OSM     NF11394   2.799   4.528   6.918 -0.7796 -0.0257  0.7046
  111OSM    HNF11395   2.822   4.625   6.924  0.2205  0.0871 -2.7951
  111OSM    C2S11396   2.659   4.505   6.948 -0.1517  0.1260 -0.6126
  111OSM    H2S11397   2.624   4.435   6.870 -0.7527 -0.5864  0.2658
  111OSM    C3S11398   2.579   4.637   6.963 -0.5135 -0.2318 -0.3438
  111OSM    H3S11399   2.625   4.691   7.049 -2.1306 -0.7618  0.8997
  111OSM     O311400   2.442   4.621   7.002  0.6955  0.2225  0.5687
  111OSM    HO311401   2.434   4.531   7.036  1.8661  0.3769  1.3018
  111OSM    C4S11402   2.594   4.722   6.840 -0.2618 -0.2865 -0.0952
  111OSM    H4S11403   2.668   4.803   6.851 -1.1645  0.6368 -0.6585
  111OSM    C5S11404   2.542   4.692   6.721 -0.8646 -0.5521  0.0396
  111OSM    H5S11405   2.488   4.597   6.709  0.7198 -1.4864 -0.1325
  111OSM    C6S11406   2.578   4.775   6.604  0.4109 -0.7427  0.1931
  111OSM    H6S11407   2.684   4.769   6.573  0.2209  2.1731 -1.4652
  111OSM    H6T11408   2.571   4.882   6.633  1.4516 -0.6712  0.2176
  111OSM    C7S11409   2.483   4.742   6.483  0.0050  0.0705  0.0078
  111OSM    H7S11410   2.381   4.776   6.511  0.1523  0.8498 -0.3792
  111OSM    H7T11411   2.482   4.632   6.467 -0.2354  0.1194 -0.3017
  111OSM    C8S11412   2.531   4.812   6.357 -0.1925  0.4347 -0.4430
  111OSM    H8S11413   2.624   4.762   6.323  0.8475  2.7566 -1.2394
  111OSM    H8T11414   2.554   4.919   6.373  0.7934 -0.1804  2.9333
  111OSM    C9S11415   2.432   4.804   6.242 -1.3566  0.2421 -0.5799
  111OSM    H9S11416   2.359   4.885   6.258  0.7955  1.8266  2.1317
  111OSM    H9T11417   2.383   4.704   6.234 -0.1381 -0.3073 -1.5533
  111OSM   C10S11418   2.490   4.814   6.104 -0.2198  0.4544  0.2795
  111OSM   H10S11419   2.419   4.793   6.021  1.1243 -0.3465 -0.7198
  111OSM   H10T11420   2.575   4.743   6.092 -0.9532 -0.5597  0.9039
  111OSM   C11S11421   2.532   4.961   6.079 -0.2458  0.2843 -0.2956
  111OSM   H11S11422   2.564   5.019   6.168 -2.7971 -0.8857  1.5336
  111OSM   H11T11423   2.445   5.023   6.047 -0.0054  0.8753  0.1718
  111OSM   C12S11424   2.646   4.983   5.980  0.6104  0.6549 -0.0682
  111OSM   H12S11425   2.731   4.915   6.001 -0.0616 -2.2219 -5.0510
  111OSM   H12T11426   2.681   5.089   5.981  0.2995  0.7651 -0.4534
  111OSM   C13S11427   2.596   4.956   5.841  0.1910 -0.2971 -0.2021
  111OSM   H13S11428   2.497   5.000   5.815 -0.6465 -2.9984 -1.9739
  111OSM   H13T11429   2.585   4.847   5.822 -0.6010 -0.0593 -1.1774
  111OSM   C14S11430   2.708   5.011   5.749  0.0892  1.1045  0.1062
  111OSM   H14S11431   2.800   4.959   5.785  0.6024  2.7189  1.1898
  111OSM   H14T11432   2.734   5.118   5.765  2.2227  0.6136  0.3173
  111OSM   C15S11433   2.674   4.961   5.607 -1.3377  0.0255 -0.4122
  111OSM   H15S11434   2.579   4.995   5.562 -1.7024 -1.2121 -0.6122
  111OSM   H15T11435   2.681   4.851   5.596  1.9538  0.3599 -3.6621
  111OSM   C16S11436   2.785   5.001   5.504  0.9480  0.3872 -1.0852
  111OSM   H16S11437   2.880   4.949   5.532  1.2542  0.4512 -1.9961
  111OSM   H16T11438   2.800   5.111   5.504  3.1141  0.1388 -0.5267
  111OSM   C17S11439   2.745   4.957   5.364 -0.5976  0.0519  0.5597
  111OSM   H17S11440   2.649   5.007   5.341 -1.6440 -1.6344  1.0854
  111OSM   H17T11441   2.727   4.848   5.352 -0.8338  0.2385 -0.8924
  111OSM   C18S11442   2.856   5.008   5.262 -0.5445 -0.5131 -0.0004
  111OSM   H18S11443   2.846   4.946   5.170  1.1497 -1.3644  0.3632
  111OSM   H18T11444   2.962   4.994   5.290 -0.5490 -1.5710 -0.4843
  111OSM   H18U11445   2.841   5.118   5.250  0.0673 -0.1906  1.9177
  111OSM    C1F11446   2.893   4.444   6.874 -0.5964  0.0221 -0.8610
  111OSM     OF11447   2.873   4.325   6.851 -0.5722  0.0947  0.4076
  111OSM    C2F11448   3.035   4.507   6.864 -0.7478  0.2063 -0.2335
  111OSM    H2F11449   3.060   4.540   6.967 -3.5674  2.9116 -0.2981
  111OSM    H2G11450   3.019   4.603   6.810 -0.1008  2.1890  2.8610
  111OSM    C3F11451   3.135   4.406   6.810 -0.0711 -0.3895  0.1535
  111OSM    H3F11452   3.111   4.395   6.702  2.1500  1.7485 -0.6340
  111OSM    H3G11453   3.120   4.312   6.867 -2.8260  0.9601  1.8781
  111OSM    C4F11454   3.283   4.444   6.807 -0.3682 -0.8729 -0.1026
  111OSM    H4F11455   3.310   4.430   6.914 -0.3834 -1.5793 -0.1863
  111OSM    H4G11456   3.292   4.553   6.793  0.8010 -0.9647 -0.2145
  111OSM    C5F11457   3.367   4.370   6.698  0.7810 -0.4184  0.3241
  111OSM    H5F11458   3.324   4.268   6.684 -1.1435  0.3645  0.1303
  111OSM    H5G11459   3.471   4.353   6.733  1.3704 -1.7778 -1.8775
  111OSM    C6F11460   3.378   4.445   6.567 -0.1846 -0.1509 -0.1241
  111OSM    H6F11461   3.416   4.547   6.589 -1.5830  0.6155 -1.0596
  111OSM    H6G11462   3.277   4.468   6.525 -1.3345 -1.7725  1.6216
  111OSM    C7F11463   3.468   4.382   6.463  0.0744 -0.0353  0.6217
  111OSM    H7F11464   3.421   4.289   6.425  1.8066 -1.2802  1.4129
  111OSM    H7G11465   3.555   4.337   6.514  0.4513 -2.5244 -2.0030
  111OSM    C8F11466   3.507   4.482   6.351  0.3822 -0.7219  0.0414
  111OSM    H8F11467   3.587   4.545   6.397 -0.6942 -0.5120  1.6923
  111OSM    H8G11468   3.417   4.542   6.326 -1.4671 -1.5903  3.8335
  111OSM    C9F11469   3.582   4.402   6.235  0.0798  0.3923 -0.5285
  111OSM    H9F11470   3.669   4.343   6.268 -0.0589  0.3745 -0.1957
  111OSM   C10F11471   3.544   4.395   6.110  0.3209  0.2608  0.0234
  111OSM   H10F11472   3.599   4.325   6.045  0.5202 -0.3677  0.8476
  111OSM   C11F11473   3.422   4.464   6.052 -0.2341 -0.2638  0.1347
  111OSM   H11F11474   3.420   4.567   6.093  1.6799 -0.6200  1.2577
  111OSM   H11G11475   3.329   4.424   6.099  0.4573  0.4401  2.2354
  111OSM   C12F11476   3.422   4.458   5.907  1.0476  0.7777  0.2667
  111OSM   H12F11477   3.433   4.352   5.879  1.2644  0.3724  1.7799
  111OSM   H12G11478   3.511   4.515   5.874  0.8171  1.1687  0.3058
  111OSM   C13F11479   3.296   4.505   5.834 -0.0027  0.1124  0.3445
  111OSM   H13F11480   3.271   4.610   5.863  2.0497  0.6874  0.1997
  111OSM   H13G11481   3.203   4.455   5.867 -0.5324  1.7983  1.5484
  111OSM   C14F11482   3.316   4.485   5.681  0.2429  0.2325 -0.2937
  111OSM   H14F11483   3.229   4.514   5.618  0.7525  0.8113 -0.7416
  111OSM   H14G11484   3.332   4.377   5.661 -0.6043 -0.0819  0.6208
  111OSM   C15F11485   3.437   4.569   5.631 -0.1262 -0.3614 -0.0742
  111OSM   H15F11486   3.529   4.550   5.691 -1.1742  2.0135  2.5285
  111OSM   H15G11487   3.403   4.672   5.658  1.9037  1.0053 -2.3474
  111OSM   C16F11488   3.456   4.561   5.481  1.1468 -0.0515 -0.6561
  111OSM   H16F11489   3.363   4.600   5.435 -0.5210 -0.9165  1.7426
  111OSM   H16G11490   3.459   4.454   5.451 -1.4828 -0.3910  0.0373
  111OSM   C17F11491   3.576   4.641   5.430  0.4967 -0.1059  0.0595
  111OSM   H17F11492   3.658   4.647   5.505 -1.2181 -0.1073  2.0226
  111OSM   H17G11493   3.528   4.742   5.430 -0.9276 -0.7586  0.9261
  111OSM   C18F11494   3.619   4.599   5.284  0.7054  0.6999  0.5025
  111OSM   H18F11495   3.660   4.498   5.305 -3.7459 -1.1042  1.7464
  111OSM   H18G11496   3.707   4.653   5.243  2.3640 -1.0094  1.6044
  111OSM   H18H11497   3.534   4.599   5.212 -0.9785 -0.0766  2.3928
  112OSM      N11498   5.589   0.274   7.277 -0.1099  0.3607 -0.6188
  112OSM    C1511499   5.553   0.387   7.370  0.2493 -0.6831 -0.3017
  112OSM   H15A11500   5.626   0.467   7.363 -1.6136  1.0798 -0.7877
  112OSM   H15B11501   5.550   0.353   7.472 -1.0020 -0.1518 -0.1394
  112OSM   H15C11502   5.452   0.421   7.350  0.6909  0.2334 -1.0858
  112OSM    C1411503   5.587   0.324   7.141  0.2410  0.3982  0.2029
  112OSM   H14A11504   5.493   0.374   7.120  0.6082  0.5911 -1.0413
  112OSM   H14B11505   5.599   0.249   7.065  0.9781 -0.1808  0.8664
  112OSM   H14C11506   5.654   0.408   7.127  0.4163  0.4497  1.2271
  112OSM    C1311507   5.723   0.228   7.310 -0.3047 -0.0707  0.1573
  112OSM   H13A11508   5.731   0.180   7.406 -1.0289  1.7123  1.1633
  112OSM   H13B11509   5.790   0.311   7.328 -1.7139  1.1429  0.0346
  112OSM   H13C11510   5.760   0.165   7.231  1.1595  0.6439  0.2537
  112OSM    C1211511   5.486   0.158   7.290 -1.0929 -0.6451 -0.5473
  112OSM   H12A11512   5.470   0.132   7.394  0.7676 -0.1593 -0.1004
  112OSM   H12B11513   5.523   0.070   7.239 -1.1350 -0.6294 -0.6047
  112OSM    C1111514   5.349   0.195   7.234 -0.0034  1.5111 -0.0333
  112OSM   H11A11515   5.294   0.099   7.249 -1.9217  2.5506 -0.0349
  112OSM   H11B11516   5.353   0.203   7.124 -1.2904  0.5012 -0.1863
  112OSM      P11517   5.185   0.408   7.253 -0.1576  0.1900 -0.2817
  112OSM    O1311518   5.044   0.371   7.279 -0.5259 -0.5016  0.3961
  112OSM    O1411519   5.248   0.527   7.314  0.5102 -0.2892  0.0743
  112OSM    O1111520   5.220   0.388   7.100  0.1623 -0.2451 -0.2489
  112OSM    O1211521   5.275   0.295   7.307  0.1020 -1.0655  0.3687
  112OSM    C1S11522   5.160   0.472   7.004 -0.1910  0.3558 -0.4424
  112OSM    H1S11523   5.214   0.569   7.000 -0.0485  0.3400  0.6908
  112OSM    H1T11524   5.052   0.494   7.021  0.1158  0.9813  0.8265
  112OSM     NF11525   5.108   0.503   6.767  0.1631  0.0096 -0.0825
  112OSM    HNF11526   5.011   0.512   6.742 -0.0124  1.2935  0.9784
  112OSM    C2S11527   5.159   0.408   6.860  0.1178  0.4202  0.1284
  112OSM    H2S11528   5.265   0.383   6.837  0.2340 -1.5476  2.3808
  112OSM    C3S11529   5.075   0.276   6.863  0.2114 -0.9830  0.7023
  112OSM    H3S11530   4.970   0.312   6.868  0.1759 -0.8292 -0.8715
  112OSM     O311531   5.089   0.190   6.973  0.2919  0.4697 -0.1075
  112OSM    HO311532   5.150   0.236   7.032  1.8449 -0.5780 -0.8175
  112OSM    C4S11533   5.089   0.195   6.737  0.7033  0.1946 -0.4521
  112OSM    H4S11534   4.990   0.183   6.691 -0.3057 -0.9343  1.8616
  112OSM    C5S11535   5.196   0.135   6.675  0.2060  0.2855 -0.1543
  112OSM    H5S11536   5.294   0.141   6.725 -0.3156 -0.3466  0.9884
  112OSM    C6S11537   5.166   0.047   6.553 -0.3305 -0.2990 -0.7627
  112OSM    H6S11538   5.063   0.052   6.513 -0.3862  0.5179 -0.5325
  112OSM    H6T11539   5.185  -0.058   6.584  0.9149  0.0231 -0.3542
  112OSM    C7S11540   5.265   0.074   6.431 -0.1156 -0.2748 -0.1065
  112OSM    H7S11541   5.367   0.071   6.474  0.8224  1.4555 -2.0553
  112OSM    H7T11542   5.240   0.182   6.416  1.2359  0.3095  1.5760
  112OSM    C8S11543   5.255  -0.004   6.305  0.1799  0.0544 -0.4663
  112OSM    H8S11544   5.152   0.010   6.268  0.4977 -0.0538 -1.4103
  112OSM    H8T11545   5.273  -0.112   6.322  0.7916  0.4432  1.7904
  112OSM    C9S11546   5.372   0.043   6.207  0.4085  0.1994  0.1832
  112OSM    H9S11547   5.466  -0.006   6.240  2.6708  3.0967 -1.4401
  112OSM    H9T11548   5.383   0.153   6.216  1.7632  0.2370 -1.5567
  112OSM   C10S11549   5.352  -0.009   6.070  0.4742 -0.0599  0.6867
  112OSM   H10S11550   5.258   0.018   6.018 -0.5640 -1.8989  1.5017
  112OSM   H10T11551   5.335  -0.118   6.070 -1.3397  0.1733 -0.9760
  112OSM   C11S11552   5.473   0.032   5.983  0.5298 -0.4112  0.0993
  112OSM   H11S11553   5.567  -0.012   6.022  0.0107 -1.8151 -0.1826
  112OSM   H11T11554   5.477   0.143   5.982 -3.4151 -0.1107  1.1765
  112OSM   C12S11555   5.466  -0.021   5.835  0.4123  0.4152 -0.1622
  112OSM   H12S11556   5.374   0.028   5.796  0.6699  1.8192  0.9265
  112OSM   H12T11557   5.443  -0.129   5.824 -0.4426  0.5388  0.2836
  112OSM   C13S11558   5.581   0.024   5.745  0.1255  0.0059  0.1833
  112OSM   H13S11559   5.678   0.005   5.796  1.2706 -0.2347 -1.9745
  112OSM   H13T11560   5.585   0.134   5.736  0.7899  0.2154  2.3824
  112OSM   C14S11561   5.598  -0.048   5.609 -0.5839  0.2802 -0.4018
  112OSM   H14S11562   5.491  -0.053   5.580 -0.8881 -1.9908  0.9327
  112OSM   H14T11563   5.636  -0.149   5.633 -0.1752  0.1359 -1.5938
  112OSM   C15S11564   5.695   0.030   5.520  1.1026  0.6388 -0.0317
  112OSM   H15S11565   5.660   0.133   5.497 -0.4071  0.9048  2.8758
  112OSM   H15T11566   5.708  -0.031   5.428  1.3718 -0.2821  0.6019
  112OSM   C16S11567   5.829   0.044   5.587  0.9423  0.3291 -0.0144
  112OSM   H16S11568   5.866  -0.051   5.631  0.0547 -0.1081 -0.1975
  112OSM   H16T11569   5.823   0.115   5.673 -0.1661 -1.3917  1.3996
  112OSM   C17S11570   5.939   0.091   5.490  0.2829 -0.0138  0.2234
  112OSM   H17S11571   5.925   0.039   5.393  0.6613  2.0605 -1.0135
  112OSM   H17T11572   6.040   0.077   5.533  1.0254  0.7203 -1.2041
  112OSM   C18S11573   5.937   0.237   5.446  1.0865  0.0026  0.3354
  112OSM   H18S11574   5.907   0.303   5.530  1.5573  2.6027 -1.3967
  112OSM   H18T11575   5.854   0.256   5.374  0.5117 -1.9115  0.4423
  112OSM   H18U11576   6.030   0.264   5.391  1.6374  0.7959  1.6154
  112OSM    C1F11577   5.176   0.614   6.745  0.2145  0.7385  0.5390
  112OSM     OF11578   5.284   0.632   6.792 -0.0552  0.2689 -0.1882
  112OSM    C2F11579   5.097   0.720   6.676  0.6850  0.3376  0.2570
  112OSM    H2F11580   5.106   0.821   6.722 -0.7501  2.2795 -3.2901
  112OSM    H2G11581   4.988   0.700   6.673  0.3736  0.2956  5.0620
  112OSM    C3F11582   5.137   0.749   6.528  0.2968 -0.2726  0.1140
  112OSM    H3F11583   5.240   0.792   6.532  0.6385 -0.9993 -0.3814
  112OSM    H3G11584   5.073   0.824   6.478  0.1193 -2.3994 -3.1448
  112OSM    C4F11585   5.146   0.626   6.434 -0.0408 -0.1342  0.0788
  112OSM    H4F11586   5.200   0.545   6.488  0.0662 -0.0575  0.0879
  112OSM    H4G11587   5.188   0.650   6.334 -1.6389  2.8175  0.0280
  112OSM    C5F11588   5.001   0.578   6.398  0.3196 -0.3312  0.7812
  112OSM    H5F11589   4.953   0.659   6.339 -1.4622 -0.8513  1.4334
  112OSM    H5G11590   4.950   0.547   6.492 -0.8405 -1.0142 -0.0480
  112OSM    C6F11591   4.996   0.451   6.312 -0.0414 -0.8768  0.4270
  112OSM    H6F11592   4.891   0.438   6.276  0.3265  0.4032 -1.2130
  112OSM    H6G11593   5.024   0.362   6.371  1.6507 -1.5614 -1.3255
  112OSM    C7F11594   5.080   0.459   6.187  0.0326  0.4458  0.9552
  112OSM    H7F11595   5.187   0.463   6.216  0.1162  0.4173  0.6597
  112OSM    H7G11596   5.052   0.551   6.132  1.2589  0.3867  0.1847
  112OSM    C8F11597   5.076   0.331   6.087  0.8301 -0.6783  0.1765
  112OSM    H8F11598   4.980   0.325   6.032 -1.4078 -0.9965  3.7499
  112OSM    H8G11599   5.067   0.251   6.164 -0.0774 -0.3764  0.3993
  112OSM    C9F11600   5.200   0.307   6.008 -1.0568  0.1505  0.0818
  112OSM    H9F11601   5.281   0.245   6.049 -2.8280 -1.9904  0.5338
  112OSM   C10F11602   5.220   0.359   5.885  1.2157  0.4837  0.3673
  112OSM   H10F11603   5.314   0.334   5.834  0.6650 -3.0968  0.8519
  112OSM   C11F11604   5.119   0.439   5.803  0.2726  0.0632 -0.3150
  112OSM   H11F11605   5.175   0.530   5.773 -0.0336 -0.0155 -1.1477
  112OSM   H11G11606   5.036   0.481   5.865  3.2676  0.3720  3.9005
  112OSM   C12F11607   5.075   0.361   5.677 -0.2517  0.7775  0.2904
  112OSM   H12F11608   5.007   0.283   5.719  0.4297 -0.0658 -0.1417
  112OSM   H12G11609   5.156   0.298   5.634  0.7307  1.6247  0.8745
  112OSM   C13F11610   5.012   0.443   5.567  0.1492 -0.6161 -0.2330
  112OSM   H13F11611   5.065   0.540   5.553 -1.2295  0.1227 -0.6144
  112OSM   H13G11612   4.908   0.472   5.595 -0.3909  0.6369 -3.1108
  112OSM   C14F11613   5.003   0.370   5.430 -0.4131  0.1661 -0.0667
  112OSM   H14F11614   4.941   0.280   5.450 -0.1361 -0.1572 -0.6574
  112OSM   H14G11615   5.105   0.344   5.395  0.7229  4.4096 -0.4411
  112OSM   C15F11616   4.940   0.451   5.320 -0.0181  0.4833  0.3149
  112OSM   H15F11617   5.010   0.532   5.291 -1.0086  0.6439 -1.7628
  112OSM   H15G11618   4.855   0.513   5.357  0.9474  1.3809  1.0974
  112OSM   C16F11619   4.898   0.376   5.192 -0.6720 -0.4989  0.7056
  112OSM   H16F11620   4.855   0.447   5.118 -1.4239  1.0431  2.5154
  112OSM   H16G11621   4.820   0.303   5.220 -0.4407 -0.5409  1.2638
  112OSM   C17F11622   5.018   0.298   5.131  0.3672  0.6287 -0.5550
  112OSM   H17F11623   5.060   0.234   5.212 -1.7122 -0.5089 -0.3130
  112OSM   H17G11624   5.101   0.369   5.111 -0.3422  0.8938 -2.8326
  112OSM   C18F11625   4.966   0.209   5.019  0.4190  0.1343  0.1013
  112OSM   H18F11626   4.971   0.269   4.925 -0.3355 -0.6226 -0.4395
  112OSM   H18G11627   4.861   0.181   5.039  0.5728 -0.6825 -0.1827
  112OSM   H18H11628   5.028   0.117   5.010  1.3098  0.6501  0.8241
  113OSM      N11629   2.145   4.019   7.123  0.1659  0.0161  0.3560
  113OSM    C1511630   2.202   3.897   7.192  0.4191 -0.5620 -0.2383
  113OSM   H15A11631   2.306   3.903   7.219  0.6743  1.6325 -1.5550
  113OSM   H15B11632   2.170   3.804   7.147  2.8488 -0.4799 -2.3737
  113OSM   H15C11633   2.160   3.891   7.292  1.9574  2.7397  0.7581
  113OSM    C1411634   2.157   4.135   7.218 -0.3047  0.0430 -0.6566
  113OSM   H14A11635   2.134   4.228   7.170  0.5414 -0.4036 -1.9904
  113OSM   H14B11636   2.254   4.147   7.265 -1.0759  0.9322  0.7682
  113OSM   H14C11637   2.086   4.109   7.296 -0.6174 -1.8819 -1.5177
  113OSM    C1311638   2.232   4.040   7.006 -0.1940  0.3906 -0.4126
  113OSM   H13A11639   2.233   3.957   6.937  1.6852  1.4367 -1.7640
  113OSM   H13B11640   2.339   4.037   7.024  0.2485  1.0957 -2.6344
  113OSM   H13C11641   2.214   4.129   6.947 -0.5448 -0.3902 -1.5056
  113OSM    C1211642   1.998   4.007   7.080  0.0770  1.5834  0.6098
  113OSM   H12A11643   1.969   4.107   7.050  0.5412  0.9763 -2.1293
  113OSM   H12B11644   1.931   3.983   7.161 -1.2041  2.7945 -0.0488
  113OSM    C1111645   1.969   3.913   6.962  0.1211  0.8426  0.2446
  113OSM   H11A11646   2.022   3.935   6.867 -0.4014 -0.7559 -0.4630
  113OSM   H11B11647   1.861   3.933   6.943 -0.0020  0.7018  0.7526
  113OSM      P11648   1.871   3.684   7.027  0.0584  0.0559  0.0650
  113OSM    O1311649   1.918   3.548   7.028 -0.0554 -0.0470 -0.8998
  113OSM    O1411650   1.797   3.730   7.149 -0.7870  0.0932  0.1815
  113OSM    O1111651   1.772   3.700   6.906  0.4213  0.5061  0.3167
  113OSM    O1211652   2.002   3.781   7.000 -0.0903 -0.0347 -0.4755
  113OSM    C1S11653   1.829   3.686   6.772 -0.2954 -0.3397 -0.0418
  113OSM    H1S11654   1.900   3.600   6.768 -0.7830 -0.8418  1.3069
  113OSM    H1T11655   1.887   3.779   6.756  0.5728 -0.8431  0.0694
  113OSM     NF11656   1.793   3.628   6.546  0.4873 -0.4005 -0.0204
  113OSM    HNF11657   1.849   3.697   6.501  2.1312  0.6956  3.3258
  113OSM    C2S11658   1.724   3.667   6.668 -0.0584 -0.1834 -0.2587
  113OSM    H2S11659   1.653   3.586   6.697  1.7962 -0.6564  3.7114
  113OSM    C3S11660   1.649   3.800   6.662 -0.5374 -0.4970  0.2960
  113OSM    H3S11661   1.726   3.880   6.670 -0.3459 -0.7139  0.6960
  113OSM     O311662   1.555   3.812   6.768 -0.5025  0.0141  0.3057
  113OSM    HO311663   1.580   3.759   6.844  2.5536  1.8107  0.7256
  113OSM    C4S11664   1.576   3.816   6.533 -0.3684 -0.9576 -0.1668
  113OSM    H4S11665   1.502   3.737   6.515 -0.7653 -0.3895 -1.1217
  113OSM    C5S11666   1.588   3.923   6.454 -0.4997  0.8823  0.9380
  113OSM    H5S11667   1.648   4.014   6.468  2.8664 -0.1075 -4.3167
  113OSM    C6S11668   1.510   3.937   6.324  0.7130 -0.1024  0.4332
  113OSM    H6S11669   1.441   4.024   6.324 -4.2772 -3.5940 -1.8612
  113OSM    H6T11670   1.450   3.849   6.291  1.7027  0.0039 -1.8614
  113OSM    C7S11671   1.604   3.956   6.205  0.6076 -0.6949 -0.7710
  113OSM    H7S11672   1.670   3.867   6.194  0.3221 -0.7371 -2.3966
  113OSM    H7T11673   1.661   4.047   6.233 -0.0545 -0.2458 -0.8675
  113OSM    C8S11674   1.538   3.971   6.069  0.1059  0.4139 -0.0062
  113OSM    H8S11675   1.499   4.075   6.067 -2.1991 -0.3945  0.3138
  113OSM    H8T11676   1.460   3.897   6.039 -1.2050  1.8856 -0.3461
  113OSM    C9S11677   1.641   3.963   5.963  0.0637  0.0199 -0.1263
  113OSM    H9S11678   1.688   3.863   5.970 -0.7964 -0.4564 -0.9582
  113OSM    H9T11679   1.720   4.037   5.989  0.0541  0.2207 -0.6366
  113OSM   C10S11680   1.601   4.003   5.823  0.3385  0.6323  0.6270
  113OSM   H10S11681   1.596   4.114   5.822  1.2335  0.6981 -1.3502
  113OSM   H10T11682   1.505   3.956   5.792  1.3073 -0.0016 -1.5807
  113OSM   C11S11683   1.694   3.955   5.707  0.1022  0.2475 -0.5660
  113OSM   H11S11684   1.687   3.845   5.722  1.7282  0.3418  1.3943
  113OSM   H11T11685   1.791   3.996   5.743  1.2946 -2.9712  0.2115
  113OSM   C12S11686   1.651   4.007   5.574  0.4221 -0.7584 -0.0271
  113OSM   H12S11687   1.638   4.118   5.573  1.6745 -0.5882  0.1576
  113OSM   H12T11688   1.553   3.959   5.555  0.1682 -0.6812  1.0565
  113OSM   C13S11689   1.750   3.964   5.462 -0.7971  0.1446  0.1477
  113OSM   H13S11690   1.761   3.854   5.468 -2.4028 -0.0995 -0.7603
  113OSM   H13T11691   1.848   4.014   5.478 -1.0188  0.2906  1.1408
  113OSM   C14S11692   1.688   3.995   5.318 -0.7401 -0.3509 -0.7974
  113OSM   H14S11693   1.680   4.105   5.306 -3.2019 -0.3864  0.1223
  113OSM   H14T11694   1.582   3.963   5.316 -0.8653 -0.1889  1.1685
  113OSM   C15S11695   1.762   3.933   5.204 -0.4969  0.2145  0.1227
  113OSM   H15S11696   1.708   3.923   5.107  0.1834  1.3881 -0.4083
  113OSM   H15T11697   1.779   3.828   5.234  2.4998  0.5202 -0.2147
  113OSM   C16S11698   1.901   3.995   5.172 -0.3273  0.2120 -0.1713
  113OSM   H16S11699   1.977   3.975   5.250  1.2456  0.3681 -1.6151
  113OSM   H16T11700   1.892   4.106   5.173  0.5482  0.3267 -2.0082
  113OSM   C17S11701   1.962   3.954   5.038 -0.1961 -0.0518  0.2134
  113OSM   H17S11702   1.917   4.010   4.952  2.0033 -0.0775 -1.0265
  113OSM   H17T11703   1.941   3.847   5.019  0.8555 -0.1001 -0.8156
  113OSM   C18S11704   2.115   3.983   5.015 -0.7132  0.3594  0.4216
  113OSM   H18S11705   2.135   4.090   5.034  3.3557  0.3470 -2.3920
  113OSM   H18T11706   2.164   3.954   4.919  2.0311  3.7807  0.5662
  113OSM   H18U11707   2.159   3.917   5.093 -0.0882  0.0039 -0.2165
  113OSM    C1F11708   1.830   3.506   6.519 -0.0520 -0.0245  0.0262
  113OSM     OF11709   1.811   3.415   6.597 -0.1608  0.3188 -0.1525
  113OSM    C2F11710   1.923   3.504   6.398  0.1718 -0.6028  0.3643
  113OSM    H2F11711   2.025   3.542   6.419 -1.0937  2.0147  2.3432
  113OSM    H2G11712   1.877   3.575   6.325 -1.3914 -0.2801  1.6137
  113OSM    C3F11713   1.916   3.377   6.320  0.6161  0.4970  0.6196
  113OSM    H3F11714   1.814   3.336   6.307 -0.0312  1.4869  2.2047
  113OSM    H3G11715   1.975   3.295   6.367 -0.1172 -0.3267  0.1239
  113OSM    C4F11716   1.987   3.401   6.179  0.4189 -0.4404 -0.0361
  113OSM    H4F11717   1.944   3.490   6.129  1.0414  0.3696  0.8312
  113OSM    H4G11718   1.951   3.311   6.125  1.4726 -0.2783 -1.0441
  113OSM    C5F11719   2.138   3.407   6.176 -0.0948 -0.1244  0.3734
  113OSM    H5F11720   2.177   3.354   6.265 -0.9847  0.3353  1.0465
  113OSM    H5G11721   2.173   3.510   6.199  0.0532 -0.8255  3.8247
  113OSM    C6F11722   2.198   3.342   6.052  0.7271  0.3589  0.4044
  113OSM    H6F11723   2.164   3.236   6.049 -0.9755  0.8974 -0.5092
  113OSM    H6G11724   2.308   3.338   6.067  0.6373 -1.5784  0.7985
  113OSM    C7F11725   2.169   3.402   5.914 -0.0723  0.2624 -0.0841
  113OSM    H7F11726   2.211   3.505   5.904 -2.0370  0.9612 -2.0235
  113OSM    H7G11727   2.058   3.408   5.909 -0.0506  1.7319  0.6123
  113OSM    C8F11728   2.211   3.327   5.788 -0.3594 -0.1975  0.1922
  113OSM    H8F11729   2.321   3.313   5.790 -0.4566 -1.0164  0.4327
  113OSM    H8G11730   2.192   3.390   5.698  0.7980  0.3481  0.3209
  113OSM    C9F11731   2.138   3.188   5.785  0.2630 -0.4299 -0.0217
  113OSM    H9F11732   2.142   3.114   5.866  1.3931 -1.4393 -0.9675
  113OSM   C10F11733   2.065   3.148   5.680 -0.2619  0.1959 -0.1850
  113OSM   H10F11734   2.020   3.048   5.685  2.1753 -0.9002  2.2446
  113OSM   C11F11735   2.048   3.224   5.543 -0.2595  0.3037 -0.9432
  113OSM   H11F11736   2.104   3.320   5.546  0.7526 -0.2688  1.7862
  113OSM   H11G11737   1.943   3.246   5.516 -0.7058  1.9520  1.7794
  113OSM   C12F11738   2.121   3.141   5.440 -0.6376 -0.3452  0.7155
  113OSM   H12F11739   2.092   3.034   5.443  3.4362 -1.8142 -2.5417
  113OSM   H12G11740   2.231   3.141   5.457 -0.5346  1.0915  0.2160
  113OSM   C13F11741   2.100   3.189   5.291  0.1326 -0.0352  0.5974
  113OSM   H13F11742   2.114   3.299   5.288  1.2590 -0.1737  0.3088
  113OSM   H13G11743   1.993   3.173   5.268 -0.1333  0.2540  1.5838
  113OSM   C14F11744   2.200   3.106   5.195  0.3654 -1.0261  0.1603
  113OSM   H14F11745   2.206   2.997   5.216  1.2048 -0.9440  0.3900
  113OSM   H14G11746   2.298   3.150   5.227  1.2184 -3.5147  1.1846
  113OSM   C15F11747   2.182   3.138   5.045 -0.0965  0.3828 -0.4974
  113OSM   H15F11748   2.275   3.115   4.990  0.3520  1.1689 -0.0789
  113OSM   H15G11749   2.164   3.248   5.042 -0.4835  0.4705  2.5533
  113OSM   C16F11750   2.070   3.063   4.966 -0.0017  0.1903 -0.8423
  113OSM   H16F11751   2.041   3.120   4.875 -3.5877 -1.4900 -0.8865
  113OSM   H16G11752   1.975   3.069   5.023  0.1364 -0.2686 -0.5642
  113OSM   C17F11753   2.105   2.914   4.946  0.5044 -0.0406 -0.4408
  113OSM   H17F11754   2.009   2.860   4.935  1.7954 -2.6750  0.3990
  113OSM   H17G11755   2.153   2.866   5.035 -1.5180  0.6691  1.0946
  113OSM   C18F11756   2.192   2.891   4.824 -0.2527 -0.8089  0.1025
  113OSM   H18F11757   2.130   2.911   4.734 -1.8289 -1.2129  1.0569
  113OSM   H18G11758   2.227   2.785   4.814  1.2374 -0.5854  2.1922
  113OSM   H18H11759   2.281   2.958   4.832 -1.0621  0.2959  0.0212
  114OSM      N11760   1.793   0.608   7.044 -0.1162 -0.3648 -0.1395
  114OSM    C1511761   1.805   0.461   7.046 -0.2209 -0.0643 -0.6080
  114OSM   H15A11762   1.873   0.427   7.123 -1.0876 -1.3943 -0.3938
  114OSM   H15B11763   1.843   0.423   6.953 -0.6685 -1.7035 -0.1537
  114OSM   H15C11764   1.707   0.416   7.056 -1.1339  1.9126 -0.1583
  114OSM    C1411765   1.704   0.648   6.938 -0.8302  0.2594  0.3852
  114OSM   H14A11766   1.685   0.754   6.949  0.3183  0.6209 -0.8812
  114OSM   H14B11767   1.612   0.592   6.947 -0.1895 -1.1008 -1.0991
  114OSM   H14C11768   1.745   0.636   6.839  1.1025 -0.2643  1.1927
  114OSM    C1311769   1.743   0.673   7.171 -0.2458 -0.7090  0.2644
  114OSM   H13A11770   1.739   0.780   7.161  1.4266 -0.6668 -0.1972
  114OSM   H13B11771   1.812   0.657   7.253  0.3115  3.5821  0.8192
  114OSM   H13C11772   1.647   0.629   7.196 -0.5198  0.3316  1.1237
  114OSM    C1211773   1.935   0.646   7.004 -0.5712  0.5957 -0.2350
  114OSM   H12A11774   1.965   0.597   6.912  0.7269  2.5168 -0.8833
  114OSM   H12B11775   2.003   0.615   7.083 -2.0235  1.4650  1.4112
  114OSM    C1111776   1.967   0.790   6.988  0.4709 -0.4465  0.6861
  114OSM   H11A11777   1.904   0.842   6.913 -0.8226  0.5469  2.3878
  114OSM   H11B11778   2.071   0.783   6.948  0.1143 -1.7837 -0.0573
  114OSM      P11779   1.920   1.011   7.112 -0.1783 -0.0316 -0.4381
  114OSM    O1311780   1.771   0.990   7.104 -0.0674  0.1550 -0.1946
  114OSM    O1411781   1.971   1.094   7.222  0.1079 -0.0097  0.9651
  114OSM    O1111782   1.959   1.067   6.977 -0.1208  0.9461  0.4505
  114OSM    O1211783   1.970   0.863   7.113 -0.6070  0.6408 -0.1226
  114OSM    C1S11784   2.098   1.097   6.957  0.6945 -0.8817  0.6553
  114OSM    H1S11785   2.169   1.051   7.028  1.1023 -2.4022 -0.6964
  114OSM    H1T11786   2.120   1.204   6.980  1.2799 -0.7222 -0.5702
  114OSM     NF11787   2.281   1.078   6.802 -0.3465 -0.5981  0.3878
  114OSM    HNF11788   2.312   1.165   6.765 -2.3839  1.7228  3.6244
  114OSM    C2S11789   2.135   1.059   6.809 -0.1245  0.6080 -0.2978
  114OSM    H2S11790   2.111   0.952   6.789  0.5662  0.7283 -1.9791
  114OSM    C3S11791   2.061   1.153   6.708 -0.3069 -0.3911  0.3672
  114OSM    H3S11792   2.091   1.257   6.736  1.7964 -0.7704 -0.3265
  114OSM     O311793   1.917   1.147   6.721  0.0630 -0.6132 -0.0561
  114OSM    HO311794   1.923   1.114   6.811  1.7090 -1.1117 -0.3067
  114OSM    C4S11795   2.109   1.147   6.567  0.1053  0.4131  0.3832
  114OSM    H4S11796   2.199   1.205   6.540 -0.6614  1.6131  0.3581
  114OSM    C5S11797   2.056   1.074   6.472  0.6683  0.2733  0.1857
  114OSM    H5S11798   1.962   1.019   6.485  0.7026 -0.9832 -3.6505
  114OSM    C6S11799   2.112   1.069   6.331  0.7662  0.2779 -0.0197
  114OSM    H6S11800   2.137   0.968   6.292 -0.5878  0.1188 -0.5070
  114OSM    H6T11801   2.201   1.135   6.318  0.7292  0.1119 -1.1893
  114OSM    C7S11802   2.001   1.122   6.238  0.1953 -0.5141 -0.5237
  114OSM    H7S11803   1.965   1.222   6.271 -0.5709 -0.8569 -0.2926
  114OSM    H7T11804   1.925   1.042   6.244 -1.1888  0.5569 -2.4637
  114OSM    C8S11805   2.039   1.124   6.094  0.3056  0.0974  0.2955
  114OSM    H8S11806   2.071   1.024   6.057 -0.5282 -0.1750  0.2877
  114OSM    H8T11807   2.114   1.204   6.079  0.2786 -0.0893 -0.9589
  114OSM    C9S11808   1.928   1.171   5.997  0.4192  0.6381  0.7565
  114OSM    H9S11809   1.878   1.268   6.020  0.9736  1.2198 -0.3972
  114OSM    H9T11810   1.855   1.088   6.001 -0.1184  1.0158 -0.6644
  114OSM   C10S11811   1.979   1.174   5.852 -0.3117 -0.1975 -0.0025
  114OSM   H10S11812   2.045   1.086   5.842  1.4074  0.7341  2.3333
  114OSM   H10T11813   2.040   1.265   5.837  1.5927 -1.4213  0.0685
  114OSM   C11S11814   1.867   1.179   5.740  1.3667 -0.2373 -1.2154
  114OSM   H11S11815   1.807   1.272   5.749  2.9511  0.8004 -0.9817
  114OSM   H11T11816   1.796   1.096   5.763  2.5399 -0.1979  3.5218
  114OSM   C12S11817   1.937   1.189   5.607  0.4354  0.3378  0.4037
  114OSM   H12S11818   1.976   1.088   5.583  0.9053 -0.1073  2.7987
  114OSM   H12T11819   2.023   1.258   5.598  1.2543 -0.9293 -3.2205
  114OSM   C13S11820   1.838   1.212   5.488 -0.2675  0.1280 -0.6784
  114OSM   H13S11821   1.773   1.122   5.480  0.4726 -0.3461 -1.5209
  114OSM   H13T11822   1.896   1.222   5.395  0.6124 -0.4680 -0.2057
  114OSM   C14S11823   1.757   1.344   5.489  0.7311 -0.4386  0.2139
  114OSM   H14S11824   1.695   1.332   5.580  1.1448 -0.3166  0.5119
  114OSM   H14T11825   1.695   1.334   5.397  0.0195 -0.1292  0.6545
  114OSM   C15S11826   1.846   1.473   5.488  0.4596  0.0036 -0.3297
  114OSM   H15S11827   1.891   1.486   5.387  1.4198 -2.4024 -0.2728
  114OSM   H15T11828   1.925   1.463   5.565  0.7728 -0.7899 -0.7447
  114OSM   C16S11829   1.759   1.600   5.509  0.0137  0.6380 -0.1434
  114OSM   H16S11830   1.721   1.598   5.613 -0.9984  1.1633 -0.4864
  114OSM   H16T11831   1.678   1.594   5.433 -1.2203 -1.5427  1.2290
  114OSM   C17S11832   1.836   1.733   5.484  0.8530  0.4077 -0.9858
  114OSM   H17S11833   1.878   1.725   5.382 -0.2516 -0.5479 -1.3777
  114OSM   H17T11834   1.927   1.723   5.548  0.1130 -3.6030 -0.3429
  114OSM   C18S11835   1.755   1.862   5.494 -0.5620 -0.1016  0.2574
  114OSM   H18S11836   1.692   1.864   5.585  0.1760  0.1532  0.7662
  114OSM   H18T11837   1.682   1.863   5.410 -0.2660 -0.3552 -0.0055
  114OSM   H18U11838   1.833   1.941   5.486 -0.5143 -0.1436  0.3157
  114OSM    C1F11839   2.366   0.990   6.859  0.2257  0.4873 -0.1848
  114OSM     OF11840   2.321   0.894   6.919  0.2201  0.7329 -0.1554
  114OSM    C2F11841   2.515   1.010   6.848  0.5412  0.3845  0.1250
  114OSM    H2F11842   2.575   0.939   6.908  0.6288 -0.2781 -0.7208
  114OSM    H2G11843   2.534   1.114   6.882 -0.5935  0.1999  1.4572
  114OSM    C3F11844   2.552   0.992   6.697  0.0490  0.2221 -0.8937
  114OSM    H3F11845   2.511   0.892   6.670  2.0188 -0.8507 -0.1293
  114OSM    H3G11846   2.662   0.981   6.708 -0.2744 -3.7715  0.2674
  114OSM    C4F11847   2.510   1.108   6.598 -0.1288  0.0868 -0.6133
  114OSM    H4F11848   2.521   1.206   6.651  0.8256 -0.8078  0.9242
  114OSM    H4G11849   2.402   1.087   6.583  0.2687 -1.9127 -0.8548
  114OSM    C5F11850   2.585   1.094   6.467  0.3575  0.1299  0.7546
  114OSM    H5F11851   2.578   0.991   6.427  1.1845 -0.0359  1.0108
  114OSM    H5G11852   2.693   1.120   6.471  0.2255  1.1342 -1.0572
  114OSM    C6F11853   2.541   1.173   6.350  0.2892  0.0769  0.0709
  114OSM    H6F11854   2.449   1.128   6.308  1.0421 -0.8363 -0.6386
  114OSM    H6G11855   2.619   1.174   6.270  0.3962  3.5360  0.0724
  114OSM    C7F11856   2.506   1.328   6.378  0.3043  0.5087  0.7409
  114OSM    H7F11857   2.598   1.369   6.424  1.0594  0.5695 -0.7425
  114OSM    H7G11858   2.428   1.323   6.457 -0.0532  0.9257  0.4217
  114OSM    C8F11859   2.471   1.404   6.247  0.0202 -0.5004 -0.2424
  114OSM    H8F11860   2.413   1.499   6.256  2.3946  0.9019  1.5275
  114OSM    H8G11861   2.402   1.345   6.183 -1.9940  2.6511 -1.2517
  114OSM    C9F11862   2.593   1.430   6.159 -0.2762  0.1565 -0.2727
  114OSM    H9F11863   2.678   1.479   6.207  1.4013 -2.8478  0.0730
  114OSM   C10F11864   2.617   1.388   6.030  0.1919 -0.2610 -0.5604
  114OSM   H10F11865   2.717   1.408   5.991  1.2032  0.2092  2.0348
  114OSM   C11F11866   2.526   1.304   5.948  0.3741  0.2871 -0.0875
  114OSM   H11F11867   2.434   1.268   6.000  1.1949  1.4048  2.2746
  114OSM   H11G11868   2.571   1.216   5.898 -0.9985 -1.5963  1.7802
  114OSM   C12F11869   2.465   1.396   5.840  0.0174  0.2858 -0.3593
  114OSM   H12F11870   2.417   1.482   5.892 -0.0177 -0.2618  0.5372
  114OSM   H12G11871   2.388   1.329   5.794  0.9564 -0.3904 -0.9910
  114OSM   C13F11872   2.560   1.442   5.721  0.2124  0.2999 -1.4258
  114OSM   H13F11873   2.619   1.355   5.685 -0.4252 -0.0947 -1.5252
  114OSM   H13G11874   2.633   1.517   5.759  0.2558 -0.2217 -0.4327
  114OSM   C14F11875   2.490   1.505   5.606 -0.5236  0.2321 -0.4353
  114OSM   H14F11876   2.570   1.534   5.534 -1.9827  0.3600 -2.0662
  114OSM   H14G11877   2.443   1.598   5.645  0.5567  0.5804  0.0904
  114OSM   C15F11878   2.392   1.410   5.539 -0.6829  0.0349  0.0553
  114OSM   H15F11879   2.309   1.380   5.607 -1.7351  1.2308 -0.6565
  114OSM   H15G11880   2.440   1.317   5.502  0.6885  1.2153 -1.2519
  114OSM   C16F11881   2.322   1.459   5.414  0.3466 -0.1831  0.0155
  114OSM   H16F11882   2.399   1.495   5.342  1.2636  3.2333  2.4974
  114OSM   H16G11883   2.255   1.542   5.444 -0.2211 -0.8141  0.5251
  114OSM   C17F11884   2.240   1.348   5.342  0.2160  0.3920  0.1801
  114OSM   H17F11885   2.165   1.304   5.412  0.5869 -0.1802  0.2225
  114OSM   H17G11886   2.310   1.266   5.317 -1.5355 -1.0289 -0.2438
  114OSM   C18F11887   2.164   1.399   5.229  0.7717  0.0081 -0.2449
  114OSM   H18F11888   2.220   1.436   5.140 -2.6170 -2.3805 -3.7367
  114OSM   H18G11889   2.107   1.491   5.256  0.4632 -0.1835 -0.2309
  114OSM   H18H11890   2.098   1.319   5.188  1.6177 -0.9847  0.2932
  115OSM      N11891   0.960   3.290   7.428  0.5682  0.4310  0.5795
  115OSM    C1511892   0.908   3.264   7.562 -0.0382 -0.3011  0.9323
  115OSM   H15A11893   0.828   3.193   7.545 -1.4827  1.9257 -2.8883
  115OSM   H15B11894   0.878   3.362   7.597  0.2773 -0.1581  0.8038
  115OSM   H15C11895   0.981   3.225   7.631  0.9113 -0.9212 -0.3847
  115OSM    C1411896   1.057   3.405   7.437  0.0182 -0.0361 -0.0665
  115OSM   H14A11897   1.074   3.438   7.336  0.8524 -1.2982 -0.3727
  115OSM   H14B11898   1.153   3.373   7.476  0.1772  0.1275 -0.3202
  115OSM   H14C11899   1.025   3.491   7.493  1.8117  0.1366  0.7695
  115OSM    C1311900   1.038   3.174   7.379 -0.3260  0.2826  0.3370
  115OSM   H13A11901   0.989   3.078   7.382 -1.6873  0.9131 -0.6057
  115OSM   H13B11902   1.128   3.157   7.436 -1.2844  0.8288  2.0803
  115OSM   H13C11903   1.079   3.192   7.281  0.6021  0.6228  0.7831
  115OSM    C1211904   0.840   3.328   7.332 -0.4523 -0.2922 -0.4525
  115OSM   H12A11905   0.785   3.414   7.364 -0.8981 -0.8810  0.3955
  115OSM   H12B11906   0.766   3.250   7.340 -2.3841  1.2063 -2.4211
  115OSM    C1111907   0.878   3.349   7.181  0.2770  0.2085  0.2448
  115OSM   H11A11908   0.790   3.359   7.114  1.0405 -0.8757 -0.9712
  115OSM   H11B11909   0.922   3.254   7.143 -2.9754 -0.3021 -2.8136
  115OSM      P11910   0.902   3.595   7.144  0.0877 -0.2854 -0.5324
  115OSM    O1311911   0.824   3.638   7.268 -0.0176 -0.1471 -0.3395
  115OSM    O1411912   1.017   3.680   7.118 -0.0063  0.3986  0.3372
  115OSM    O1111913   0.814   3.601   7.012  0.2312  0.2745 -0.5927
  115OSM    O1211914   0.969   3.460   7.162  0.4754  0.5908 -0.0222
  115OSM    C1S11915   0.867   3.556   6.888  0.1933 -0.3689 -0.3481
  115OSM    H1S11916   0.880   3.445   6.892  0.8846 -0.2596  1.9174
  115OSM    H1T11917   0.961   3.615   6.880 -0.7472  1.3824  0.9164
  115OSM     NF11918   0.820   3.549   6.653 -0.2493 -0.2966 -0.0978
  115OSM    HNF11919   0.859   3.616   6.591  0.6873 -0.4266  0.3347
  115OSM    C2S11920   0.768   3.600   6.777 -0.3042  0.1226  0.1943
  115OSM    H2S11921   0.668   3.560   6.805  0.1896 -0.7492  0.7423
  115OSM    C3S11922   0.761   3.755   6.759 -0.0167  0.2212 -0.1704
  115OSM    H3S11923   0.866   3.778   6.731  0.5451 -1.7222  0.1561
  115OSM     O311924   0.728   3.826   6.883  0.2593 -0.0137 -0.3725
  115OSM    HO311925   0.736   3.757   6.949  0.4809 -0.8035 -1.2097
  115OSM    C4S11926   0.673   3.798   6.644 -0.6507 -0.0512 -0.1142
  115OSM    H4S11927   0.727   3.815   6.550 -0.9727 -0.2814 -0.3402
  115OSM    C5S11928   0.542   3.826   6.656  0.1411 -0.2070  0.3559
  115OSM    H5S11929   0.502   3.834   6.758 -2.7109 -1.3666 -0.5685
  115OSM    C6S11930   0.463   3.875   6.544  0.4278  0.2153  0.3829
  115OSM    H6S11931   0.456   3.986   6.554 -0.8730  0.0924  1.0986
  115OSM    H6T11932   0.369   3.815   6.546  0.8705 -0.4695  0.7597
  115OSM    C7S11933   0.527   3.856   6.405 -0.3802  0.1536 -1.2684
  115OSM    H7S11934   0.535   3.747   6.383  1.5687 -0.1957  0.8009
  115OSM    H7T11935   0.635   3.878   6.398 -0.3988  0.4778 -0.6182
  115OSM    C8S11936   0.447   3.938   6.306 -0.5670 -0.5485 -0.3191
  115OSM    H8S11937   0.422   4.043   6.335 -1.0940 -0.8440  0.3191
  115OSM    H8T11938   0.347   3.892   6.290 -1.5424  0.6840  1.8086
  115OSM    C9S11939   0.517   3.940   6.166  0.0294 -0.0863 -0.6703
  115OSM    H9S11940   0.538   3.833   6.147  1.5623 -0.4791  2.5722
  115OSM    H9T11941   0.607   4.005   6.171 -0.8791  1.1068  1.4313
  115OSM   C10S11942   0.416   3.982   6.056 -0.0086 -0.2970 -0.3765
  115OSM   H10S11943   0.387   4.089   6.058 -2.5350 -0.9020 -1.4910
  115OSM   H10T11944   0.326   3.921   6.077  0.9084 -1.6849 -0.3140
  115OSM   C11S11945   0.472   3.955   5.912 -0.4862  0.4340 -0.4121
  115OSM   H11S11946   0.377   3.962   5.854 -1.5257  1.4699  1.3466
  115OSM   H11T11947   0.518   3.853   5.912 -0.4371  0.4488  0.3045
  115OSM   C12S11948   0.574   4.051   5.855 -0.3260 -0.4200  0.6534
  115OSM   H12S11949   0.667   4.029   5.912 -0.3154 -0.6794  0.5412
  115OSM   H12T11950   0.542   4.152   5.887 -0.5096 -0.3907  0.3843
  115OSM   C13S11951   0.603   4.042   5.705 -0.0262 -0.0975  0.7620
  115OSM   H13S11952   0.632   3.935   5.690 -1.6314 -0.8562  2.6733
  115OSM   H13T11953   0.677   4.119   5.676 -1.8735  2.7337  3.0864
  115OSM   C14S11954   0.487   4.056   5.609  0.1461  0.1722  0.5086
  115OSM   H14S11955   0.414   4.118   5.665 -0.6370 -0.0350 -0.2653
  115OSM   H14T11956   0.424   3.966   5.591 -0.5256  0.8830 -0.8263
  115OSM   C15S11957   0.507   4.119   5.467  0.2080  0.0102  0.6739
  115OSM   H15S11958   0.559   4.217   5.463 -0.5273  0.3836 -0.3630
  115OSM   H15T11959   0.410   4.141   5.417  1.6088 -1.5120 -3.1321
  115OSM   C16S11960   0.580   4.023   5.370  0.3152  0.2714  0.3659
  115OSM   H16S11961   0.515   3.933   5.361  1.5229 -0.5391 -0.5348
  115OSM   H16T11962   0.674   3.987   5.416  0.4897 -0.4336 -0.5072
  115OSM   C17S11963   0.614   4.060   5.224 -0.9071 -0.1290  0.6943
  115OSM   H17S11964   0.639   4.168   5.217  2.4088 -0.8484 -0.5077
  115OSM   H17T11965   0.522   4.048   5.164 -0.5575 -1.0528  0.3317
  115OSM   C18S11966   0.735   3.989   5.161  0.8219 -0.0620 -1.0188
  115OSM   H18S11967   0.744   3.989   5.051  3.0922 -1.5647 -0.8907
  115OSM   H18T11968   0.745   3.882   5.189  1.2691  0.0418 -0.7802
  115OSM   H18U11969   0.824   4.044   5.200 -0.5199  2.6018 -1.4591
  115OSM    C1F11970   0.828   3.420   6.620  0.5527 -0.0138 -0.8396
  115OSM     OF11971   0.789   3.333   6.693 -0.4277 -0.4370 -0.7306
  115OSM    C2F11972   0.913   3.388   6.499 -0.0898  0.6855 -0.3245
  115OSM    H2F11973   1.015   3.425   6.522  0.0559 -1.3669  3.1205
  115OSM    H2G11974   0.865   3.449   6.420 -0.3012  1.6639  0.5355
  115OSM    C3F11975   0.921   3.244   6.456 -0.2745 -0.5401 -1.0702
  115OSM    H3F11976   0.821   3.200   6.435 -0.7844  0.2181 -0.2963
  115OSM    H3G11977   0.965   3.180   6.535 -1.0566 -0.3604 -0.4775
  115OSM    C4F11978   1.009   3.237   6.327  0.0971  0.3286 -0.1605
  115OSM    H4F11979   1.098   3.302   6.339  0.2320  0.7592 -2.9227
  115OSM    H4G11980   0.940   3.278   6.250  1.0304  1.3338 -0.4779
  115OSM    C5F11981   1.047   3.097   6.285  0.0131  0.4506  0.3980
  115OSM    H5F11982   0.958   3.029   6.290 -0.5051  1.2060  2.3295
  115OSM    H5G11983   1.129   3.052   6.345 -0.2492 -2.1224 -1.0508
  115OSM    C6F11984   1.085   3.091   6.135 -0.3515 -0.1999 -0.6666
  115OSM    H6F11985   0.992   3.126   6.086 -0.4412  1.1908  0.4252
  115OSM    H6G11986   1.112   2.989   6.100 -0.6533  1.0674 -5.1708
  115OSM    C7F11987   1.196   3.187   6.101 -0.0379 -0.0957 -0.3667
  115OSM    H7F11988   1.286   3.158   6.160  0.2052  0.8285 -0.2760
  115OSM    H7G11989   1.172   3.290   6.132 -1.1305 -0.7299  0.9944
  115OSM    C8F11990   1.232   3.206   5.951  0.0425  0.5093 -0.2858
  115OSM    H8F11991   1.283   3.113   5.918 -0.0917 -0.5935  2.3664
  115OSM    H8G11992   1.303   3.291   5.944  1.7141 -0.5107  2.5209
  115OSM    C9F11993   1.118   3.227   5.857 -0.0950  0.5397 -0.4834
  115OSM    H9F11994   1.036   3.280   5.908 -0.1120  1.8972 -1.8525
  115OSM   C10F11995   1.094   3.171   5.740  0.8387  0.5282 -0.2986
  115OSM   H10F11996   1.000   3.198   5.690  0.6813  0.7321  0.1011
  115OSM   C11F11997   1.185   3.099   5.651 -0.5882  0.3819  0.0794
  115OSM   H11F11998   1.137   3.006   5.614  0.3470  0.5098 -1.5265
  115OSM   H11G11999   1.273   3.062   5.708  0.6139  0.8402 -1.3919
  115OSM   C12F12000   1.230   3.185   5.531 -0.0507 -0.5569 -0.2779
  115OSM   H12F12001   1.326   3.154   5.484 -0.9940 -0.5811 -2.2912
  115OSM   H12G12002   1.250   3.285   5.574  3.3461 -1.5581  0.7769
  115OSM   C13F12003   1.127   3.190   5.417 -0.0743 -0.1088 -0.6059
  115OSM   H13F12004   1.026   3.211   5.458 -0.5003 -0.4936 -1.4166
  115OSM   H13G12005   1.122   3.085   5.378 -0.5152 -0.1197 -0.5308
  115OSM   C14F12006   1.182   3.287   5.313  0.3005  0.3962 -0.6853
  115OSM   H14F12007   1.288   3.261   5.294  1.2055  3.3557 -0.1774
  115OSM   H14G12008   1.172   3.393   5.345  0.3064  0.3180 -0.4288
  115OSM   C15F12009   1.115   3.272   5.180  0.0999  0.7453 -0.1923
  115OSM   H15F12010   1.006   3.257   5.194 -0.2553  0.8705 -2.4834
  115OSM   H15G12011   1.153   3.184   5.124 -1.7868 -0.1103 -0.2061
  115OSM   C16F12012   1.145   3.396   5.102  0.0691  0.1525  0.0138
  115OSM   H16F12013   1.255   3.403   5.090  0.0628  0.1760 -0.0320
  115OSM   H16G12014   1.113   3.493   5.146 -2.4883  0.3124 -1.9113
  115OSM   C17F12015   1.106   3.387   4.955 -0.2629 -0.2342 -0.5598
  115OSM   H17F12016   1.142   3.287   4.923  2.0615  0.6950 -1.0900
  115OSM   H17G12017   1.169   3.459   4.898  0.2334 -0.9567 -0.9424
  115OSM   C18F12018   0.960   3.409   4.932 -0.2871 -0.1343  0.4132
  115OSM   H18F12019   0.888   3.347   4.990  0.1142 -0.2137  0.8325
  115OSM   H18G12020   0.929   3.403   4.826  5.6019  1.1499 -1.7371
  115OSM   H18H12021   0.939   3.512   4.969  2.3017  0.3629  0.6600
  116OSM      N12022   2.569   1.938   7.292 -0.4056 -0.4281 -0.9695
  116OSM    C1512023   2.498   2.064   7.322 -0.2758 -0.4750  0.8442
  116OSM   H15A12024   2.455   2.061   7.421 -0.5745 -0.9515  0.7089
  116OSM   H15B12025   2.422   2.091   7.250 -1.0268 -1.2268  1.3288
  116OSM   H15C12026   2.565   2.148   7.323 -0.7129 -0.1276  1.1902
  116OSM    C1412027   2.641   1.953   7.163 -0.8341 -1.2051  0.0571
  116OSM   H14A12028   2.699   2.044   7.170 -0.4810 -1.5148  1.4862
  116OSM   H14B12029   2.571   1.965   7.082 -0.5602  1.4906  0.1345
  116OSM   H14C12030   2.709   1.871   7.147  0.3065 -0.1285 -0.7677
  116OSM    C1312031   2.670   1.913   7.406 -0.5380 -0.1024 -0.2361
  116OSM   H13A12032   2.709   1.813   7.399  3.8358  1.1337  2.5423
  116OSM   H13B12033   2.624   1.919   7.504  1.5744 -1.9435  0.9384
  116OSM   H13C12034   2.756   1.976   7.395 -0.0733 -0.7075 -0.0898
  116OSM    C1212035   2.469   1.825   7.274 -0.0712  0.3634  0.1472
  116OSM   H12A12036   2.421   1.815   7.370 -0.2569 -0.1316  0.0042
  116OSM   H12B12037   2.527   1.735   7.259 -0.3009  0.1875  0.3193
  116OSM    C1112038   2.360   1.835   7.162  0.7316 -0.2821  0.1787
  116OSM   H11A12039   2.308   1.736   7.156  0.6765 -0.4523  2.5079
  116OSM   H11B12040   2.403   1.855   7.062 -0.5554 -2.4162 -0.8882
  116OSM      P12041   2.149   1.944   7.291 -0.1309 -0.1680 -0.3271
  116OSM    O1312042   2.118   1.807   7.331  0.4267 -0.6405 -0.2589
  116OSM    O1412043   2.174   2.036   7.404 -0.9257 -0.2593 -0.2383
  116OSM    O1112044   2.033   2.001   7.198 -0.2485  0.2793 -0.2639
  116OSM    O1212045   2.273   1.946   7.195 -0.1984  0.6342 -0.0170
  116OSM    C1S12046   2.030   2.041   7.067  0.4408  0.1328 -0.3194
  116OSM    H1S12047   2.127   2.084   7.034 -1.2074  3.1568 -1.6161
  116OSM    H1T12048   1.940   2.103   7.044  0.5100 -0.4274 -2.3618
  116OSM     NF12049   1.988   1.964   6.841  0.1898 -0.0374  0.3399
  116OSM    HNF12050   1.911   2.010   6.799  0.6209 -0.0299 -0.4571
  116OSM    C2S12051   1.988   1.922   6.982 -0.6059  0.7011  0.2916
  116OSM    H2S12052   2.068   1.844   6.980  0.0939  1.4165 -0.5938
  116OSM    C3S12053   1.852   1.853   7.013 -0.6198 -0.9024  0.1283
  116OSM    H3S12054   1.768   1.926   7.006  0.7957  1.0421  1.8908
  116OSM     O312055   1.850   1.806   7.149 -0.5405 -0.0163  0.2252
  116OSM    HO312056   1.921   1.854   7.192 -1.4265 -0.3358  2.1344
  116OSM    C4S12057   1.836   1.733   6.919 -0.3268  0.3126  0.1718
  116OSM    H4S12058   1.899   1.643   6.931  0.5534  0.5778 -2.0706
  116OSM    C5S12059   1.751   1.730   6.817 -0.1154  0.0497 -0.0554
  116OSM    H5S12060   1.678   1.811   6.809  0.3297  0.7374  2.1896
  116OSM    C6S12061   1.736   1.615   6.718  0.0056 -0.9114  0.2144
  116OSM    H6S12062   1.660   1.540   6.750 -0.5600  0.6789  2.8869
  116OSM    H6T12063   1.833   1.564   6.699  1.2995  1.1242  1.0993
  116OSM    C7S12064   1.695   1.668   6.580  0.2791 -0.8392  0.2697
  116OSM    H7S12065   1.590   1.694   6.603 -0.1346 -1.4458 -0.8605
  116OSM    H7T12066   1.695   1.592   6.499  2.1283 -0.5106 -0.0962
  116OSM    C8S12067   1.778   1.785   6.528  0.2195  0.1799 -1.1588
  116OSM    H8S12068   1.873   1.735   6.500 -0.0394  0.5137 -2.7352
  116OSM    H8T12069   1.803   1.868   6.598  2.0784 -0.8687 -0.4870
  116OSM    C9S12070   1.709   1.836   6.398 -0.1241  0.9151  0.0848
  116OSM    H9S12071   1.604   1.863   6.423  0.2802  1.3116  1.4439
  116OSM    H9T12072   1.708   1.752   6.326 -1.3719 -1.1765  2.4129
  116OSM   C10S12073   1.774   1.962   6.320 -0.7786  0.2710 -0.4653
  116OSM   H10S12074   1.881   1.936   6.305 -0.7928 -0.6423  0.8390
  116OSM   H10T12075   1.774   2.047   6.391  0.3387  0.3991 -0.5994
  116OSM   C11S12076   1.698   1.985   6.190  0.3001 -0.2250 -0.2075
  116OSM   H11S12077   1.608   2.037   6.230  0.0842 -1.5527  1.1286
  116OSM   H11T12078   1.665   1.889   6.144 -1.7899  0.8345 -1.0400
  116OSM   C12S12079   1.788   2.053   6.086 -0.1983  0.1778 -0.4337
  116OSM   H12S12080   1.882   1.998   6.069 -1.1340 -0.9253 -2.3551
  116OSM   H12T12081   1.819   2.156   6.115 -1.6292  1.4126 -2.9541
  116OSM   C13S12082   1.719   2.071   5.948  0.6453 -0.3066  0.0187
  116OSM   H13S12083   1.636   2.144   5.961 -0.1952 -1.4536  1.3490
  116OSM   H13T12084   1.683   1.973   5.911  0.6890 -0.7528  1.1402
  116OSM   C14S12085   1.818   2.135   5.848 -0.6477  0.4837 -0.2017
  116OSM   H14S12086   1.885   2.052   5.820 -1.5759 -1.1375  2.0944
  116OSM   H14T12087   1.864   2.217   5.907 -1.3047  0.9820 -0.3699
  116OSM   C15S12088   1.755   2.207   5.725 -0.9166  0.1644 -0.0798
  116OSM   H15S12089   1.683   2.281   5.764 -1.9203 -1.6645  1.7649
  116OSM   H15T12090   1.705   2.129   5.665  0.7498  0.4106 -1.8936
  116OSM   C16S12091   1.860   2.272   5.633  0.3248 -0.1669 -0.5136
  116OSM   H16S12092   1.933   2.194   5.602  1.6110  0.3412  1.1202
  116OSM   H16T12093   1.903   2.349   5.700  2.0398 -0.9429 -0.6767
  116OSM   C17S12094   1.789   2.342   5.514 -0.3893  0.2371 -0.4279
  116OSM   H17S12095   1.727   2.258   5.474 -0.5980 -0.1686  0.7088
  116OSM   H17T12096   1.863   2.362   5.434 -0.5822 -1.2434 -1.0280
  116OSM   C18S12097   1.696   2.454   5.560 -0.3824 -0.4386 -0.2066
  116OSM   H18S12098   1.753   2.527   5.621  0.9079 -1.5043 -0.0779
  116OSM   H18T12099   1.607   2.417   5.615 -0.7777  0.4670 -0.2196
  116OSM   H18U12100   1.653   2.506   5.472  0.5898  0.0875 -0.3821
  116OSM    C1F12101   2.095   1.977   6.762  0.3359  0.1274  0.4347
  116OSM     OF12102   2.201   1.953   6.809  0.0512 -0.3198 -0.1779
  116OSM    C2F12103   2.068   2.001   6.621  0.6679  0.9589 -0.4383
  116OSM    H2F12104   1.961   2.021   6.597 -0.4798 -1.2415  2.3302
  116OSM    H2G12105   2.085   1.906   6.567  0.7102  1.3092 -1.0521
  116OSM    C3F12106   2.170   2.105   6.560 -0.4562 -0.0475 -0.4925
  116OSM    H3F12107   2.272   2.080   6.596  0.4976  2.1714 -1.4370
  116OSM    H3G12108   2.148   2.200   6.614  1.3371  0.2787 -0.2741
  116OSM    C4F12109   2.156   2.126   6.411  0.6623 -0.4642  0.1571
  116OSM    H4F12110   2.212   2.214   6.371 -0.8204  0.5729  0.2526
  116OSM    H4G12111   2.048   2.143   6.390  1.3198  2.3388 -1.5458
  116OSM    C5F12112   2.178   2.007   6.316  0.2843  0.4461  0.3814
  116OSM    H5F12113   2.096   1.934   6.335 -0.7021  1.4156 -0.0100
  116OSM    H5G12114   2.271   1.955   6.347  0.8111  1.2644  0.1884
  116OSM    C6F12115   2.200   2.037   6.169 -0.1427  0.3680  0.0620
  116OSM    H6F12116   2.113   2.099   6.137 -0.3037  0.2761  0.3162
  116OSM    H6G12117   2.204   1.944   6.108  0.3127 -0.0470  0.7158
  116OSM    C7F12118   2.320   2.125   6.132  0.1764 -0.7920  0.0651
  116OSM    H7F12119   2.416   2.080   6.165  1.0684 -0.0574 -1.3805
  116OSM    H7G12120   2.318   2.221   6.187 -0.0267  0.4565 -1.9849
  116OSM    C8F12121   2.327   2.152   5.981 -0.4564  0.7357  0.5907
  116OSM    H8F12122   2.228   2.195   5.952 -0.3553  0.3002 -0.4606
  116OSM    H8G12123   2.348   2.055   5.932  1.0088 -0.2343  2.9653
  116OSM    C9F12124   2.428   2.249   5.942 -0.2368  0.7718  0.3771
  116OSM    H9F12125   2.523   2.242   5.997  0.6236  2.0384 -0.8881
  116OSM   C10F12126   2.415   2.347   5.855  0.3497  0.6071 -0.5453
  116OSM   H10F12127   2.501   2.403   5.815  1.3156  1.1744  2.1403
  116OSM   C11F12128   2.289   2.384   5.776  0.7054  0.0078 -0.4517
  116OSM   H11F12129   2.270   2.493   5.778 -0.4384 -0.1846  1.1072
  116OSM   H11G12130   2.199   2.347   5.830 -0.3174  2.0283 -0.6748
  116OSM   C12F12131   2.282   2.323   5.644  0.0067 -0.8440  0.8809
  116OSM   H12F12132   2.181   2.344   5.602  0.4707 -1.6019 -0.7102
  116OSM   H12G12133   2.292   2.214   5.661 -1.1342 -1.2128 -0.5672
  116OSM   C13F12134   2.384   2.372   5.535  0.1459 -0.1341  0.2968
  116OSM   H13F12135   2.487   2.367   5.578  0.2942  0.3790  0.0134
  116OSM   H13G12136   2.366   2.479   5.510 -0.8872 -0.0321  1.3961
  116OSM   C14F12137   2.392   2.294   5.410  0.2207 -0.1488 -0.5974
  116OSM   H14F12138   2.289   2.286   5.369  0.1027 -0.4268 -0.2617
  116OSM   H14G12139   2.424   2.191   5.438  2.6134  0.1908 -1.8507
  116OSM   C15F12140   2.490   2.338   5.299 -0.3161 -0.7375  1.0208
  116OSM   H15F12141   2.587   2.346   5.352  0.5388  2.2644 -0.7720
  116OSM   H15G12142   2.464   2.434   5.249  0.5607 -0.5687  0.8878
  116OSM   C16F12143   2.515   2.228   5.195  0.6416 -0.8522 -0.0837
  116OSM   H16F12144   2.423   2.209   5.136  0.9726 -2.8505 -0.0292
  116OSM   H16G12145   2.529   2.134   5.252 -1.4132 -0.1267  1.7258
  116OSM   C17F12146   2.631   2.250   5.092  0.1876  0.2204  0.4550
  116OSM   H17F12147   2.706   2.305   5.152 -1.0066  2.3743  0.0951
  116OSM   H17G12148   2.589   2.329   5.027  1.1283 -1.8160 -2.8233
  116OSM   C18F12149   2.683   2.133   5.002  0.4956  0.1724  0.3149
  116OSM   H18F12150   2.719   2.047   5.062  1.9560  0.3570 -0.2517
  116OSM   H18G12151   2.766   2.159   4.933  0.3225 -0.5351 -0.1747
  116OSM   H18H12152   2.602   2.099   4.934  0.1060  2.1161 -0.2634
  117OSM      N12153   0.968   4.745   7.185 -0.0630 -0.0653  0.3850
  117OSM    C1512154   1.010   4.873   7.111 -0.1387  0.6884 -0.5501
  117OSM   H15A12155   0.943   4.948   7.151 -0.4690 -0.3781  1.0264
  117OSM   H15B12156   0.995   4.877   7.005  0.9765 -0.0267 -0.7503
  117OSM   H15C12157   1.114   4.893   7.136 -0.4220  1.3614  0.1554
  117OSM    C1412158   1.061   4.632   7.144  0.2157 -0.6686  0.4121
  117OSM   H14A12159   1.164   4.663   7.155  0.1935  0.0136 -0.9976
  117OSM   H14B12160   1.041   4.607   7.041 -2.5174  2.8654 -0.1374
  117OSM   H14C12161   1.047   4.543   7.203 -0.5848  0.2122  1.6019
  117OSM    C1312162   0.990   4.766   7.328  0.2078  0.2268 -0.3233
  117OSM   H13A12163   0.946   4.855   7.371 -0.1264 -0.7932  1.5552
  117OSM   H13B12164   1.094   4.775   7.358 -0.4590  2.9681  1.5520
  117OSM   H13C12165   0.945   4.682   7.378  0.5740 -0.1873 -0.6770
  117OSM    C1212166   0.815   4.718   7.154 -0.3127  0.5594 -0.4796
  117OSM   H12A12167   0.810   4.722   7.046  3.3216 -0.4688 -0.8111
  117OSM   H12B12168   0.759   4.804   7.189 -0.3699  1.3164 -2.3170
  117OSM    C1112169   0.759   4.584   7.207  0.0732  0.2786 -0.2943
  117OSM   H11A12170   0.648   4.588   7.207  0.0062  0.6719  2.7994
  117OSM   H11B12171   0.790   4.569   7.312 -0.2116  0.7298 -0.1454
  117OSM      P12172   0.743   4.434   6.992 -0.0680  0.9181  0.1823
  117OSM    O1312173   0.838   4.342   6.926  0.7369 -0.6169 -0.0321
  117OSM    O1412174   0.607   4.382   7.020 -0.0355  0.0544 -0.1166
  117OSM    O1112175   0.713   4.558   6.905  0.0131 -0.1768  0.3422
  117OSM    O1212176   0.810   4.477   7.131 -0.0792 -0.0456 -0.0246
  117OSM    C1S12177   0.809   4.613   6.818  0.0159 -0.1483 -0.3426
  117OSM    H1S12178   0.909   4.567   6.831 -0.3124 -0.8126 -0.1440
  117OSM    H1T12179   0.816   4.723   6.831 -1.0145 -0.2495  1.4006
  117OSM     NF12180   0.883   4.630   6.581 -0.3184  0.5498  0.0658
  117OSM    HNF12181   0.879   4.724   6.549  1.0438 -0.2708 -2.8273
  117OSM    C2S12182   0.772   4.583   6.665  0.1766 -0.2201 -0.0582
  117OSM    H2S12183   0.761   4.476   6.637 -1.8138  0.5684 -2.6205
  117OSM    C3S12184   0.635   4.655   6.637 -0.1538  0.2653 -0.5697
  117OSM    H3S12185   0.643   4.763   6.664  0.0801 -0.1079  0.9402
  117OSM     O312186   0.532   4.598   6.719 -0.7849 -0.3764 -0.5370
  117OSM    HO312187   0.583   4.543   6.779 -1.0219 -0.2729 -0.2364
  117OSM    C4S12188   0.594   4.629   6.499 -0.3779  0.0814  0.5635
  117OSM    H4S12189   0.579   4.520   6.486 -0.4945  0.1600  0.0126
  117OSM    C5S12190   0.571   4.720   6.403  0.2043 -0.3961  0.1610
  117OSM    H5S12191   0.596   4.827   6.411  3.2133 -1.0186  0.2102
  117OSM    C6S12192   0.526   4.682   6.262  0.3653 -0.2364 -0.2397
  117OSM    H6S12193   0.421   4.706   6.235  0.6555 -1.5598 -2.8985
  117OSM    H6T12194   0.539   4.572   6.252  1.0785 -0.1450 -0.3130
  117OSM    C7S12195   0.613   4.741   6.145  0.0015  0.2124 -0.5391
  117OSM    H7S12196   0.719   4.712   6.154  0.6820  2.1595 -1.7212
  117OSM    H7T12197   0.620   4.851   6.161 -2.0108  0.1355  1.3524
  117OSM    C8S12198   0.553   4.703   6.006 -0.5076 -0.1752 -0.6340
  117OSM    H8S12199   0.444   4.725   6.001 -0.5695  0.4664  1.8680
  117OSM    H8T12200   0.566   4.593   6.001 -0.1161 -0.0887 -1.8525
  117OSM    C9S12201   0.621   4.763   5.884 -0.0576 -0.3738  0.0713
  117OSM    H9S12202   0.627   4.874   5.874  0.3000 -0.4384 -0.4865
  117OSM    H9T12203   0.553   4.726   5.805 -0.8483 -1.4640  1.2245
  117OSM   C10S12204   0.760   4.700   5.863 -0.1499 -0.2780  0.4647
  117OSM   H10S12205   0.740   4.592   5.851  0.5117 -0.3660  0.1199
  117OSM   H10T12206   0.818   4.712   5.957  3.5444 -0.0416 -1.6433
  117OSM   C11S12207   0.835   4.748   5.738 -0.0492  0.9402  0.4772
  117OSM   H11S12208   0.941   4.715   5.737 -0.0603  0.9070 -0.3836
  117OSM   H11T12209   0.822   4.858   5.729 -0.6987  0.7088 -2.3205
  117OSM   C12S12210   0.770   4.694   5.610 -0.8998 -0.5328  0.3881
  117OSM   H12S12211   0.666   4.729   5.596 -0.4358  0.4488 -0.7889
  117OSM   H12T12212   0.781   4.584   5.609  0.4452 -0.4172  0.3085
  117OSM   C13S12213   0.849   4.744   5.484 -0.2649  0.3233 -0.1566
  117OSM   H13S12214   0.958   4.731   5.499 -0.1143 -1.0125 -2.0189
  117OSM   H13T12215   0.830   4.853   5.486 -0.7847  0.2536  2.1923
  117OSM   C14S12216   0.804   4.669   5.357  0.3347 -0.2112 -0.1732
  117OSM   H14S12217   0.696   4.686   5.337  0.3343 -1.4636 -1.4274
  117OSM   H14T12218   0.808   4.560   5.377  0.1430 -0.2952 -0.5669
  117OSM   C15S12219   0.876   4.702   5.226 -0.0874  0.0107 -0.0062
  117OSM   H15S12220   0.985   4.685   5.243  0.0064  0.9459  0.3516
  117OSM   H15T12221   0.877   4.808   5.193  2.4100  0.0872  0.1296
  117OSM   C16S12222   0.831   4.614   5.110 -0.5014  0.1360 -0.1661
  117OSM   H16S12223   0.720   4.617   5.114 -0.4600  0.4985  1.1634
  117OSM   H16T12224   0.858   4.506   5.113 -2.0274 -0.2947 -0.9939
  117OSM   C17S12225   0.886   4.666   4.975  0.5109  0.2906  0.1515
  117OSM   H17S12226   0.875   4.777   4.982 -3.3544  0.1578 -1.1987
  117OSM   H17T12227   0.822   4.625   4.894  1.5512  0.4124 -0.7543
  117OSM   C18S12228   1.030   4.630   4.939  0.2527 -0.6695  0.1320
  117OSM   H18S12229   1.042   4.693   4.849  0.5143 -0.0718  0.5764
  117OSM   H18T12230   1.027   4.519   4.932 -2.2104 -0.5981 -0.9654
  117OSM   H18U12231   1.101   4.666   5.017 -1.4552  1.3986  0.8204
  117OSM    C1F12232   0.996   4.571   6.573 -0.0292 -0.5625  0.2888
  117OSM     OF12233   1.006   4.460   6.628 -0.3714  0.0484 -0.1341
  117OSM    C2F12234   1.095   4.628   6.477 -0.6899  0.0427  0.1927
  117OSM    H2F12235   1.135   4.535   6.430 -0.7889  0.4992 -0.8161
  117OSM    H2G12236   1.184   4.674   6.525  0.2050  0.0704 -1.4267
  117OSM    C3F12237   1.035   4.723   6.370  0.1559 -0.1065  0.4516
  117OSM    H3F12238   1.018   4.822   6.416 -1.0427 -0.4932  0.8599
  117OSM    H3G12239   0.937   4.688   6.331  0.8044  0.6374 -2.0627
  117OSM    C4F12240   1.147   4.740   6.259  0.4421 -0.0328 -0.1586
  117OSM    H4F12241   1.190   4.641   6.233 -1.5134 -0.8112 -0.5786
  117OSM    H4G12242   1.228   4.800   6.306  0.0623  1.1178 -0.9325
  117OSM    C5F12243   1.102   4.813   6.129  0.1929  0.2163 -0.4110
  117OSM    H5F12244   1.104   4.921   6.156 -0.7394  0.2306 -0.3938
  117OSM    H5G12245   0.994   4.801   6.108  0.1728 -0.8308  0.2508
  117OSM    C6F12246   1.189   4.773   6.004 -0.6785  0.3268  0.3582
  117OSM    H6F12247   1.154   4.670   5.982  1.1489 -0.0445 -1.0737
  117OSM    H6G12248   1.297   4.772   6.030  0.2270 -0.5456 -2.9333
  117OSM    C7F12249   1.173   4.865   5.883 -0.0145 -0.6777 -0.0261
  117OSM    H7F12250   1.193   4.967   5.923  1.7183 -1.0679  0.1553
  117OSM    H7G12251   1.066   4.871   5.853 -0.0547  0.5200  0.3034
  117OSM    C8F12252   1.268   4.845   5.764  0.2060 -0.6299  0.2690
  117OSM    H8F12253   1.255   4.737   5.744 -1.5391 -0.2182 -0.9977
  117OSM    H8G12254   1.374   4.860   5.795 -0.1010 -1.0844  1.6179
  117OSM    C9F12255   1.244   4.940   5.652 -0.3431  0.0493  0.7913
  117OSM    H9F12256   1.213   5.040   5.684  0.2345  0.0357  1.4309
  117OSM   C10F12257   1.249   4.918   5.515 -0.0974  0.1931  0.2980
  117OSM   H10F12258   1.208   4.998   5.451  0.9999 -2.3903 -4.0232
  117OSM   C11F12259   1.278   4.778   5.452 -0.3504 -0.1816 -0.4095
  117OSM   H11F12260   1.209   4.756   5.368 -1.7360  1.4382  0.2363
  117OSM   H11G12261   1.250   4.702   5.528 -1.1464 -0.3818 -0.8896
  117OSM   C12F12262   1.423   4.765   5.394 -0.9274  0.3496  1.0717
  117OSM   H12F12263   1.438   4.671   5.337  0.9009  0.6905  0.9309
  117OSM   H12G12264   1.492   4.763   5.481 -1.0609 -2.2688  1.2116
  117OSM   C13F12265   1.464   4.868   5.285  0.6393  0.5795 -0.2328
  117OSM   H13F12266   1.575   4.867   5.286  0.7585  1.9940 -3.0024
  117OSM   H13G12267   1.445   4.976   5.305  2.6829  1.3463 -2.0674
  117OSM   C14F12268   1.407   4.826   5.149  0.8744 -0.1482 -0.2211
  117OSM   H14F12269   1.298   4.824   5.167  1.0687 -1.9650  1.0427
  117OSM   H14G12270   1.444   4.724   5.126 -1.1090 -0.6525 -1.3755
  117OSM   C15F12271   1.429   4.915   5.023  0.6619  0.1512  0.0531
  117OSM   H15F12272   1.538   4.905   5.002  0.4678 -2.3520 -0.0936
  117OSM   H15G12273   1.389   5.017   5.043  0.5588 -0.1597  1.5444
  117OSM   C16F12274   1.341   4.869   4.905 -0.2342 -0.0774  0.0786
  117OSM   H16F12275   1.319   4.953   4.835  2.9930  1.7793  1.0952
  117OSM   H16G12276   1.243   4.840   4.949  0.0205 -1.3320 -0.1391
  117OSM   C17F12277   1.388   4.743   4.846 -1.1780  0.9911 -0.2163
  117OSM   H17F12278   1.381   4.658   4.918  0.8869  1.5309  0.6780
  117OSM   H17G12279   1.496   4.740   4.822 -1.7285 -2.0869 -3.0303
  117OSM   C18F12280   1.322   4.717   4.712 -0.1158  0.2573 -0.4131
  117OSM   H18F12281   1.212   4.730   4.725  0.2873  1.9735  2.3469
  117OSM   H18G12282   1.341   4.616   4.670  2.3532 -0.1311  1.4162
  117OSM   H18H12283   1.352   4.790   4.634  0.7005 -2.9140 -3.3302
  118OSM      N12284   0.920   2.879   6.865  1.2021 -0.5300 -0.1271
  118OSM    C1512285   0.899   2.988   6.969 -0.0233  0.1931  0.4574
  118OSM   H15A12286   0.975   2.995   7.045  1.4265 -1.7999 -0.6917
  118OSM   H15B12287   0.802   2.984   7.015  0.0611  2.0110  0.8413
  118OSM   H15C12288   0.905   3.081   6.915  0.0408 -0.2834 -0.3917
  118OSM    C1412289   0.856   2.755   6.911  0.9271  0.1513  0.1056
  118OSM   H14A12290   0.887   2.721   7.009  0.4576 -3.8021 -0.9593
  118OSM   H14B12291   0.872   2.673   6.843  0.0432 -1.5492  1.8595
  118OSM   H14C12292   0.749   2.773   6.916  1.0933  0.8552  1.6970
  118OSM    C1312293   0.864   2.923   6.735  0.2401  0.1239 -0.0247
  118OSM   H13A12294   0.856   3.030   6.728 -0.1838  0.1563  0.7884
  118OSM   H13B12295   0.767   2.874   6.729  1.2640 -2.3155  1.7080
  118OSM   H13C12296   0.928   2.887   6.656 -0.9664  1.3972 -1.6616
  118OSM    C1212297   1.065   2.873   6.843  0.0914  0.0116 -0.0666
  118OSM   H12A12298   1.103   2.972   6.822  2.7839 -0.5861  1.4988
  118OSM   H12B12299   1.087   2.814   6.756 -0.8142  1.5971 -1.4331
  118OSM    C1112300   1.140   2.830   6.966 -0.4034 -0.0863  0.0381
  118OSM   H11A12301   1.241   2.802   6.929 -0.1661  0.3956  0.3129
  118OSM   H11B12302   1.096   2.735   7.002  3.4624 -1.2322  2.3748
  118OSM      P12303   1.266   3.047   7.039  0.1792 -0.0997 -0.4424
  118OSM    O1312304   1.220   3.165   7.121 -0.4759  0.3926 -0.3025
  118OSM    O1412305   1.400   3.003   7.080  0.3815  0.6238  0.0526
  118OSM    O1112306   1.244   3.074   6.889 -1.1458  0.6995  0.2140
  118OSM    O1212307   1.156   2.929   7.064 -0.1861 -0.2829 -0.2259
  118OSM    C1S12308   1.359   3.044   6.799  0.0900 -0.1183 -0.1210
  118OSM    H1S12309   1.369   2.934   6.789 -0.1301 -0.1398 -0.1076
  118OSM    H1T12310   1.457   3.072   6.842 -0.4908 -1.2125  2.0223
  118OSM     NF12311   1.441   3.044   6.560  0.1389 -0.1608  0.0049
  118OSM    HNF12312   1.530   3.088   6.544  0.9786 -2.0063 -0.7487
  118OSM    C2S12313   1.347   3.109   6.651  1.1163 -0.2408 -0.2782
  118OSM    H2S12314   1.248   3.085   6.607  1.2374  1.8733 -1.8865
  118OSM    C3S12315   1.366   3.261   6.659  0.6199 -0.4250  0.0896
  118OSM    H3S12316   1.468   3.282   6.697  1.4565  0.8985 -2.6324
  118OSM     O312317   1.285   3.330   6.752  0.1618  0.1381 -0.2807
  118OSM    HO312318   1.230   3.268   6.800  0.8153 -0.3468 -0.1363
  118OSM    C4S12319   1.364   3.331   6.524  0.2076  0.1807 -0.4250
  118OSM    H4S12320   1.294   3.288   6.451  0.3184 -0.9024  0.0810
  118OSM    C5S12321   1.424   3.448   6.485 -0.3863  0.2505  0.1979
  118OSM    H5S12322   1.483   3.510   6.554  2.2761 -1.0037 -0.8155
  118OSM    C6S12323   1.398   3.506   6.347  0.1297 -0.2490  0.0327
  118OSM    H6S12324   1.381   3.616   6.348 -1.4476 -0.4762  1.8653
  118OSM    H6T12325   1.303   3.471   6.301  0.3687  0.2977 -0.9136
  118OSM    C7S12326   1.512   3.471   6.244  0.0791 -0.2989  0.1927
  118OSM    H7S12327   1.520   3.360   6.240  1.1566 -0.2163 -0.1833
  118OSM    H7T12328   1.605   3.498   6.298 -0.1182 -1.3460  1.1028
  118OSM    C8S12329   1.508   3.535   6.109  0.3729 -0.6867  0.1267
  118OSM    H8S12330   1.509   3.644   6.130  0.0122 -0.8208  0.8634
  118OSM    H8T12331   1.416   3.504   6.054  0.1038 -1.2629  0.8852
  118OSM    C9S12332   1.635   3.516   6.021  0.2906  0.3256 -0.5197
  118OSM    H9S12333   1.676   3.412   6.021  5.2642  2.0261 -1.7767
  118OSM    H9T12334   1.708   3.582   6.072 -1.2688  1.1012  0.7825
  118OSM   C10S12335   1.611   3.548   5.870 -0.2776  0.2290 -0.5004
  118OSM   H10S12336   1.588   3.656   5.875 -1.4806 -0.0550  0.6173
  118OSM   H10T12337   1.531   3.485   5.825 -0.7687  0.7760 -0.3905
  118OSM   C11S12338   1.733   3.513   5.779  0.5100 -0.0326 -0.1669
  118OSM   H11S12339   1.750   3.407   5.809  1.3102 -0.0898 -0.7979
  118OSM   H11T12340   1.824   3.573   5.801  0.9997 -0.9332  0.3066
  118OSM   C12S12341   1.700   3.529   5.630  0.0981 -0.3679 -0.0701
  118OSM   H12S12342   1.625   3.612   5.628 -3.2421 -3.0987  1.0312
  118OSM   H12T12343   1.663   3.438   5.579  1.7008 -0.8069 -0.4894
  118OSM   C13S12344   1.824   3.567   5.554 -0.1740 -1.7129  0.0216
  118OSM   H13S12345   1.896   3.491   5.592 -0.4913 -1.3636  1.3755
  118OSM   H13T12346   1.858   3.670   5.579  0.1519 -1.0792 -2.7077
  118OSM   C14S12347   1.806   3.557   5.404  0.1608 -0.6295  0.3095
  118OSM   H14S12348   1.717   3.617   5.377  0.6350 -0.0014  0.1188
  118OSM   H14T12349   1.783   3.450   5.385  3.1122 -1.1690 -0.7152
  118OSM   C15S12350   1.936   3.593   5.331  0.1977  0.6374  0.6974
  118OSM   H15S12351   2.003   3.510   5.363 -0.3950  0.3481  1.2081
  118OSM   H15T12352   1.970   3.696   5.356 -2.8337  1.8246  0.3546
  118OSM   C16S12353   1.934   3.583   5.177  0.1697  0.6687  0.4802
  118OSM   H16S12354   2.013   3.638   5.120 -1.7756  0.5208 -2.5674
  118OSM   H16T12355   1.843   3.634   5.140  1.8662  0.4820 -4.7560
  118OSM   C17S12356   1.911   3.443   5.109  0.1580 -0.3110  0.4435
  118OSM   H17S12357   1.808   3.408   5.133  0.6188 -0.4236  2.4133
  118OSM   H17T12358   1.979   3.370   5.157  1.2291 -0.8359 -1.7548
  118OSM   C18S12359   1.919   3.443   4.954 -0.1556  0.3091  0.8489
  118OSM   H18S12360   1.882   3.347   4.910 -1.3365  1.4557 -0.8250
  118OSM   H18T12361   2.024   3.470   4.933 -0.3742  1.0081  0.6415
  118OSM   H18U12362   1.845   3.515   4.913 -2.3341 -2.1329  0.2062
  118OSM    C1F12363   1.416   2.925   6.511 -0.1802 -0.5086  0.0497
  118OSM     OF12364   1.307   2.878   6.521  0.1939 -0.4123 -0.2740
  118OSM    C2F12365   1.522   2.856   6.438  0.6342  0.8885  0.8645
  118OSM    H2F12366   1.581   2.792   6.506 -0.4315 -0.8279  0.2414
  118OSM    H2G12367   1.588   2.928   6.385 -1.6615  1.4558 -1.4812
  118OSM    C3F12368   1.472   2.745   6.344 -0.1438 -0.1623  0.6621
  118OSM    H3F12369   1.397   2.674   6.384 -0.6222 -2.1319 -3.2369
  118OSM    H3G12370   1.553   2.681   6.304  0.1092  1.3384 -1.3792
  118OSM    C4F12371   1.412   2.800   6.213  0.4124  0.2916  0.5176
  118OSM    H4F12372   1.462   2.892   6.176  0.7214  0.0054  0.2136
  118OSM    H4G12373   1.304   2.823   6.221  0.7074  1.9669 -0.1006
  118OSM    C5F12374   1.440   2.696   6.104 -0.0384  0.6635  0.3213
  118OSM    H5F12375   1.424   2.604   6.164 -0.5049  2.0567  2.4189
  118OSM    H5G12376   1.546   2.700   6.074  0.0967 -0.3659  0.6017
  118OSM    C6F12377   1.345   2.701   5.991 -0.4731 -0.5175 -0.4684
  118OSM    H6F12378   1.313   2.807   5.981 -1.6414 -0.7626  0.4416
  118OSM    H6G12379   1.245   2.655   6.010 -0.4398  0.0264  1.2759
  118OSM    C7F12380   1.408   2.657   5.862  0.1700 -0.3389  0.1419
  118OSM    H7F12381   1.410   2.546   5.876  0.8751 -0.3021  0.4113
  118OSM    H7G12382   1.509   2.701   5.850  0.3461 -0.7764 -0.0152
  118OSM    C8F12383   1.307   2.684   5.744  0.1029  0.1785 -0.0163
  118OSM    H8F12384   1.293   2.794   5.733  1.1234  0.5547  1.8379
  118OSM    H8G12385   1.205   2.651   5.773  0.8271 -1.6267  0.5961
  118OSM    C9F12386   1.354   2.604   5.622 -0.1646  0.2150 -0.2283
  118OSM    H9F12387   1.371   2.500   5.654  0.6382 -0.0203 -1.3520
  118OSM   C10F12388   1.350   2.641   5.491  0.4842 -0.4615  0.0143
  118OSM   H10F12389   1.371   2.566   5.413 -1.0369 -1.1778  0.2612
  118OSM   C11F12390   1.294   2.770   5.446  0.0331  0.1763  0.7146
  118OSM   H11F12391   1.343   2.864   5.481  0.3091  0.5020 -0.4937
  118OSM   H11G12392   1.187   2.778   5.472  0.1325 -1.4851  1.7751
  118OSM   C12F12393   1.324   2.781   5.291 -0.5644  0.1273  0.2744
  118OSM   H12F12394   1.269   2.702   5.235 -1.5031  1.3240 -0.5234
  118OSM   H12G12395   1.433   2.764   5.275 -0.2747  0.4520  1.7342
  118OSM   C13F12396   1.299   2.920   5.229  0.0242 -0.3533 -0.2935
  118OSM   H13F12397   1.367   2.988   5.283 -3.1381  0.8317  2.5602
  118OSM   H13G12398   1.196   2.956   5.253  0.1340 -0.2749  0.0635
  118OSM   C14F12399   1.327   2.927   5.079 -0.0083 -0.3485  0.7299
  118OSM   H14F12400   1.432   2.894   5.061  0.1228  0.8673 -1.0078
  118OSM   H14G12401   1.306   3.030   5.043  0.8780  0.0190  1.2398
  118OSM   C15F12402   1.232   2.838   5.000  0.6970  0.5121 -1.0281
  118OSM   H15F12403   1.131   2.857   5.042  0.8035  2.5891 -1.5800
  118OSM   H15G12404   1.268   2.733   5.000 -1.5687 -0.3212  0.1419
  118OSM   C16F12405   1.228   2.874   4.855 -0.3244  0.0331  0.0702
  118OSM   H16F12406   1.171   2.797   4.798 -2.5238  1.0738  0.7148
  118OSM   H16G12407   1.332   2.865   4.818 -0.0446  1.0802  0.5724
  118OSM   C17F12408   1.168   3.006   4.823  0.0683 -0.6841  0.7590
  118OSM   H17F12409   1.159   3.033   4.715 -2.0759 -2.7844  0.3389
  118OSM   H17G12410   1.245   3.081   4.853  1.3597 -2.1191  1.1150
  118OSM   C18F12411   1.033   3.040   4.884  0.3930  0.2095  0.3681
  118OSM   H18F12412   0.998   3.135   4.838 -2.4238 -0.3242  1.2204
  118OSM   H18G12413   1.035   3.034   4.995  0.0071 -0.7931  0.3280
  118OSM   H18H12414   0.945   2.976   4.862 -0.2277  0.7219  1.2770
  119OSM      N12415   4.007   5.098   7.726  0.1083 -0.1904 -0.2462
  119OSM    C1512416   4.124   5.172   7.775 -0.5586 -0.3434  0.4796
  119OSM   H15A12417   4.111   5.279   7.787  1.6911  0.0109  0.0718
  119OSM   H15B12418   4.217   5.162   7.722 -0.4298  1.6266  0.2505
  119OSM   H15C12419   4.147   5.141   7.875 -0.3872 -1.7866  0.0212
  119OSM    C1412420   4.054   4.959   7.722 -0.2559  1.0023 -0.4330
  119OSM   H14A12421   4.138   4.947   7.656  0.4930 -1.9200  0.8866
  119OSM   H14B12422   3.976   4.896   7.682  0.5035 -1.1967  1.3183
  119OSM   H14C12423   4.085   4.949   7.825  2.2053  1.1958 -1.0976
  119OSM    C1312424   3.888   5.112   7.825  0.5204 -0.0120  0.0261
  119OSM   H13A12425   3.916   5.107   7.929  2.2821 -0.6929 -0.4595
  119OSM   H13B12426   3.816   5.036   7.798  1.8178 -1.0501 -0.6435
  119OSM   H13C12427   3.844   5.210   7.814  2.0278  0.7071  0.1309
  119OSM    C1212428   3.972   5.149   7.588 -0.0675  0.3994 -0.6561
  119OSM   H12A12429   4.071   5.156   7.544 -0.6947  0.0736 -2.2135
  119OSM   H12B12430   3.917   5.242   7.593  1.6819  1.4219  0.3637
  119OSM    C1112431   3.896   5.048   7.501  0.1780 -0.6314 -0.5182
  119OSM   H11A12432   3.855   5.117   7.425 -2.6901 -0.4922  0.9722
  119OSM   H11B12433   3.805   5.011   7.554 -0.5385  3.9553  2.0377
  119OSM      P12434   4.064   4.954   7.321  0.1363 -0.5130 -0.4915
  119OSM    O1312435   4.194   5.002   7.367  0.3607  0.2222 -0.5409
  119OSM    O1412436   4.065   4.825   7.253  0.0709  0.6822  0.5163
  119OSM    O1112437   3.998   5.062   7.228  0.2623 -0.7222 -0.0523
  119OSM    O1212438   3.968   4.940   7.445  0.1308 -0.6547  0.1349
  119OSM    C1S12439   4.065   5.114   7.110 -0.7458  0.4643 -0.0213
  119OSM    H1S12440   4.104   5.033   7.044 -0.0438  1.1606 -0.4701
  119OSM    H1T12441   4.154   5.177   7.131  1.1876 -2.9732  3.3418
  119OSM     NF12442   4.033   5.229   6.888 -0.5640 -0.1337 -0.4094
  119OSM    HNF12443   4.077   5.318   6.881  2.7674 -1.5211  0.7748
  119OSM    C2S12444   3.970   5.197   7.023  0.4441 -0.7877 -0.0948
  119OSM    H2S12445   3.886   5.128   6.999  2.0554 -2.9517  0.2125
  119OSM    C3S12446   3.905   5.309   7.101 -0.2881 -1.4091  0.3392
  119OSM    H3S12447   3.989   5.354   7.158 -1.9660  2.7411 -0.0992
  119OSM     O312448   3.822   5.266   7.210 -0.3501 -0.1884  0.2420
  119OSM    HO312449   3.853   5.175   7.214 -0.5002 -0.2601 -0.1499
  119OSM    C4S12450   3.838   5.416   7.011 -0.8517  0.5746 -0.3474
  119OSM    H4S12451   3.878   5.518   7.012  0.4753  0.0701 -0.1836
  119OSM    C5S12452   3.718   5.398   6.949  0.1656 -0.5808 -0.5590
  119OSM    H5S12453   3.668   5.302   6.967  1.5622 -1.1051  0.6694
  119OSM    C6S12454   3.646   5.510   6.879  0.6843 -0.4601 -1.1108
  119OSM    H6S12455   3.650   5.607   6.933 -0.9735 -1.0587  0.1539
  119OSM    H6T12456   3.537   5.491   6.887  0.3821  1.1737 -0.9680
  119OSM    C7S12457   3.676   5.533   6.741  0.3888 -0.1194  0.2027
  119OSM    H7S12458   3.649   5.639   6.722  0.7025 -0.1372 -0.3591
  119OSM    H7T12459   3.614   5.470   6.674 -0.9590  0.8048  0.5384
  119OSM    C8S12460   3.827   5.514   6.708  0.1584 -0.5469 -0.5613
  119OSM    H8S12461   3.873   5.414   6.729 -0.4404 -0.0958  3.8390
  119OSM    H8T12462   3.890   5.584   6.766 -0.7775  1.1576 -1.5457
  119OSM    C9S12463   3.845   5.546   6.562 -0.4933 -0.2757 -1.0005
  119OSM    H9S12464   3.946   5.591   6.547  0.0602 -0.6423  1.2074
  119OSM    H9T12465   3.766   5.617   6.529 -1.4760 -0.9895 -0.2316
  119OSM   C10S12466   3.834   5.422   6.480  0.1553  0.4297  0.3379
  119OSM   H10S12467   3.743   5.366   6.507 -0.8097  2.0040  0.4695
  119OSM   H10T12468   3.918   5.361   6.520  1.1243  2.3001  1.3100
  119OSM   C11S12469   3.855   5.435   6.325  0.1143  0.5311 -0.6371
  119OSM   H11S12470   3.781   5.505   6.280 -0.4823 -0.1732 -0.7559
  119OSM   H11T12471   3.843   5.335   6.279 -0.2845  1.2359 -2.1207
  119OSM   C12S12472   3.989   5.500   6.293 -0.1061 -0.1116 -0.0315
  119OSM   H12S12473   4.070   5.426   6.312  1.0303  0.3057 -2.7672
  119OSM   H12T12474   3.997   5.599   6.342  0.3371 -0.2911  0.2587
  119OSM   C13S12475   4.006   5.525   6.145  0.0029  0.5955 -0.6863
  119OSM   H13S12476   3.969   5.437   6.089  1.2093 -0.7185  0.5267
  119OSM   H13T12477   4.109   5.560   6.124  0.0543  0.4306 -0.7026
  119OSM   C14S12478   3.913   5.649   6.100  0.1132  1.2067  0.0913
  119OSM   H14S12479   3.951   5.732   6.163  1.6873 -0.5487  1.5861
  119OSM   H14T12480   3.805   5.629   6.117  0.3093 -0.3903 -0.3703
  119OSM   C15S12481   3.943   5.691   5.954 -0.2063 -0.0717  0.0954
  119OSM   H15S12482   3.903   5.621   5.878 -1.5762 -0.5118  1.1684
  119OSM   H15T12483   4.053   5.682   5.952 -0.2556 -1.3124 -3.0392
  119OSM   C16S12484   3.917   5.839   5.916  0.2040  0.4683 -0.5086
  119OSM   H16S12485   3.960   5.858   5.816  2.2988 -0.4966  0.1478
  119OSM   H16T12486   3.974   5.910   5.980 -0.3887  1.6024 -1.2160
  119OSM   C17S12487   3.770   5.879   5.923 -0.3341 -0.5509 -0.3504
  119OSM   H17S12488   3.745   5.882   6.031 -2.0393 -0.8849 -0.7003
  119OSM   H17T12489   3.705   5.795   5.889 -1.3605 -0.9395  2.2797
  119OSM   C18S12490   3.734   6.014   5.863 -0.0763  0.3849  0.5099
  119OSM   H18S12491   3.646   6.060   5.911 -0.0466 -1.5141  2.5419
  119OSM   H18T12492   3.714   5.999   5.755 -0.2255  2.1089  0.2694
  119OSM   H18U12493   3.819   6.077   5.896  2.9979 -3.1899  0.1560
  119OSM    C1F12494   4.060   5.135   6.799 -0.6934  0.1723  0.3130
  119OSM     OF12495   4.001   5.024   6.806  0.4387  0.1567  0.1474
  119OSM    C2F12496   4.171   5.167   6.696 -0.4396 -0.0189 -0.6214
  119OSM    H2F12497   4.268   5.120   6.723 -0.3054  0.2955 -0.5545
  119OSM    H2G12498   4.184   5.277   6.691  0.8701 -0.0625  0.8428
  119OSM    C3F12499   4.127   5.120   6.556  0.6726 -0.4236 -0.2748
  119OSM    H3F12500   4.028   5.164   6.533  1.1572  0.3654 -0.9135
  119OSM    H3G12501   4.102   5.012   6.550 -0.1364 -0.2536 -0.1716
  119OSM    C4F12502   4.219   5.176   6.443  0.2445 -0.0742 -0.4611
  119OSM    H4F12503   4.319   5.128   6.442  0.5504  0.1827 -5.2351
  119OSM    H4G12504   4.241   5.283   6.460 -2.4286  0.8299 -1.9665
  119OSM    C5F12505   4.156   5.159   6.303  0.0543 -0.3512 -0.3880
  119OSM    H5F12506   4.055   5.204   6.301  1.2915  2.5981 -1.4516
  119OSM    H5G12507   4.156   5.049   6.284  1.5343 -0.2939 -0.8150
  119OSM    C6F12508   4.245   5.219   6.185 -0.5770 -0.3328 -0.2813
  119OSM    H6F12509   4.346   5.176   6.199 -1.5229 -1.7763  3.1412
  119OSM    H6G12510   4.249   5.330   6.199  1.4393 -0.3064 -0.7399
  119OSM    C7F12511   4.186   5.206   6.042  0.1944 -0.3260 -0.6325
  119OSM    H7F12512   4.078   5.232   6.048 -0.6316 -3.4356 -0.1884
  119OSM    H7G12513   4.175   5.095   6.038 -0.8992 -0.3070  0.9367
  119OSM    C8F12514   4.260   5.248   5.912  0.4914 -0.2752  0.0912
  119OSM    H8F12515   4.369   5.228   5.925  0.3708 -0.1902  1.3961
  119OSM    H8G12516   4.242   5.357   5.905 -0.6851 -0.5659 -2.1946
  119OSM    C9F12517   4.209   5.184   5.788  0.2238 -0.2498 -0.4637
  119OSM    H9F12518   4.258   5.087   5.770  0.7512  0.0516 -0.6782
  119OSM   C10F12519   4.112   5.232   5.705  0.4655 -0.8431 -0.3288
  119OSM   H10F12520   4.091   5.178   5.611  1.1950 -1.8398  0.0748
  119OSM   C11F12521   4.015   5.346   5.738  0.2741 -0.0381 -0.6300
  119OSM   H11F12522   4.052   5.397   5.830  2.3648  1.8109 -2.3872
  119OSM   H11G12523   3.913   5.308   5.760  0.6878 -1.2284 -0.7437
  119OSM   C12F12524   4.002   5.462   5.630 -0.3624  0.2970 -0.0448
  119OSM   H12F12525   3.908   5.521   5.639  0.6103  1.6531  1.7988
  119OSM   H12G12526   3.987   5.415   5.530 -0.3872 -3.3349  1.5342
  119OSM   C13F12527   4.127   5.561   5.646  1.2324  0.5691 -0.1123
  119OSM   H13F12528   4.225   5.514   5.670  0.4975  0.3911  3.0084
  119OSM   H13G12529   4.105   5.614   5.742  0.0986  1.1572 -0.6790
  119OSM   C14F12530   4.151   5.653   5.530  0.5850 -0.6567  0.0454
  119OSM   H14F12531   4.167   5.578   5.449  1.1369 -0.0266 -0.4404
  119OSM   H14G12532   4.241   5.717   5.544 -1.2399  1.5409  2.9590
  119OSM   C15F12533   4.029   5.742   5.501  0.0959  0.1160  0.3206
  119OSM   H15F12534   3.985   5.776   5.597 -0.0494 -1.4820  0.8567
  119OSM   H15G12535   3.958   5.674   5.449  0.6741  1.0686 -1.8238
  119OSM   C16F12536   4.063   5.856   5.399 -0.3061 -0.6418 -0.1423
  119OSM   H16F12537   4.115   5.823   5.306  2.9780  0.9636  0.9880
  119OSM   H16G12538   4.140   5.922   5.445 -0.9633  0.6041 -0.7780
  119OSM   C17F12539   3.948   5.938   5.354  0.0781  0.2297  0.0938
  119OSM   H17F12540   3.886   5.888   5.276  0.8994  1.8756 -1.6946
  119OSM   H17G12541   3.987   6.029   5.304  0.3875  1.1531  1.9580
  119OSM   C18F12542   3.851   5.972   5.468 -0.4113  0.4518 -0.7636
  119OSM   H18F12543   3.798   5.885   5.513  0.2837  0.5807  0.3458
  119OSM   H18G12544   3.772   6.048   5.453 -1.2149  1.1829  4.9012
  119OSM   H18H12545   3.912   6.009   5.553 -0.2491 -0.4778 -0.4622
  120OSM      N12546   1.155   0.479   7.441  0.1523  0.4148  0.7970
  120OSM    C1512547   1.204   0.614   7.405 -0.2451 -0.2247 -0.5024
  120OSM   H15A12548   1.249   0.666   7.488 -2.4597  1.0195 -0.0304
  120OSM   H15B12549   1.113   0.671   7.393 -1.3522 -1.7962  0.0641
  120OSM   H15C12550   1.268   0.614   7.318 -0.8441 -2.1061 -1.0030
  120OSM    C1412551   1.274   0.394   7.474  0.2087  0.2983 -0.0769
  120OSM   H14A12552   1.331   0.383   7.382 -0.5423 -2.3771 -0.3123
  120OSM   H14B12553   1.248   0.295   7.508  0.4512  0.3990  0.4072
  120OSM   H14C12554   1.345   0.432   7.545 -0.5726  1.7198 -0.0170
  120OSM    C1312555   1.067   0.495   7.561 -0.3522  0.3838  0.1084
  120OSM   H13A12556   1.128   0.528   7.645 -1.6510  1.2020  0.7523
  120OSM   H13B12557   1.026   0.405   7.604 -0.6740  0.6312  0.3271
  120OSM   H13C12558   0.987   0.566   7.545  1.7101  2.4977 -1.6070
  120OSM    C1212559   1.084   0.426   7.320  0.2803  0.6906  0.3319
  120OSM   H12A12560   1.013   0.504   7.294 -0.4603  0.0232  0.3399
  120OSM   H12B12561   1.029   0.337   7.346 -1.1205  0.6229 -2.4873
  120OSM    C1112562   1.167   0.397   7.194 -0.8146 -0.8071  0.0826
  120OSM   H11A12563   1.102   0.358   7.112 -0.9982 -2.2738  0.8842
  120OSM   H11B12564   1.235   0.315   7.227 -0.1844 -0.4969 -0.4306
  120OSM      P12565   1.395   0.490   7.102  0.4549 -0.1557  0.1055
  120OSM    O1312566   1.426   0.594   7.007  0.1512 -0.6063  0.4093
  120OSM    O1412567   1.487   0.489   7.216 -0.3665  0.1385 -0.4835
  120OSM    O1112568   1.393   0.357   7.028  0.0083 -0.2030 -0.0040
  120OSM    O1212569   1.245   0.508   7.145 -0.3685  0.0277  0.2326
  120OSM    C1S12570   1.316   0.334   6.905  0.3131  0.6033 -1.0055
  120OSM    H1S12571   1.223   0.395   6.907  0.4349  0.8522  2.1808
  120OSM    H1T12572   1.274   0.231   6.910  0.8574  0.3822 -0.9302
  120OSM     NF12573   1.308   0.339   6.657  0.4829  0.0948 -0.0185
  120OSM    HNF12574   1.309   0.252   6.608  3.0874  0.6766 -1.1901
  120OSM    C2S12575   1.391   0.358   6.772 -0.1225  0.3436  0.1989
  120OSM    H2S12576   1.429   0.463   6.769 -0.8391  0.5840 -0.9055
  120OSM    C3S12577   1.522   0.265   6.778  0.0724 -0.3278  0.9804
  120OSM    H3S12578   1.486   0.162   6.799 -0.8114 -0.3020 -0.2737
  120OSM     O312579   1.614   0.299   6.880 -0.1162  0.2428  0.1588
  120OSM    HO312580   1.553   0.337   6.944 -0.3349 -0.5314  0.4265
  120OSM    C4S12581   1.596   0.265   6.641  0.1121 -0.5004 -0.4372
  120OSM    H4S12582   1.568   0.171   6.591 -1.6515 -0.3651  0.2147
  120OSM    C5S12583   1.663   0.362   6.573  0.0917 -0.2761  0.3680
  120OSM    H5S12584   1.685   0.461   6.616 -2.8057  1.1475 -1.0587
  120OSM    C6S12585   1.716   0.352   6.433 -0.7763 -0.1113  0.1557
  120OSM    H6S12586   1.768   0.255   6.422 -2.6305 -1.2403  1.0276
  120OSM    H6T12587   1.793   0.430   6.415 -1.1370  0.3857  0.7188
  120OSM    C7S12588   1.601   0.360   6.333 -0.9283  0.2773  0.6624
  120OSM    H7S12589   1.537   0.450   6.345  1.6579  2.1651  1.3135
  120OSM    H7T12590   1.531   0.274   6.334  0.1095 -0.6680 -1.0475
  120OSM    C8S12591   1.661   0.366   6.190  0.4928 -0.4134  0.5417
  120OSM    H8S12592   1.712   0.269   6.170  0.7345 -0.2359  0.2926
  120OSM    H8T12593   1.734   0.448   6.179  0.5925 -0.4170  1.1089
  120OSM    C9S12594   1.558   0.386   6.090  0.1280  0.5604  0.1445
  120OSM    H9S12595   1.487   0.470   6.109  0.4975  0.2919  3.3515
  120OSM    H9T12596   1.495   0.295   6.098 -1.1842  1.3730 -0.5846
  120OSM   C10S12597   1.624   0.396   5.951  0.4606  0.3427  0.1531
  120OSM   H10S12598   1.680   0.301   5.935 -1.2808 -0.5399 -1.0073
  120OSM   H10T12599   1.689   0.486   5.946 -0.3531  0.8791 -1.2331
  120OSM   C11S12600   1.521   0.400   5.838  0.0622 -0.3792 -0.1360
  120OSM   H11S12601   1.473   0.500   5.844 -1.8780 -1.3384  3.5885
  120OSM   H11T12602   1.445   0.321   5.852 -0.2399 -0.0665 -0.0055
  120OSM   C12S12603   1.574   0.378   5.695  0.0070 -0.2428  0.3972
  120OSM   H12S12604   1.620   0.277   5.688 -1.5954 -0.9691 -0.3127
  120OSM   H12T12605   1.648   0.456   5.668  0.5976 -0.3035  1.7336
  120OSM   C13S12606   1.458   0.370   5.596 -0.0702 -0.0840 -0.0279
  120OSM   H13S12607   1.498   0.393   5.495 -0.5002  0.3056 -0.1082
  120OSM   H13T12608   1.390   0.456   5.610 -0.2942 -0.0568 -1.2233
  120OSM   C14S12609   1.388   0.237   5.589  0.2518 -0.3817 -0.1316
  120OSM   H14S12610   1.361   0.200   5.690 -3.0604 -1.1622 -1.1755
  120OSM   H14T12611   1.475   0.171   5.569  0.5869 -0.5191  1.6325
  120OSM   C15S12612   1.273   0.210   5.497 -0.2493  0.2943  0.4739
  120OSM   H15S12613   1.294   0.257   5.398  1.2597 -1.5679 -0.1464
  120OSM   H15T12614   1.185   0.267   5.534  0.1982  1.3265 -0.0168
  120OSM   C16S12615   1.244   0.062   5.474 -0.3277 -0.0692 -0.2577
  120OSM   H16S12616   1.237   0.008   5.570  0.6293  0.3524  0.0645
  120OSM   H16T12617   1.320   0.001   5.421  0.5015 -0.3462  1.1944
  120OSM   C17S12618   1.115   0.041   5.401  0.4122 -0.2670  0.3556
  120OSM   H17S12619   1.123   0.056   5.292  1.5332  0.6485  0.5417
  120OSM   H17T12620   1.049   0.109   5.459 -2.2408  0.0478 -2.7495
  120OSM   C18S12621   1.050  -0.097   5.431 -0.0677 -1.1421  0.1584
  120OSM   H18S12622   1.056  -0.123   5.539 -1.3128 -2.2048 -0.0049
  120OSM   H18T12623   1.119  -0.169   5.382  0.1102 -1.3331  0.6902
  120OSM   H18U12624   0.950  -0.097   5.382  1.0353 -1.0643 -2.2388
  120OSM    C1F12625   1.219   0.435   6.633 -0.6922  0.2078 -0.0772
  120OSM     OF12626   1.243   0.551   6.669  0.2217  1.0700  0.6994
  120OSM    C2F12627   1.094   0.404   6.564 -0.1661 -0.6723 -0.2080
  120OSM    H2F12628   1.034   0.496   6.555  2.4352  1.1102 -0.5127
  120OSM    H2G12629   1.038   0.325   6.618 -0.8679 -2.1266 -2.8452
  120OSM    C3F12630   1.115   0.358   6.420 -0.0684 -0.5709  0.1874
  120OSM    H3F12631   1.161   0.445   6.368 -1.1542  1.1745  1.9700
  120OSM    H3G12632   1.012   0.348   6.380 -0.2894 -1.2718  0.9031
  120OSM    C4F12633   1.172   0.213   6.402  0.0961  0.6863  0.5556
  120OSM    H4F12634   1.117   0.136   6.460  1.0813 -0.1264  0.4266
  120OSM    H4G12635   1.276   0.208   6.441  0.8768  3.2286 -0.9459
  120OSM    C5F12636   1.194   0.164   6.257  0.3854  0.0389  0.0315
  120OSM    H5F12637   1.268   0.081   6.256  1.4144  0.9248 -1.6994
  120OSM    H5G12638   1.238   0.245   6.195  1.6824 -1.0699 -0.5706
  120OSM    C6F12639   1.070   0.096   6.207 -0.2351  0.6735  0.0957
  120OSM    H6F12640   0.990   0.174   6.205 -0.9784 -0.0852 -1.1798
  120OSM    H6G12641   1.047   0.011   6.274 -1.7175  1.3605  0.5170
  120OSM    C7F12642   1.084   0.062   6.052 -0.2604  0.1984 -0.1571
  120OSM    H7F12643   1.185   0.025   6.027 -0.6776 -0.9596 -0.1967
  120OSM    H7G12644   1.077   0.154   5.990  1.6628  0.7562  0.4034
  120OSM    C8F12645   0.970  -0.038   6.003 -0.6663 -0.3264  0.7381
  120OSM    H8F12646   0.959  -0.046   5.893 -3.4430 -1.2633  1.0140
  120OSM    H8G12647   0.872  -0.000   6.036 -0.9136  0.2652 -0.5896
  120OSM    C9F12648   0.996  -0.172   6.064  1.3281 -0.1147 -0.7513
  120OSM    H9F12649   0.957  -0.185   6.166  2.2465  1.0116 -0.2313
  120OSM   C10F12650   1.063  -0.273   6.010 -0.0807 -0.5668  0.6916
  120OSM   H10F12651   1.079  -0.365   6.068 -0.9236 -0.9647  0.3044
  120OSM   C11F12652   1.125  -0.276   5.870  0.2128 -0.0044 -0.1606
  120OSM   H11F12653   1.230  -0.311   5.879 -0.2612 -1.1048  1.4594
  120OSM   H11G12654   1.133  -0.173   5.829 -2.2304 -0.1275 -1.1193
  120OSM   C12F12655   1.057  -0.370   5.774  0.2972  0.2499 -1.1482
  120OSM   H12F12656   0.984  -0.298   5.732  1.6050  2.4401  0.1253
  120OSM   H12G12657   1.022  -0.467   5.817  0.6567  1.1298  1.3050
  120OSM   C13F12658   1.152  -0.414   5.658 -0.3301 -0.9869  0.4379
  120OSM   H13F12659   1.244  -0.460   5.700  1.1530 -1.5251 -3.0893
  120OSM   H13G12660   1.183  -0.324   5.601 -0.1235 -0.2093  1.7254
  120OSM   C14F12661   1.079  -0.503   5.558  0.1424 -0.2171 -0.2575
  120OSM   H14F12662   0.980  -0.454   5.551  0.5315  0.7970  1.0759
  120OSM   H14G12663   1.076  -0.613   5.573  2.4363 -0.4627 -1.1809
  120OSM   C15F12664   1.149  -0.490   5.421  0.4581 -0.0278  0.3668
  120OSM   H15F12665   1.253  -0.529   5.423  0.1995 -0.6918  1.7786
  120OSM   H15G12666   1.147  -0.381   5.397 -0.7735 -0.0871  0.1226
  120OSM   C16F12667   1.069  -0.567   5.313  0.4009 -0.6255 -0.1913
  120OSM   H16F12668   0.965  -0.531   5.328  0.4851 -0.0815 -0.8253
  120OSM   H16G12669   1.068  -0.674   5.342  0.7478 -0.2759  1.1833
  120OSM   C17F12670   1.129  -0.555   5.167  0.1871  0.0806  0.3127
  120OSM   H17F12671   1.064  -0.626   5.111 -0.8583 -0.3840  2.0389
  120OSM   H17G12672   1.231  -0.597   5.173 -0.3025 -1.1720  0.1492
  120OSM   C18F12673   1.129  -0.414   5.115 -0.0666 -0.3605 -0.2341
  120OSM   H18F12674   1.150  -0.340   5.195  1.9269 -1.0135 -0.0923
  120OSM   H18G12675   1.037  -0.385   5.061  0.1049  0.9705  0.1537
  120OSM   H18H12676   1.212  -0.396   5.043 -0.4134  1.1536 -0.2824
  121OSM      N12677   6.461   2.552   7.345  0.4423 -0.0049 -0.2276
  121OSM    C1512678   6.364   2.449   7.399 -0.0935  0.9372 -0.1622
  121OSM   H15A12679   6.381   2.429   7.504 -0.5385  1.5898  0.0364
  121OSM   H15B12680   6.379   2.354   7.349 -2.6865  1.0419 -1.2548
  121OSM   H15C12681   6.263   2.478   7.377  0.1428  1.1383 -0.9971
  121OSM    C1412682   6.455   2.551   7.191 -0.1444  0.7145 -1.0128
  121OSM   H14A12683   6.505   2.641   7.158 -0.3830  1.5627  0.7931
  121OSM   H14B12684   6.354   2.548   7.153 -0.6236 -1.0992  0.2736
  121OSM   H14C12685   6.499   2.457   7.162  1.3301  0.5826  1.3681
  121OSM    C1312686   6.420   2.685   7.395 -0.4513 -0.4120 -0.7460
  121OSM   H13A12687   6.324   2.708   7.351  0.6773  1.8657 -2.1627
  121OSM   H13B12688   6.489   2.761   7.364 -1.6025  1.5648  1.2577
  121OSM   H13C12689   6.406   2.690   7.502 -0.1140 -3.1720 -0.4944
  121OSM    C1212690   6.605   2.521   7.388  0.2764  0.3427 -0.4955
  121OSM   H12A12691   6.616   2.530   7.495  2.2765  0.9236 -0.7061
  121OSM   H12B12692   6.671   2.595   7.345  0.6144 -0.9166 -2.2857
  121OSM    C1112693   6.667   2.380   7.352 -0.7601  0.1117  0.6729
  121OSM   H11A12694   6.588   2.306   7.375  1.1154 -2.4912 -0.6790
  121OSM   H11B12695   6.753   2.361   7.420 -1.2037 -2.3072  0.6280
  121OSM      P12696   6.699   2.238   7.135 -0.0400 -0.1532  0.0137
  121OSM    O1312697   6.802   2.141   7.179  0.0207  0.0667 -0.1222
  121OSM    O1412698   6.563   2.186   7.125  0.3059 -0.1740 -0.3619
  121OSM    O1112699   6.735   2.290   6.993  0.1735 -0.0372  0.1466
  121OSM    O1212700   6.704   2.378   7.211  0.2578  0.4183  0.2430
  121OSM    C1S12701   6.870   2.321   6.950  0.2295  0.5802 -0.5611
  121OSM    H1S12702   6.945   2.265   7.010 -1.2413 -0.1025  0.7148
  121OSM    H1T12703   6.878   2.427   6.983  1.8660  0.3929 -0.2804
  121OSM     NF12704   7.036   2.315   6.769 -0.3793  0.1126  0.1346
  121OSM    HNF12705   7.060   2.393   6.711  0.2523  0.6935  1.1460
  121OSM    C2S12706   6.901   2.286   6.804  1.0366 -0.0141  0.4014
  121OSM    H2S12707   6.880   2.180   6.780  0.6880  0.4523 -1.6012
  121OSM    C3S12708   6.800   2.362   6.706  0.3357  0.3527 -0.1095
  121OSM    H3S12709   6.829   2.469   6.711  0.0085  0.4868 -0.8915
  121OSM     O312710   6.661   2.355   6.739 -0.2028 -0.4002  0.1308
  121OSM    HO312711   6.657   2.356   6.835  0.4699 -2.6856  0.2488
  121OSM    C4S12712   6.827   2.333   6.557 -0.4720  0.0669  0.3245
  121OSM    H4S12713   6.908   2.401   6.525  0.2271 -0.4739  0.9112
  121OSM    C5S12714   6.768   2.242   6.480  0.3014  1.2862  0.3640
  121OSM    H5S12715   6.685   2.187   6.526 -0.6061  0.3061 -2.2434
  121OSM    C6S12716   6.799   2.212   6.335 -0.4981  0.5602 -0.5087
  121OSM    H6S12717   6.705   2.236   6.281 -1.1854 -0.8634  0.0091
  121OSM    H6T12718   6.807   2.102   6.337  0.6678  0.6384  0.7712
  121OSM    C7S12719   6.929   2.275   6.276  0.3052 -0.0804  0.2436
  121OSM    H7S12720   7.011   2.236   6.340 -0.5170  0.1357  1.4467
  121OSM    H7T12721   6.926   2.386   6.281  3.2269  0.1735 -1.1908
  121OSM    C8S12722   6.955   2.244   6.124 -0.5372  0.0531 -1.0260
  121OSM    H8S12723   6.976   2.137   6.104  0.0190  0.2425 -1.4799
  121OSM    H8T12724   7.049   2.302   6.114 -0.1965 -0.2507  0.1908
  121OSM    C9S12725   6.843   2.294   6.026 -0.4035  0.6234 -0.6426
  121OSM    H9S12726   6.786   2.379   6.069 -1.1831 -0.3818  0.3801
  121OSM    H9T12727   6.768   2.211   6.034  0.8134 -0.5617 -1.0949
  121OSM   C10S12728   6.895   2.320   5.885  0.2649 -0.1358  0.3349
  121OSM   H10S12729   6.955   2.232   5.853  1.5299  1.9027 -3.4770
  121OSM   H10T12730   6.963   2.408   5.894 -1.5802  1.3115  0.9287
  121OSM   C11S12731   6.787   2.348   5.787 -0.5623  0.5400 -0.4037
  121OSM   H11S12732   6.740   2.439   5.828 -0.3357  0.5791 -0.2300
  121OSM   H11T12733   6.716   2.263   5.772  0.5616 -0.2149 -1.7689
  121OSM   C12S12734   6.842   2.371   5.646  0.2967  0.0917 -0.3765
  121OSM   H12S12735   6.907   2.284   5.621 -0.9167 -1.3440  1.1900
  121OSM   H12T12736   6.895   2.469   5.648  0.5977 -0.0678 -0.4792
  121OSM   C13S12737   6.738   2.385   5.533  0.1475  0.1436 -0.5580
  121OSM   H13S12738   6.694   2.486   5.550  0.4074 -0.0893  1.7250
  121OSM   H13T12739   6.647   2.325   5.552  0.1653  0.1453 -0.4670
  121OSM   C14S12740   6.784   2.368   5.388  0.2028  0.0148 -0.2169
  121OSM   H14S12741   6.796   2.261   5.363 -2.6676 -0.1316 -1.3469
  121OSM   H14T12742   6.875   2.428   5.367  1.7001 -1.7624  0.8606
  121OSM   C15S12743   6.686   2.432   5.290  0.0306  0.3975 -0.0324
  121OSM   H15S12744   6.664   2.536   5.322 -0.8479 -0.0878  1.0098
  121OSM   H15T12745   6.593   2.372   5.302 -0.5840  1.0836 -1.1745
  121OSM   C16S12746   6.732   2.423   5.136  0.7550 -0.5490 -0.7594
  121OSM   H16S12747   6.818   2.490   5.118  1.2821 -0.0662  2.8026
  121OSM   H16T12748   6.636   2.441   5.082  0.7490 -0.3737 -0.6916
  121OSM   C17S12749   6.767   2.285   5.082 -0.0848  0.2056 -0.4260
  121OSM   H17S12750   6.687   2.214   5.112 -1.8690  2.8130  1.5270
  121OSM   H17T12751   6.861   2.247   5.127 -0.0887 -0.5970 -1.0837
  121OSM   C18S12752   6.790   2.277   4.930  0.2693 -0.7966  0.1163
  121OSM   H18S12753   6.700   2.299   4.869  0.2399 -1.1366  0.0337
  121OSM   H18T12754   6.823   2.174   4.904  0.2851 -0.6695 -0.3813
  121OSM   H18U12755   6.873   2.339   4.890  1.9925 -2.9507  0.1655
  121OSM    C1F12756   7.140   2.247   6.813  0.2252  0.7407 -0.3087
  121OSM     OF12757   7.132   2.161   6.901  0.4269 -0.0664  0.0476
  121OSM    C2F12758   7.274   2.274   6.757  0.1308 -0.7923 -0.2599
  121OSM    H2F12759   7.348   2.259   6.839  0.1568 -0.2618 -0.1821
  121OSM    H2G12760   7.264   2.381   6.730 -3.9283 -0.3423  2.2640
  121OSM    C3F12761   7.317   2.180   6.642  0.6021  0.2808  0.0917
  121OSM    H3F12762   7.330   2.083   6.695  0.0759  0.3320  0.3288
  121OSM    H3G12763   7.409   2.221   6.597  1.0274  0.0265  0.7142
  121OSM    C4F12764   7.211   2.163   6.531 -0.4398  0.0885 -0.3729
  121OSM    H4F12765   7.217   2.253   6.465  1.5979 -0.0642 -0.4600
  121OSM    H4G12766   7.108   2.156   6.573 -0.9057  0.2173 -1.4678
  121OSM    C5F12767   7.246   2.036   6.445 -0.2725  0.0261  0.0953
  121OSM    H5F12768   7.228   1.939   6.496  1.2374 -0.9603 -1.1453
  121OSM    H5G12769   7.357   2.031   6.434 -0.3965  0.7889 -1.8158
  121OSM    C6F12770   7.201   2.025   6.299  0.4454 -0.0186 -0.7734
  121OSM    H6F12771   7.209   2.124   6.249  1.3701 -0.0044 -0.5984
  121OSM    H6G12772   7.093   2.000   6.310  0.1069  1.1680 -1.2517
  121OSM    C7F12773   7.282   1.924   6.206 -0.1476 -0.1133 -0.2397
  121OSM    H7F12774   7.282   1.822   6.249  0.2808 -0.1538 -0.3270
  121OSM    H7G12775   7.385   1.965   6.198 -0.1345  0.4839  2.2366
  121OSM    C8F12776   7.207   1.914   6.070 -0.0162 -0.3620 -0.3112
  121OSM    H8F12777   7.229   2.016   6.030  1.3231 -0.5556 -0.1158
  121OSM    H8G12778   7.101   1.884   6.079 -0.0541 -0.4171 -0.8914
  121OSM    C9F12779   7.270   1.809   5.971  0.3928 -0.6386 -0.3708
  121OSM    H9F12780   7.370   1.773   6.000  0.3712  0.5125  1.2760
  121OSM   C10F12781   7.205   1.757   5.863 -0.5391  0.2095 -0.3811
  121OSM   H10F12782   7.252   1.682   5.797  0.1906  0.0310  0.3246
  121OSM   C11F12783   7.070   1.800   5.810 -0.0831 -0.8662  0.4627
  121OSM   H11F12784   7.022   1.869   5.882  2.0108  1.0552  0.1554
  121OSM   H11G12785   7.000   1.723   5.771 -2.6110  1.8653 -0.8245
  121OSM   C12F12786   7.091   1.886   5.690 -0.3360  0.8432 -0.9838
  121OSM   H12F12787   7.139   1.812   5.622  0.5953 -0.6075  1.1148
  121OSM   H12G12788   7.170   1.962   5.706  0.7021  0.3169 -3.2690
  121OSM   C13F12789   6.964   1.957   5.630 -0.7087 -0.1075 -0.3223
  121OSM   H13F12790   6.914   2.034   5.693 -1.0092 -0.9718  0.5068
  121OSM   H13G12791   6.895   1.871   5.620  1.6658 -2.2925  0.9805
  121OSM   C14F12792   6.994   2.037   5.502  0.7634 -0.9672  0.1775
  121OSM   H14F12793   7.074   2.113   5.514  0.8207 -1.1227  0.8094
  121OSM   H14G12794   6.900   2.091   5.478  0.4675 -2.0946 -1.3733
  121OSM   C15F12795   7.024   1.943   5.388  0.0119  0.1246  0.3334
  121OSM   H15F12796   6.982   1.845   5.419  0.3271  0.1266  0.7778
  121OSM   H15G12797   7.135   1.934   5.383  0.6306  4.7566  0.7629
  121OSM   C16F12798   6.968   1.982   5.251  0.2729  0.6804  0.0895
  121OSM   H16F12799   7.030   2.053   5.192 -0.0652  0.6947 -0.2513
  121OSM   H16G12800   6.866   2.026   5.261 -1.0981 -1.3906 -3.3107
  121OSM   C17F12801   6.956   1.853   5.164 -0.5035 -0.4453 -0.4326
  121OSM   H17F12802   6.872   1.795   5.208 -1.0058  1.4936  1.3310
  121OSM   H17G12803   7.054   1.805   5.183 -1.4223 -1.4326  2.2923
  121OSM   C18F12804   6.925   1.878   5.018 -0.3488  0.0801  0.3021
  121OSM   H18F12805   6.948   1.779   4.973  0.0191 -0.0224  0.7141
  121OSM   H18G12806   7.002   1.942   4.969 -0.1024  0.0520  0.6507
  121OSM   H18H12807   6.821   1.904   4.989 -0.0727  0.8655 -0.0117
  122OSM      N12808   0.238   5.431   7.081 -0.4184 -0.3478  0.1323
  122OSM    C1512809   0.353   5.497   7.003 -0.4450  0.1251  0.2432
  122OSM   H15A12810   0.435   5.514   7.071  0.6403  1.0824 -1.2479
  122OSM   H15B12811   0.327   5.598   6.976  0.1536  0.0828 -0.5072
  122OSM   H15C12812   0.387   5.433   6.923 -0.0727  0.0770  0.4365
  122OSM    C1412813   0.270   5.291   7.108 -0.0126  0.0664 -0.1333
  122OSM   H14A12814   0.280   5.232   7.018 -0.6219 -0.0027 -0.1576
  122OSM   H14B12815   0.186   5.248   7.160  0.0719  0.8643  0.6837
  122OSM   H14C12816   0.357   5.274   7.169  0.8091 -0.0948 -1.3095
  122OSM    C1312817   0.241   5.498   7.216 -0.3957 -0.3302 -0.0368
  122OSM   H13A12818   0.219   5.603   7.205  0.2293 -0.1972 -0.0555
  122OSM   H13B12819   0.331   5.493   7.276 -0.8099  1.0455  0.7396
  122OSM   H13C12820   0.167   5.457   7.282  0.3454  0.5226  1.3735
  122OSM    C1212821   0.115   5.448   7.003  0.5132 -0.5397 -0.4971
  122OSM   H12A12822   0.099   5.554   6.985 -0.1750 -0.5670 -0.0743
  122OSM   H12B12823   0.031   5.420   7.064  1.5923 -0.5481  1.0287
  122OSM    C1112824   0.112   5.371   6.871  0.3942  0.5602  0.9639
  122OSM   H11A12825   0.199   5.396   6.807  0.1824 -1.2551 -0.0852
  122OSM   H11B12826   0.027   5.422   6.820  1.1469  0.5141 -0.3564
  122OSM      P12827  -0.048   5.164   6.892 -0.1250  0.3699 -1.0984
  122OSM    O1312828  -0.027   5.022   6.914 -0.5368 -0.0011  0.0984
  122OSM    O1412829  -0.139   5.235   6.988  0.0598  0.2466 -0.0627
  122OSM    O1112830  -0.106   5.194   6.758  0.0756 -0.2055 -0.3852
  122OSM    O1212831   0.087   5.234   6.890  0.0116 -0.3346  0.1129
  122OSM    C1S12832  -0.051   5.131   6.636  0.0234  0.1327 -0.6369
  122OSM    H1S12833  -0.089   5.026   6.631 -0.7581  0.4013 -0.5540
  122OSM    H1T12834   0.060   5.128   6.635  0.0360  0.0142  0.4718
  122OSM     NF12835  -0.020   5.132   6.404 -0.3027 -0.3241  0.5154
  122OSM    HNF12836   0.062   5.185   6.381 -2.0155  3.3359  2.0015
  122OSM    C2S12837  -0.099   5.204   6.505  0.0564  0.1830 -0.5769
  122OSM    H2S12838  -0.207   5.181   6.501 -0.2575  0.8832  2.1914
  122OSM    C3S12839  -0.080   5.356   6.519 -0.8750 -0.5534  0.2355
  122OSM    H3S12840   0.028   5.375   6.534 -0.6511 -1.3081 -0.3606
  122OSM     O312841  -0.136   5.417   6.635  0.1664 -0.4215 -0.4929
  122OSM    HO312842  -0.172   5.341   6.681  0.8062  0.6601  1.9494
  122OSM    C4S12843  -0.124   5.428   6.392  0.1688  0.8311 -0.0749
  122OSM    H4S12844  -0.044   5.446   6.319  0.6646  1.5184  0.6174
  122OSM    C5S12845  -0.249   5.468   6.357  0.2030 -0.2034 -0.3173
  122OSM    H5S12846  -0.332   5.466   6.430  1.3822 -1.4700  1.0331
  122OSM    C6S12847  -0.286   5.557   6.242  0.0808  1.0280 -0.4023
  122OSM    H6S12848  -0.204   5.557   6.167  0.9909  0.8079  0.5692
  122OSM    H6T12849  -0.308   5.664   6.262 -3.3605  0.9175 -2.6999
  122OSM    C7S12850  -0.407   5.508   6.153 -0.1155 -0.4083  0.1258
  122OSM    H7S12851  -0.494   5.521   6.221  1.2230  1.5638  1.5775
  122OSM    H7T12852  -0.381   5.403   6.126  2.4272 -0.2303  1.6179
  122OSM    C8S12853  -0.424   5.591   6.029 -0.0732 -0.2935  0.2235
  122OSM    H8S12854  -0.443   5.697   6.059 -0.1093 -0.1001 -0.4741
  122OSM    H8T12855  -0.520   5.558   5.985  0.0177  1.6629 -1.5718
  122OSM    C9S12856  -0.311   5.577   5.931  0.0142  0.5125 -0.4719
  122OSM    H9S12857  -0.302   5.468   5.911 -0.5870  0.4195 -0.2513
  122OSM    H9T12858  -0.218   5.625   5.969  0.8177 -1.1185 -0.2694
  122OSM   C10S12859  -0.339   5.650   5.799  0.0354  0.1701 -0.1676
  122OSM   H10S12860  -0.360   5.756   5.822 -0.1473 -0.5728  3.7302
  122OSM   H10T12861  -0.432   5.610   5.753 -0.0299  1.3898 -1.1631
  122OSM   C11S12862  -0.223   5.643   5.701 -0.1679  0.5524 -0.5950
  122OSM   H11S12863  -0.194   5.538   5.677 -0.2875  0.1679  0.8564
  122OSM   H11T12864  -0.147   5.712   5.745 -2.2797  0.6480  3.3867
  122OSM   C12S12865  -0.255   5.722   5.570 -0.2977  0.3268  0.2983
  122OSM   H12S12866  -0.274   5.828   5.598  0.4642  0.7720 -0.8107
  122OSM   H12T12867  -0.342   5.676   5.518 -0.2022  2.8743 -2.3729
  122OSM   C13S12868  -0.129   5.729   5.476 -0.7843  0.1321  0.2152
  122OSM   H13S12869  -0.111   5.625   5.443 -1.0004  0.0803  0.2558
  122OSM   H13T12870  -0.044   5.754   5.543 -1.6611  0.5453  1.2117
  122OSM   C14S12871  -0.136   5.822   5.356  0.6820  0.7160 -0.0862
  122OSM   H14S12872  -0.232   5.801   5.304 -0.0454  1.0845  1.0647
  122OSM   H14T12873  -0.050   5.781   5.300  1.6795 -0.5333  2.2441
  122OSM   C15S12874  -0.116   5.970   5.377  0.0446  0.4411  0.8645
  122OSM   H15S12875  -0.027   5.985   5.441  1.3043 -2.4914 -0.0524
  122OSM   H15T12876  -0.199   6.020   5.432 -0.8681 -0.9297  0.7933
  122OSM   C16S12877  -0.089   6.046   5.246  0.2011  0.0706 -0.0326
  122OSM   H16S12878  -0.176   6.057   5.178  1.6528  3.1606 -1.6182
  122OSM   H16T12879  -0.004   6.008   5.185 -0.7318  0.0537 -1.3616
  122OSM   C17S12880  -0.054   6.192   5.283  0.3172  0.6708  0.2760
  122OSM   H17S12881   0.048   6.204   5.327 -1.0059  2.9237  3.0449
  122OSM   H17T12882  -0.134   6.229   5.349  0.5033  2.1759 -0.3044
  122OSM   C18S12883  -0.071   6.274   5.155  0.1511 -0.5341 -0.3384
  122OSM   H18S12884  -0.178   6.287   5.129 -0.9304 -4.1399  1.5812
  122OSM   H18T12885  -0.027   6.210   5.075 -0.6817 -0.8830 -0.5228
  122OSM   H18U12886  -0.026   6.375   5.166 -1.7289  0.1150  2.2807
  122OSM    C1F12887  -0.062   5.017   6.358 -0.0199  0.3015 -0.3548
  122OSM     OF12888  -0.171   4.970   6.398 -0.1356  0.2955  0.6905
  122OSM    C2F12889   0.033   4.944   6.265  0.2085  0.1782 -0.0389
  122OSM    H2F12890   0.045   4.843   6.309 -2.5591 -1.2973 -2.2732
  122OSM    H2G12891   0.123   5.008   6.255 -0.4672  2.0444  3.8860
  122OSM    C3F12892  -0.028   4.914   6.131 -0.0184 -0.3645 -0.4094
  122OSM    H3F12893  -0.115   4.846   6.142 -0.6620  0.4594 -0.2958
  122OSM    H3G12894   0.041   4.862   6.061  3.0160  1.6700  0.8383
  122OSM    C4F12895  -0.070   5.052   6.067  0.5863  0.4596  0.3144
  122OSM    H4F12896   0.017   5.120   6.055  1.6829 -0.8241  0.6953
  122OSM    H4G12897  -0.150   5.100   6.126  1.2083  1.2706  0.5076
  122OSM    C5F12898  -0.140   5.029   5.927  0.1212  0.1994  0.2544
  122OSM    H5F12899  -0.227   4.965   5.952  0.7482 -0.2219  1.4170
  122OSM    H5G12900  -0.079   4.963   5.861 -0.0318  0.6419 -0.3390
  122OSM    C6F12901  -0.184   5.151   5.847 -0.4162 -0.2228  0.2566
  122OSM    H6F12902  -0.248   5.201   5.922 -1.6627 -1.4726  0.0539
  122OSM    H6G12903  -0.247   5.124   5.760 -0.7332  1.2824 -0.0194
  122OSM    C7F12904  -0.060   5.233   5.809  0.0226 -0.5807  0.2486
  122OSM    H7F12905   0.022   5.227   5.883 -1.4873 -1.4620  1.9181
  122OSM    H7G12906  -0.108   5.333   5.805 -0.8271 -1.0182 -3.0406
  122OSM    C8F12907  -0.009   5.201   5.666 -0.2278  0.5747 -0.0240
  122OSM    H8F12908   0.002   5.092   5.646  2.7413  0.8158 -0.2023
  122OSM    H8G12909   0.095   5.240   5.670 -0.8525  2.2299  1.3807
  122OSM    C9F12910  -0.087   5.281   5.562 -0.2913  0.6637 -0.2261
  122OSM    H9F12911  -0.097   5.388   5.585 -0.0078  0.5721  0.3338
  122OSM   C10F12912  -0.111   5.242   5.436 -0.3040 -0.2301 -0.1662
  122OSM   H10F12913  -0.150   5.316   5.365  2.1139 -1.3004 -2.8308
  122OSM   C11F12914  -0.066   5.110   5.377 -0.3156  0.3907 -0.6253
  122OSM   H11F12915  -0.149   5.062   5.321 -1.2732  0.4333  0.7155
  122OSM   H11G12916  -0.047   5.037   5.459 -0.1255 -0.1834 -1.1747
  122OSM   C12F12917   0.057   5.140   5.284  0.0590  0.1787 -0.9999
  122OSM   H12F12918   0.077   5.044   5.232 -0.2585 -1.1827  1.2843
  122OSM   H12G12919   0.139   5.156   5.357  0.7918  0.2856 -1.8185
  122OSM   C13F12920   0.044   5.260   5.187 -0.0678  0.1359 -0.7630
  122OSM   H13F12921   0.038   5.348   5.255  0.0754 -1.9264  2.0976
  122OSM   H13G12922  -0.044   5.251   5.120 -2.0757 -0.9583  1.8447
  122OSM   C14F12923   0.158   5.273   5.086 -0.4275  0.5071 -0.4897
  122OSM   H14F12924   0.172   5.177   5.033  3.5544 -0.5358  1.9993
  122OSM   H14G12925   0.259   5.274   5.132  0.3571 -0.8819 -2.1288
  122OSM   C15F12926   0.137   5.382   4.978 -0.1215 -0.1178  0.3872
  122OSM   H15F12927   0.152   5.475   5.037 -1.2087 -1.3546  2.7275
  122OSM   H15G12928   0.030   5.367   4.952 -0.4252  0.8439  1.0272
  122OSM   C16F12929   0.225   5.381   4.850 -0.3112 -0.3670  0.2287
  122OSM   H16F12930   0.211   5.285   4.796  0.1997 -1.1828  1.5056
  122OSM   H16G12931   0.333   5.383   4.878 -0.2880  0.1509  0.1187
  122OSM   C17F12932   0.197   5.503   4.748 -0.0475  0.1471 -0.5579
  122OSM   H17F12933   0.230   5.600   4.790 -2.7609  1.8435 -2.0811
  122OSM   H17G12934   0.087   5.506   4.735 -0.0892 -0.7024 -0.4429
  122OSM   C18F12935   0.255   5.493   4.615 -0.7711  0.2470  0.6328
  122OSM   H18F12936   0.366   5.487   4.619 -0.5340 -0.3697 -3.1269
  122OSM   H18G12937   0.228   5.583   4.556 -2.9408 -0.9894 -0.3810
  122OSM   H18H12938   0.224   5.409   4.548  2.7724 -1.1132  0.4685
  123OSM      N12939   3.550   4.243   1.978  0.1054  0.6385 -0.7288
  123OSM    C1512940   3.551   4.142   1.865  0.5841 -0.2500 -0.5118
  123OSM   H15A12941   3.609   4.054   1.887 -0.0894 -0.2380  1.4857
  123OSM   H15B12942   3.597   4.177   1.774 -0.7112 -1.6058 -1.7404
  123OSM   H15C12943   3.456   4.109   1.825  0.0535  1.5985 -0.8703
  123OSM    C1412944   3.689   4.273   2.036  0.4555  0.3624 -0.0239
  123OSM   H14A12945   3.728   4.190   2.093 -1.7802  0.8310  2.3720
  123OSM   H14B12946   3.685   4.355   2.106  0.9371  0.5922 -0.2564
  123OSM   H14C12947   3.760   4.295   1.958  0.0243 -3.6358 -1.7852
  123OSM    C1312948   3.490   4.371   1.933  0.8748  0.0219  0.4961
  123OSM   H13A12949   3.435   4.408   2.019  0.6275 -0.7330  0.6769
  123OSM   H13B12950   3.405   4.362   1.866 -0.0805 -1.5138  1.8287
  123OSM   H13C12951   3.561   4.432   1.880  1.6097 -0.5706  0.7742
  123OSM    C1212952   3.462   4.181   2.091  0.5682 -0.1133  0.1828
  123OSM   H12A12953   3.499   4.080   2.103  0.7539 -0.1112 -0.3277
  123OSM   H12B12954   3.362   4.185   2.052  1.7872  0.8982 -3.2185
  123OSM    C1112955   3.452   4.255   2.225 -0.8529 -0.7381  0.1881
  123OSM   H11A12956   3.550   4.282   2.269 -1.0685 -0.7755  0.6969
  123OSM   H11B12957   3.405   4.180   2.293 -2.0736 -1.0120 -0.9146
  123OSM      P12958   3.225   4.384   2.245 -0.0968  0.1085  0.4587
  123OSM    O1312959   3.174   4.523   2.249 -0.2391  0.5051 -0.1388
  123OSM    O1412960   3.153   4.304   2.144 -0.4840 -0.0647  0.2691
  123OSM    O1112961   3.221   4.307   2.380  0.6725  0.3525 -1.0242
  123OSM    O1212962   3.381   4.378   2.216  0.0847  0.3189  0.3419
  123OSM    C1S12963   3.295   4.361   2.493  0.3966  0.5756 -0.5003
  123OSM    H1S12964   3.268   4.468   2.507  0.2649  0.5973 -0.9091
  123OSM    H1T12965   3.405   4.346   2.486  0.2884 -0.5015 -0.1371
  123OSM     NF12966   3.288   4.373   2.750  1.0320  0.0150  0.0850
  123OSM    HNF12967   3.371   4.355   2.802  2.1645  1.9854 -0.9437
  123OSM    C2S12968   3.258   4.286   2.628  0.0689 -0.2835 -0.2362
  123OSM    H2S12969   3.149   4.268   2.614  0.0213  0.3065 -0.6689
  123OSM    C3S12970   3.328   4.149   2.624 -0.2185  0.2548 -0.0778
  123OSM    H3S12971   3.437   4.172   2.630 -0.4410  1.0676  1.6283
  123OSM     O312972   3.306   4.072   2.506 -0.4627 -0.3181 -0.1005
  123OSM    HO312973   3.286   4.126   2.429 -2.3580  0.3491  0.8094
  123OSM    C4S12974   3.289   4.063   2.744  0.0000  0.2165 -0.2675
  123OSM    H4S12975   3.183   4.063   2.774 -0.0163  0.2824 -0.3247
  123OSM    C5S12976   3.381   4.002   2.822  0.3810 -0.1129 -0.0846
  123OSM    H5S12977   3.488   4.023   2.808  0.7874 -0.1553  2.4348
  123OSM    C6S12978   3.365   3.943   2.956  0.7913 -0.1228  0.0488
  123OSM    H6S12979   3.402   3.838   2.954 -1.0404 -0.8075  0.2191
  123OSM    H6T12980   3.258   3.937   2.985  0.3357 -0.5536 -1.6607
  123OSM    C7S12981   3.432   4.014   3.076 -0.5943  0.8323 -0.4000
  123OSM    H7S12982   3.525   4.070   3.053 -0.4685  0.5874 -0.4959
  123OSM    H7T12983   3.469   3.935   3.144  2.2556  1.0503 -1.5760
  123OSM    C8S12984   3.337   4.109   3.140  0.5806  0.0204 -0.2765
  123OSM    H8S12985   3.262   4.055   3.202  1.0441 -0.5662 -0.2156
  123OSM    H8T12986   3.295   4.179   3.064 -0.8956 -0.6674 -0.1162
  123OSM    C9S12987   3.411   4.200   3.245 -0.2659 -0.5443 -0.2563
  123OSM    H9S12988   3.513   4.230   3.213 -0.9560  0.6347 -1.4460
  123OSM    H9T12989   3.418   4.131   3.332  1.2270  0.1859  0.2384
  123OSM   C10S12990   3.339   4.323   3.288 -0.2001 -0.3201 -0.2313
  123OSM   H10S12991   3.233   4.304   3.314  0.2930  0.0495  2.3261
  123OSM   H10T12992   3.345   4.391   3.200 -1.3911  1.1588  0.7629
  123OSM   C11S12993   3.410   4.401   3.407 -0.5863 -0.0424  0.2959
  123OSM   H11S12994   3.396   4.510   3.397 -0.3991 -0.0805 -0.5228
  123OSM   H11T12995   3.519   4.381   3.395 -0.7261 -0.8988  0.3335
  123OSM   C12S12996   3.375   4.354   3.551  0.1301 -0.0331 -0.0357
  123OSM   H12S12997   3.377   4.243   3.553 -2.3929 -0.1415 -0.0885
  123OSM   H12T12998   3.274   4.395   3.569 -0.2285 -0.6983 -0.4840
  123OSM   C13S12999   3.479   4.401   3.653 -0.3074  0.2311 -0.3939
  123OSM   H13S13000   3.472   4.512   3.665  1.0078  0.6180 -2.6582
  123OSM   H13T13001   3.572   4.375   3.599 -0.0494  2.4240 -1.1293
  123OSM   C14S13002   3.468   4.334   3.795  0.0989 -1.0144 -0.0286
  123OSM   H14S13003   3.563   4.360   3.847 -0.3996  0.4807  0.1629
  123OSM   H14T13004   3.461   4.223   3.782 -2.0774 -1.0304  0.8333
  123OSM   C15S13005   3.369   4.387   3.892 -0.6948 -0.3639  0.2705
  123OSM   H15S13006   3.271   4.389   3.839 -0.6520  0.9847  0.2221
  123OSM   H15T13007   3.384   4.495   3.911 -1.0972 -0.1246 -0.7322
  123OSM   C16S13008   3.369   4.301   4.018  0.6124 -0.2122  0.1466
  123OSM   H16S13009   3.348   4.195   3.994 -0.8355  0.1405 -0.2431
  123OSM   H16T13010   3.276   4.334   4.070 -0.2230  0.7746 -1.8506
  123OSM   C17S13011   3.495   4.319   4.106 -0.4280  0.2439 -0.4074
  123OSM   H17S13012   3.535   4.423   4.100  1.1219 -0.2349  0.8200
  123OSM   H17T13013   3.579   4.258   4.069 -1.3207 -1.4446  0.2454
  123OSM   C18S13014   3.473   4.269   4.250  0.1058 -0.4347 -0.1019
  123OSM   H18S13015   3.562   4.282   4.315  0.8724 -1.1786 -0.9776
  123OSM   H18T13016   3.437   4.164   4.255 -0.8009 -0.0955  1.0867
  123OSM   H18U13017   3.396   4.337   4.293  0.4955 -0.7643  1.1605
  123OSM    C1F13018   3.211   4.477   2.771 -0.0178  0.9570  0.1992
  123OSM     OF13019   3.113   4.502   2.711 -0.8689  0.0433 -0.6954
  123OSM    C2F13020   3.259   4.567   2.878 -1.0828 -0.6507 -0.1372
  123OSM    H2F13021   3.369   4.553   2.882 -0.6737  1.7293 -1.2904
  123OSM    H2G13022   3.208   4.543   2.973 -0.6701 -1.1003 -0.0226
  123OSM    C3F13023   3.247   4.710   2.832  0.6916  0.2632  0.1851
  123OSM    H3F13024   3.139   4.733   2.828  0.5524 -0.3935  0.0653
  123OSM    H3G13025   3.274   4.717   2.725 -0.2216 -1.0495 -0.1529
  123OSM    C4F13026   3.327   4.817   2.918 -0.3545 -0.1301 -0.0426
  123OSM    H4F13027   3.320   4.909   2.856 -3.1173  1.2914  2.1415
  123OSM    H4G13028   3.433   4.783   2.919 -0.4487 -0.4109  0.7305
  123OSM    C5F13029   3.266   4.853   3.056 -0.8245 -0.4116 -0.6119
  123OSM    H5F13030   3.284   4.765   3.120  1.4513  2.7827  3.6901
  123OSM    H5G13031   3.157   4.872   3.062 -0.7523 -0.0110 -0.4877
  123OSM    C6F13032   3.357   4.964   3.120 -0.1354  0.1299  0.0460
  123OSM    H6F13033   3.311   5.061   3.091  1.1042  0.3934 -1.1062
  123OSM    H6G13034   3.458   4.955   3.075 -0.4030 -0.1537 -0.5060
  123OSM    C7F13035   3.357   4.943   3.276 -0.1606  0.1297 -0.2856
  123OSM    H7F13036   3.397   4.842   3.299  1.2057  0.2101 -2.0640
  123OSM    H7G13037   3.250   4.953   3.305  0.2108  4.9704  0.3056
  123OSM    C8F13038   3.414   5.064   3.347  0.2039  0.0916 -0.1700
  123OSM    H8F13039   3.381   5.058   3.453  1.5085 -1.7843  0.1688
  123OSM    H8G13040   3.371   5.158   3.306 -0.0446 -0.0326 -0.1962
  123OSM    C9F13041   3.562   5.069   3.341 -0.7293 -0.9468  0.5177
  123OSM    H9F13042   3.615   5.100   3.249 -0.4510 -0.1661  0.9390
  123OSM   C10F13043   3.642   5.032   3.443 -0.5627  0.1163  0.0351
  123OSM   H10F13044   3.750   5.052   3.443 -0.6641  0.6897  0.0784
  123OSM   C11F13045   3.598   4.979   3.578 -0.3430 -0.5883  0.6016
  123OSM   H11F13046   3.499   4.930   3.572 -0.4872 -0.8955  3.9471
  123OSM   H11G13047   3.588   5.066   3.646 -3.8358  0.2340 -0.7620
  123OSM   C12F13048   3.695   4.889   3.645 -0.0088  0.2076  0.1304
  123OSM   H12F13049   3.801   4.923   3.652  0.8032 -1.7400 -1.6535
  123OSM   H12G13050   3.681   4.797   3.585 -1.5537  0.4623  0.0515
  123OSM   C13F13051   3.650   4.856   3.792  0.1516  0.1871  0.6909
  123OSM   H13F13052   3.549   4.809   3.786  0.4166 -0.3296  0.1931
  123OSM   H13G13053   3.639   4.952   3.846  0.3969  1.3925 -1.2741
  123OSM   C14F13054   3.731   4.748   3.866 -0.2694 -0.5716  0.0815
  123OSM   H14F13055   3.841   4.760   3.873 -0.4533  0.5787  1.4959
  123OSM   H14G13056   3.711   4.652   3.815  2.6172 -3.0540  3.2019
  123OSM   C15F13057   3.685   4.724   4.015 -0.4883 -0.0056  0.5056
  123OSM   H15F13058   3.584   4.678   4.010 -0.2769 -0.4350  0.1612
  123OSM   H15G13059   3.692   4.818   4.074  2.8671  1.0839 -1.3562
  123OSM   C16F13060   3.783   4.620   4.081 -0.0315 -0.0640  0.0301
  123OSM   H16F13061   3.887   4.658   4.070  0.2258 -1.2866 -2.3880
  123OSM   H16G13062   3.774   4.524   4.026 -0.5508  1.0312 -1.8649
  123OSM   C17F13063   3.749   4.599   4.231  0.2572 -0.3047 -0.1408
  123OSM   H17F13064   3.643   4.625   4.252  1.1357  2.7519  1.1387
  123OSM   H17G13065   3.795   4.688   4.280  1.7055 -1.5012  0.7708
  123OSM   C18F13066   3.792   4.465   4.303 -0.0324  0.4320  0.0863
  123OSM   H18F13067   3.783   4.378   4.235  0.4578 -0.3147  0.9685
  123OSM   H18G13068   3.731   4.451   4.395  0.2216 -0.8244  0.0725
  123OSM   H18H13069   3.896   4.475   4.339 -0.2656 -2.3832  1.8325
  124OSM      N13070   4.399   6.377   2.382  0.5386 -0.4375  0.3430
  124OSM    C1513071   4.456   6.270   2.460 -0.1460  0.1726 -0.3217
  124OSM   H15A13072   4.398   6.181   2.441 -0.9341  0.4620  0.6446
  124OSM   H15B13073   4.470   6.285   2.566 -1.6562  0.6405 -0.1711
  124OSM   H15C13074   4.559   6.252   2.433 -0.0299  0.0652  0.1850
  124OSM    C1413075   4.484   6.504   2.408 -0.5961  0.2659 -0.5275
  124OSM   H14A13076   4.471   6.533   2.512 -2.4023 -0.8836 -0.3834
  124OSM   H14B13077   4.457   6.585   2.343 -2.3114 -0.9662 -1.4255
  124OSM   H14C13078   4.589   6.478   2.403 -0.1503  0.5823  3.3743
  124OSM    C1313079   4.417   6.339   2.238  0.1281  0.1526  0.2227
  124OSM   H13A13080   4.377   6.243   2.209  1.2959 -0.1605 -0.4307
  124OSM   H13B13081   4.521   6.324   2.210  0.6104 -0.0426  2.0110
  124OSM   H13C13082   4.385   6.420   2.173 -2.6109 -1.1254 -0.1509
  124OSM    C1213083   4.249   6.411   2.423 -0.1958  0.5131 -0.1166
  124OSM   H12A13084   4.206   6.494   2.368 -2.2944 -1.2411 -1.2620
  124OSM   H12B13085   4.250   6.451   2.523  4.3119 -0.8932  0.6271
  124OSM    C1113086   4.156   6.289   2.414  0.7226  0.2396 -0.2879
  124OSM   H11A13087   4.189   6.228   2.500  2.3198  0.6449 -0.5837
  124OSM   H11B13088   4.165   6.227   2.322  1.4119  1.0301 -0.7631
  124OSM      P13089   3.920   6.281   2.533  0.0891 -0.3919 -0.2505
  124OSM    O1313090   3.814   6.382   2.563  0.8956  0.3909  0.0429
  124OSM    O1413091   3.876   6.144   2.488 -0.0487  0.3389  0.2213
  124OSM    O1113092   4.007   6.271   2.658 -0.0365 -0.2358  0.9366
  124OSM    O1213093   4.023   6.337   2.429  0.0261  0.5969 -0.1935
  124OSM    C1S13094   3.930   6.240   2.781  0.1845  0.5927  0.9138
  124OSM    H1S13095   3.886   6.138   2.782  2.2602 -0.3820 -0.4484
  124OSM    H1T13096   3.855   6.320   2.804 -0.2694  0.7156 -0.8570
  124OSM     NF13097   3.930   6.227   3.024  0.0313  0.7222  0.1746
  124OSM    HNF13098   3.889   6.290   3.090  1.0565 -0.1163  1.6730
  124OSM    C2S13099   4.019   6.264   2.914 -0.0841 -0.2964 -0.6492
  124OSM    H2S13100   4.109   6.199   2.915  0.7512  0.6851  2.6935
  124OSM    C3S13101   4.067   6.405   2.920  0.1310  0.0411  0.3476
  124OSM    H3S13102   3.978   6.471   2.930 -0.0485 -0.1999  0.3504
  124OSM     O313103   4.128   6.457   2.796  0.2848  1.0727  0.1922
  124OSM    HO313104   4.114   6.384   2.736  0.5006  0.6924  0.5948
  124OSM    C4S13105   4.144   6.438   3.050  0.3999 -0.9984  0.2528
  124OSM    H4S13106   4.082   6.454   3.139  0.0196  1.2169 -0.3333
  124OSM    C5S13107   4.279   6.437   3.060  0.2836 -0.1356  0.0923
  124OSM    H5S13108   4.334   6.398   2.973 -0.9254 -1.8493  0.0518
  124OSM    C6S13109   4.374   6.435   3.188  0.1543  0.1083 -0.7367
  124OSM    H6S13110   4.446   6.519   3.178  0.5984 -0.1396  0.2706
  124OSM    H6T13111   4.437   6.345   3.200 -2.2804 -1.6714 -0.5173
  124OSM    C7S13112   4.308   6.461   3.329 -0.4101  0.1801  0.3128
  124OSM    H7S13113   4.234   6.383   3.356  0.2053 -0.4912  0.0828
  124OSM    H7T13114   4.263   6.563   3.328 -1.3243 -0.1551 -2.5102
  124OSM    C8S13115   4.411   6.457   3.447  0.2236  0.5096  0.0845
  124OSM    H8S13116   4.489   6.537   3.443 -0.0877  0.8553  0.7196
  124OSM    H8T13117   4.463   6.360   3.455 -0.2146  0.2647 -0.0188
  124OSM    C9S13118   4.345   6.488   3.579 -0.4493 -0.2044  0.3352
  124OSM    H9S13119   4.275   6.403   3.593 -2.2382  1.2953  0.9861
  124OSM    H9T13120   4.283   6.580   3.572 -2.5891 -1.4763  1.3034
  124OSM   C10S13121   4.437   6.487   3.707  0.5419 -0.2633  0.2572
  124OSM   H10S13122   4.508   6.573   3.700  2.1673 -1.6620 -1.7917
  124OSM   H10T13123   4.493   6.391   3.711  0.1185 -0.5299 -0.1351
  124OSM   C11S13124   4.353   6.500   3.833  0.2129  0.7341 -0.2796
  124OSM   H11S13125   4.279   6.418   3.828 -0.3361  1.1750  0.4263
  124OSM   H11T13126   4.311   6.603   3.826  0.4365  0.7725 -1.1248
  124OSM   C12S13127   4.428   6.493   3.963  0.3752 -0.1913  0.8009
  124OSM   H12S13128   4.515   6.562   3.972  1.4276 -1.6757  2.6473
  124OSM   H12T13129   4.471   6.391   3.970  0.8114 -0.1423 -0.7735
  124OSM   C13S13130   4.341   6.525   4.083 -0.4665  0.2512 -0.6087
  124OSM   H13S13131   4.252   6.461   4.099 -0.2587  0.6189  2.6306
  124OSM   H13T13132   4.299   6.625   4.060  0.8850  0.8121 -0.7507
  124OSM   C14S13133   4.417   6.523   4.218  0.0487 -0.3660 -0.5625
  124OSM   H14S13134   4.507   6.589   4.211  1.0069 -0.9090  3.7789
  124OSM   H14T13135   4.471   6.427   4.229  0.3031 -0.1965 -0.3232
  124OSM   C15S13136   4.337   6.560   4.342 -0.2988  0.0384 -0.0026
  124OSM   H15S13137   4.263   6.487   4.381  0.0629  1.0039  2.6664
  124OSM   H15T13138   4.268   6.645   4.324  1.3477  1.4590  0.0943
  124OSM   C16S13139   4.428   6.599   4.452  0.3302 -0.6956 -0.0151
  124OSM   H16S13140   4.363   6.661   4.519 -2.5096 -0.7250 -2.5068
  124OSM   H16T13141   4.504   6.672   4.417  0.9364 -0.6605  1.3021
  124OSM   C17S13142   4.497   6.488   4.530 -0.8000 -0.3817 -0.5694
  124OSM   H17S13143   4.571   6.439   4.463  0.0545  2.5199 -1.9608
  124OSM   H17T13144   4.425   6.415   4.572 -2.5114  1.6175  0.1804
  124OSM   C18S13145   4.566   6.543   4.654  0.0688  0.3245  0.9091
  124OSM   H18S13146   4.493   6.567   4.734 -1.4942 -0.4892 -0.2246
  124OSM   H18T13147   4.628   6.633   4.632  0.9758 -0.1097  1.6191
  124OSM   H18U13148   4.644   6.472   4.690  0.5609  0.8937  0.9807
  124OSM    C1F13149   3.914   6.097   3.054  0.1758  0.1273  0.5700
  124OSM     OF13150   3.979   6.020   2.985 -0.0854 -0.1258  0.2288
  124OSM    C2F13151   3.830   6.063   3.173 -0.4746 -0.3701  0.6172
  124OSM    H2F13152   3.723   6.088   3.157  0.0402  1.5593 -0.0656
  124OSM    H2G13153   3.855   6.123   3.264  2.5098  0.9377 -0.9166
  124OSM    C3F13154   3.843   5.917   3.207  0.5403 -0.2726  0.1974
  124OSM    H3F13155   3.946   5.874   3.200  0.8128  0.6158 -2.3714
  124OSM    H3G13156   3.782   5.858   3.135  0.2441  2.4334 -1.9137
  124OSM    C4F13157   3.797   5.888   3.351 -0.7381  1.2496 -0.9752
  124OSM    H4F13158   3.862   5.957   3.410 -1.6976  0.5205  1.0051
  124OSM    H4G13159   3.825   5.782   3.366  2.3100  2.1337  0.4640
  124OSM    C5F13160   3.649   5.907   3.369 -0.4687 -0.1609 -0.2309
  124OSM    H5F13161   3.600   5.873   3.275  1.0809 -0.7339 -0.8644
  124OSM    H5G13162   3.621   6.014   3.374  1.6973  0.4254  0.3531
  124OSM    C6F13163   3.596   5.827   3.487  0.2582  0.4840  0.1285
  124OSM    H6F13164   3.565   5.727   3.449  0.4335  0.2721  0.5261
  124OSM    H6G13165   3.502   5.876   3.518 -0.3066 -0.2700 -0.3594
  124OSM    C7F13166   3.692   5.809   3.604 -0.1290  0.4481  0.5956
  124OSM    H7F13167   3.718   5.909   3.644  0.5425  0.1912  0.8168
  124OSM    H7G13168   3.787   5.753   3.587 -1.1337 -1.0855 -0.2406
  124OSM    C8F13169   3.610   5.747   3.721  0.0979 -0.4862 -0.0279
  124OSM    H8F13170   3.546   5.662   3.689 -0.3045 -0.0592 -0.3765
  124OSM    H8G13171   3.537   5.829   3.738  1.0081  0.6206 -1.3025
  124OSM    C9F13172   3.698   5.720   3.843 -0.1245 -0.2017  0.3311
  124OSM    H9F13173   3.802   5.706   3.810 -1.0016 -0.6656 -2.4460
  124OSM   C10F13174   3.659   5.731   3.971  0.5358  0.3278  0.3132
  124OSM   H10F13175   3.731   5.703   4.049 -0.1250  1.3135  1.3014
  124OSM   C11F13176   3.522   5.771   4.019 -0.0573  0.2433 -0.5097
  124OSM   H11F13177   3.462   5.808   3.933 -0.0522  0.0741 -0.5866
  124OSM   H11G13178   3.527   5.858   4.088 -0.7045  0.2848 -0.5077
  124OSM   C12F13179   3.443   5.663   4.087  0.6172 -0.2018 -0.3215
  124OSM   H12F13180   3.408   5.590   4.011 -1.6258  2.2942 -1.8575
  124OSM   H12G13181   3.344   5.692   4.128 -0.0441 -0.7118 -1.5325
  124OSM   C13F13182   3.506   5.597   4.208 -0.4955 -0.5320  0.6130
  124OSM   H13F13183   3.534   5.668   4.290  2.9173 -0.5986 -0.3450
  124OSM   H13G13184   3.603   5.563   4.166 -1.3428 -0.1122 -1.8682
  124OSM   C14F13185   3.431   5.473   4.263 -0.2198 -0.0104  0.1654
  124OSM   H14F13186   3.467   5.389   4.199  0.2992  0.5428 -0.2758
  124OSM   H14G13187   3.321   5.477   4.251 -0.4566 -1.6755  1.3901
  124OSM   C15F13188   3.480   5.442   4.408  0.1131  0.1992  0.0783
  124OSM   H15F13189   3.421   5.504   4.479  0.6472  1.4484 -0.5324
  124OSM   H15G13190   3.584   5.478   4.418 -0.4190  1.5182  1.1613
  124OSM   C16F13191   3.480   5.290   4.455  0.0069 -0.0108 -0.3759
  124OSM   H16F13192   3.546   5.279   4.543 -1.6807  1.5286  1.1808
  124OSM   H16G13193   3.522   5.231   4.372 -0.2507  0.7998 -1.1029
  124OSM   C17F13194   3.337   5.252   4.510 -0.5614 -0.2374  0.6202
  124OSM   H17F13195   3.270   5.256   4.422  0.3395 -1.7280 -0.1741
  124OSM   H17G13196   3.297   5.314   4.593 -0.4267  1.3169 -0.4336
  124OSM   C18F13197   3.334   5.110   4.567  0.1362 -0.2943  0.3974
  124OSM   H18F13198   3.332   5.045   4.477 -1.8724  0.8715 -0.4641
  124OSM   H18G13199   3.239   5.094   4.622  0.5961 -1.5643  0.8778
  124OSM   H18H13200   3.418   5.102   4.640  0.4234  1.6884  0.3286
  125OSM      N13201   4.188   3.336   2.850 -0.5950 -0.3915  0.3422
  125OSM    C1513202   4.069   3.374   2.930 -0.1445 -0.3685  0.1965
  125OSM   H15A13203   3.977   3.362   2.876 -0.2030 -0.9156  0.4083
  125OSM   H15B13204   4.086   3.476   2.961 -3.9859  0.2635  0.6879
  125OSM   H15C13205   4.057   3.313   3.018 -3.0467 -2.3502 -1.4226
  125OSM    C1413206   4.160   3.214   2.775  0.6624 -0.1969 -0.1239
  125OSM   H14A13207   4.248   3.177   2.725  1.5518 -0.4460  1.5555
  125OSM   H14B13208   4.081   3.223   2.702  0.3173 -0.8340  0.1623
  125OSM   H14C13209   4.140   3.135   2.845 -0.6214  0.2825  0.0649
  125OSM    C1313210   4.220   3.449   2.755  0.1156 -0.8481  0.4169
  125OSM   H13A13211   4.237   3.540   2.809 -0.8583  0.2701 -1.0663
  125OSM   H13B13212   4.137   3.476   2.691 -1.1607 -0.4878  2.1364
  125OSM   H13C13213   4.312   3.429   2.702  0.1038 -0.3884  0.2189
  125OSM    C1213214   4.311   3.304   2.941 -0.0701 -0.1549  0.1723
  125OSM   H12A13215   4.320   3.395   2.998  0.1245 -0.4708  0.6587
  125OSM   H12B13216   4.394   3.293   2.874 -1.0649 -0.3110 -1.0747
  125OSM    C1113217   4.310   3.174   3.032 -0.3979 -0.0037 -0.3474
  125OSM   H11A13218   4.397   3.167   3.101  0.4435 -2.1888 -1.5481
  125OSM   H11B13219   4.319   3.084   2.968 -1.3477 -0.0321 -0.4490
  125OSM      P13220   4.111   3.051   3.120  0.4233  0.0087 -0.0332
  125OSM    O1313221   3.991   3.082   3.207 -0.3562  0.0861  0.8716
  125OSM    O1413222   4.074   3.006   2.983 -0.1270  0.1794 -0.0747
  125OSM    O1113223   4.207   2.951   3.182  0.1358  0.0261  0.3539
  125OSM    O1213224   4.194   3.186   3.103  0.0304 -0.5560 -0.2836
  125OSM    C1S13225   4.254   2.972   3.315 -0.0233  0.2171  0.2453
  125OSM    H1S13226   4.168   2.963   3.384 -0.6524 -0.1452 -0.5659
  125OSM    H1T13227   4.276   3.080   3.333 -0.6447  0.4742 -0.4991
  125OSM     NF13228   4.396   2.916   3.508 -0.2018  0.2236  0.3558
  125OSM    HNF13229   4.461   2.986   3.532 -0.5799  0.9537 -0.6787
  125OSM    C2S13230   4.371   2.883   3.367  0.2011 -0.3942 -0.5432
  125OSM    H2S13231   4.341   2.778   3.349 -1.2806 -0.4445  1.7016
  125OSM    C3S13232   4.500   2.907   3.278  0.4033 -0.1781 -0.9407
  125OSM    H3S13233   4.504   3.018   3.277 -1.4035  0.0534  2.6625
  125OSM     O313234   4.477   2.858   3.146  0.3182 -0.6553 -0.0933
  125OSM    HO313235   4.387   2.823   3.147  0.4956 -1.1115  0.0642
  125OSM    C4S13236   4.633   2.854   3.333  0.0068  0.0347 -0.3634
  125OSM    H4S13237   4.697   2.920   3.392  0.6947 -2.3926  1.8018
  125OSM    C5S13238   4.679   2.728   3.322 -0.3460 -0.1077  0.8463
  125OSM    H5S13239   4.620   2.660   3.258 -0.3228  1.4854 -0.9542
  125OSM    C6S13240   4.797   2.670   3.389 -0.1169 -0.3051  0.1397
  125OSM    H6S13241   4.884   2.740   3.389  0.4638 -1.0000  0.7708
  125OSM    H6T13242   4.823   2.581   3.328  0.3449  0.6548 -1.1228
  125OSM    C7S13243   4.769   2.606   3.528  0.0842  0.3276  0.1774
  125OSM    H7S13244   4.852   2.538   3.557  0.7017  0.9219 -0.1728
  125OSM    H7T13245   4.674   2.548   3.523 -0.7543  1.6315  0.2872
  125OSM    C8S13246   4.737   2.707   3.644  0.8939 -0.0616 -0.1766
  125OSM    H8S13247   4.649   2.767   3.613 -0.7711 -1.5587  1.4653
  125OSM    H8T13248   4.829   2.769   3.656  1.5046 -0.8804 -0.5142
  125OSM    C9S13249   4.713   2.640   3.779 -0.0197  0.0967  0.1417
  125OSM    H9S13250   4.626   2.572   3.783 -0.3397  0.5719  2.0751
  125OSM    H9T13251   4.673   2.704   3.860 -1.4261 -0.6790  0.0841
  125OSM   C10S13252   4.837   2.567   3.841 -0.7532 -0.1556  0.7645
  125OSM   H10S13253   4.922   2.638   3.834 -0.6732 -0.4454 -2.1075
  125OSM   H10T13254   4.853   2.474   3.782 -1.6681  1.3347 -1.9708
  125OSM   C11S13255   4.804   2.526   3.986  0.6064 -0.0902 -0.3282
  125OSM   H11S13256   4.792   2.417   3.998  0.9415  0.0662  1.8932
  125OSM   H11T13257   4.701   2.562   4.005  0.9636 -0.2223  2.1738
  125OSM   C12S13258   4.913   2.564   4.084 -1.2032 -0.7586 -0.3181
  125OSM   H12S13259   4.933   2.673   4.071  2.4354 -1.2722 -0.0448
  125OSM   H12T13260   5.005   2.504   4.065 -2.5723 -3.3155  0.7141
  125OSM   C13S13261   4.875   2.533   4.230  0.4841 -0.1990 -0.9105
  125OSM   H13S13262   4.866   2.422   4.233 -1.9353 -0.0637 -0.5570
  125OSM   H13T13263   4.774   2.571   4.257  2.0472  2.0612  2.3524
  125OSM   C14S13264   4.969   2.593   4.341 -0.7962  0.3821  0.3676
  125OSM   H14S13265   4.973   2.694   4.295 -0.3924  1.6284  2.9666
  125OSM   H14T13266   5.075   2.560   4.347 -0.2906  2.1304  4.9141
  125OSM   C15S13267   4.908   2.610   4.473  0.2627  0.2146 -0.4190
  125OSM   H15S13268   4.800   2.635   4.464 -0.6747 -3.1659  0.1281
  125OSM   H15T13269   4.964   2.692   4.523  1.7535  0.6504 -2.6490
  125OSM   C16S13270   4.903   2.480   4.557  0.1987  0.4267 -0.0517
  125OSM   H16S13271   4.994   2.421   4.533 -0.6878 -1.2370  0.4953
  125OSM   H16T13272   4.812   2.426   4.524 -0.6649  2.0526 -0.4244
  125OSM   C17S13273   4.897   2.504   4.704 -0.1175 -0.1136 -1.7363
  125OSM   H17S13274   4.814   2.576   4.722  1.6757  1.3377  1.3985
  125OSM   H17T13275   4.986   2.549   4.751 -0.6697 -2.4888  1.9848
  125OSM   C18S13276   4.868   2.382   4.786 -0.0817 -0.5812 -0.2745
  125OSM   H18S13277   4.862   2.418   4.891 -1.8676  0.5005 -0.7043
  125OSM   H18T13278   4.936   2.300   4.754  0.0944  0.2212 -2.0661
  125OSM   H18U13279   4.764   2.349   4.761 -0.0862 -0.7714 -0.0099
  125OSM    C1F13280   4.322   2.880   3.606  0.6427 -0.1074 -0.0689
  125OSM     OF13281   4.216   2.818   3.600  0.1454 -0.1427 -0.2224
  125OSM    C2F13282   4.382   2.922   3.737  0.0703 -0.5387 -0.5551
  125OSM    H2F13283   4.348   3.025   3.762 -0.3136 -0.9311  0.6074
  125OSM    H2G13284   4.492   2.937   3.732  0.0035  0.2352  0.0169
  125OSM    C3F13285   4.341   2.835   3.856 -0.3128  0.2210  0.3922
  125OSM    H3F13286   4.363   2.728   3.835  0.8639  0.5695 -0.2931
  125OSM    H3G13287   4.236   2.847   3.890  0.0100  0.0645  1.4893
  125OSM    C4F13288   4.420   2.871   3.986 -0.0380 -0.6060 -0.0141
  125OSM    H4F13289   4.398   2.979   4.004  1.6465 -0.3798  0.9185
  125OSM    H4G13290   4.528   2.850   3.968  0.1849  0.0520  0.4955
  125OSM    C5F13291   4.377   2.795   4.109  0.0158 -1.1986 -0.1878
  125OSM    H5F13292   4.352   2.689   4.089 -0.6149 -1.2060  0.6139
  125OSM    H5G13293   4.284   2.844   4.147  0.9506 -0.2396  0.9263
  125OSM    C6F13294   4.480   2.792   4.219  0.7618 -0.3551 -0.2687
  125OSM    H6F13295   4.553   2.716   4.184  0.9560  0.6686 -2.2132
  125OSM    H6G13296   4.427   2.755   4.310  2.0777 -1.8671 -0.0700
  125OSM    C7F13297   4.551   2.929   4.262  0.4621  0.3360 -0.5908
  125OSM    H7F13298   4.484   2.983   4.331 -0.9638 -2.6392  0.5377
  125OSM    H7G13299   4.579   2.972   4.164  1.2654  0.9087 -0.1189
  125OSM    C8F13300   4.684   2.905   4.346  0.1128  0.0703 -0.5049
  125OSM    H8F13301   4.743   2.998   4.335  0.2499 -0.0669 -0.9458
  125OSM    H8G13302   4.737   2.816   4.305  0.2433 -0.9576  1.6985
  125OSM    C9F13303   4.667   2.878   4.490 -0.4737 -0.1096 -0.1432
  125OSM    H9F13304   4.589   2.804   4.512 -2.2857  2.3049  2.1973
  125OSM   C10F13305   4.734   2.937   4.589  0.1430  0.2463 -0.1183
  125OSM   H10F13306   4.703   2.922   4.694  0.4268  1.9452  0.2366
  125OSM   C11F13307   4.846   3.044   4.571  0.3698 -0.9815 -0.8742
  125OSM   H11F13308   4.797   3.144   4.565  1.2175 -0.5414 -0.6771
  125OSM   H11G13309   4.909   3.024   4.482  1.4297  0.1150 -0.4030
  125OSM   C12F13310   4.949   3.038   4.692  0.5451  0.0148  0.3089
  125OSM   H12F13311   4.978   2.936   4.724  1.2957 -0.7133 -2.4160
  125OSM   H12G13312   4.901   3.092   4.776  0.7946  0.8118 -0.0471
  125OSM   C13F13313   5.079   3.113   4.664 -0.2264  0.5093 -0.5273
  125OSM   H13F13314   5.055   3.221   4.663  1.5482  0.9769  1.1403
  125OSM   H13G13315   5.116   3.085   4.563  0.2202 -1.6372  0.1705
  125OSM   C14F13316   5.192   3.081   4.762 -0.4602  0.0265 -0.6566
  125OSM   H14F13317   5.173   3.124   4.863  3.0117 -1.1116  0.6090
  125OSM   H14G13318   5.284   3.135   4.731 -0.2955 -0.5769 -1.2458
  125OSM   C15F13319   5.236   2.925   4.766 -0.1257 -0.0418 -0.4205
  125OSM   H15F13320   5.152   2.858   4.791 -0.4195 -0.8739 -3.3068
  125OSM   H15G13321   5.311   2.924   4.848  0.7566 -1.0312 -1.2151
  125OSM   C16F13322   5.309   2.887   4.637 -1.0036 -0.9971  0.3215
  125OSM   H16F13323   5.402   2.947   4.634 -1.1606 -0.7376  0.5845
  125OSM   H16G13324   5.249   2.917   4.548 -0.3220 -1.9236 -0.4743
  125OSM   C17F13325   5.359   2.749   4.622  0.2415  0.8827 -0.2579
  125OSM   H17F13326   5.428   2.720   4.704 -1.7497 -0.7733  0.9088
  125OSM   H17G13327   5.407   2.744   4.522 -1.3003 -0.5043 -0.9710
  125OSM   C18F13328   5.255   2.639   4.635  0.0325  0.3002  0.2880
  125OSM   H18F13329   5.185   2.661   4.718  1.8742 -0.0931  2.0130
  125OSM   H18G13330   5.305   2.540   4.646 -0.9429  0.0300  2.8901
  125OSM   H18H13331   5.186   2.634   4.547 -1.9108  1.4943  1.6733
  126OSM      N13332   3.591   2.381   2.941 -0.2205 -0.0727  0.2234
  126OSM    C1513333   3.541   2.281   2.844  0.0416  0.6092  0.7131
  126OSM   H15A13334   3.621   2.269   2.773  1.7235 -0.9463  2.7417
  126OSM   H15B13335   3.450   2.311   2.795 -1.5891 -2.2635  1.7675
  126OSM   H15C13336   3.519   2.186   2.889  3.4729 -1.4406 -1.4635
  126OSM    C1413337   3.603   2.520   2.882 -0.6915  0.4318  0.3556
  126OSM   H14A13338   3.684   2.515   2.810  0.5048  0.5553  1.6539
  126OSM   H14B13339   3.622   2.594   2.958 -0.6685  2.0573 -1.1528
  126OSM   H14C13340   3.517   2.552   2.826 -1.6882 -2.7836 -0.1553
  126OSM    C1313341   3.486   2.388   3.041  1.1470  0.5438  0.2276
  126OSM   H13A13342   3.468   2.285   3.070  0.4036  0.4395 -0.5684
  126OSM   H13B13343   3.398   2.427   2.994 -0.5744 -0.5876  2.3184
  126OSM   H13C13344   3.516   2.443   3.129  2.6524 -0.2304  0.2362
  126OSM    C1213345   3.723   2.317   2.996  0.2728  0.1930 -0.5353
  126OSM   H12A13346   3.792   2.312   2.913  2.1797 -0.2838  1.0212
  126OSM   H12B13347   3.691   2.220   3.031 -2.6884  1.5146  0.7860
  126OSM    C1113348   3.784   2.391   3.120 -0.5194  0.0569 -0.3608
  126OSM   H11A13349   3.872   2.335   3.159  0.9322  1.0656 -2.0238
  126OSM   H11B13350   3.716   2.394   3.208 -1.4008  1.2800 -1.0519
  126OSM      P13351   3.964   2.537   3.019 -0.0464  0.1126 -0.1638
  126OSM    O1313352   4.001   2.410   2.956 -0.1871 -0.4935 -0.1824
  126OSM    O1413353   3.971   2.657   2.936 -0.5174 -0.3416 -0.1769
  126OSM    O1113354   4.061   2.563   3.145 -0.1260 -0.1521 -0.0602
  126OSM    O1213355   3.820   2.525   3.092  0.0957  0.2993 -0.0016
  126OSM    C1S13356   4.057   2.677   3.227 -0.0978 -0.9704  0.7210
  126OSM    H1S13357   3.986   2.753   3.189  0.6871 -0.3522  0.4517
  126OSM    H1T13358   4.157   2.724   3.238  0.8130 -2.2599 -1.4345
  126OSM     NF13359   3.994   2.753   3.453 -0.1475 -0.3948  0.1329
  126OSM    HNF13360   4.071   2.765   3.515  0.5334 -0.3364 -0.6993
  126OSM    C2S13361   4.009   2.634   3.371  0.8505 -0.1499 -0.3014
  126OSM    H2S13362   3.908   2.589   3.361  0.1973  1.4610 -1.4139
  126OSM    C3S13363   4.105   2.529   3.431 -0.3555 -0.0921  0.4604
  126OSM    H3S13364   4.200   2.583   3.451  1.2273 -2.3896 -0.5057
  126OSM     O313365   4.143   2.420   3.339 -0.0788  0.1094 -0.3972
  126OSM    HO313366   4.122   2.455   3.252  0.7285  2.0225  0.1170
  126OSM    C4S13367   4.062   2.462   3.558  0.2828  0.0337 -0.1558
  126OSM    H4S13368   3.982   2.387   3.551  1.1195 -0.9446  0.6177
  126OSM    C5S13369   4.121   2.486   3.681 -0.5953 -0.0732 -1.2111
  126OSM    H5S13370   4.206   2.556   3.674 -2.4546  2.3536 -0.5186
  126OSM    C6S13371   4.101   2.423   3.822 -0.2496 -1.3393 -0.1517
  126OSM    H6S13372   4.188   2.356   3.840  0.2933 -0.4785  0.5370
  126OSM    H6T13373   4.004   2.369   3.821  0.6439 -3.0103 -1.3000
  126OSM    C7S13374   4.085   2.531   3.936  0.4726 -0.4385  1.2948
  126OSM    H7S13375   4.020   2.619   3.918  0.0612 -1.0700 -0.5352
  126OSM    H7T13376   4.187   2.574   3.929 -0.3359  1.4148  0.1544
  126OSM    C8S13377   4.052   2.453   4.055  0.1950 -0.8432 -0.4680
  126OSM    H8S13378   4.134   2.380   4.077  0.7455 -0.1179 -0.0864
  126OSM    H8T13379   3.955   2.406   4.028  1.7606 -3.2672 -2.3615
  126OSM    C9S13380   4.046   2.542   4.179 -0.3182  0.0143 -0.2773
  126OSM    H9S13381   3.981   2.630   4.160  0.8015  1.1757  0.9870
  126OSM    H9T13382   4.148   2.578   4.205 -1.5115  1.4296  2.9476
  126OSM   C10S13383   3.983   2.466   4.299 -0.0096 -0.6825 -0.1590
  126OSM   H10S13384   4.043   2.375   4.319 -0.2145 -0.6887  0.4290
  126OSM   H10T13385   3.880   2.437   4.266  0.4357 -1.4247 -0.9565
  126OSM   C11S13386   3.987   2.563   4.416  0.0868 -1.1173 -0.0531
  126OSM   H11S13387   3.912   2.644   4.410  1.7799  0.5095  0.0168
  126OSM   H11T13388   4.091   2.600   4.429 -1.0469  1.8511  1.7201
  126OSM   C12S13389   3.950   2.486   4.553 -0.0386  0.2746  0.7750
  126OSM   H12S13390   3.987   2.382   4.559 -1.8029 -0.3265  1.8021
  126OSM   H12T13391   3.840   2.487   4.563  0.0065 -0.7601  1.4144
  126OSM   C13S13392   4.005   2.558   4.672  0.4396 -0.2882  0.2536
  126OSM   H13S13393   3.969   2.663   4.669  0.7489 -0.1334  1.4658
  126OSM   H13T13394   4.116   2.566   4.672  0.4512  0.0652  2.3519
  126OSM   C14S13395   3.967   2.479   4.807  0.8988 -0.2902  0.5668
  126OSM   H14S13396   3.987   2.370   4.799  0.2538 -0.6696  3.3156
  126OSM   H14T13397   3.858   2.488   4.823  0.9809  1.2903  0.3409
  126OSM   C15S13398   4.045   2.527   4.923 -0.8304 -0.5384 -0.2923
  126OSM   H15S13399   4.156   2.530   4.909 -1.0263 -0.4997 -2.0794
  126OSM   H15T13400   4.033   2.449   5.000 -1.3496  0.3868  0.5844
  126OSM   C16S13401   4.001   2.655   4.997 -0.8538 -0.2644  0.4303
  126OSM   H16S13402   4.006   2.734   4.918 -2.6612 -1.0408 -0.5218
  126OSM   H16T13403   4.068   2.669   5.084 -1.0167  4.5176  0.0452
  126OSM   C17S13404   3.865   2.653   5.059 -0.0702  0.5970 -0.0297
  126OSM   H17S13405   3.866   2.581   5.143 -2.4365  0.6765  0.1417
  126OSM   H17T13406   3.789   2.626   4.982 -0.8800  1.4677  0.4453
  126OSM   C18S13407   3.817   2.789   5.116 -1.1719  0.1893  0.5333
  126OSM   H18S13408   3.895   2.827   5.185  1.1830  3.8464 -3.6012
  126OSM   H18T13409   3.724   2.773   5.176 -2.3874 -1.8571 -1.7011
  126OSM   H18U13410   3.798   2.867   5.039  1.6071 -0.2937 -0.7697
  126OSM    C1F13411   3.903   2.844   3.443 -0.3006 -0.0195  0.4535
  126OSM     OF13412   3.815   2.830   3.353 -0.3038 -0.2816 -0.3133
  126OSM    C2F13413   3.914   2.975   3.527  0.3647  0.1907 -0.0785
  126OSM    H2F13414   3.960   3.050   3.458  1.8371 -0.5106  0.0945
  126OSM    H2G13415   3.983   2.949   3.610  1.0753  1.1618 -0.3514
  126OSM    C3F13416   3.780   3.016   3.600 -0.6340  0.5281  0.1703
  126OSM    H3F13417   3.698   3.000   3.527 -0.9756 -1.1732  0.8908
  126OSM    H3G13418   3.776   3.125   3.623  0.9540  1.1049 -1.9418
  126OSM    C4F13419   3.739   2.929   3.719  0.3505 -0.1574 -0.0090
  126OSM    H4F13420   3.733   2.823   3.687 -0.7253 -0.5020  1.2121
  126OSM    H4G13421   3.641   2.972   3.750  0.1724 -1.0943  0.8115
  126OSM    C5F13422   3.839   2.939   3.835 -0.4790  0.3495 -0.4586
  126OSM    H5F13423   3.890   3.038   3.835  1.8073 -0.7595 -1.0784
  126OSM    H5G13424   3.914   2.858   3.830  0.1867  0.8249  1.1442
  126OSM    C6F13425   3.773   2.911   3.973 -0.0313 -0.3093  0.5041
  126OSM    H6F13426   3.712   2.822   3.946  2.2333 -1.6239 -0.5631
  126OSM    H6G13427   3.709   3.002   3.978  1.2067  0.6470 -0.5109
  126OSM    C7F13428   3.857   2.884   4.103 -0.7898  0.2120  0.2332
  126OSM    H7F13429   3.963   2.909   4.082 -1.1597  1.8763  0.2352
  126OSM    H7G13430   3.844   2.785   4.153 -2.5101 -0.1157 -0.7730
  126OSM    C8F13431   3.818   2.980   4.221 -1.3612  0.8093  0.4380
  126OSM    H8F13432   3.882   2.946   4.306 -0.2537  0.9861 -0.2995
  126OSM    H8G13433   3.713   2.968   4.256 -0.9064  1.8248  2.2968
  126OSM    C9F13434   3.849   3.119   4.188  0.2007  0.8403  0.4303
  126OSM    H9F13435   3.892   3.147   4.091  0.3742 -0.8076  0.0133
  126OSM   C10F13436   3.801   3.223   4.253 -0.0849 -0.0525  0.2842
  126OSM   H10F13437   3.832   3.323   4.220  0.6123 -0.8757 -1.7185
  126OSM   C11F13438   3.727   3.226   4.383  0.0575 -0.0806  0.3068
  126OSM   H11F13439   3.784   3.293   4.450  1.7347  0.0921 -1.2103
  126OSM   H11G13440   3.734   3.125   4.429  0.9476 -0.4471 -0.5862
  126OSM   C12F13441   3.585   3.257   4.365  0.7188 -0.3259  0.4986
  126OSM   H12F13442   3.555   3.173   4.298  1.5869 -0.0338 -0.2741
  126OSM   H12G13443   3.573   3.358   4.321 -0.6616 -0.1431  1.2370
  126OSM   C13F13444   3.505   3.259   4.494  0.1359  0.1830 -0.0706
  126OSM   H13F13445   3.411   3.317   4.492 -1.1200 -1.7935 -0.5655
  126OSM   H13G13446   3.561   3.326   4.564 -3.5534  3.4559  0.0777
  126OSM   C14F13447   3.483   3.119   4.558 -0.4086  0.1826 -0.1224
  126OSM   H14F13448   3.423   3.125   4.651  1.6794 -0.0569  1.3081
  126OSM   H14G13449   3.581   3.068   4.571  0.0846  1.0637 -0.3187
  126OSM   C15F13450   3.398   3.022   4.474 -0.2284  0.0072  0.4269
  126OSM   H15F13451   3.418   3.038   4.366 -1.1335  1.9954  0.5249
  126OSM   H15G13452   3.291   3.052   4.473 -0.0637  0.7405 -1.8838
  126OSM   C16F13453   3.406   2.873   4.522  0.8209  0.5735 -0.5534
  126OSM   H16F13454   3.305   2.838   4.493  0.9887  2.4060 -3.8870
  126OSM   H16G13455   3.412   2.866   4.633  0.3527 -1.2104 -0.6033
  126OSM   C17F13456   3.512   2.790   4.449  0.6666  0.3245  0.8330
  126OSM   H17F13457   3.537   2.834   4.350  1.4402 -1.9693 -0.0463
  126OSM   H17G13458   3.461   2.693   4.428  0.3228  1.1133 -2.5730
  126OSM   C18F13459   3.638   2.752   4.525 -0.3634  0.2563  0.2796
  126OSM   H18F13460   3.696   2.845   4.540 -0.5402  0.5817 -0.9717
  126OSM   H18G13461   3.696   2.683   4.460 -1.6474 -1.2660  0.6759
  126OSM   H18H13462   3.621   2.709   4.626 -3.2498 -1.6637 -0.8614
  127OSM      N13463   2.506   5.372   1.934 -0.0175 -0.3344  0.4880
  127OSM    C1513464   2.631   5.447   1.947  0.4815 -0.3105  0.4473
  127OSM   H15A13465   2.631   5.522   2.026  2.5917 -1.4456  1.6170
  127OSM   H15B13466   2.641   5.503   1.855 -0.6402  1.1080  1.1351
  127OSM   H15C13467   2.720   5.393   1.976  0.4898  0.7143  2.5380
  127OSM    C1413468   2.413   5.445   1.851  0.1784  0.2983 -0.0794
  127OSM   H14A13469   2.370   5.540   1.883  0.2604 -0.0488  1.1069
  127OSM   H14B13470   2.332   5.385   1.813  0.8115 -0.8449  0.3416
  127OSM   H14C13471   2.468   5.467   1.761 -0.1010 -0.8545 -0.5450
  127OSM    C1313472   2.546   5.250   1.854  0.1561  0.3109  0.2892
  127OSM   H13A13473   2.607   5.183   1.913 -0.7885  0.0962  1.0535
  127OSM   H13B13474   2.583   5.268   1.754 -2.1850 -2.5950 -1.2646
  127OSM   H13C13475   2.457   5.195   1.828  0.1343  1.0788 -1.3525
  127OSM    C1213476   2.455   5.322   2.071 -0.1233 -0.6405  0.3953
  127OSM   H12A13477   2.525   5.242   2.095  1.1507  0.0630 -0.8050
  127OSM   H12B13478   2.353   5.293   2.055 -1.3266  3.8572 -1.5741
  127OSM    C1113479   2.440   5.422   2.179 -0.0879  0.4078  0.6939
  127OSM   H11A13480   2.534   5.453   2.229 -0.6442 -0.0061  2.0228
  127OSM   H11B13481   2.386   5.368   2.260 -0.8860  0.1192 -0.0075
  127OSM      P13482   2.360   5.669   2.192  0.1173 -0.0360 -0.0268
  127OSM    O1313483   2.491   5.697   2.254 -0.4464  0.2904 -0.1561
  127OSM    O1413484   2.323   5.759   2.083 -0.0334  0.4146 -0.7129
  127OSM    O1113485   2.253   5.678   2.299  0.2740 -0.4521 -0.1156
  127OSM    O1213486   2.360   5.529   2.128  0.0846  0.4010 -0.0309
  127OSM    C1S13487   2.180   5.578   2.363  0.1728  0.6256  0.7368
  127OSM    H1S13488   2.186   5.483   2.307 -1.7940  0.1797  1.1970
  127OSM    H1T13489   2.073   5.608   2.357 -0.3749 -1.4277 -0.5905
  127OSM     NF13490   2.134   5.467   2.573 -0.6619 -0.6838  0.2970
  127OSM    HNF13491   2.070   5.505   2.639 -1.1390 -0.8145 -0.0821
  127OSM    C2S13492   2.233   5.557   2.509  0.1911 -0.1087 -0.6626
  127OSM    H2S13493   2.332   5.506   2.513 -0.1301 -0.6500  1.0280
  127OSM    C3S13494   2.251   5.696   2.584  0.6561  0.7218 -0.0015
  127OSM    H3S13495   2.154   5.750   2.582  0.8966  1.1518 -0.2336
  127OSM     O313496   2.342   5.788   2.522 -0.7191 -0.5699 -0.2718
  127OSM    HO313497   2.348   5.754   2.433 -2.4441  1.7095 -1.3445
  127OSM    C4S13498   2.288   5.663   2.727  0.0832 -0.3136  0.0338
  127OSM    H4S13499   2.203   5.634   2.792 -0.2514  1.5876  0.4983
  127OSM    C5S13500   2.412   5.643   2.761 -0.3844  0.1731 -0.2686
  127OSM    H5S13501   2.490   5.669   2.687  1.7957  1.0029  2.1689
  127OSM    C6S13502   2.478   5.613   2.897  0.0095  0.3830  0.0393
  127OSM    H6S13503   2.566   5.681   2.905  1.4078 -1.3295 -0.1254
  127OSM    H6T13504   2.505   5.505   2.896  1.6481  0.7489  1.0397
  127OSM    C7S13505   2.386   5.627   3.022  0.4850 -0.4600 -0.1047
  127OSM    H7S13506   2.317   5.540   3.029  2.7200 -2.2580  1.2791
  127OSM    H7T13507   2.331   5.723   3.016 -0.0093 -0.6489  1.0778
  127OSM    C8S13508   2.469   5.621   3.145 -0.0512 -0.7840 -0.0629
  127OSM    H8S13509   2.556   5.690   3.144 -0.5437 -0.1022  1.1569
  127OSM    H8T13510   2.515   5.520   3.149 -0.3927 -1.0410 -1.7715
  127OSM    C9S13511   2.394   5.643   3.277 -0.6434  0.0398 -0.1092
  127OSM    H9S13512   2.308   5.573   3.279 -0.5178 -0.0941  1.1617
  127OSM    H9T13513   2.346   5.743   3.276 -2.7182 -0.9016 -0.5249
  127OSM   C10S13514   2.488   5.608   3.394  0.0020 -0.4865  0.3455
  127OSM   H10S13515   2.573   5.679   3.385  0.2603 -0.6645  1.2627
  127OSM   H10T13516   2.537   5.509   3.379  0.6193 -0.4592  2.0177
  127OSM   C11S13517   2.406   5.623   3.524 -0.2676 -0.3194  0.1761
  127OSM   H11S13518   2.333   5.540   3.519 -0.6582  0.0364 -0.1445
  127OSM   H11T13519   2.336   5.708   3.512 -2.3186 -2.2217 -3.3011
  127OSM   C12S13520   2.488   5.625   3.657  0.4024 -0.3205 -0.4093
  127OSM   H12S13521   2.410   5.655   3.729  1.9455  1.3108  0.6521
  127OSM   H12T13522   2.566   5.703   3.648  1.3205 -1.2499 -0.8393
  127OSM   C13S13523   2.572   5.494   3.691 -0.3456  0.1474 -0.0113
  127OSM   H13S13524   2.636   5.519   3.779 -1.2130  2.9140 -0.0766
  127OSM   H13T13525   2.646   5.469   3.612 -0.1476  0.0457  0.2048
  127OSM   C14S13526   2.488   5.371   3.732 -0.6888  0.7942 -0.7063
  127OSM   H14S13527   2.546   5.287   3.776 -2.7511 -0.4829 -0.2875
  127OSM   H14T13528   2.447   5.327   3.639  2.0163  0.7610 -1.9639
  127OSM   C15S13529   2.388   5.406   3.837  0.4279  0.3773 -1.0652
  127OSM   H15S13530   2.334   5.313   3.865  3.0722 -1.1918 -0.8347
  127OSM   H15T13531   2.311   5.472   3.792 -1.0531 -0.5849 -0.0488
  127OSM   C16S13532   2.440   5.477   3.964 -0.3664 -0.6618  0.6619
  127OSM   H16S13533   2.354   5.507   4.028 -0.8549 -0.6144 -0.0096
  127OSM   H16T13534   2.480   5.576   3.933 -1.4156  0.2551  2.0828
  127OSM   C17S13535   2.530   5.393   4.057  0.4451  0.3829  0.3114
  127OSM   H17S13536   2.624   5.384   3.998 -0.4943 -1.2966 -0.9954
  127OSM   H17T13537   2.485   5.299   4.094 -0.0770  0.8152  0.8077
  127OSM   C18S13538   2.577   5.472   4.187  0.0835  0.1151  0.1184
  127OSM   H18S13539   2.665   5.420   4.231  1.1129  0.8366 -1.0503
  127OSM   H18T13540   2.496   5.479   4.264  0.2230 -2.2536  0.5810
  127OSM   H18U13541   2.614   5.571   4.154 -1.6408  0.4069 -1.0731
  127OSM    C1F13542   2.119   5.338   2.533  0.4108  0.2571 -0.0079
  127OSM     OF13543   2.194   5.290   2.454  1.0721  0.0093  0.2056
  127OSM    C2F13544   2.011   5.251   2.599  0.0293 -0.6482 -0.2675
  127OSM    H2F13545   1.930   5.242   2.523 -1.1041 -0.7442  0.9160
  127OSM    H2G13546   1.980   5.311   2.687  2.3096  0.3009 -0.0446
  127OSM    C3F13547   2.049   5.111   2.654 -0.2720 -0.5023  0.2682
  127OSM    H3F13548   2.058   5.042   2.567  0.6186 -0.3187  0.2020
  127OSM    H3G13549   1.961   5.082   2.715 -1.3391  0.4105 -0.7859
  127OSM    C4F13550   2.186   5.093   2.724 -0.0958 -0.0979  0.6959
  127OSM    H4F13551   2.275   5.106   2.660  0.4016 -0.3555  1.3207
  127OSM    H4G13552   2.194   4.985   2.749  1.2578  0.1251  1.3131
  127OSM    C5F13553   2.204   5.173   2.851 -0.3688 -0.1826  0.5129
  127OSM    H5F13554   2.134   5.139   2.930 -1.6563  3.3979  1.1272
  127OSM    H5G13555   2.188   5.281   2.828 -0.1244 -0.5944 -1.8695
  127OSM    C6F13556   2.351   5.156   2.903 -0.4711  0.7319 -0.0804
  127OSM    H6F13557   2.429   5.194   2.833  1.4411  0.3840  1.7353
  127OSM    H6G13558   2.373   5.049   2.922  0.1291  1.3713  3.5538
  127OSM    C7F13559   2.377   5.228   3.039 -0.1251 -0.1732  0.5682
  127OSM    H7F13560   2.305   5.168   3.098 -0.7138  0.2711  0.3129
  127OSM    H7G13561   2.355   5.337   3.038 -0.8953 -0.3214  0.8548
  127OSM    C8F13562   2.523   5.211   3.082 -0.0224  0.5010 -0.1110
  127OSM    H8F13563   2.586   5.257   3.002 -1.0449  0.2776 -1.0745
  127OSM    H8G13564   2.544   5.103   3.065  0.1869  0.4950  0.1850
  127OSM    C9F13565   2.553   5.248   3.223  0.7483  0.4751  0.0413
  127OSM    H9F13566   2.598   5.347   3.235  1.6961 -0.1496  2.0691
  127OSM   C10F13567   2.521   5.170   3.328  0.3542 -0.4154  0.2471
  127OSM   H10F13568   2.546   5.208   3.428 -1.0391 -1.3126  0.9705
  127OSM   C11F13569   2.452   5.039   3.316  0.2420 -0.6027 -0.1481
  127OSM   H11F13570   2.493   4.979   3.231 -0.3754 -0.2867 -0.6770
  127OSM   H11G13571   2.343   5.055   3.301  0.3872  1.8101  0.9397
  127OSM   C12F13572   2.470   4.958   3.445  0.5137 -0.4157  0.2335
  127OSM   H12F13573   2.576   4.944   3.472  0.8492 -0.4180 -1.0240
  127OSM   H12G13574   2.419   4.859   3.436 -1.5503  0.6373 -0.4364
  127OSM   C13F13575   2.383   5.020   3.555  0.1793 -0.1931 -0.4475
  127OSM   H13F13576   2.282   5.048   3.516  0.3259  2.7534  1.0786
  127OSM   H13G13577   2.435   5.111   3.590 -0.8876  0.2309  0.0741
  127OSM   C14F13578   2.358   4.932   3.675 -0.4468  0.5610  0.1847
  127OSM   H14F13579   2.333   4.827   3.645  2.5233 -0.2730  0.3874
  127OSM   H14G13580   2.277   4.960   3.746 -1.1953  2.3458 -1.2937
  127OSM   C15F13581   2.493   4.919   3.757  0.6659  0.0116  0.6347
  127OSM   H15F13582   2.536   5.021   3.756  0.1090  0.3149 -2.1561
  127OSM   H15G13583   2.572   4.859   3.706  0.4463 -2.3172  2.8555
  127OSM   C16F13584   2.486   4.866   3.900  0.4238 -0.0506 -0.1023
  127OSM   H16F13585   2.457   4.759   3.888 -0.6316  0.1143  0.7686
  127OSM   H16G13586   2.400   4.919   3.947  1.4822  2.0573 -0.4410
  127OSM   C17F13587   2.611   4.890   3.985 -0.6743 -0.2560 -0.2980
  127OSM   H17F13588   2.699   4.922   3.926 -0.6182  0.5686  0.2120
  127OSM   H17G13589   2.638   4.793   4.031  2.5691  0.2835 -0.7936
  127OSM   C18F13590   2.580   4.984   4.108 -0.0218  0.0012  0.0046
  127OSM   H18F13591   2.496   4.950   4.172  0.0329 -0.9741 -0.4294
  127OSM   H18G13592   2.535   5.080   4.074 -1.1399 -0.6524 -0.4075
  127OSM   H18H13593   2.672   5.015   4.163 -0.6073  1.3389  0.2732
  128OSM      N13594   2.840   4.109   2.365 -0.3033  0.0048  0.3386
  128OSM    C1513595   2.802   4.224   2.454  0.2689 -0.8722  1.1058
  128OSM   H15A13596   2.887   4.289   2.469  0.0255 -0.2749  0.0489
  128OSM   H15B13597   2.778   4.194   2.555  1.2580 -0.3376  1.5145
  128OSM   H15C13598   2.724   4.284   2.410 -0.7540 -2.8975  0.0307
  128OSM    C1413599   2.726   4.032   2.332  0.1737  0.2051 -0.3213
  128OSM   H14A13600   2.739   3.943   2.272 -1.7784 -0.8911  0.7758
  128OSM   H14B13601   2.663   4.103   2.280  2.5065  3.3167  0.7737
  128OSM   H14C13602   2.672   4.005   2.421  2.1693  1.2370  1.2937
  128OSM    C1313603   2.892   4.154   2.231  0.0898 -0.2343 -0.3915
  128OSM   H13A13604   2.845   4.245   2.197  1.0049  1.3837  2.3546
  128OSM   H13B13605   2.882   4.069   2.164 -0.1408 -1.3013  0.9476
  128OSM   H13C13606   2.997   4.176   2.232 -0.3177  1.9701  1.0633
  128OSM    C1213607   2.941   4.023   2.437 -0.3312 -0.2980 -0.1882
  128OSM   H12A13608   2.898   3.969   2.520  1.0919 -1.7058 -0.3138
  128OSM   H12B13609   3.011   4.087   2.488  0.6855 -1.4924 -0.0411
  128OSM    C1113610   3.029   3.918   2.349 -0.4146 -1.0643 -0.2141
  128OSM   H11A13611   3.118   3.889   2.408 -1.1304  1.0270  2.0669
  128OSM   H11B13612   3.084   3.971   2.268  1.1650 -2.4578 -0.0971
  128OSM      P13613   2.905   3.682   2.397  0.3547 -0.2999  0.1059
  128OSM    O1313614   2.776   3.647   2.339  0.1497 -0.3376  1.0475
  128OSM    O1413615   3.009   3.577   2.410  0.1316  0.0806  0.3728
  128OSM    O1113616   2.873   3.738   2.544 -0.1764 -0.0959 -0.4276
  128OSM    O1213617   2.951   3.804   2.311  0.0276 -0.0475  0.1178
  128OSM    C1S13618   2.812   3.646   2.638  0.1167 -0.2735  0.2867
  128OSM    H1S13619   2.794   3.546   2.593 -0.3859  0.9510 -2.4222
  128OSM    H1T13620   2.713   3.690   2.663  0.8645  0.3731  2.3221
  128OSM     NF13621   2.808   3.565   2.867 -0.8222  0.0442  0.0100
  128OSM    HNF13622   2.774   3.632   2.933  0.6956  0.3378  0.5463
  128OSM    C2S13623   2.897   3.624   2.767 -0.6931 -0.1368 -0.2072
  128OSM    H2S13624   2.985   3.557   2.756  0.1125  0.6735  1.0671
  128OSM    C3S13625   2.962   3.759   2.813 -0.5363 -0.5364 -1.2572
  128OSM    H3S13626   2.875   3.826   2.828 -0.3376 -0.4118 -0.6241
  128OSM     O313627   3.045   3.831   2.721 -0.2256 -0.0907  0.6464
  128OSM    HO313628   3.001   3.815   2.638  0.4517 -0.4358  0.3476
  128OSM    C4S13629   3.029   3.752   2.949 -0.3406  0.0688 -0.2479
  128OSM    H4S13630   3.114   3.686   2.971 -2.7167 -2.2086  2.9243
  128OSM    C5S13631   2.985   3.822   3.055  0.0944  0.1538 -0.5541
  128OSM    H5S13632   2.903   3.893   3.032  1.7292  2.7794  1.1822
  128OSM    C6S13633   3.040   3.831   3.197  0.5687  0.2120 -0.6894
  128OSM    H6S13634   2.957   3.808   3.268  0.8712  1.3329  0.0581
  128OSM    H6T13635   3.084   3.931   3.217  3.3448 -1.5135  3.1487
  128OSM    C7S13636   3.154   3.746   3.227  0.2630  0.2083 -0.3244
  128OSM    H7S13637   3.212   3.785   3.313 -0.7844 -0.2411  0.5984
  128OSM    H7T13638   3.225   3.760   3.143 -1.3290  0.8882 -1.6143
  128OSM    C8S13639   3.139   3.595   3.266  0.1812 -0.4444  0.3371
  128OSM    H8S13640   3.239   3.566   3.305  0.2002  1.6912  2.0991
  128OSM    H8T13641   3.119   3.525   3.183  1.0884 -2.4018  1.6894
  128OSM    C9S13642   3.048   3.568   3.385  1.3985 -0.8745 -0.3736
  128OSM    H9S13643   2.941   3.571   3.356  1.4944  0.1205 -0.6903
  128OSM    H9T13644   3.073   3.651   3.454 -0.7453 -0.7991  0.3596
  128OSM   C10S13645   3.083   3.437   3.454  0.7016  0.3585 -0.0763
  128OSM   H10S13646   3.188   3.426   3.488  0.7166  1.2250  0.1830
  128OSM   H10T13647   3.067   3.361   3.374  1.5196 -0.5411  0.5918
  128OSM   C11S13648   2.997   3.384   3.567 -0.4135  0.1191  0.2482
  128OSM   H11S13649   3.050   3.300   3.616 -3.0391 -0.5092  2.2426
  128OSM   H11T13650   2.904   3.332   3.535  1.3188 -1.3915 -2.6403
  128OSM   C12S13651   2.975   3.491   3.670 -0.1659  0.2493  0.5001
  128OSM   H12S13652   2.885   3.553   3.649 -0.8205 -0.1212  2.0897
  128OSM   H12T13653   3.074   3.540   3.678 -0.4962  1.4704 -1.8066
  128OSM   C13S13654   2.959   3.428   3.813  0.1326 -0.4231  1.0995
  128OSM   H13S13655   3.055   3.390   3.854  0.0687 -2.1443 -0.2523
  128OSM   H13T13656   2.885   3.345   3.812 -0.8341  0.3952  1.8993
  128OSM   C14S13657   2.922   3.536   3.917 -0.0514 -0.1694  0.0302
  128OSM   H14S13658   2.840   3.603   3.882 -0.4632 -0.4147  0.5030
  128OSM   H14T13659   3.010   3.601   3.935 -0.6026  0.1798  1.7233
  128OSM   C15S13660   2.859   3.477   4.042 -0.0671 -0.2241 -0.4198
  128OSM   H15S13661   2.916   3.390   4.080  0.6987 -0.0221 -1.0838
  128OSM   H15T13662   2.768   3.422   4.012 -1.4377  0.6813  1.8138
  128OSM   C16S13663   2.835   3.568   4.160  0.5052  0.0663 -0.9382
  128OSM   H16S13664   2.931   3.582   4.214  0.1358  1.1287 -0.5205
  128OSM   H16T13665   2.775   3.514   4.236 -0.3650  1.9781 -0.1972
  128OSM   C17S13666   2.775   3.702   4.138  0.0624 -0.0185 -0.4209
  128OSM   H17S13667   2.681   3.687   4.079  0.4771 -1.2144 -0.8016
  128OSM   H17T13668   2.831   3.768   4.068  0.0030  2.0215  1.3530
  128OSM   C18S13669   2.742   3.783   4.261  0.5759  0.1590  0.0731
  128OSM   H18S13670   2.685   3.870   4.223 -0.7875 -1.7262 -2.4254
  128OSM   H18T13671   2.839   3.817   4.304  0.6177 -1.7298  1.6259
  128OSM   H18U13672   2.686   3.734   4.343 -0.6525  1.3322 -0.0413
  128OSM    C1F13673   2.749   3.446   2.864  0.1164 -0.0593  0.4264
  128OSM     OF13674   2.760   3.365   2.768 -0.2087  0.4085  0.0514
  128OSM    C2F13675   2.645   3.424   2.974 -0.5824  0.0415  0.0859
  128OSM    H2F13676   2.582   3.338   2.944  2.2611 -2.1735 -0.0178
  128OSM    H2G13677   2.589   3.519   2.966  1.2475  1.1060 -1.0112
  128OSM    C3F13678   2.699   3.398   3.116  0.4883 -0.2265  0.5007
  128OSM    H3F13679   2.767   3.476   3.157 -0.8258  0.3019  1.7583
  128OSM    H3G13680   2.773   3.317   3.101  1.0456  0.5560 -1.3490
  128OSM    C4F13681   2.604   3.351   3.224  0.1102 -0.3040 -0.4368
  128OSM    H4F13682   2.596   3.240   3.233 -0.0050 -0.1846  1.3309
  128OSM    H4G13683   2.503   3.396   3.212  0.0028 -0.6090 -0.6981
  128OSM    C5F13684   2.650   3.397   3.363 -0.8682 -0.3232  0.0256
  128OSM    H5F13685   2.696   3.498   3.354  1.7435 -1.4849 -0.8463
  128OSM    H5G13686   2.734   3.329   3.388 -1.9368 -1.1191  1.5975
  128OSM    C6F13687   2.541   3.398   3.466  0.4834 -0.9826 -0.1503
  128OSM    H6F13688   2.491   3.299   3.471  0.5795 -1.0023  0.5381
  128OSM    H6G13689   2.471   3.477   3.433  2.7088  1.3847  0.4956
  128OSM    C7F13690   2.585   3.444   3.605 -0.0001  0.3824  0.3713
  128OSM    H7F13691   2.652   3.532   3.607 -0.1991  0.5680 -0.6544
  128OSM    H7G13692   2.642   3.364   3.656 -0.1442  0.8982  1.3813
  128OSM    C8F13693   2.464   3.469   3.697 -0.6413 -0.0926 -0.7612
  128OSM    H8F13694   2.424   3.572   3.683 -0.6709 -0.2724 -2.0809
  128OSM    H8G13695   2.520   3.470   3.793 -0.6536 -1.0371 -0.7354
  128OSM    C9F13696   2.360   3.366   3.707  0.3281 -0.0342  0.4089
  128OSM    H9F13697   2.312   3.349   3.610  0.0105  2.9194 -0.0254
  128OSM   C10F13698   2.322   3.289   3.815 -0.0228 -0.8636  0.2426
  128OSM   H10F13699   2.226   3.236   3.812 -0.6102  0.1655  0.1424
  128OSM   C11F13700   2.383   3.313   3.953 -0.2913  0.5875 -0.2580
  128OSM   H11F13701   2.429   3.413   3.970  2.9025 -1.1373  2.4868
  128OSM   H11G13702   2.473   3.250   3.968 -1.0336 -0.0669  1.7900
  128OSM   C12F13703   2.273   3.297   4.063 -0.5872 -0.0397 -0.5083
  128OSM   H12F13704   2.233   3.194   4.074  1.4160 -0.8964 -0.7726
  128OSM   H12G13705   2.187   3.362   4.038 -1.8783 -1.8640 -1.0405
  128OSM   C13F13706   2.334   3.321   4.198  0.4566 -0.2943  0.7224
  128OSM   H13F13707   2.433   3.270   4.198  0.0895 -1.0381 -0.2986
  128OSM   H13G13708   2.269   3.266   4.269 -1.5343  1.5500  0.4543
  128OSM   C14F13709   2.348   3.465   4.241 -0.4030 -0.3656 -0.6276
  128OSM   H14F13710   2.250   3.517   4.243 -1.2096 -1.8424  0.1868
  128OSM   H14G13711   2.418   3.517   4.172  0.5485 -0.0266  0.5534
  128OSM   C15F13712   2.409   3.464   4.381  0.8632 -0.5347  0.3917
  128OSM   H15F13713   2.517   3.439   4.371  1.1208 -0.4436  2.3868
  128OSM   H15G13714   2.346   3.392   4.437  0.0656 -0.4001 -0.3250
  128OSM   C16F13715   2.402   3.603   4.453  0.0448 -0.3354 -0.5717
  128OSM   H16F13716   2.294   3.623   4.463  0.0583 -0.4367 -0.2187
  128OSM   H16G13717   2.454   3.688   4.403  2.5929 -0.7249  1.1806
  128OSM   C17F13718   2.443   3.591   4.597  0.4040  0.3913 -0.5672
  128OSM   H17F13719   2.554   3.601   4.604  0.4705 -0.1950 -0.6957
  128OSM   H17G13720   2.423   3.484   4.622  3.1815  0.1077  0.8602
  128OSM   C18F13721   2.372   3.694   4.686  0.1850  0.6094  0.0429
  128OSM   H18F13722   2.263   3.701   4.668  0.4742  1.0830 -1.7136
  128OSM   H18G13723   2.423   3.792   4.678  2.8239 -0.8211 -2.4071
  128OSM   H18H13724   2.377   3.665   4.794 -2.5704  1.9153  0.5947
  129OSM      N13725   5.646   0.693   2.264  0.3029 -0.5401 -0.5487
  129OSM    C1513726   5.574   0.641   2.142  0.4582 -0.6369  0.4766
  129OSM   H15A13727   5.532   0.543   2.161 -1.7317  0.4674  1.7228
  129OSM   H15B13728   5.638   0.640   2.055  1.7477 -0.7686  1.3997
  129OSM   H15C13729   5.491   0.705   2.115  1.6213  0.5985 -0.3128
  129OSM    C1413730   5.785   0.631   2.279 -0.3372 -0.4682 -0.3901
  129OSM   H14A13731   5.836   0.691   2.205 -0.9703  1.5879  0.7558
  129OSM   H14B13732   5.786   0.526   2.255  2.7753  0.0103 -3.0648
  129OSM   H14C13733   5.843   0.658   2.366 -3.0117  2.4211  0.6777
  129OSM    C1313734   5.666   0.840   2.260 -0.6677 -1.1262  0.4155
  129OSM   H13A13735   5.682   0.875   2.360 -0.0238 -2.3851  0.7764
  129OSM   H13B13736   5.574   0.886   2.226  0.2799  0.3220 -0.2470
  129OSM   H13C13737   5.742   0.867   2.188 -0.8717 -2.3344 -0.2995
  129OSM    C1213738   5.564   0.652   2.383 -0.2872 -0.2254  0.6858
  129OSM   H12A13739   5.550   0.546   2.399 -1.0452  0.2593  4.0159
  129OSM   H12B13740   5.464   0.691   2.375 -0.5391 -1.1842 -1.8053
  129OSM    C1113741   5.627   0.693   2.520  0.3101 -0.5192  0.0213
  129OSM   H11A13742   5.731   0.654   2.527  1.1641  1.6839  0.9283
  129OSM   H11B13743   5.569   0.640   2.598 -0.5739 -0.6653 -0.7221
  129OSM      P13744   5.489   0.903   2.581  0.0269 -0.1158  0.3167
  129OSM    O1313745   5.513   1.044   2.571  0.8947 -0.8367 -0.4918
  129OSM    O1413746   5.380   0.853   2.495  0.3403 -0.2706  0.8144
  129OSM    O1113747   5.481   0.865   2.733  0.1764  0.4952  0.2892
  129OSM    O1213748   5.628   0.836   2.534  0.1699  0.1126  0.5260
  129OSM    C1S13749   5.512   0.958   2.834 -0.4398 -0.7086 -0.4005
  129OSM    H1S13750   5.490   1.065   2.814  0.9811 -0.4281 -0.5804
  129OSM    H1T13751   5.622   0.956   2.850 -0.3075 -1.5912 -1.3152
  129OSM     NF13752   5.456   1.020   3.060 -0.2784  0.1975 -0.0899
  129OSM    HNF13753   5.539   1.024   3.115 -0.0424 -2.0678 -0.1957
  129OSM    C2S13754   5.448   0.910   2.970  0.8032 -0.1825 -0.8310
  129OSM    H2S13755   5.339   0.894   2.956  0.2226  1.2765  1.5056
  129OSM    C3S13756   5.515   0.779   3.022 -0.3598 -0.6039  0.3752
  129OSM    H3S13757   5.622   0.802   3.042 -0.4587 -0.4633  0.7544
  129OSM     O313758   5.517   0.678   2.919 -0.2991 -0.1810  0.0474
  129OSM    HO313759   5.514   0.728   2.837  0.0205 -0.3990 -0.1011
  129OSM    C4S13760   5.466   0.739   3.165  0.4105 -0.4780  0.4766
  129OSM    H4S13761   5.531   0.791   3.237  1.0698  1.6175 -1.5544
  129OSM    C5S13762   5.361   0.668   3.202  0.6190  0.2103 -0.6729
  129OSM    H5S13763   5.287   0.636   3.128 -0.4624  0.5303  0.2445
  129OSM    C6S13764   5.323   0.647   3.346  0.2314 -0.4194  0.9190
  129OSM    H6S13765   5.285   0.544   3.364 -0.9747 -0.1744 -0.1760
  129OSM    H6T13766   5.239   0.713   3.376  0.2673  1.7608 -3.1884
  129OSM    C7S13767   5.442   0.666   3.442 -0.1913 -0.0185 -0.7233
  129OSM    H7S13768   5.496   0.764   3.441  1.1797 -0.6805  1.3561
  129OSM    H7T13769   5.520   0.589   3.428  0.9960  0.7097  1.3839
  129OSM    C8S13770   5.396   0.675   3.591 -0.1680 -0.0281  0.1078
  129OSM    H8S13771   5.313   0.602   3.601 -0.0794 -0.4732 -1.9941
  129OSM    H8T13772   5.355   0.778   3.599  0.4008  0.1440  0.9426
  129OSM    C9S13773   5.502   0.649   3.704  0.2384 -0.2465 -0.6235
  129OSM    H9S13774   5.592   0.709   3.677 -0.1699  0.6265 -0.0903
  129OSM    H9T13775   5.532   0.542   3.716  1.5763  0.0451 -1.1758
  129OSM   C10S13776   5.450   0.713   3.839 -0.3552  0.4331 -0.1393
  129OSM   H10S13777   5.354   0.662   3.865  0.3771 -1.0715 -0.2642
  129OSM   H10T13778   5.434   0.822   3.836  0.4052  0.5271 -1.5210
  129OSM   C11S13779   5.550   0.707   3.958  0.4360  0.5628 -0.2289
  129OSM   H11S13780   5.632   0.780   3.939 -0.4100  1.4279 -0.6110
  129OSM   H11T13781   5.593   0.605   3.950 -3.2908 -1.3938  2.0369
  129OSM   C12S13782   5.480   0.725   4.091  0.0112  0.0177 -0.0139
  129OSM   H12S13783   5.396   0.652   4.088  1.7656 -2.1610  1.3022
  129OSM   H12T13784   5.431   0.823   4.108 -0.4377 -0.3692  0.9703
  129OSM   C13S13785   5.577   0.702   4.207  0.3421  0.0357  0.0557
  129OSM   H13S13786   5.584   0.792   4.271 -1.8315  0.9692 -0.9046
  129OSM   H13T13787   5.680   0.676   4.176 -0.1374 -2.9298  0.6353
  129OSM   C14S13788   5.538   0.586   4.299 -0.6932  0.0169  0.1028
  129OSM   H14S13789   5.529   0.490   4.243 -0.1361 -0.7076  1.2157
  129OSM   H14T13790   5.432   0.609   4.323 -0.5334  1.5871 -0.5772
  129OSM   C15S13791   5.620   0.570   4.427 -0.1960  0.4621 -0.0849
  129OSM   H15S13792   5.714   0.516   4.402  0.3653  1.4909 -0.2503
  129OSM   H15T13793   5.557   0.510   4.495  2.0202 -1.0263  0.7813
  129OSM   C16S13794   5.649   0.701   4.501 -0.2093 -0.1871  0.1272
  129OSM   H16S13795   5.710   0.770   4.439 -0.9938 -1.3133 -1.9644
  129OSM   H16T13796   5.714   0.680   4.588  1.6473  0.1774 -1.1286
  129OSM   C17S13797   5.529   0.787   4.542  0.0944 -0.4589  0.5277
  129OSM   H17S13798   5.475   0.731   4.620 -1.9776 -2.0825 -1.8945
  129OSM   H17T13799   5.470   0.802   4.449  0.5044 -1.0487  0.1661
  129OSM   C18S13800   5.562   0.926   4.595 -0.4200 -0.1476  0.2360
  129OSM   H18S13801   5.618   0.908   4.690 -0.1517  1.0696  0.3145
  129OSM   H18T13802   5.472   0.978   4.635 -1.8041 -1.5099 -0.9704
  129OSM   H18U13803   5.624   0.987   4.527  0.6676 -0.0736  1.2650
  129OSM    C1F13804   5.387   1.137   3.049  0.0758 -0.4617 -0.0304
  129OSM     OF13805   5.290   1.144   2.977 -0.1437  0.0214  0.0757
  129OSM    C2F13806   5.454   1.249   3.128  0.8368  0.6034 -0.2177
  129OSM    H2F13807   5.539   1.288   3.069  0.7192  2.3163  0.6826
  129OSM    H2G13808   5.483   1.208   3.227 -2.4128  0.9771  1.0271
  129OSM    C3F13809   5.357   1.369   3.151  0.4872  0.3659 -0.0158
  129OSM    H3F13810   5.260   1.320   3.175  1.2537 -1.6537 -0.7972
  129OSM    H3G13811   5.348   1.428   3.057  3.2079  0.1772 -0.4719
  129OSM    C4F13812   5.403   1.465   3.256  0.9379  0.0572 -0.3412
  129OSM    H4F13813   5.333   1.550   3.270 -0.7202 -1.6307  2.6677
  129OSM    H4G13814   5.498   1.514   3.223  1.7978 -1.5155 -0.3094
  129OSM    C5F13815   5.422   1.395   3.391 -0.0951 -0.0789  0.6040
  129OSM    H5F13816   5.524   1.355   3.403  0.0047 -0.6501 -1.6823
  129OSM    H5G13817   5.341   1.319   3.397  0.1049 -0.3902 -0.5075
  129OSM    C6F13818   5.400   1.494   3.511 -0.2940 -0.3293  0.8758
  129OSM    H6F13819   5.309   1.550   3.482  0.8948  0.3432 -1.8869
  129OSM    H6G13820   5.484   1.567   3.511 -1.2923  0.8592  1.6054
  129OSM    C7F13821   5.396   1.434   3.653  0.8407 -0.3448  0.7971
  129OSM    H7F13822   5.496   1.387   3.667 -0.2179 -2.0291  3.7060
  129OSM    H7G13823   5.310   1.364   3.664  0.4773  0.2779  2.1998
  129OSM    C8F13824   5.392   1.546   3.753  0.7064  0.2806 -0.8403
  129OSM    H8F13825   5.295   1.599   3.744 -0.7250 -2.2847 -1.6866
  129OSM    H8G13826   5.478   1.614   3.736  1.6718 -0.6205  0.2481
  129OSM    C9F13827   5.419   1.488   3.896  1.1824  1.3800 -0.6227
  129OSM    H9F13828   5.458   1.386   3.885 -1.2113 -0.3099  4.0285
  129OSM   C10F13829   5.411   1.547   4.020 -0.5294 -0.4528  0.4977
  129OSM   H10F13830   5.435   1.488   4.110 -0.6486  0.0503  0.8635
  129OSM   C11F13831   5.369   1.690   4.050 -0.0701 -0.0172  0.2918
  129OSM   H11F13832   5.267   1.713   4.012  0.0965  0.6597  0.2384
  129OSM   H11G13833   5.437   1.756   3.993 -0.2377  0.8096  1.0239
  129OSM   C12F13834   5.385   1.732   4.199 -0.1057 -0.6410 -0.2622
  129OSM   H12F13835   5.377   1.842   4.208 -1.8960 -0.8349  1.0604
  129OSM   H12G13836   5.478   1.686   4.238 -0.0601 -0.5309 -0.2416
  129OSM   C13F13837   5.270   1.694   4.289  0.0825  0.6678 -1.2520
  129OSM   H13F13838   5.242   1.588   4.268  2.2056 -0.6086  1.7309
  129OSM   H13G13839   5.177   1.751   4.265 -2.8260 -2.0562  2.2984
  129OSM   C14F13840   5.307   1.710   4.433  0.6111  0.3367  0.3735
  129OSM   H14F13841   5.212   1.715   4.492  0.1362  0.6091 -0.3986
  129OSM   H14G13842   5.351   1.810   4.447 -1.9221  1.6206 -0.2725
  129OSM   C15F13843   5.382   1.595   4.495 -0.5152  0.1979  0.3581
  129OSM   H15F13844   5.381   1.614   4.605  0.5470 -1.6913  0.7331
  129OSM   H15G13845   5.488   1.601   4.461 -0.5146  0.3662  0.3846
  129OSM   C16F13846   5.324   1.459   4.459  0.7189  0.4421  0.4991
  129OSM   H16F13847   5.337   1.446   4.349  1.5923  0.9986  0.5194
  129OSM   H16G13848   5.215   1.454   4.478  0.4324  0.3972 -0.9930
  129OSM   C17F13849   5.418   1.348   4.504 -0.3329  0.7754  0.5070
  129OSM   H17F13850   5.511   1.358   4.443 -0.6588  0.8308  0.0160
  129OSM   H17G13851   5.378   1.249   4.472 -0.0069 -0.3972  3.3912
  129OSM   C18F13852   5.450   1.326   4.658 -0.3957 -1.0738  0.4381
  129OSM   H18F13853   5.540   1.262   4.665 -0.0957 -0.8635 -1.1355
  129OSM   H18G13854   5.362   1.291   4.716  1.8924 -3.9479  2.4652
  129OSM   H18H13855   5.469   1.425   4.707  1.3280 -1.8725  1.4642
  130OSM      N13856   4.814   5.587   2.425 -0.3348  0.1220 -0.0911
  130OSM    C1513857   4.696   5.514   2.386 -0.3705 -0.3775  0.6152
  130OSM   H15A13858   4.672   5.428   2.447 -2.2698  0.2910  0.8756
  130OSM   H15B13859   4.708   5.484   2.283  0.6557 -2.4927  1.2914
  130OSM   H15C13860   4.608   5.577   2.385 -0.1809 -0.0981  1.3022
  130OSM    C1413861   4.923   5.486   2.448  0.6072 -0.2904  0.2245
  130OSM   H14A13862   4.920   5.414   2.367 -0.2781 -0.6144  0.5380
  130OSM   H14B13863   4.910   5.434   2.542  3.8699 -0.3817  0.7689
  130OSM   H14C13864   5.021   5.530   2.458  0.6966 -0.5901  0.7146
  130OSM    C1313865   4.853   5.675   2.314  0.4886  0.8171  0.8216
  130OSM   H13A13866   4.867   5.620   2.222 -0.2482 -1.9988  2.3007
  130OSM   H13B13867   4.948   5.725   2.328  1.6114 -0.7626 -0.7462
  130OSM   H13C13868   4.783   5.755   2.291 -1.2186 -1.3410 -2.2058
  130OSM    C1213869   4.785   5.674   2.548 -0.1486 -0.3283 -0.3478
  130OSM   H12A13870   4.732   5.614   2.620  0.3866 -1.2709 -0.7196
  130OSM   H12B13871   4.715   5.748   2.513  0.7114  1.2450  1.0921
  130OSM    C1113872   4.906   5.741   2.617 -0.5642  0.2734  0.5233
  130OSM   H11A13873   4.994   5.673   2.614 -0.7557  0.0185  0.6653
  130OSM   H11B13874   4.896   5.768   2.725  1.9036 -0.0986  0.9147
  130OSM      P13875   4.871   5.997   2.541 -0.2668 -0.5370  0.0633
  130OSM    O1313876   4.947   6.090   2.454  0.1752 -0.4186 -0.3897
  130OSM    O1413877   4.734   5.964   2.493 -0.0992 -0.0851 -0.0157
  130OSM    O1113878   4.858   6.052   2.685 -0.3387 -0.1177  0.4541
  130OSM    O1213879   4.948   5.857   2.537  0.2127  0.3837  0.0219
  130OSM    C1S13880   4.971   6.058   2.779  0.1466  0.2221  0.5875
  130OSM    H1S13881   5.047   6.133   2.749 -1.1332  1.4915  0.4044
  130OSM    H1T13882   5.021   5.960   2.786 -1.3235 -0.5881  0.3142
  130OSM     NF13883   5.023   6.124   3.014  0.3573 -0.3628  0.3016
  130OSM    HNF13884   5.035   6.050   3.080 -0.6163 -0.6163  0.2179
  130OSM    C2S13885   4.915   6.096   2.918  1.2978  0.5885 -0.1767
  130OSM    H2S13886   4.855   6.187   2.898 -2.2996 -1.0828  2.0281
  130OSM    C3S13887   4.797   6.009   2.977 -0.1706  0.6576  1.0356
  130OSM    H3S13888   4.833   5.904   2.980 -0.2897  0.6183  1.1051
  130OSM     O313889   4.681   6.000   2.896 -0.0289  0.4244  0.3291
  130OSM    HO313890   4.696   6.032   2.807  1.1548 -0.3963  0.2091
  130OSM    C4S13891   4.765   6.058   3.112 -0.9481 -0.7132 -0.1700
  130OSM    H4S13892   4.838   6.018   3.184  1.9912  1.3485 -1.8040
  130OSM    C5S13893   4.689   6.160   3.154  0.4435 -0.6650 -0.5328
  130OSM    H5S13894   4.634   6.222   3.082  0.9770 -1.6068 -1.7880
  130OSM    C6S13895   4.668   6.205   3.297  0.0789 -0.2372 -0.7136
  130OSM    H6S13896   4.559   6.210   3.318  0.0764 -0.0925 -0.7646
  130OSM    H6T13897   4.702   6.307   3.322 -2.5980  1.0862 -2.0985
  130OSM    C7S13898   4.716   6.120   3.421  0.6718  0.0564  0.1847
  130OSM    H7S13899   4.827   6.126   3.420  0.6711  0.4350  1.3021
  130OSM    H7T13900   4.692   6.011   3.412 -0.4711  0.4000 -1.3662
  130OSM    C8S13901   4.652   6.166   3.556 -0.4780  0.0815  0.2761
  130OSM    H8S13902   4.551   6.209   3.542  0.2707  1.9313  0.2716
  130OSM    H8T13903   4.712   6.254   3.588 -0.7932 -0.1591  1.5646
  130OSM    C9S13904   4.658   6.059   3.660  0.4371  0.1146 -0.2890
  130OSM    H9S13905   4.764   6.028   3.678  0.5496  0.4076 -0.4322
  130OSM    H9T13906   4.600   5.972   3.623 -1.0376  0.6355  0.7475
  130OSM   C10S13907   4.601   6.119   3.791 -0.0759 -0.1265  0.0350
  130OSM   H10S13908   4.494   6.150   3.784 -0.3435 -1.3452 -2.3264
  130OSM   H10T13909   4.655   6.212   3.820 -0.6646  0.4902 -0.8016
  130OSM   C11S13910   4.606   6.029   3.914  0.1814 -0.3349  0.5704
  130OSM   H11S13911   4.711   6.007   3.945  0.8243 -1.0857 -1.8795
  130OSM   H11T13912   4.563   5.927   3.909 -1.6567  0.4047  0.7321
  130OSM   C12S13913   4.540   6.089   4.043  0.1279 -0.4617  0.7366
  130OSM   H12S13914   4.440   6.130   4.018 -0.2502 -3.0822 -2.8196
  130OSM   H12T13915   4.615   6.166   4.070  0.3578 -1.0144  1.7309
  130OSM   C13S13916   4.528   5.996   4.160  0.6355  0.2526  0.3407
  130OSM   H13S13917   4.630   5.962   4.187  0.6398  0.0032  0.0081
  130OSM   H13T13918   4.463   5.908   4.139  0.0733  0.7222  0.0918
  130OSM   C14S13919   4.468   6.084   4.278  0.5187  0.3717  0.2645
  130OSM   H14S13920   4.374   6.135   4.250 -1.0329 -0.7190  3.0412
  130OSM   H14T13921   4.537   6.168   4.300  0.7353  0.4593 -0.6975
  130OSM   C15S13922   4.451   6.016   4.415  0.5519  0.3759 -0.2655
  130OSM   H15S13923   4.550   5.984   4.456  0.8478  0.7707 -0.6594
  130OSM   H15T13924   4.387   5.926   4.413  1.0212 -0.0966  2.2097
  130OSM   C16S13925   4.411   6.113   4.523  0.9234 -0.4716  0.5625
  130OSM   H16S13926   4.351   6.195   4.478  2.0509 -0.5241 -1.1233
  130OSM   H16T13927   4.506   6.162   4.551  1.7146 -0.9967 -1.0522
  130OSM   C17S13928   4.340   6.042   4.643  0.3403  0.2751 -0.0243
  130OSM   H17S13929   4.419   5.991   4.703 -0.3133  0.6529  1.1855
  130OSM   H17T13930   4.258   5.974   4.611 -0.3660  0.2791  1.6852
  130OSM   C18S13931   4.285   6.161   4.727 -0.6002  0.1705  0.4225
  130OSM   H18S13932   4.259   6.117   4.826 -0.6786  0.8704  0.7215
  130OSM   H18T13933   4.199   6.206   4.675  1.5358  2.2693 -1.5283
  130OSM   H18U13934   4.366   6.237   4.738  0.3236 -0.8723  1.1546
  130OSM    C1F13935   5.107   6.229   3.010  0.2466  0.3773 -0.6330
  130OSM     OF13936   5.082   6.322   2.940 -0.0321 -0.4604 -0.1933
  130OSM    C2F13937   5.219   6.221   3.103 -0.5806  0.8845 -0.4122
  130OSM    H2F13938   5.271   6.127   3.072  1.3875  1.5451  0.7585
  130OSM    H2G13939   5.200   6.206   3.211 -0.5006  0.7397 -0.4175
  130OSM    C3F13940   5.314   6.343   3.092  0.3906  0.0550 -0.1984
  130OSM    H3F13941   5.271   6.441   3.119 -0.9120  0.0670 -2.1098
  130OSM    H3G13942   5.347   6.340   2.986 -1.4642  0.7582 -0.8371
  130OSM    C4F13943   5.436   6.332   3.179  0.0270  0.0480 -0.8199
  130OSM    H4F13944   5.507   6.411   3.145 -0.9606  0.5513 -1.7392
  130OSM    H4G13945   5.483   6.233   3.161  0.7591  0.2316 -0.0202
  130OSM    C5F13946   5.418   6.364   3.325 -1.1183  0.8281  0.0181
  130OSM    H5F13947   5.486   6.299   3.384  0.2829 -0.6080 -2.9974
  130OSM    H5G13948   5.316   6.346   3.364 -1.0440  1.4735  0.5410
  130OSM    C6F13949   5.448   6.507   3.363 -0.0091 -0.6991  0.1668
  130OSM    H6F13950   5.387   6.582   3.310 -1.4436 -1.2757  0.9548
  130OSM    H6G13951   5.554   6.528   3.335  0.1895 -0.2705  1.1868
  130OSM    C7F13952   5.427   6.524   3.517 -0.0021  0.2771 -0.6128
  130OSM    H7F13953   5.468   6.435   3.571  0.4930  1.5689  1.2469
  130OSM    H7G13954   5.320   6.539   3.542 -0.1426 -1.7326  0.1746
  130OSM    C8F13955   5.504   6.656   3.566 -0.6045 -0.2789 -0.2411
  130OSM    H8F13956   5.444   6.705   3.645  2.4747  4.0267 -0.2268
  130OSM    H8G13957   5.509   6.722   3.476 -0.3195  0.8752  0.5991
  130OSM    C9F13958   5.646   6.627   3.613  0.1893 -1.5521  0.3197
  130OSM    H9F13959   5.715   6.581   3.540  2.9057  2.0751  0.3069
  130OSM   C10F13960   5.693   6.639   3.743 -0.3631  0.0516  0.7705
  130OSM   H10F13961   5.802   6.621   3.754 -0.2601 -1.4091 -1.8762
  130OSM   C11F13962   5.624   6.685   3.863  0.1401 -0.4027 -0.3583
  130OSM   H11F13963   5.526   6.721   3.823 -0.0985 -0.9456 -0.2775
  130OSM   H11G13964   5.675   6.759   3.928 -1.7038  1.4870 -0.9378
  130OSM   C12F13965   5.596   6.564   3.953  0.0892 -0.3767 -0.7970
  130OSM   H12F13966   5.686   6.546   4.016  0.7227 -1.4454 -1.9608
  130OSM   H12G13967   5.592   6.470   3.893 -0.0851 -1.3683  0.7125
  130OSM   C13F13968   5.471   6.587   4.043 -0.7518 -0.1198  0.3712
  130OSM   H13F13969   5.379   6.605   3.984 -0.3045  0.0594 -0.2734
  130OSM   H13G13970   5.485   6.684   4.096  2.1619  0.0883 -0.6110
  130OSM   C14F13971   5.444   6.482   4.150 -0.3951 -0.5035 -0.5282
  130OSM   H14F13972   5.480   6.388   4.103 -0.2706 -1.4620  1.3909
  130OSM   H14G13973   5.336   6.465   4.169 -0.2461  0.7051  1.8682
  130OSM   C15F13974   5.515   6.496   4.280 -0.4792  0.4358 -0.1081
  130OSM   H15F13975   5.618   6.536   4.271 -0.4909  0.8891  1.5469
  130OSM   H15G13976   5.522   6.397   4.331  0.9394  1.9250  2.8485
  130OSM   C16F13977   5.447   6.577   4.392  0.9205 -0.1021  0.6726
  130OSM   H16F13978   5.356   6.526   4.432  0.6752  0.4365  0.8022
  130OSM   H16G13979   5.428   6.676   4.346  2.1268 -0.7079 -1.2596
  130OSM   C17F13980   5.538   6.589   4.518  0.0482 -0.0987 -0.6341
  130OSM   H17F13981   5.607   6.505   4.537 -1.4183 -0.6578  3.2711
  130OSM   H17G13982   5.475   6.583   4.610  1.6547 -0.9040  0.4655
  130OSM   C18F13983   5.620   6.724   4.521  0.9424  0.2112 -0.4263
  130OSM   H18F13984   5.662   6.746   4.420  0.5453  2.4032 -0.1560
  130OSM   H18G13985   5.702   6.739   4.594 -1.3396  1.6767  2.0072
  130OSM   H18H13986   5.550   6.807   4.545 -0.0303 -0.4315 -0.9594
  131OSM      N13987   4.095   1.517   2.670 -0.1707  0.7196  0.6485
  131OSM    C1513988   3.982   1.580   2.599 -0.4443  1.0285 -0.6926
  131OSM   H15A13989   3.960   1.671   2.654  1.6295 -0.5473  3.1815
  131OSM   H15B13990   3.897   1.517   2.618  1.4315 -1.0550  1.6040
  131OSM   H15C13991   4.004   1.598   2.495  2.6171 -0.1622 -0.3702
  131OSM    C1413992   4.043   1.495   2.807  0.0551  0.4513 -0.4464
  131OSM   H14A13993   4.104   1.419   2.852 -1.6323 -0.4223  0.4448
  131OSM   H14B13994   3.945   1.451   2.804  1.0646 -2.1610  1.3751
  131OSM   H14C13995   4.039   1.579   2.875  0.2101 -0.4020  0.6467
  131OSM    C1313996   4.108   1.380   2.607  0.0262 -0.1920  0.6333
  131OSM   H13A13997   4.122   1.388   2.500 -1.3673 -1.4034  0.3325
  131OSM   H13B13998   4.018   1.324   2.629 -0.4361 -0.3955 -1.5979
  131OSM   H13C13999   4.192   1.325   2.648 -1.8640 -2.5532  1.5752
  131OSM    C1214000   4.228   1.588   2.663  0.7285 -0.1666 -0.3117
  131OSM   H12A14001   4.263   1.586   2.561  2.6017 -0.6891  0.2859
  131OSM   H12B14002   4.302   1.522   2.706  0.6344 -0.6522 -0.8949
  131OSM    C1114003   4.243   1.726   2.732  0.4298  0.3821  0.5834
  131OSM   H11A14004   4.352   1.749   2.728  0.1453  1.7016 -0.1785
  131OSM   H11B14005   4.217   1.728   2.840 -0.1852  0.4081  0.4398
  131OSM      P14006   4.172   1.979   2.713  0.3153  0.0446  0.0178
  131OSM    O1314007   4.258   2.067   2.638  0.3973 -0.0164  0.3385
  131OSM    O1414008   4.026   2.006   2.714 -0.1185  0.1769 -0.2219
  131OSM    O1114009   4.223   1.978   2.865 -0.5658 -0.7162 -0.5675
  131OSM    O1214010   4.175   1.826   2.654  0.3975  0.2752  0.2389
  131OSM    C1S14011   4.141   2.034   2.963  0.1362  0.1916 -0.3190
  131OSM    H1S14012   4.062   1.960   2.986 -0.5866  0.5797 -1.4650
  131OSM    H1T14013   4.107   2.136   2.933 -0.9644 -0.0950 -0.0717
  131OSM     NF14014   4.128   2.086   3.208 -0.0929 -0.1677 -0.1395
  131OSM    HNF14015   4.131   2.179   3.244 -0.0355  0.0280 -0.6429
  131OSM    C2S14016   4.222   2.059   3.099  0.4046  0.3544  0.0669
  131OSM    H2S14017   4.291   1.977   3.128  0.5606  0.0690 -1.0616
  131OSM    C3S14018   4.328   2.174   3.074  0.6830 -0.3843  0.1363
  131OSM    H3S14019   4.266   2.260   3.041  0.2806 -0.4992  0.5797
  131OSM     O314020   4.419   2.142   2.967  0.1255 -0.3981  0.2986
  131OSM    HO314021   4.373   2.071   2.922  0.0781 -0.8496  1.0277
  131OSM    C4S14022   4.396   2.218   3.199 -0.3693  0.6929  0.0423
  131OSM    H4S14023   4.361   2.313   3.241 -0.2203  0.2389  1.2509
  131OSM    C5S14024   4.502   2.165   3.256 -0.1891 -0.7033 -0.2880
  131OSM    H5S14025   4.538   2.064   3.229 -0.3500 -1.3940  1.8672
  131OSM    C6S14026   4.546   2.225   3.385  0.0023 -0.9868 -0.2495
  131OSM    H6S14027   4.559   2.334   3.369 -2.9340 -0.0548  2.6672
  131OSM    H6T14028   4.651   2.202   3.415  0.0021 -0.6587  0.0110
  131OSM    C7S14029   4.455   2.197   3.502 -0.1063  0.3253 -0.3498
  131OSM    H7S14030   4.476   2.089   3.516 -2.3836 -0.3894 -1.8094
  131OSM    H7T14031   4.351   2.218   3.468  0.1939 -1.3177 -2.5300
  131OSM    C8S14032   4.490   2.268   3.638 -0.8611 -0.2122 -1.1680
  131OSM    H8S14033   4.456   2.373   3.631 -0.7802 -0.1328 -0.4830
  131OSM    H8T14034   4.599   2.266   3.658 -0.6193  0.9777 -2.2965
  131OSM    C9S14035   4.451   2.209   3.775  0.2423 -0.3970  0.5638
  131OSM    H9S14036   4.481   2.103   3.783  1.8224  0.0702  1.1841
  131OSM    H9T14037   4.340   2.205   3.786  0.1160  1.1446  0.1981
  131OSM   C10S14038   4.508   2.284   3.898  0.3993 -0.3192  0.6075
  131OSM   H10S14039   4.503   2.395   3.898 -0.9238 -0.2174  4.3554
  131OSM   H10T14040   4.616   2.258   3.903  0.9802  1.3615 -1.6983
  131OSM   C11S14041   4.445   2.251   4.027  0.3677  0.9325 -0.0805
  131OSM   H11S14042   4.455   2.144   4.053 -0.0178  0.7631 -0.5984
  131OSM   H11T14043   4.335   2.264   4.035  0.3624  0.3867  0.8379
  131OSM   C12S14044   4.506   2.338   4.141  0.1284  0.2625  0.1328
  131OSM   H12S14045   4.525   2.442   4.107  0.2315  1.1986  2.8533
  131OSM   H12T14046   4.603   2.283   4.148 -0.4400 -0.6318  1.3493
  131OSM   C13S14047   4.439   2.325   4.280 -0.0656 -0.7738  0.6895
  131OSM   H13S14048   4.446   2.227   4.332  1.1237 -1.2616 -0.3236
  131OSM   H13T14049   4.334   2.357   4.271  0.7541  1.8051 -0.7031
  131OSM   C14S14050   4.510   2.435   4.369 -0.0980  0.7492 -0.3788
  131OSM   H14S14051   4.530   2.524   4.306 -3.0364  1.5197 -0.3719
  131OSM   H14T14052   4.614   2.401   4.392  0.3512  1.5318 -1.1940
  131OSM   C15S14053   4.427   2.473   4.490 -0.1561 -0.0607  0.3049
  131OSM   H15S14054   4.321   2.496   4.466  0.1206  0.4135 -0.4935
  131OSM   H15T14055   4.470   2.569   4.526  0.4415  0.5417 -1.8566
  131OSM   C16S14056   4.439   2.367   4.602  1.3045 -0.1835  0.0970
  131OSM   H16S14057   4.537   2.314   4.601  2.1066  1.1424  2.1864
  131OSM   H16T14058   4.358   2.292   4.595  0.2144  0.5845  3.0923
  131OSM   C17S14059   4.429   2.435   4.736 -0.0035 -0.2839 -0.5593
  131OSM   H17S14060   4.350   2.513   4.738 -0.9013 -1.1509  2.0133
  131OSM   H17T14061   4.530   2.480   4.748 -0.5052  0.9352 -0.8068
  131OSM   C18S14062   4.401   2.330   4.846 -0.1056 -0.9547 -0.0176
  131OSM   H18S14063   4.465   2.241   4.830  1.4852 -0.1896  1.6907
  131OSM   H18T14064   4.296   2.295   4.847 -0.5714  0.3738 -0.2536
  131OSM   H18U14065   4.419   2.365   4.950  1.5845 -2.4762  0.2525
  131OSM    C1F14066   4.028   2.012   3.259 -0.1961 -0.2567 -0.3735
  131OSM     OF14067   3.993   1.909   3.212  0.5027  0.7514 -0.3905
  131OSM    C2F14068   3.949   2.080   3.365  0.0310 -0.6723 -0.2022
  131OSM    H2F14069   3.841   2.056   3.358 -0.4410  1.4000 -0.4372
  131OSM    H2G14070   3.953   2.191   3.360 -0.9353 -0.6617 -0.9180
  131OSM    C3F14071   4.016   2.035   3.497  1.0734  0.0923  0.4427
  131OSM    H3F14072   4.119   2.076   3.506  1.4353 -0.6709 -0.0951
  131OSM    H3G14073   4.039   1.927   3.488 -0.1851 -0.3799  2.5407
  131OSM    C4F14074   3.942   2.069   3.620 -0.0428 -0.7210  0.2217
  131OSM    H4F14075   3.838   2.033   3.609 -0.9581  1.7097  0.2037
  131OSM    H4G14076   3.926   2.179   3.626  3.0466 -0.2341  1.9382
  131OSM    C5F14077   4.012   2.025   3.746 -0.0967 -0.2555 -0.8765
  131OSM    H5F14078   4.110   2.077   3.747 -0.1790 -0.0536 -1.9629
  131OSM    H5G14079   4.019   1.914   3.755 -1.8340 -0.3936 -1.0085
  131OSM    C6F14080   3.939   2.067   3.873  1.0316  0.0071  0.2031
  131OSM    H6F14081   3.831   2.040   3.867  0.5694  1.6757  0.4133
  131OSM    H6G14082   3.950   2.176   3.891 -0.2673  0.3125 -0.7029
  131OSM    C7F14083   3.990   2.009   4.002  0.7284 -0.5086 -0.8402
  131OSM    H7F14084   4.097   2.031   4.021  1.0993 -0.0951 -3.1356
  131OSM    H7G14085   3.982   1.898   4.005  2.2961 -0.6415  2.4992
  131OSM    C8F14086   3.916   2.058   4.133  0.6152  0.1136 -0.0676
  131OSM    H8F14087   3.807   2.041   4.116  1.0764 -2.7395 -0.6375
  131OSM    H8G14088   3.931   2.168   4.145 -2.9138  0.8157 -0.9955
  131OSM    C9F14089   3.966   1.984   4.255  0.6749 -0.3226 -0.4848
  131OSM    H9F14090   4.074   1.969   4.263  1.2254  3.6088  1.8489
  131OSM   C10F14091   3.889   1.957   4.366 -0.1358  0.3727  0.4960
  131OSM   H10F14092   3.927   1.888   4.442  3.9257  1.2576 -0.5032
  131OSM   C11F14093   3.745   2.000   4.401  0.1976  0.3697 -0.4782
  131OSM   H11F14094   3.710   1.925   4.476  1.2015  0.3784  0.0210
  131OSM   H11G14095   3.688   1.990   4.307 -2.2138 -0.5391  0.9728
  131OSM   C12F14096   3.740   2.142   4.456 -0.4079 -0.3235  0.3515
  131OSM   H12F14097   3.635   2.180   4.456 -0.3374  0.0771 -2.3416
  131OSM   H12G14098   3.787   2.210   4.381  1.0102 -0.6392  0.9188
  131OSM   C13F14099   3.812   2.164   4.588  0.0671 -0.0289  0.2331
  131OSM   H13F14100   3.793   2.266   4.627  1.3312  0.5803 -0.6760
  131OSM   H13G14101   3.920   2.154   4.563  0.1766 -2.2175  1.3883
  131OSM   C14F14102   3.782   2.062   4.701  0.5857 -0.2227 -0.1739
  131OSM   H14F14103   3.816   1.965   4.658 -1.4352 -1.1881  0.2931
  131OSM   H14G14104   3.672   2.054   4.714  0.7306 -0.9298  0.7492
  131OSM   C15F14105   3.863   2.073   4.827  0.3417  0.7205 -0.5730
  131OSM   H15F14106   3.812   2.014   4.906  0.6792  0.7565 -0.3266
  131OSM   H15G14107   3.853   2.178   4.861 -0.3660  0.8610 -1.1933
  131OSM   C16F14108   4.014   2.029   4.817 -0.2882 -0.1167 -0.3785
  131OSM   H16F14109   4.066   2.097   4.746  0.8756 -0.1510  0.4302
  131OSM   H16G14110   4.001   1.937   4.754  1.2259  0.8763 -2.2417
  131OSM   C17F14111   4.096   2.019   4.941 -0.5814 -0.2401 -0.0427
  131OSM   H17F14112   4.043   1.949   5.008 -1.0049 -1.8205 -1.9375
  131OSM   H17G14113   4.103   2.123   4.980  0.6176 -0.1952 -0.3261
  131OSM   C18F14114   4.232   1.962   4.922 -0.2555  0.2892 -0.3565
  131OSM   H18F14115   4.272   1.930   5.021  1.0836 -1.3009 -1.3535
  131OSM   H18G14116   4.299   2.042   4.885  1.0846 -0.1321  1.0344
  131OSM   H18H14117   4.231   1.880   4.847 -1.4453 -0.7971  0.7863
  132OSM      N14118   1.242   3.454   2.704  0.3405 -0.3117  0.3427
  132OSM    C1514119   1.339   3.346   2.670  0.3978  0.3150  0.4517
  132OSM   H15A14120   1.440   3.383   2.658  0.3624  0.3974  0.3983
  132OSM   H15B14121   1.308   3.288   2.584 -1.4952  1.5462  0.2408
  132OSM   H15C14122   1.353   3.276   2.751 -2.3625 -0.7136  0.1610
  132OSM    C1414123   1.250   3.563   2.598  0.3300 -0.0453  0.0852
  132OSM   H14A14124   1.339   3.624   2.597 -0.1718  0.7169  0.5537
  132OSM   H14B14125   1.164   3.628   2.605  0.7588  0.4265  1.3134
  132OSM   H14C14126   1.239   3.523   2.499 -2.0014 -0.3915  0.4300
  132OSM    C1314127   1.105   3.401   2.716 -0.2136 -0.0760  0.2182
  132OSM   H13A14128   1.027   3.469   2.745 -0.2387 -0.1477  0.3189
  132OSM   H13B14129   1.105   3.322   2.790 -2.6488 -0.2013  0.1829
  132OSM   H13C14130   1.073   3.342   2.631  1.3390  0.8429 -1.0568
  132OSM    C1214131   1.294   3.503   2.840  0.2102 -0.7892 -0.2440
  132OSM   H12A14132   1.282   3.417   2.905  0.9574 -1.7374 -1.3005
  132OSM   H12B14133   1.226   3.579   2.875  1.2423 -0.3193  0.7931
  132OSM    C1114134   1.444   3.555   2.854  0.0463 -0.0395  0.4163
  132OSM   H11A14135   1.511   3.473   2.819  0.6206  0.1173  1.1301
  132OSM   H11B14136   1.475   3.578   2.958  3.5527  1.2939 -0.7717
  132OSM      P14137   1.607   3.723   2.727  0.2475 -0.3043 -0.5143
  132OSM    O1314138   1.658   3.644   2.613  0.0970 -0.2852 -0.8146
  132OSM    O1414139   1.582   3.869   2.709  0.8080 -0.0108 -0.0870
  132OSM    O1114140   1.695   3.708   2.849  0.2697 -0.0253  0.9559
  132OSM    O1214141   1.470   3.660   2.766  0.0536 -0.3781 -0.0098
  132OSM    C1S14142   1.682   3.801   2.961  0.1189 -0.0030 -0.1459
  132OSM    H1S14143   1.577   3.817   2.994  0.4675 -0.2666  1.1288
  132OSM    H1T14144   1.721   3.904   2.943 -2.2923  1.1913  0.9220
  132OSM     NF14145   1.733   3.812   3.204  0.4037 -0.2074  0.5543
  132OSM    HNF14146   1.800   3.877   3.239 -0.4400  0.3993  1.0570
  132OSM    C2S14147   1.775   3.753   3.078 -0.7213  0.0157 -0.3802
  132OSM    H2S14148   1.752   3.646   3.093  1.8600 -0.7876 -1.5078
  132OSM    C3S14149   1.928   3.767   3.047 -0.5147  0.0525 -0.0737
  132OSM    H3S14150   1.958   3.874   3.037 -1.8775  0.8406  3.0492
  132OSM     O314151   1.958   3.703   2.921 -0.5713  0.4137  0.1698
  132OSM    HO314152   1.875   3.704   2.872 -0.5844 -2.0006  0.0240
  132OSM    C4S14153   2.005   3.698   3.164  0.4059  0.4196  0.7035
  132OSM    H4S14154   2.019   3.767   3.248 -0.9705  0.4505  0.9183
  132OSM    C5S14155   2.048   3.568   3.166 -0.4218 -0.3663  0.1668
  132OSM    H5S14156   2.030   3.499   3.082 -1.2583 -0.0045  0.0332
  132OSM    C6S14157   2.126   3.501   3.279 -0.2522  0.1919 -0.3833
  132OSM    H6S14158   2.228   3.474   3.243 -0.7128 -1.4126 -0.5602
  132OSM    H6T14159   2.053   3.421   3.304 -1.8043  1.1715 -1.5764
  132OSM    C7S14160   2.147   3.581   3.417 -0.4514  0.0703 -0.0713
  132OSM    H7S14161   2.219   3.665   3.404  1.3858 -1.8317 -3.6391
  132OSM    H7T14162   2.203   3.506   3.478  0.4853 -0.4150 -1.4779
  132OSM    C8S14163   2.012   3.618   3.490  0.3780 -0.2618  0.8283
  132OSM    H8S14164   1.952   3.525   3.491  0.4663 -0.3207  0.6536
  132OSM    H8T14165   1.954   3.693   3.431  2.3548 -0.2432 -1.2078
  132OSM    C9S14166   2.020   3.665   3.640 -0.7190 -0.0594  0.1600
  132OSM    H9S14167   1.928   3.727   3.650 -0.9319 -0.3433 -0.0414
  132OSM    H9T14168   2.109   3.727   3.664 -1.2271  0.8216 -0.1400
  132OSM   C10S14169   1.997   3.549   3.741 -0.0969 -0.1848 -0.3007
  132OSM   H10S14170   2.055   3.463   3.700 -0.0721 -0.3971  0.1630
  132OSM   H10T14171   1.891   3.518   3.755 -0.0672 -0.6783 -1.1056
  132OSM   C11S14172   2.050   3.589   3.879 -0.0779  0.7010  0.3839
  132OSM   H11S14173   2.136   3.656   3.859  0.6695 -0.9985 -2.9491
  132OSM   H11T14174   2.090   3.493   3.919  2.1999  1.5747  0.3660
  132OSM   C12S14175   1.941   3.644   3.975 -0.1156 -0.7255 -0.0743
  132OSM   H12S14176   1.859   3.569   3.973 -0.1759 -0.6466 -0.6003
  132OSM   H12T14177   1.910   3.745   3.941 -0.0890  0.1104  2.1915
  132OSM   C13S14178   1.985   3.667   4.119  0.6030  0.5521 -0.8721
  132OSM   H13S14179   2.056   3.753   4.119 -0.2925  1.4852 -4.5903
  132OSM   H13T14180   2.023   3.581   4.178  1.8753  2.2511  0.9103
  132OSM   C14S14181   1.864   3.704   4.214 -0.2056 -0.0602 -0.1537
  132OSM   H14S14182   1.804   3.611   4.216  1.9852 -1.6871 -3.0060
  132OSM   H14T14183   1.805   3.776   4.153 -0.3158 -1.1893 -1.4402
  132OSM   C15S14184   1.915   3.749   4.352 -0.0004 -0.1514 -0.3794
  132OSM   H15S14185   1.983   3.836   4.344  0.6493 -0.7933 -2.2981
  132OSM   H15T14186   1.971   3.667   4.403 -1.0386 -1.3426 -1.0926
  132OSM   C16S14187   1.811   3.787   4.459  0.3117  0.5201 -0.3251
  132OSM   H16S14188   1.768   3.688   4.486  1.9979 -0.0774  0.3255
  132OSM   H16T14189   1.730   3.835   4.401  0.4771  0.8398 -0.2918
  132OSM   C17S14190   1.853   3.877   4.585  0.0709 -0.2420  0.4091
  132OSM   H17S14191   1.773   3.893   4.660 -0.7028 -1.5105 -0.1119
  132OSM   H17T14192   1.895   3.974   4.551  0.4158  0.2852  2.2624
  132OSM   C18S14193   1.966   3.819   4.671 -0.4266  0.3173  0.1111
  132OSM   H18S14194   2.059   3.816   4.610  0.0117 -0.4495  0.7944
  132OSM   H18T14195   1.934   3.718   4.703 -0.0257  0.1979  0.1358
  132OSM   H18U14196   1.988   3.876   4.764  1.3756 -0.4023  0.1615
  132OSM    C1F14197   1.612   3.804   3.260  0.0795 -0.7324 -0.7270
  132OSM     OF14198   1.514   3.765   3.197 -0.1735 -0.3294 -0.3119
  132OSM    C2F14199   1.598   3.865   3.394  0.4100  1.0440  0.2574
  132OSM    H2F14200   1.621   3.973   3.398 -1.8235  1.5676 -0.2074
  132OSM    H2G14201   1.663   3.801   3.459  0.6450  1.8527  0.8354
  132OSM    C3F14202   1.459   3.845   3.456  0.3819  0.1587 -0.1073
  132OSM    H3F14203   1.438   3.736   3.457  0.7917  0.0375  2.1822
  132OSM    H3G14204   1.385   3.895   3.390  0.7584 -1.5358 -1.9147
  132OSM    C4F14205   1.435   3.904   3.592 -0.1785 -0.5458 -0.7264
  132OSM    H4F14206   1.332   3.885   3.628  0.2620  1.2811  1.8045
  132OSM    H4G14207   1.446   4.015   3.590  3.2936 -0.5396  3.3380
  132OSM    C5F14208   1.531   3.859   3.702  0.7194 -0.5120  0.8421
  132OSM    H5F14209   1.511   3.912   3.797 -0.3502 -0.7760  0.7760
  132OSM    H5G14210   1.635   3.888   3.676  0.4342 -0.8516 -0.8195
  132OSM    C6F14211   1.533   3.710   3.725 -0.2789  0.4909 -0.2053
  132OSM    H6F14212   1.599   3.651   3.658 -0.9613 -0.3148 -0.1766
  132OSM    H6G14213   1.428   3.677   3.713  0.0452 -1.6364  1.9995
  132OSM    C7F14214   1.556   3.675   3.870 -0.4516  0.2348  0.5593
  132OSM    H7F14215   1.476   3.723   3.930 -0.8081  1.3325 -0.7346
  132OSM    H7G14216   1.649   3.718   3.913 -0.8215  0.6487  0.9623
  132OSM    C8F14217   1.548   3.521   3.885 -0.0059  0.0409 -0.6441
  132OSM    H8F14218   1.612   3.488   3.970 -0.2136 -2.0403 -1.2544
  132OSM    H8G14219   1.608   3.484   3.799  3.2840  0.1185  1.4382
  132OSM    C9F14220   1.406   3.470   3.905  0.3815  0.1125 -0.1496
  132OSM    H9F14221   1.347   3.467   3.812 -0.6387 -0.7944  0.5049
  132OSM   C10F14222   1.350   3.422   4.018  0.0026 -0.5123  0.1522
  132OSM   H10F14223   1.250   3.377   4.010 -1.6308  2.9015 -0.5441
  132OSM   C11F14224   1.403   3.413   4.157 -0.2210  0.2594 -0.3849
  132OSM   H11F14225   1.329   3.461   4.224 -0.6003  1.8356 -1.8589
  132OSM   H11G14226   1.501   3.466   4.161  0.4609 -1.0149  0.2971
  132OSM   C12F14227   1.426   3.269   4.197  0.1598 -0.0309  0.4641
  132OSM   H12F14228   1.500   3.218   4.132 -0.7099  1.4109 -1.8006
  132OSM   H12G14229   1.331   3.213   4.184  0.9317 -1.1889 -0.4181
  132OSM   C13F14230   1.490   3.254   4.331 -0.0922 -0.2423 -0.2661
  132OSM   H13F14231   1.431   3.302   4.412  2.9101  2.9026  0.3017
  132OSM   H13G14232   1.583   3.315   4.331  0.0034 -0.2951  1.9888
  132OSM   C14F14233   1.518   3.111   4.357 -0.1542 -0.0486 -0.1731
  132OSM   H14F14234   1.545   3.064   4.260 -2.4757  1.2469 -1.5585
  132OSM   H14G14235   1.417   3.067   4.370 -1.3243  2.7904  1.4982
  132OSM   C15F14236   1.608   3.079   4.480 -0.1660  0.2212  0.6072
  132OSM   H15F14237   1.537   3.060   4.563 -1.3034 -2.4145 -0.8522
  132OSM   H15G14238   1.674   3.165   4.506  1.7539 -0.9991 -0.0459
  132OSM   C16F14239   1.700   2.953   4.478  0.0916 -0.0951  0.0216
  132OSM   H16F14240   1.769   2.977   4.394 -0.6394  0.9327 -0.3094
  132OSM   H16G14241   1.642   2.860   4.460  1.7754 -0.8379 -2.0951
  132OSM   C17F14242   1.769   2.935   4.609  1.0708 -0.3267 -0.4458
  132OSM   H17F14243   1.690   2.907   4.682  1.0038  1.3539  0.1696
  132OSM   H17G14244   1.824   3.027   4.638 -2.1348  1.0112  2.1079
  132OSM   C18F14245   1.866   2.818   4.615  0.0868  0.0457 -0.6682
  132OSM   H18F14246   1.820   2.720   4.589 -0.0287 -0.4784  1.3296
  132OSM   H18G14247   1.914   2.808   4.715  1.1636  0.0070 -1.1689
  132OSM   H18H14248   1.945   2.836   4.539  1.1637  0.0584  0.4214
  133OSM      N14249   6.124   4.458   2.262  0.1512 -0.0582 -0.3810
  133OSM    C1514250   6.134   4.485   2.414  0.3095  0.3428  0.0961
  133OSM   H15A14251   6.061   4.555   2.451 -0.4762 -0.4337  0.0649
  133OSM   H15B14252   6.232   4.519   2.444  0.5175 -1.2878  1.3847
  133OSM   H15C14253   6.113   4.390   2.462 -1.8024  0.4081 -0.5944
  133OSM    C1414254   6.002   4.381   2.228  0.2747  0.1367  0.8823
  133OSM   H14A14255   6.001   4.283   2.274  1.3547 -0.1794  0.2626
  133OSM   H14B14256   5.981   4.366   2.123 -1.5861  1.1361  1.0593
  133OSM   H14C14257   5.918   4.428   2.277 -0.6769 -2.5661  2.0767
  133OSM    C1314258   6.107   4.597   2.192 -0.3313 -0.0792 -0.2635
  133OSM   H13A14259   6.093   4.591   2.085  0.9429  0.1852 -0.4648
  133OSM   H13B14260   6.188   4.662   2.222 -1.6498  0.3002  2.8657
  133OSM   H13C14261   6.018   4.645   2.231 -2.2695 -2.2122 -1.7733
  133OSM    C1214262   6.243   4.378   2.209  0.4335 -0.0323  0.2851
  133OSM   H12A14263   6.334   4.421   2.249 -0.5621  1.8109  0.6829
  133OSM   H12B14264   6.247   4.394   2.103  1.7461  0.9379  0.4434
  133OSM    C1114265   6.251   4.228   2.250 -0.4933  0.3674  0.9211
  133OSM   H11A14266   6.338   4.176   2.204 -2.0823  0.2210 -2.1101
  133OSM   H11B14267   6.166   4.161   2.225 -2.1460  2.1618  1.5548
  133OSM      P14268   6.424   4.256   2.438  0.3590 -0.4607 -0.3767
  133OSM    O1314269   6.511   4.145   2.409 -0.3658  0.1770 -0.2609
  133OSM    O1414270   6.476   4.386   2.387 -0.3180 -0.1648 -0.3373
  133OSM    O1114271   6.401   4.267   2.596 -0.1502 -0.4017  0.3143
  133OSM    O1214272   6.276   4.220   2.384 -1.1450 -0.2192 -0.0058
  133OSM    C1S14273   6.335   4.158   2.660 -0.4036  0.0788 -0.2558
  133OSM    H1S14274   6.390   4.062   2.648 -1.5933 -0.5032 -1.2788
  133OSM    H1T14275   6.231   4.146   2.623 -0.4589 -3.4040  0.6372
  133OSM     NF14276   6.275   4.088   2.894  0.2405  0.9705  0.3345
  133OSM    HNF14277   6.183   4.095   2.932 -0.8151  2.8935 -2.2889
  133OSM    C2S14278   6.321   4.198   2.810  0.6419 -0.2219 -0.0852
  133OSM    H2S14279   6.423   4.234   2.839 -0.5733  1.2702  2.7841
  133OSM    C3S14280   6.225   4.322   2.825  0.1707 -0.0069 -0.4374
  133OSM    H3S14281   6.127   4.287   2.786 -0.0335 -0.2331  0.2617
  133OSM     O314282   6.250   4.433   2.742 -0.0046 -0.2261  0.1076
  133OSM    HO314283   6.304   4.393   2.673 -0.9879 -1.1684 -0.1406
  133OSM    C4S14284   6.208   4.360   2.968 -0.1291 -0.1872 -0.1776
  133OSM    H4S14285   6.115   4.321   3.012  0.2390  1.9894  2.8553
  133OSM    C5S14286   6.282   4.444   3.054 -0.2439  0.2404  0.4157
  133OSM    H5S14287   6.370   4.497   3.014  0.0881 -0.3775  0.3171
  133OSM    C6S14288   6.248   4.491   3.191  0.0257  0.7698 -0.6644
  133OSM    H6S14289   6.231   4.598   3.214  0.3169  0.5278  0.8194
  133OSM    H6T14290   6.338   4.470   3.253 -0.8208  2.7972  1.4024
  133OSM    C7S14291   6.144   4.406   3.269 -0.0201 -0.3869  0.1846
  133OSM    H7S14292   6.192   4.309   3.294  0.4895 -0.1677  0.0580
  133OSM    H7T14293   6.059   4.397   3.197 -0.8087  1.9593  0.7508
  133OSM    C8S14294   6.092   4.467   3.399 -0.2740  0.2816  0.0627
  133OSM    H8S14295   6.021   4.408   3.461  1.1661 -2.0704 -0.3766
  133OSM    H8T14296   6.041   4.564   3.384  0.7761  0.7656 -0.4538
  133OSM    C9S14297   6.204   4.513   3.501  0.7558  0.1587 -0.5851
  133OSM    H9S14298   6.249   4.607   3.464 -0.9767  2.2618  2.2359
  133OSM    H9T14299   6.277   4.430   3.487 -1.9620 -2.1622 -2.2816
  133OSM   C10S14300   6.154   4.527   3.642 -0.2156 -0.8923 -0.8591
  133OSM   H10S14301   6.056   4.577   3.654 -0.4438 -1.5691  0.2564
  133OSM   H10T14302   6.228   4.594   3.690 -1.0715  1.2108 -2.3292
  133OSM   C11S14303   6.148   4.399   3.723 -0.5817 -0.1865 -0.1336
  133OSM   H11S14304   6.243   4.345   3.702 -0.0568  1.3496 -1.9839
  133OSM   H11T14305   6.075   4.326   3.684 -0.3163 -0.6716  0.2781
  133OSM   C12S14306   6.138   4.429   3.874 -0.0186  0.2736 -0.7247
  133OSM   H12S14307   6.041   4.473   3.906 -1.6992 -2.1945 -2.1332
  133OSM   H12T14308   6.220   4.496   3.908  0.0645  0.5517 -1.4648
  133OSM   C13S14309   6.157   4.306   3.970  0.0473 -0.1991  0.6878
  133OSM   H13S14310   6.240   4.244   3.933 -0.6268 -0.1751 -0.9493
  133OSM   H13T14311   6.073   4.237   3.948  0.5374  0.1359 -2.6630
  133OSM   C14S14312   6.174   4.346   4.117 -0.5347  0.5089 -0.6115
  133OSM   H14S14313   6.098   4.417   4.154 -0.9264 -0.1960 -0.0516
  133OSM   H14T14314   6.265   4.410   4.126  0.3293 -0.6901 -0.5500
  133OSM   C15S14315   6.177   4.218   4.207  0.0802 -0.5588  0.1046
  133OSM   H15S14316   6.268   4.162   4.175  1.5103  0.7374  1.6898
  133OSM   H15T14317   6.088   4.164   4.169 -2.1797  1.6992  1.8421
  133OSM   C16S14318   6.162   4.244   4.358 -0.0756  0.3886  0.1211
  133OSM   H16S14319   6.056   4.274   4.371 -0.1346  0.2574 -0.0457
  133OSM   H16T14320   6.241   4.317   4.384 -0.3214  0.5050  0.5437
  133OSM   C17S14321   6.189   4.115   4.441 -0.0444  0.3323 -0.4972
  133OSM   H17S14322   6.157   4.139   4.545 -0.4351 -2.1063  0.0003
  133OSM   H17T14323   6.292   4.077   4.425  0.5499  2.3518 -1.9195
  133OSM   C18S14324   6.104   4.000   4.389 -0.3742 -0.6501  0.0527
  133OSM   H18S14325   6.159   3.947   4.309  0.8520 -1.3735  1.3297
  133OSM   H18T14326   5.999   4.025   4.364  0.1492  2.9844  0.9935
  133OSM   H18U14327   6.106   3.928   4.474  0.7210 -0.7767 -0.0614
  133OSM    C1F14328   6.351   3.981   2.917  0.4586  0.2253  0.2488
  133OSM     OF14329   6.466   3.968   2.867 -0.6122  0.0647 -0.1372
  133OSM    C2F14330   6.289   3.865   2.997  0.4199  0.2882 -0.1646
  133OSM    H2F14331   6.181   3.867   2.972  0.2222  0.4841  0.6743
  133OSM    H2G14332   6.303   3.887   3.105 -1.1772 -1.9404  0.5765
  133OSM    C3F14333   6.348   3.731   2.945  0.3679 -0.2663 -0.5208
  133OSM    H3F14334   6.458   3.729   2.961  0.0440 -2.4926  2.4588
  133OSM    H3G14335   6.311   3.718   2.841 -1.2302  0.7943 -0.1117
  133OSM    C4F14336   6.296   3.619   3.032 -0.4285  0.1224  0.2975
  133OSM    H4F14337   6.349   3.527   3.000 -1.3629  0.2243 -1.6835
  133OSM    H4G14338   6.189   3.594   3.015  0.1050 -0.8620 -1.8926
  133OSM    C5F14339   6.295   3.647   3.176 -0.1781  0.1015 -0.5514
  133OSM    H5F14340   6.234   3.732   3.212  1.4071  0.8873  0.3817
  133OSM    H5G14341   6.395   3.683   3.208  0.5640 -3.2276  1.2526
  133OSM    C6F14342   6.277   3.524   3.271  0.4543 -0.1374 -0.7111
  133OSM    H6F14343   6.332   3.436   3.232 -0.6258 -0.6784 -1.0430
  133OSM    H6G14344   6.169   3.498   3.278  0.5950 -0.3586  0.8518
  133OSM    C7F14345   6.325   3.545   3.421  0.3819 -0.3289  0.2133
  133OSM    H7F14346   6.414   3.611   3.416  0.3876 -0.3905 -0.6126
  133OSM    H7G14347   6.343   3.445   3.465  2.0659  0.2509  0.8921
  133OSM    C8F14348   6.229   3.626   3.508  0.1171  0.2128 -0.4653
  133OSM    H8F14349   6.198   3.721   3.458 -1.0232  1.0352  1.6560
  133OSM    H8G14350   6.294   3.664   3.590  2.7776  1.0687 -2.8014
  133OSM    C9F14351   6.118   3.526   3.529 -1.0772  0.1782  0.2917
  133OSM    H9F14352   6.071   3.485   3.438  0.3128 -1.3041  0.1970
  133OSM   C10F14353   6.078   3.488   3.654 -0.0836 -0.6066 -0.2800
  133OSM   H10F14354   5.997   3.414   3.664 -0.9096  0.5748  3.5802
  133OSM   C11F14355   6.128   3.547   3.783  0.2373  0.4826  0.0440
  133OSM   H11F14356   6.210   3.622   3.773 -2.4385  4.0303  2.1591
  133OSM   H11G14357   6.174   3.462   3.837 -1.9589 -0.0260  1.2023
  133OSM   C12F14358   6.023   3.600   3.884 -0.1794  0.6266 -0.0763
  133OSM   H12F14359   5.943   3.660   3.835 -1.8350 -0.9109  0.5921
  133OSM   H12G14360   6.078   3.673   3.947 -0.3379 -0.4409  1.3478
  133OSM   C13F14361   5.974   3.502   3.985  0.0531  0.1158 -0.4301
  133OSM   H13F14362   6.068   3.468   4.033  0.5714 -0.4123 -1.7657
  133OSM   H13G14363   5.943   3.413   3.925 -0.1154 -0.1963  0.1138
  133OSM   C14F14364   5.856   3.543   4.086 -0.4527 -0.7106  1.3274
  133OSM   H14F14365   5.769   3.490   4.043  0.8562 -1.5092 -0.4521
  133OSM   H14G14366   5.842   3.653   4.086 -0.3763 -0.7004  1.3680
  133OSM   C15F14367   5.878   3.496   4.235 -0.0693 -0.5180  1.3034
  133OSM   H15F14368   5.976   3.524   4.279 -0.4250  0.8517  1.2564
  133OSM   H15G14369   5.858   3.387   4.230 -3.5528  0.0407 -0.0705
  133OSM   C16F14370   5.767   3.567   4.313 -0.1950  0.2275  0.0662
  133OSM   H16F14371   5.672   3.549   4.258  0.2322  0.9579 -0.9364
  133OSM   H16G14372   5.779   3.677   4.310 -0.4730  0.3773  2.3775
  133OSM   C17F14373   5.753   3.503   4.448 -0.4631  0.3647 -0.8042
  133OSM   H17F14374   5.726   3.396   4.430  0.3415 -0.4287  2.1735
  133OSM   H17G14375   5.674   3.556   4.505  1.2171  2.8973 -0.6968
  133OSM   C18F14376   5.879   3.485   4.534  0.6851  0.1807 -0.4792
  133OSM   H18F14377   5.945   3.417   4.477  1.3953  2.4148 -2.5064
  133OSM   H18G14378   5.843   3.455   4.635 -1.1086  1.5431 -0.6633
  133OSM   H18H14379   5.923   3.586   4.549  2.8820 -0.6561 -0.9368
  134OSM      N14380   6.725   5.550   2.268 -0.0421  0.6978  0.0487
  134OSM    C1514381   6.616   5.615   2.342  0.2510  0.3410 -0.1094
  134OSM   H15A14382   6.620   5.721   2.357  1.8240 -0.0438  2.9135
  134OSM   H15B14383   6.613   5.568   2.439  0.1299 -0.1715 -0.3572
  134OSM   H15C14384   6.524   5.589   2.292  0.3066 -1.6794  0.7097
  134OSM    C1414385   6.715   5.397   2.264 -1.0820  1.1508 -0.0133
  134OSM   H14A14386   6.687   5.350   2.357 -1.5689 -1.2472 -1.3052
  134OSM   H14B14387   6.806   5.350   2.230 -1.9447  0.2718 -1.1792
  134OSM   H14C14388   6.642   5.370   2.190 -1.4831 -0.1953  0.8427
  134OSM    C1314389   6.723   5.590   2.119  0.1825 -0.1440 -0.6649
  134OSM   H13A14390   6.738   5.697   2.116  2.0256 -0.3562 -0.1295
  134OSM   H13B14391   6.624   5.566   2.082  0.8989  0.1546 -2.8899
  134OSM   H13C14392   6.792   5.531   2.062 -0.5257  0.6313 -2.3938
  134OSM    C1214393   6.860   5.593   2.336  0.4422 -0.0205  0.0766
  134OSM   H12A14394   6.882   5.697   2.314  1.1667 -0.5538 -1.9130
  134OSM   H12B14395   6.933   5.540   2.277 -2.0735 -0.3074 -3.0816
  134OSM    C1114396   6.884   5.565   2.487  0.7390 -0.2019  0.4523
  134OSM   H11A14397   6.800   5.613   2.541 -0.4416  0.9783 -2.2552
  134OSM   H11B14398   6.979   5.613   2.518 -0.1798  2.0848 -0.1299
  134OSM      P14399   7.001   5.338   2.553 -0.1776  0.2789 -0.0453
  134OSM    O1314400   6.946   5.214   2.608  0.1028 -0.4513 -0.2433
  134OSM    O1414401   7.078   5.324   2.430  0.0949  0.5490  0.0537
  134OSM    O1114402   7.091   5.422   2.654 -0.1263 -0.1207  0.8543
  134OSM    O1214403   6.871   5.426   2.525  0.2360 -0.3772  0.7102
  134OSM    C1S14404   7.028   5.492   2.760 -0.1852  0.2261 -0.0262
  134OSM    H1S14405   6.917   5.502   2.757 -0.0679  1.6178 -0.1396
  134OSM    H1T14406   7.059   5.598   2.763  1.7963 -0.2808 -0.9914
  134OSM     NF14407   6.977   5.472   3.003  0.0431 -0.2055 -0.0642
  134OSM    HNF14408   7.017   5.539   3.065  1.6471 -1.9901  0.9591
  134OSM    C2S14409   7.071   5.427   2.896 -0.1478  0.3225 -0.7347
  134OSM    H2S14410   7.063   5.317   2.883  0.8239  0.3315 -1.5947
  134OSM    C3S14411   7.220   5.456   2.924 -0.3279 -0.1740  0.2058
  134OSM    H3S14412   7.237   5.565   2.938 -0.9792  0.1230 -1.0984
  134OSM     O314413   7.316   5.424   2.818  0.7781  0.4422  0.2981
  134OSM    HO314414   7.259   5.384   2.751 -0.4357  1.7828  0.5022
  134OSM    C4S14415   7.263   5.380   3.041 -0.0161 -0.0762 -0.3438
  134OSM    H4S14416   7.257   5.273   3.018  1.1836 -0.1266 -0.4959
  134OSM    C5S14417   7.295   5.422   3.163  0.3910  0.2594  0.2579
  134OSM    H5S14418   7.295   5.532   3.172 -0.5893  0.6766 -3.2471
  134OSM    C6S14419   7.329   5.340   3.290 -0.0453 -0.3567  0.0072
  134OSM    H6S14420   7.434   5.358   3.321 -0.2676 -1.0340  1.2086
  134OSM    H6T14421   7.313   5.230   3.283  2.0403 -0.7552  0.8085
  134OSM    C7S14422   7.230   5.383   3.407 -0.1787  0.0703  0.3906
  134OSM    H7S14423   7.123   5.361   3.388 -0.2006  1.9390 -2.0534
  134OSM    H7T14424   7.230   5.492   3.426  0.3691 -0.1395  1.7463
  134OSM    C8S14425   7.254   5.304   3.536 -0.1262  0.2841 -0.1508
  134OSM    H8S14426   7.350   5.337   3.581  0.3809 -0.4460 -0.6734
  134OSM    H8T14427   7.263   5.194   3.521  1.6869  0.5238 -1.1419
  134OSM    C9S14428   7.143   5.336   3.630 -0.1318  0.2829 -0.0468
  134OSM    H9S14429   7.044   5.295   3.600  0.5263 -0.9405 -0.6439
  134OSM    H9T14430   7.128   5.445   3.642 -0.5086  0.3280 -0.8584
  134OSM   C10S14431   7.181   5.267   3.764  0.3710 -0.7084  0.2015
  134OSM   H10S14432   7.278   5.308   3.797 -0.0727  0.2894  0.3016
  134OSM   H10T14433   7.196   5.157   3.755  0.3733 -0.6085 -1.3454
  134OSM   C11S14434   7.085   5.294   3.879 -0.3562  0.6769 -0.8866
  134OSM   H11S14435   6.987   5.268   3.834 -0.9704  2.0901 -0.4417
  134OSM   H11T14436   7.084   5.403   3.902  2.4178  0.6311 -0.1511
  134OSM   C12S14437   7.127   5.213   3.997 -0.5630  0.7817 -0.8580
  134OSM   H12S14438   7.230   5.244   4.024 -0.6534  0.3953 -0.0299
  134OSM   H12T14439   7.130   5.107   3.964 -0.1960 -0.1970  1.9778
  134OSM   C13S14440   7.043   5.221   4.126 -0.4000 -0.2395 -0.9330
  134OSM   H13S14441   6.942   5.176   4.113 -0.8231  0.6036 -0.6342
  134OSM   H13T14442   7.031   5.330   4.143 -1.8973 -0.4654 -0.3757
  134OSM   C14S14443   7.111   5.159   4.249 -0.0243 -0.5541 -0.4247
  134OSM   H14S14444   7.202   5.219   4.269 -0.2373  0.0309 -1.1510
  134OSM   H14T14445   7.151   5.061   4.213  1.9542 -0.4278  1.2879
  134OSM   C15S14446   7.014   5.138   4.373 -0.9063 -0.1255  0.2609
  134OSM   H15S14447   6.933   5.066   4.349 -1.5362  0.7534 -0.3362
  134OSM   H15T14448   6.963   5.234   4.396 -1.3042 -0.4294  0.6921
  134OSM   C16S14449   7.080   5.087   4.505  0.2942  0.0615  0.1487
  134OSM   H16S14450   7.127   5.172   4.557  2.2495  0.3384 -1.9217
  134OSM   H16T14451   7.150   5.003   4.486 -1.0946 -1.0346 -0.3792
  134OSM   C17S14452   6.973   5.026   4.593  0.3671  0.7657  0.1636
  134OSM   H17S14453   6.914   4.945   4.544  2.4993 -0.0665 -1.1548
  134OSM   H17T14454   6.897   5.105   4.611 -0.8594  0.4423 -2.9598
  134OSM   C18S14455   7.026   4.975   4.727  0.3147 -0.6879 -1.0256
  134OSM   H18S14456   7.072   5.059   4.783  0.6542 -0.5570 -1.5002
  134OSM   H18T14457   7.100   4.893   4.713  0.8691  0.0011 -2.2718
  134OSM   H18U14458   6.943   4.932   4.788  0.1216 -0.7993 -1.3605
  134OSM    C1F14459   6.859   5.423   3.023 -0.4642 -0.8028  0.1092
  134OSM     OF14460   6.819   5.344   2.945  0.3456 -0.2897  0.6250
  134OSM    C2F14461   6.785   5.476   3.140 -0.0197  0.0893 -0.3938
  134OSM    H2F14462   6.734   5.564   3.095 -2.8600 -1.5731 -0.6338
  134OSM    H2G14463   6.858   5.515   3.214 -3.0694  1.5580  2.0812
  134OSM    C3F14464   6.678   5.385   3.205 -0.0963  0.5386 -0.1877
  134OSM    H3F14465   6.616   5.332   3.131  1.5223  0.6805 -1.7158
  134OSM    H3G14466   6.622   5.454   3.271 -1.6744 -0.4293 -0.4841
  134OSM    C4F14467   6.748   5.267   3.279 -0.7833  0.3503 -0.7766
  134OSM    H4F14468   6.840   5.305   3.327 -1.2478  0.0295  0.4053
  134OSM    H4G14469   6.773   5.187   3.205  0.4807 -0.2107  0.2250
  134OSM    C5F14470   6.652   5.194   3.370 -0.2190 -0.3052 -0.3986
  134OSM    H5F14471   6.686   5.092   3.400 -3.0338 -1.0769  0.4687
  134OSM    H5G14472   6.557   5.173   3.316 -1.7675  2.5165  1.0072
  134OSM    C6F14473   6.618   5.264   3.506  0.3789 -0.0479  0.0162
  134OSM    H6F14474   6.528   5.329   3.501  1.8331  2.0716 -0.0215
  134OSM    H6G14475   6.701   5.325   3.547  0.9536 -1.4857  1.0667
  134OSM    C7F14476   6.596   5.150   3.609  0.0379 -0.0632  0.0816
  134OSM    H7F14477   6.677   5.075   3.613  1.7153  1.6062 -0.7617
  134OSM    H7G14478   6.506   5.089   3.586 -1.9163  2.9741 -0.9661
  134OSM    C8F14479   6.574   5.201   3.753  0.0863  0.0667 -0.4462
  134OSM    H8F14480   6.543   5.113   3.814 -0.6702  0.5130 -0.1692
  134OSM    H8G14481   6.486   5.269   3.746 -0.3791 -0.3870  0.7068
  134OSM    C9F14482   6.688   5.270   3.828  0.4917  0.2431  0.2654
  134OSM    H9F14483   6.754   5.330   3.763 -0.9988  0.6716 -0.9279
  134OSM   C10F14484   6.697   5.274   3.963  0.0859 -0.0624  0.4034
  134OSM   H10F14485   6.782   5.327   4.010 -1.4253  0.9762  2.1109
  134OSM   C11F14486   6.620   5.190   4.057 -0.7682  0.3129 -0.0177
  134OSM   H11F14487   6.627   5.080   4.045 -4.7890 -0.3868  2.1614
  134OSM   H11G14488   6.515   5.224   4.045 -0.8369 -0.4982 -2.0318
  134OSM   C12F14489   6.662   5.218   4.204 -0.0853 -0.5957  0.0047
  134OSM   H12F14490   6.647   5.325   4.230 -2.6316 -1.1665  1.1598
  134OSM   H12G14491   6.771   5.209   4.221  0.0607  3.4108  2.5675
  134OSM   C13F14492   6.583   5.136   4.304  0.2923 -0.5888  0.1808
  134OSM   H13F14493   6.589   5.032   4.265 -1.9706 -0.4093 -0.8164
  134OSM   H13G14494   6.475   5.164   4.300  0.6062  0.6276 -0.2614
  134OSM   C14F14495   6.624   5.153   4.450  0.2665 -0.5232 -0.4845
  134OSM   H14F14496   6.620   5.262   4.472  2.3367 -0.2946 -1.0069
  134OSM   H14G14497   6.732   5.130   4.458  0.2680 -0.6715 -0.8978
  134OSM   C15F14498   6.541   5.084   4.553  0.8344 -0.1217 -0.1667
  134OSM   H15F14499   6.542   4.974   4.533 -2.2026 -0.0731 -1.1563
  134OSM   H15G14500   6.435   5.116   4.544  0.5290  0.6361  4.2563
  134OSM   C16F14501   6.570   5.112   4.700 -0.1493 -0.2076  0.1922
  134OSM   H16F14502   6.498   5.183   4.746  2.4698  2.1899  0.8292
  134OSM   H16G14503   6.673   5.151   4.713 -0.1398 -0.1901  0.0635
  134OSM   C17F14504   6.559   4.984   4.784 -0.2106 -0.7721  0.2887
  134OSM   H17F14505   6.603   4.903   4.722 -2.6083 -3.2924  1.6410
  134OSM   H17G14506   6.456   4.944   4.799 -0.3659  0.5505  3.5902
  134OSM   C18F14507   6.641   5.003   4.912 -0.1701 -0.3353 -0.5217
  134OSM   H18F14508   6.752   5.001   4.900 -0.0694  0.5203  0.1584
  134OSM   H18G14509   6.612   4.920   4.980  3.0742 -0.7167  0.5788
  134OSM   H18H14510   6.603   5.086   4.975 -1.6543 -2.3093  1.3244
  135OSM      N14511   1.812   5.270   2.243 -0.9018 -0.2356  0.1165
  135OSM    C1514512   1.780   5.301   2.100  0.1440  0.0504 -0.0564
  135OSM   H15A14513   1.768   5.205   2.052 -0.7932 -1.0280  2.1975
  135OSM   H15B14514   1.852   5.365   2.052 -0.6818 -0.9692 -2.8704
  135OSM   H15C14515   1.687   5.354   2.090 -0.7094 -1.5552 -1.0486
  135OSM    C1414516   1.933   5.180   2.261  0.2590  0.0863  0.2007
  135OSM   H14A14517   1.945   5.149   2.364 -1.7258  0.0998  0.4809
  135OSM   H14B14518   2.027   5.212   2.218  0.0652 -1.6969 -1.7346
  135OSM   H14C14519   1.915   5.080   2.224  3.2552 -1.5993  2.8036
  135OSM    C1314520   1.832   5.398   2.312 -0.0847 -0.9754  0.0679
  135OSM   H13A14521   1.757   5.473   2.290 -0.5446 -0.9640  1.5153
  135OSM   H13B14522   1.929   5.436   2.284 -1.8260  1.9824 -2.6740
  135OSM   H13C14523   1.844   5.375   2.417  2.9415 -1.2078 -0.2416
  135OSM    C1214524   1.694   5.196   2.322 -0.3932 -0.7261  0.8114
  135OSM   H12A14525   1.615   5.268   2.338  0.7801  1.0066 -0.7013
  135OSM   H12B14526   1.727   5.196   2.425  0.0513  0.6589  0.6956
  135OSM    C1114527   1.651   5.058   2.275  0.1065 -0.1892  0.6836
  135OSM   H11A14528   1.610   5.077   2.174 -0.7586 -0.7087  0.9228
  135OSM   H11B14529   1.568   5.024   2.341  0.8966  1.4550  2.6413
  135OSM      P14530   1.783   4.853   2.380  0.3937  0.5902 -0.2564
  135OSM    O1314531   1.732   4.728   2.324  0.4775  0.4679  0.5283
  135OSM    O1414532   1.925   4.848   2.418 -0.0685  0.1756 -0.1673
  135OSM    O1114533   1.686   4.889   2.496 -0.2135 -0.1257 -0.4740
  135OSM    O1214534   1.760   4.966   2.271  0.2232  0.5271 -0.1684
  135OSM    C1S14535   1.749   4.947   2.613  0.1622  0.2530 -0.2382
  135OSM    H1S14536   1.756   5.057   2.602  0.0484  0.2737 -0.1006
  135OSM    H1T14537   1.844   4.899   2.644 -0.2549 -1.0663 -0.8938
  135OSM     NF14538   1.713   5.005   2.846  0.3244 -0.4353  0.2311
  135OSM    HNF14539   1.743   4.956   2.927  0.1092 -0.9290  0.0179
  135OSM    C2S14540   1.662   4.921   2.738  0.0550  0.4290  0.0859
  135OSM    H2S14541   1.560   4.958   2.713  0.9056  1.7775 -1.5960
  135OSM    C3S14542   1.640   4.762   2.768 -0.2537 -0.2295 -0.2073
  135OSM    H3S14543   1.745   4.726   2.780 -0.4049 -1.0416 -1.2518
  135OSM     O314544   1.587   4.692   2.659 -0.0297 -0.2281  0.1138
  135OSM    HO314545   1.574   4.758   2.589 -1.0139 -0.0593  0.4418
  135OSM    C4S14546   1.549   4.737   2.894 -0.5645  0.9182  0.6687
  135OSM    H4S14547   1.604   4.705   2.984 -0.4902 -1.7522 -0.2705
  135OSM    C5S14548   1.419   4.774   2.897 -0.1999 -0.4908 -0.4995
  135OSM    H5S14549   1.365   4.811   2.809 -1.4569 -1.2844 -0.0894
  135OSM    C6S14550   1.331   4.749   3.019 -0.5646 -0.1961  0.4713
  135OSM    H6S14551   1.266   4.661   3.005 -0.1116 -0.8223  2.0007
  135OSM    H6T14552   1.268   4.840   3.018 -0.5216 -0.1519 -1.7887
  135OSM    C7S14553   1.392   4.721   3.157 -0.4472  0.0337 -0.1180
  135OSM    H7S14554   1.467   4.799   3.184 -0.8790  0.2080  0.5972
  135OSM    H7T14555   1.443   4.622   3.158 -0.9083 -0.2449 -1.8204
  135OSM    C8S14556   1.290   4.722   3.269 -0.4736  0.4006  0.2551
  135OSM    H8S14557   1.330   4.672   3.360 -2.9701 -0.9522  0.7216
  135OSM    H8T14558   1.209   4.647   3.253 -0.6110  0.4872  0.5433
  135OSM    C9S14559   1.246   4.859   3.299  0.3397 -0.3712  0.1625
  135OSM    H9S14560   1.202   4.914   3.213 -2.9088 -1.0509  1.2322
  135OSM    H9T14561   1.340   4.910   3.328  0.3729  0.4744 -1.3604
  135OSM   C10S14562   1.143   4.876   3.416  0.3114  0.3542 -1.1769
  135OSM   H10S14563   1.050   4.819   3.394  1.3657 -1.2944 -1.4870
  135OSM   H10T14564   1.118   4.984   3.432 -0.8216 -0.2016  1.3617
  135OSM   C11S14565   1.193   4.828   3.555 -0.3034  0.6171  0.1301
  135OSM   H11S14566   1.301   4.855   3.560 -0.1280 -0.1918  1.1836
  135OSM   H11T14567   1.202   4.717   3.561  1.4479  0.7247  0.1491
  135OSM   C12S14568   1.117   4.878   3.669 -0.2057 -0.5791 -0.6333
  135OSM   H12S14569   1.011   4.851   3.647 -0.5538 -0.6752  1.0255
  135OSM   H12T14570   1.112   4.988   3.659 -1.4592 -0.6712 -1.3582
  135OSM   C13S14571   1.171   4.816   3.793  0.5691  0.2947 -1.0754
  135OSM   H13S14572   1.273   4.858   3.803  1.2683 -1.4477 -0.4022
  135OSM   H13T14573   1.173   4.705   3.787 -0.2607  0.3001 -1.6975
  135OSM   C14S14574   1.086   4.854   3.918 -0.4622  0.3311 -0.7204
  135OSM   H14S14575   0.989   4.802   3.903  0.3599 -1.8453  1.0719
  135OSM   H14T14576   1.067   4.963   3.905 -1.4497  0.3019  0.3168
  135OSM   C15S14577   1.154   4.804   4.051 -0.1230 -0.6291 -0.2653
  135OSM   H15S14578   1.245   4.866   4.064  0.6935 -2.0703  1.3009
  135OSM   H15T14579   1.162   4.694   4.066 -1.1532 -0.6698  0.1300
  135OSM   C16S14580   1.072   4.835   4.171 -0.0652 -0.1732 -0.5345
  135OSM   H16S14581   0.980   4.773   4.171 -0.4852  0.2685  3.1217
  135OSM   H16T14582   1.032   4.938   4.165  1.6098  0.5980  0.7841
  135OSM   C17S14583   1.137   4.813   4.313  0.4169 -0.3086  0.0357
  135OSM   H17S14584   1.085   4.879   4.385  1.2122  0.4238 -0.0372
  135OSM   H17T14585   1.246   4.835   4.321  0.5193 -1.4931  2.6032
  135OSM   C18S14586   1.118   4.665   4.353 -0.2538 -0.2824  0.6534
  135OSM   H18S14587   1.012   4.632   4.341 -0.7700  0.5502  2.5717
  135OSM   H18T14588   1.147   4.657   4.459  3.6711  2.1221 -0.0384
  135OSM   H18U14589   1.181   4.595   4.293 -1.1423  0.4369 -1.2238
  135OSM    C1F14590   1.713   5.143   2.840 -0.6922 -0.2299 -0.0532
  135OSM     OF14591   1.673   5.211   2.748 -0.4085  0.2429  0.2405
  135OSM    C2F14592   1.791   5.219   2.958  0.5914 -0.0178 -0.3284
  135OSM    H2F14593   1.896   5.183   2.954  0.2782 -1.3423  1.5887
  135OSM    H2G14594   1.752   5.188   3.058  0.7984 -0.4572 -0.3825
  135OSM    C3F14595   1.792   5.378   2.933  0.9311  0.4647  0.0653
  135OSM    H3F14596   1.686   5.408   2.934  0.1927 -1.9249  0.8694
  135OSM    H3G14597   1.837   5.399   2.833  1.0140  0.0767  0.0185
  135OSM    C4F14598   1.868   5.450   3.041 -0.3324 -0.7360  0.1557
  135OSM    H4F14599   1.825   5.414   3.137 -0.8602  1.5667  0.8619
  135OSM    H4G14600   1.859   5.560   3.055  2.4827 -0.3680 -0.2774
  135OSM    C5F14601   2.023   5.442   3.041  0.3273  0.8293 -0.6841
  135OSM    H5F14602   2.070   5.512   2.969  1.1965  0.5713 -0.3800
  135OSM    H5G14603   2.053   5.339   3.010  2.2322  1.9779 -2.9352
  135OSM    C6F14604   2.082   5.454   3.180 -0.2750 -0.7503 -0.5371
  135OSM    H6F14605   2.069   5.560   3.210  2.6877 -0.4603  0.1323
  135OSM    H6G14606   2.191   5.429   3.174 -0.2986 -1.9579  2.1913
  135OSM    C7F14607   2.019   5.347   3.277 -0.3106  0.6174 -0.0191
  135OSM    H7F14608   2.028   5.254   3.216 -2.3101  0.7067 -0.5226
  135OSM    H7G14609   1.913   5.361   3.307 -0.5466 -1.6807  0.3883
  135OSM    C8F14610   2.109   5.319   3.398 -0.6901  0.5833 -1.3142
  135OSM    H8F14611   2.214   5.317   3.363  0.0902 -0.1144  0.8982
  135OSM    H8G14612   2.095   5.220   3.446  0.3222  0.5944 -0.9807
  135OSM    C9F14613   2.087   5.422   3.506 -0.3110 -0.4617  0.2930
  135OSM    H9F14614   2.131   5.520   3.483 -2.0053  0.4434  0.7598
  135OSM   C10F14615   2.010   5.410   3.615 -0.1507 -0.0416 -0.2779
  135OSM   H10F14616   2.009   5.491   3.689  0.9232  0.4232 -0.7532
  135OSM   C11F14617   1.926   5.290   3.652  0.4625  0.9980 -0.5789
  135OSM   H11F14618   1.934   5.206   3.581  0.6736  2.1614 -1.9858
  135OSM   H11G14619   1.822   5.329   3.652  0.1714  0.2607 -2.0158
  135OSM   C12F14620   1.950   5.248   3.796  0.0806  0.0793 -0.2164
  135OSM   H12F14621   2.059   5.237   3.812 -0.1861 -0.2760  1.5480
  135OSM   H12G14622   1.901   5.148   3.804  0.6423 -0.0819  1.6143
  135OSM   C13F14623   1.888   5.339   3.911  0.4261 -0.0677  0.3313
  135OSM   H13F14624   1.777   5.335   3.900  0.4481  0.7647 -0.3130
  135OSM   H13G14625   1.910   5.444   3.883  0.3728  0.3057  1.6163
  135OSM   C14F14626   1.928   5.306   4.054 -0.5461 -0.0611  0.4498
  135OSM   H14F14627   1.911   5.201   4.086  0.9881  0.3131  2.6684
  135OSM   H14G14628   1.871   5.376   4.118 -0.6402  0.5907 -0.3226
  135OSM   C15F14629   2.077   5.325   4.087  0.2057  0.0679  0.7869
  135OSM   H15F14630   2.101   5.429   4.055  2.6084 -0.7463 -0.2415
  135OSM   H15G14631   2.136   5.255   4.024  0.0882 -0.1049  0.8677
  135OSM   C16F14632   2.105   5.294   4.232 -0.3855 -0.0619  0.5138
  135OSM   H16F14633   2.063   5.197   4.265  1.2897 -1.2064 -0.5780
  135OSM   H16G14634   2.056   5.373   4.293 -0.2444 -0.9659  1.8489
  135OSM   C17F14635   2.249   5.297   4.281 -0.1466 -0.2792 -0.4364
  135OSM   H17F14636   2.304   5.393   4.278  2.5393 -1.7283 -1.7685
  135OSM   H17G14637   2.312   5.219   4.232  0.7265  0.6818 -0.8584
  135OSM   C18F14638   2.254   5.264   4.431 -0.4932 -0.1308  0.3376
  135OSM   H18F14639   2.211   5.341   4.499  0.5184  0.7468  0.0077
  135OSM   H18G14640   2.358   5.240   4.461 -0.0243  0.4896 -0.7390
  135OSM   H18H14641   2.192   5.173   4.449 -1.6058  0.9928  2.5846
  136OSM      N14642   6.085   6.287   2.354 -0.5706 -0.1625 -0.0878
  136OSM    C1514643   6.186   6.183   2.367  0.2346 -0.1019  0.1721
  136OSM   H15A14644   6.245   6.175   2.277 -0.6829 -1.2171 -0.3632
  136OSM   H15B14645   6.146   6.083   2.365  2.1701 -0.9204 -0.8130
  136OSM   H15C14646   6.254   6.205   2.448  0.5179  2.2061 -0.6119
  136OSM    C1414647   6.003   6.250   2.236  0.2556 -0.3624 -0.2914
  136OSM   H14A14648   5.932   6.325   2.204 -1.9210 -3.0262 -2.1882
  136OSM   H14B14649   5.943   6.161   2.248 -1.2690  0.6649 -0.0891
  136OSM   H14C14650   6.068   6.235   2.151  1.5364 -2.4689  0.9822
  136OSM    C1314651   6.011   6.272   2.489  0.6780  0.7219 -0.2579
  136OSM   H13A14652   5.923   6.333   2.505 -0.1780 -0.3104 -0.8851
  136OSM   H13B14653   6.071   6.296   2.575  0.0108  0.2261  0.3624
  136OSM   H13C14654   5.980   6.170   2.505  0.7376  0.9862  1.7279
  136OSM    C1214655   6.151   6.421   2.341 -0.6873  0.4229  0.4432
  136OSM   H12A14656   6.073   6.496   2.338 -0.4814  0.7542  2.0348
  136OSM   H12B14657   6.200   6.416   2.245  1.5915 -1.2207  1.5818
  136OSM    C1114658   6.258   6.471   2.445  0.0071  0.3802  0.1526
  136OSM   H11A14659   6.304   6.565   2.409 -0.4425 -0.4116 -2.7198
  136OSM   H11B14660   6.344   6.401   2.448 -0.2388  0.1031  1.0359
  136OSM      P14661   6.123   6.597   2.625  0.2165 -0.1676 -0.2154
  136OSM    O1314662   6.087   6.678   2.512 -0.1616 -0.1274  0.4023
  136OSM    O1414663   6.018   6.552   2.723 -0.0447 -0.7085 -0.3397
  136OSM    O1114664   6.246   6.665   2.700  0.2775  0.0742  0.5104
  136OSM    O1214665   6.203   6.477   2.577  0.0796 -0.0720  0.0391
  136OSM    C1S14666   6.242   6.802   2.754  0.7076  0.3363  0.5036
  136OSM    H1S14667   6.186   6.876   2.693  0.6958  1.6408  2.0329
  136OSM    H1T14668   6.348   6.835   2.759  1.3643 -1.4281 -0.9859
  136OSM     NF14669   6.176   6.932   2.957  0.4066 -0.7337 -0.1875
  136OSM    HNF14670   6.257   6.959   3.008  0.0681 -1.6151  0.8626
  136OSM    C2S14671   6.202   6.799   2.905 -0.0918 -0.0599  0.4361
  136OSM    H2S14672   6.105   6.746   2.916  0.1953 -1.3054 -2.0994
  136OSM    C3S14673   6.313   6.716   2.991  0.6726 -0.1499  0.6575
  136OSM    H3S14674   6.406   6.771   2.968  0.6441 -0.0285  0.8284
  136OSM     O314675   6.340   6.584   2.935 -0.4673 -0.0676  0.3231
  136OSM    HO314676   6.316   6.589   2.843 -1.9748  0.2612  0.6978
  136OSM    C4S14677   6.267   6.703   3.131  0.0084 -0.3917 -0.3863
  136OSM    H4S14678   6.180   6.637   3.140 -0.1120 -0.1405  0.3531
  136OSM    C5S14679   6.321   6.744   3.242 -0.1115 -0.2149 -0.2886
  136OSM    H5S14680   6.414   6.803   3.232 -0.1181 -0.3441 -1.1850
  136OSM    C6S14681   6.283   6.708   3.388  0.3294  0.1755 -0.4318
  136OSM    H6S14682   6.316   6.790   3.456 -0.8101  0.2940 -0.0107
  136OSM    H6T14683   6.348   6.627   3.428  0.5536  0.8107  0.5463
  136OSM    C7S14684   6.136   6.678   3.413 -0.3502  0.3256  0.3840
  136OSM    H7S14685   6.104   6.583   3.364  2.0011  0.0968 -0.8623
  136OSM    H7T14686   6.070   6.753   3.363  1.0478 -0.2975 -2.6453
  136OSM    C8S14687   6.109   6.671   3.567  0.0174  0.0713  0.4629
  136OSM    H8S14688   5.999   6.658   3.580 -0.0352 -0.0959 -0.1030
  136OSM    H8T14689   6.118   6.774   3.609 -1.7968  0.7806 -0.7374
  136OSM    C9S14690   6.200   6.568   3.641  0.4883  0.0056 -0.3680
  136OSM    H9S14691   6.299   6.615   3.657 -0.3344  0.8146  3.1736
  136OSM    H9T14692   6.209   6.471   3.587  0.1710 -1.0212  1.3665
  136OSM   C10S14693   6.139   6.538   3.782  0.0767  0.2625 -0.0926
  136OSM   H10S14694   6.205   6.460   3.824 -0.0855 -0.6614 -1.4874
  136OSM   H10T14695   6.033   6.506   3.781 -0.3342  1.5400  0.6471
  136OSM   C11S14696   6.145   6.659   3.873  0.1384 -0.1594 -0.7027
  136OSM   H11S14697   6.068   6.735   3.850 -1.7090 -1.9479 -0.7520
  136OSM   H11T14698   6.247   6.702   3.870  0.1310  0.2147  2.0632
  136OSM   C12S14699   6.117   6.632   4.027  0.0908  0.5481  0.0609
  136OSM   H12S14700   6.141   6.726   4.081 -0.7026  1.3603 -0.9549
  136OSM   H12T14701   6.191   6.568   4.078  0.3688  0.3402 -0.5915
  136OSM   C13S14702   5.973   6.585   4.054 -1.6158  0.1222  1.1385
  136OSM   H13S14703   5.964   6.475   4.046  0.7417 -0.1100  1.1050
  136OSM   H13T14704   5.912   6.644   3.982 -0.1916 -0.4970 -0.6367
  136OSM   C14S14705   5.923   6.610   4.197  0.3725 -0.2082  0.2062
  136OSM   H14S14706   5.828   6.558   4.219  0.3955 -0.6414 -0.6562
  136OSM   H14T14707   5.911   6.720   4.210 -1.3837 -0.2985 -0.4237
  136OSM   C15S14708   6.009   6.555   4.304  0.3617 -0.0012 -0.0924
  136OSM   H15S14709   6.106   6.610   4.301 -0.9473  2.4914  0.6180
  136OSM   H15T14710   6.027   6.447   4.284 -0.5486 -0.0635 -0.5933
  136OSM   C16S14711   5.939   6.559   4.450 -0.3770  0.3836  0.9562
  136OSM   H16S14712   5.839   6.513   4.432  0.6340 -0.9070 -1.9970
  136OSM   H16T14713   5.939   6.663   4.489  0.6256 -0.7090  4.2046
  136OSM   C17S14714   6.030   6.475   4.542 -0.6914  0.7480 -0.3795
  136OSM   H17S14715   6.135   6.504   4.525 -0.5936 -0.0705 -1.2787
  136OSM   H17T14716   6.044   6.372   4.503  0.9905  2.0135 -3.4613
  136OSM   C18S14717   5.994   6.471   4.691 -0.0914 -0.9811  0.1237
  136OSM   H18S14718   5.956   6.567   4.733 -2.4853 -1.6037 -0.5114
  136OSM   H18T14719   6.084   6.443   4.750 -0.0010 -1.4387 -0.2335
  136OSM   H18U14720   5.913   6.397   4.708 -1.1517  0.4494  1.6452
  136OSM    C1F14721   6.067   7.015   2.935 -0.7281  0.3843  0.2330
  136OSM     OF14722   5.968   6.982   2.866 -0.2510 -0.5184 -0.0830
  136OSM    C2F14723   6.076   7.148   3.001  0.1941  0.5963  0.0527
  136OSM    H2F14724   6.051   7.228   2.927  0.6692  0.3822 -0.3455
  136OSM    H2G14725   6.183   7.159   3.026  1.4491 -1.0178 -3.7765
  136OSM    C3F14726   5.991   7.162   3.125  0.0540 -0.1106 -0.4739
  136OSM    H3F14727   5.996   7.066   3.182  0.1551  0.1957  0.0369
  136OSM    H3G14728   5.883   7.161   3.096  0.0693 -1.6309 -0.5708
  136OSM    C4F14729   6.019   7.296   3.199 -0.0377  0.1417 -0.7850
  136OSM    H4F14730   6.027   7.381   3.128  1.8702  0.4896 -0.1941
  136OSM    H4G14731   6.122   7.299   3.240  0.3952  0.2930 -1.8552
  136OSM    C5F14732   5.915   7.329   3.312 -0.0710 -0.2220  0.5161
  136OSM    H5F14733   5.896   7.236   3.369 -0.5030  0.7948  2.0794
  136OSM    H5G14734   5.824   7.356   3.253  0.5488  0.7532 -0.0268
  136OSM    C6F14735   5.962   7.445   3.392  0.4172  0.3345 -0.1049
  136OSM    H6F14736   5.989   7.533   3.330  2.5435  1.4602  2.2544
  136OSM    H6G14737   6.061   7.425   3.438  0.5271  0.2320 -0.3813
  136OSM    C7F14738   5.857   7.484   3.499 -0.1530 -0.6659  0.2831
  136OSM    H7F14739   5.856   7.408   3.580 -1.5970  0.4276  1.3591
  136OSM    H7G14740   5.759   7.495   3.448  0.7830 -1.3847 -1.8018
  136OSM    C8F14741   5.881   7.621   3.571  0.2378 -0.0390 -0.4544
  136OSM    H8F14742   5.806   7.633   3.653 -0.4160 -1.3241 -0.8502
  136OSM    H8G14743   5.881   7.697   3.490  1.8689  1.1424  0.5846
  136OSM    C9F14744   6.019   7.614   3.623  0.2603  0.3665 -0.2787
  136OSM    H9F14745   6.096   7.663   3.562  0.9717 -0.3891 -0.0116
  136OSM   C10F14746   6.072   7.567   3.737  0.0295  0.0218  0.0696
  136OSM   H10F14747   6.177   7.587   3.764  0.5746 -2.2905 -0.1776
  136OSM   C11F14748   5.996   7.510   3.845 -0.8802 -0.1478 -0.4419
  136OSM   H11F14749   5.962   7.407   3.822  0.1884 -0.7077  0.4377
  136OSM   H11G14750   5.903   7.570   3.859 -1.2806 -0.6304 -0.9680
  136OSM   C12F14751   6.075   7.494   3.974 -0.1365  0.3971 -0.0444
  136OSM   H12F14752   6.125   7.591   3.993 -2.6995  1.4414  1.9502
  136OSM   H12G14753   6.157   7.418   3.972 -1.0328 -0.5859 -0.3227
  136OSM   C13F14754   5.991   7.473   4.100  0.0426  0.1880 -0.3562
  136OSM   H13F14755   5.958   7.368   4.109 -2.7639  0.8466 -1.8552
  136OSM   H13G14756   5.896   7.529   4.092 -1.1485 -1.1931  2.5634
  136OSM   C14F14757   6.068   7.519   4.224 -0.2678 -0.1513  0.0725
  136OSM   H14F14758   6.078   7.629   4.220 -1.6792 -0.0313 -0.8790
  136OSM   H14G14759   6.170   7.473   4.222 -1.1236 -2.2894  1.3783
  136OSM   C15F14760   6.008   7.461   4.355 -0.4902  0.1633  0.3810
  136OSM   H15F14761   5.968   7.360   4.334 -0.7202  0.3482 -0.0895
  136OSM   H15G14762   5.925   7.523   4.398 -0.5972  0.8947 -0.8461
  136OSM   C16F14763   6.103   7.465   4.470  0.1300 -0.6950  0.3651
  136OSM   H16F14764   6.137   7.568   4.495 -0.3315 -0.0455 -1.5679
  136OSM   H16G14765   6.197   7.414   4.438  0.4466 -0.9438  1.6313
  136OSM   C17F14766   6.045   7.414   4.601  0.4554 -0.6742  0.3527
  136OSM   H17F14767   5.977   7.328   4.590 -0.2081 -0.2331  0.9487
  136OSM   H17G14768   5.987   7.494   4.651  1.4878  0.3616 -0.0572
  136OSM   C18F14769   6.152   7.367   4.698 -0.3011  0.5271 -0.4914
  136OSM   H18F14770   6.217   7.285   4.661  0.0307 -1.0197  3.0487
  136OSM   H18G14771   6.112   7.328   4.794  0.9926 -1.7919 -0.8338
  136OSM   H18H14772   6.213   7.452   4.736  2.4884 -1.7371  0.4531
  137OSM      N14773   2.181   6.088   2.325  0.4513  0.2315  0.6523
  137OSM    C1514774   2.152   5.973   2.227  0.0431 -0.5578  0.1300
  137OSM   H15A14775   2.163   5.880   2.281  3.5431  0.3247  1.1445
  137OSM   H15B14776   2.218   5.962   2.142 -1.2162 -2.0074 -0.7180
  137OSM   H15C14777   2.052   5.988   2.190 -0.0067  1.8967  1.1192
  137OSM    C1414778   2.321   6.082   2.376  0.4375 -0.4131  0.0468
  137OSM   H14A14779   2.396   6.091   2.299  0.8812 -0.2378  0.4948
  137OSM   H14B14780   2.343   5.984   2.418  0.0014 -1.3450 -1.8088
  137OSM   H14C14781   2.328   6.156   2.455 -1.3034  0.0612 -0.1993
  137OSM    C1314782   2.148   6.225   2.268 -0.2784  0.0574 -0.2323
  137OSM   H13A14783   2.147   6.294   2.351 -0.8210 -0.3162  0.0748
  137OSM   H13B14784   2.047   6.229   2.231 -0.0390  0.3959 -0.8504
  137OSM   H13C14785   2.211   6.250   2.184  3.6351 -1.7820  1.8498
  137OSM    C1214786   2.084   6.069   2.444  0.3431 -0.5464 -0.3882
  137OSM   H12A14787   2.099   6.152   2.511 -1.7293 -0.0705 -0.4363
  137OSM   H12B14788   2.093   5.970   2.486  1.5168 -0.3766 -0.2173
  137OSM    C1114789   1.930   6.086   2.417  0.0816 -0.9518  0.0790
  137OSM   H11A14790   1.918   6.184   2.365 -0.3953 -0.9680  0.1545
  137OSM   H11B14791   1.870   6.091   2.510  0.8445 -1.6461  0.6315
  137OSM      P14792   1.832   5.840   2.374  0.2164  0.2567  0.1110
  137OSM    O1314793   1.850   5.745   2.261  0.2284 -0.1004 -1.0586
  137OSM    O1414794   1.901   5.794   2.499  0.2698  0.3680  0.6139
  137OSM    O1114795   1.678   5.884   2.403  0.2187  0.6578  0.1002
  137OSM    O1214796   1.881   5.984   2.335  0.0887  0.0442  0.0350
  137OSM    C1S14797   1.600   5.818   2.500  0.0640  0.2688  0.2711
  137OSM    H1S14798   1.629   5.712   2.515 -0.4533 -0.0904 -1.1386
  137OSM    H1T14799   1.497   5.803   2.461  1.1422 -1.2555 -2.2477
  137OSM     NF14800   1.508   5.812   2.738 -0.3739 -0.2099  0.0598
  137OSM    HNF14801   1.417   5.846   2.759 -0.2751  0.0388  0.0867
  137OSM    C2S14802   1.588   5.892   2.637  0.1612  0.9122 -0.8369
  137OSM    H2S14803   1.690   5.906   2.678 -0.0430 -1.9777  0.9591
  137OSM    C3S14804   1.532   6.037   2.618 -0.3639 -0.1980  0.5188
  137OSM    H3S14805   1.427   6.030   2.581 -0.8980  0.9819  1.7204
  137OSM     O314806   1.605   6.108   2.519  0.1027  0.1731 -0.0729
  137OSM    HO314807   1.638   6.034   2.467 -1.6238 -1.5430  1.1406
  137OSM    C4S14808   1.557   6.105   2.739 -0.3163 -0.4365  0.4515
  137OSM    H4S14809   1.660   6.140   2.752 -0.0400 -0.4048 -1.6245
  137OSM    C5S14810   1.457   6.139   2.825  0.0295 -0.3403 -0.6017
  137OSM    H5S14811   1.355   6.102   2.810  0.2248 -0.8108 -0.7946
  137OSM    C6S14812   1.482   6.217   2.954  0.4972  0.3289  0.2954
  137OSM    H6S14813   1.447   6.320   2.932 -1.4855 -0.4454 -0.4331
  137OSM    H6T14814   1.590   6.235   2.972  0.8038 -1.3447  0.2643
  137OSM    C7S14815   1.412   6.143   3.069 -0.1341 -0.2662 -0.5223
  137OSM    H7S14816   1.439   6.035   3.066  0.4512 -0.1102 -1.9357
  137OSM    H7T14817   1.303   6.152   3.051  0.1579  1.9455 -1.5001
  137OSM    C8S14818   1.447   6.179   3.216 -0.3165 -0.3572 -0.2039
  137OSM    H8S14819   1.372   6.133   3.283  0.5721  0.6065  1.5174
  137OSM    H8T14820   1.423   6.287   3.220  0.4147 -0.1906 -0.2072
  137OSM    C9S14821   1.599   6.155   3.251  0.3098  0.5533  0.3286
  137OSM    H9S14822   1.656   6.205   3.170 -0.3768 -3.2020 -2.7724
  137OSM    H9T14823   1.615   6.045   3.253 -0.8475  0.3691  0.0616
  137OSM   C10S14824   1.631   6.211   3.391  0.2286  0.4250 -0.0328
  137OSM   H10S14825   1.600   6.317   3.375  1.1982  0.3855 -2.9143
  137OSM   H10T14826   1.741   6.219   3.407  0.3688  1.1623 -1.1914
  137OSM   C11S14827   1.561   6.142   3.508 -0.0257 -0.0138 -0.5809
  137OSM   H11S14828   1.592   6.036   3.514  2.6227  0.6644 -1.2292
  137OSM   H11T14829   1.450   6.143   3.498 -0.1302  1.9807  0.2872
  137OSM   C12S14830   1.583   6.211   3.646  0.5064 -0.6407  0.7924
  137OSM   H12S14831   1.523   6.304   3.650 -0.4097 -1.2783  4.0127
  137OSM   H12T14832   1.691   6.232   3.662  0.2465  0.7283  0.8592
  137OSM   C13S14833   1.522   6.130   3.764  0.2503 -0.0514  0.6771
  137OSM   H13S14834   1.539   6.021   3.754 -2.5777 -0.4968 -0.3855
  137OSM   H13T14835   1.413   6.148   3.747  0.0403 -1.3747  0.4476
  137OSM   C14S14836   1.561   6.182   3.898  0.1486 -0.5490  0.0012
  137OSM   H14S14837   1.491   6.263   3.926  1.2610  0.6406 -0.5402
  137OSM   H14T14838   1.666   6.214   3.912 -0.3111  1.5468 -0.9120
  137OSM   C15S14839   1.544   6.062   3.996 -0.2710  0.0324 -0.2749
  137OSM   H15S14840   1.618   5.983   3.968 -2.3621 -2.3927  0.5871
  137OSM   H15T14841   1.444   6.013   3.986 -0.2988  0.0670 -0.1677
  137OSM   C16S14842   1.559   6.088   4.144 -0.0382  0.2150  0.0694
  137OSM   H16S14843   1.463   6.134   4.178  0.0644  0.8123 -0.4191
  137OSM   H16T14844   1.638   6.164   4.156  1.3822 -0.7463 -2.3958
  137OSM   C17S14845   1.593   5.973   4.242 -0.0798  0.3571  0.2378
  137OSM   H17S14846   1.685   5.923   4.203 -1.3205  0.6825 -3.5882
  137OSM   H17T14847   1.515   5.896   4.222 -0.9943  1.4683 -0.5645
  137OSM   C18S14848   1.590   6.009   4.391  0.5754  1.2639 -0.0096
  137OSM   H18S14849   1.673   6.078   4.416  1.0727 -0.1023  2.4352
  137OSM   H18T14850   1.593   5.917   4.453 -1.8980  1.1447  0.0296
  137OSM   H18U14851   1.500   6.066   4.419 -0.9049 -0.0434 -1.8269
  137OSM    C1F14852   1.559   5.703   2.805 -0.3126 -0.7410 -0.0332
  137OSM     OF14853   1.657   5.642   2.764  0.8197 -0.3529  0.4325
  137OSM    C2F14854   1.492   5.671   2.927 -0.1052  0.4776 -0.4494
  137OSM    H2F14855   1.491   5.560   2.932 -1.1120  0.5134  3.1845
  137OSM    H2G14856   1.390   5.717   2.923  0.5101  1.9430 -0.1593
  137OSM    C3F14857   1.580   5.731   3.042 -0.1748 -0.0290 -0.0185
  137OSM    H3F14858   1.581   5.840   3.023 -0.0173 -0.2577 -1.4256
  137OSM    H3G14859   1.685   5.695   3.033 -0.6570 -1.2734 -0.9464
  137OSM    C4F14860   1.521   5.686   3.174  0.1894  0.4490  0.4689
  137OSM    H4F14861   1.511   5.576   3.167 -0.1956  0.4554  0.8632
  137OSM    H4G14862   1.419   5.728   3.187 -0.2253 -0.2000 -0.5678
  137OSM    C5F14863   1.601   5.721   3.302 -0.6614  0.5678 -0.0278
  137OSM    H5F14864   1.599   5.831   3.320  2.1140  0.3291  2.6834
  137OSM    H5G14865   1.708   5.711   3.274 -0.2580 -0.8688  1.8239
  137OSM    C6F14866   1.557   5.646   3.423 -0.2902  0.1077 -0.4152
  137OSM    H6F14867   1.529   5.539   3.410 -4.2021  1.0657 -1.0705
  137OSM    H6G14868   1.470   5.704   3.460 -0.4822 -0.0333 -0.6375
  137OSM    C7F14869   1.659   5.648   3.546  0.3495  0.3108  0.2575
  137OSM    H7F14870   1.690   5.754   3.563 -0.9934  0.7675 -0.0360
  137OSM    H7G14871   1.754   5.594   3.525  0.6159  0.5615  0.7917
  137OSM    C8F14872   1.611   5.583   3.674  1.0185 -0.2418  0.4558
  137OSM    H8F14873   1.688   5.534   3.737  1.6357 -1.0376 -0.8727
  137OSM    H8G14874   1.549   5.494   3.646 -2.7220  1.4408  2.5383
  137OSM    C9F14875   1.520   5.673   3.758 -0.3617 -0.0110 -0.0440
  137OSM    H9F14876   1.493   5.768   3.709  0.5584  0.5733  0.5547
  137OSM   C10F14877   1.472   5.644   3.875 -0.0551 -0.3962 -0.0253
  137OSM   H10F14878   1.388   5.704   3.915 -1.0339  0.3030 -2.8874
  137OSM   C11F14879   1.507   5.525   3.962 -0.0705 -0.8973  0.2350
  137OSM   H11F14880   1.608   5.483   3.943 -0.0505 -0.6050 -0.3289
  137OSM   H11G14881   1.434   5.441   3.956 -1.9906  0.7900 -2.2472
  137OSM   C12F14882   1.512   5.562   4.108 -0.3247  0.0794 -0.3158
  137OSM   H12F14883   1.414   5.609   4.131  0.6577  2.1981 -0.2474
  137OSM   H12G14884   1.596   5.632   4.127 -0.6764  0.3848  0.1236
  137OSM   C13F14885   1.525   5.434   4.201  0.3479  0.6339 -0.0872
  137OSM   H13F14886   1.612   5.372   4.172 -0.8226  0.2176 -3.0095
  137OSM   H13G14887   1.430   5.381   4.179  1.2414 -1.2113  0.3294
  137OSM   C14F14888   1.539   5.475   4.343  0.7121  0.3303 -0.6227
  137OSM   H14F14889   1.441   5.513   4.378  0.2719 -1.7580  0.5731
  137OSM   H14G14890   1.627   5.541   4.361  0.7276 -0.0772  0.9973
  137OSM   C15F14891   1.570   5.341   4.415 -0.0204 -0.4570  0.6563
  137OSM   H15F14892   1.657   5.299   4.360 -1.8526 -1.1639 -1.8944
  137OSM   H15G14893   1.488   5.270   4.392  1.6029 -2.5924  1.1583
  137OSM   C16F14894   1.597   5.367   4.560  0.4659 -0.2165 -0.5946
  137OSM   H16F14895   1.518   5.423   4.614  0.7195 -0.0466 -0.3975
  137OSM   H16G14896   1.686   5.433   4.567  0.4203  0.0316 -1.9681
  137OSM   C17F14897   1.626   5.239   4.649 -0.2233  0.2544  0.2041
  137OSM   H17F14898   1.625   5.159   4.571  0.6964  0.3157  0.1190
  137OSM   H17G14899   1.537   5.228   4.715 -0.5818  1.9223  0.0276
  137OSM   C18F14900   1.761   5.245   4.723  0.7373  0.1951  0.2202
  137OSM   H18F14901   1.847   5.261   4.655 -0.3730 -0.8413 -1.5189
  137OSM   H18G14902   1.769   5.156   4.789  0.6560  0.6779  0.8896
  137OSM   H18H14903   1.768   5.330   4.793  2.6949 -0.6999  1.1697
  138OSM      N14904   5.857   1.600   2.685  0.8965 -1.0599 -0.0056
  138OSM    C1514905   5.764   1.716   2.645  0.1759 -0.4684  0.8392
  138OSM   H15A14906   5.719   1.764   2.731 -1.7645 -1.1888  0.2744
  138OSM   H15B14907   5.685   1.670   2.588 -0.1369  2.0062 -0.9144
  138OSM   H15C14908   5.822   1.792   2.595  0.9561  0.3431  2.8466
  138OSM    C1414909   5.976   1.665   2.743 -0.0049  0.2387 -0.4162
  138OSM   H14A14910   6.021   1.740   2.679 -1.7290 -0.0132 -1.9795
  138OSM   H14B14911   6.045   1.586   2.766  1.4560  1.0691 -1.7058
  138OSM   H14C14912   5.965   1.704   2.843 -0.5981 -0.0677 -0.3617
  138OSM    C1314913   5.782   1.520   2.784 -0.8427  0.3087  0.1108
  138OSM   H13A14914   5.738   1.433   2.738  0.6214 -1.8912  2.5956
  138OSM   H13B14915   5.712   1.572   2.848 -2.1278  0.6336 -1.4913
  138OSM   H13C14916   5.859   1.481   2.849 -2.3425 -2.8258  0.1341
  138OSM    C1214917   5.910   1.521   2.568  0.7039  0.2228  0.7598
  138OSM   H12A14918   5.966   1.588   2.504  2.1811 -0.5081  1.2618
  138OSM   H12B14919   5.830   1.472   2.514  0.9208  3.0476 -2.4793
  138OSM    C1114920   6.012   1.409   2.611  0.3884  0.2214 -0.4541
  138OSM   H11A14921   6.015   1.329   2.535  1.4154  1.6312 -1.9951
  138OSM   H11B14922   5.979   1.364   2.707 -1.7983 -2.0921 -2.1947
  138OSM      P14923   6.262   1.378   2.636 -0.0158  0.4519 -0.4907
  138OSM    O1314924   6.272   1.283   2.527  0.0426 -0.0714  0.7873
  138OSM    O1414925   6.378   1.461   2.674  0.1679  0.3940 -0.2587
  138OSM    O1114926   6.223   1.286   2.758  0.0784  0.7600 -0.1735
  138OSM    O1214927   6.134   1.471   2.621  0.3628  0.2490 -0.1678
  138OSM    C1S14928   6.297   1.218   2.857 -0.6169 -0.6759 -0.3031
  138OSM    H1S14929   6.398   1.206   2.813  0.1287  1.1787  0.7770
  138OSM    H1T14930   6.247   1.121   2.877  0.6665 -1.7742 -2.1292
  138OSM     NF14931   6.384   1.225   3.077  0.1943  0.2371  0.2370
  138OSM    HNF14932   6.340   1.170   3.149 -1.7987 -1.2992 -1.9971
  138OSM    C2S14933   6.299   1.296   2.992  0.3280  0.2167 -0.0177
  138OSM    H2S14934   6.346   1.396   2.986 -1.9109  1.2855 -0.2809
  138OSM    C3S14935   6.150   1.330   3.044 -0.0329  0.1772  0.2705
  138OSM    H3S14936   6.096   1.233   3.037 -0.7712  0.2418  3.4097
  138OSM     O314937   6.079   1.431   2.961  0.4235  0.0733 -0.2745
  138OSM    HO314938   6.113   1.405   2.875 -0.9221 -1.5257 -0.3928
  138OSM    C4S14939   6.144   1.373   3.197 -0.3980  0.0277  0.2115
  138OSM    H4S14940   6.188   1.472   3.215  0.2942  0.9408 -4.8905
  138OSM    C5S14941   6.073   1.308   3.287  0.1746  0.2556 -0.1273
  138OSM    H5S14942   6.006   1.226   3.257 -0.9251  0.8831  0.5437
  138OSM    C6S14943   6.069   1.350   3.435  0.5520  0.2902  0.2314
  138OSM    H6S14944   5.962   1.345   3.464  0.5752 -1.0511  0.1548
  138OSM    H6T14945   6.112   1.449   3.460 -0.1003  0.7769 -0.5204
  138OSM    C7S14946   6.152   1.255   3.527 -0.2259 -0.4973 -0.4585
  138OSM    H7S14947   6.250   1.222   3.488 -0.5034 -0.1619 -1.4822
  138OSM    H7T14948   6.088   1.165   3.534 -1.1064  0.2106  1.0085
  138OSM    C8S14949   6.167   1.306   3.672  0.8001 -0.0064  0.3486
  138OSM    H8S14950   6.061   1.307   3.704  0.8747 -1.3669  0.6999
  138OSM    H8T14951   6.207   1.409   3.685 -1.4561  0.8392  1.0484
  138OSM    C9S14952   6.232   1.205   3.763 -0.2653 -0.0586 -0.1241
  138OSM    H9S14953   6.330   1.172   3.723 -1.0214 -2.8125  0.0777
  138OSM    H9T14954   6.153   1.127   3.766  1.2543 -1.7066 -1.3692
  138OSM   C10S14955   6.242   1.261   3.903  0.7323 -0.5616  0.6080
  138OSM   H10S14956   6.148   1.318   3.924 -1.0235 -2.9356 -0.3120
  138OSM   H10T14957   6.326   1.333   3.902 -0.6143  1.1443  2.2747
  138OSM   C11S14958   6.248   1.144   4.001 -0.4219  0.4023 -0.5683
  138OSM   H11S14959   6.204   1.049   3.963 -1.2885  0.5093  0.1343
  138OSM   H11T14960   6.181   1.175   4.084 -0.0435  0.3453 -0.2345
  138OSM   C12S14961   6.393   1.113   4.053  0.1840  0.6303 -0.0471
  138OSM   H12S14962   6.431   1.204   4.102 -1.1601  1.5211 -0.5993
  138OSM   H12T14963   6.466   1.080   3.976 -0.8779  1.0665 -1.2927
  138OSM   C13S14964   6.378   1.007   4.165  0.3027 -0.0448  0.1469
  138OSM   H13S14965   6.477   0.956   4.164  0.3661  0.0816 -0.9541
  138OSM   H13T14966   6.302   0.936   4.129  0.8564  0.1373 -1.4425
  138OSM   C14S14967   6.356   1.083   4.296 -0.1206  0.6419  0.1246
  138OSM   H14S14968   6.261   1.139   4.279  1.2615  3.1432  0.1082
  138OSM   H14T14969   6.435   1.158   4.321 -0.3164  1.7570 -2.3286
  138OSM   C15S14970   6.330   0.989   4.413  0.1366 -0.8271  0.0158
  138OSM   H15S14971   6.285   0.896   4.372  0.6508 -0.2253 -1.9969
  138OSM   H15T14972   6.254   1.033   4.482 -0.7496 -0.6491 -1.0515
  138OSM   C16S14973   6.452   0.965   4.496 -0.3103 -0.0161 -0.8943
  138OSM   H16S14974   6.490   1.057   4.544 -3.2913  2.1517 -2.3482
  138OSM   H16T14975   6.520   0.907   4.429  0.2013 -0.1688 -0.2476
  138OSM   C17S14976   6.400   0.870   4.614  0.2264 -0.0884  0.4304
  138OSM   H17S14977   6.380   0.766   4.578 -1.1494 -0.4540  2.1351
  138OSM   H17T14978   6.303   0.918   4.641 -0.4277  0.4679 -2.5176
  138OSM   C18S14979   6.488   0.867   4.741  1.0967  0.0178  0.1891
  138OSM   H18S14980   6.427   0.807   4.811  0.4166  1.3139  0.7367
  138OSM   H18T14981   6.486   0.967   4.789 -2.1860 -0.9406  2.3868
  138OSM   H18U14982   6.589   0.830   4.711  0.1482 -1.3547 -1.4849
  138OSM    C1F14983   6.511   1.212   3.066 -0.4895  0.3881  0.3252
  138OSM     OF14984   6.567   1.270   2.977 -0.2307  0.0541  0.1553
  138OSM    C2F14985   6.590   1.127   3.168 -0.8553  0.1496  0.8325
  138OSM    H2F14986   6.668   1.076   3.106 -2.8786 -0.0609 -1.7560
  138OSM    H2G14987   6.529   1.049   3.219  0.7209 -0.8108  1.3177
  138OSM    C3F14988   6.650   1.221   3.270 -0.0941  0.1807 -0.4947
  138OSM    H3F14989   6.716   1.295   3.220 -0.2110  0.6827  0.0840
  138OSM    H3G14990   6.722   1.159   3.327 -0.0272  1.3484  0.7363
  138OSM    C4F14991   6.555   1.299   3.364  0.1033 -0.2547 -0.1942
  138OSM    H4F14992   6.488   1.222   3.408  1.3057 -0.7364  0.8868
  138OSM    H4G14993   6.507   1.377   3.302 -1.3770 -1.9272 -1.2655
  138OSM    C5F14994   6.626   1.361   3.485  0.0510  0.0752 -0.1783
  138OSM    H5F14995   6.576   1.444   3.540  0.1450  0.3912 -0.5641
  138OSM    H5G14996   6.723   1.406   3.455  0.2435  0.1937  0.6077
  138OSM    C6F14997   6.647   1.261   3.593 -0.3164 -0.4644  0.0860
  138OSM    H6F14998   6.683   1.166   3.550 -0.5552 -0.2509 -0.6128
  138OSM    H6G14999   6.548   1.233   3.636 -0.0881 -1.2077  0.1404
  138OSM    C7F15000   6.736   1.297   3.716 -0.0130  0.4488  0.4376
  138OSM    H7F15001   6.832   1.340   3.680  0.2284 -0.9646 -0.7163
  138OSM    H7G15002   6.770   1.209   3.774 -0.3857  1.1288  1.7221
  138OSM    C8F15003   6.663   1.384   3.818  0.7761  0.0830 -0.3372
  138OSM    H8F15004   6.595   1.321   3.880 -1.2666  1.9038 -0.5926
  138OSM    H8G15005   6.598   1.454   3.761  0.1396  2.0715  2.5849
  138OSM    C9F15006   6.754   1.469   3.903  0.2006 -0.2389 -0.3444
  138OSM    H9F15007   6.803   1.550   3.846  0.3328 -1.2799 -1.7632
  138OSM   C10F15008   6.757   1.482   4.034  0.1564  0.3560  0.1327
  138OSM   H10F15009   6.843   1.540   4.071  1.2792  1.6963 -4.0450
  138OSM   C11F15010   6.693   1.406   4.146 -0.2502  0.1855 -0.0221
  138OSM   H11F15011   6.605   1.348   4.111 -0.2647 -1.2313  2.1930
  138OSM   H11G15012   6.657   1.478   4.222 -3.1529 -1.6848  0.5173
  138OSM   C12F15013   6.795   1.311   4.220  0.1614  0.6970 -0.5245
  138OSM   H12F15014   6.744   1.271   4.310  1.2067  3.1712  1.2666
  138OSM   H12G15015   6.877   1.379   4.251  1.8690 -1.9076  1.1368
  138OSM   C13F15016   6.859   1.199   4.127  0.2809  0.3703 -0.0375
  138OSM   H13F15017   6.899   1.246   4.035 -0.5810 -2.1649 -1.8240
  138OSM   H13G15018   6.781   1.131   4.087 -0.7036  1.9341 -0.8625
  138OSM   C14F15019   6.970   1.124   4.191 -0.3786 -0.4290 -0.1422
  138OSM   H14F15020   7.043   1.197   4.232  1.0993 -2.0594  0.2380
  138OSM   H14G15021   7.039   1.078   4.118  2.0380  1.5973  0.7309
  138OSM   C15F15022   6.938   1.018   4.294  0.1763  0.0055  0.7278
  138OSM   H15F15023   7.034   0.962   4.292  0.0139 -0.2772 -1.4983
  138OSM   H15G15024   6.865   0.942   4.259  1.6216 -2.0564  1.9504
  138OSM   C16F15025   6.911   1.069   4.434  0.5795  0.0289 -0.1546
  138OSM   H16F15026   6.812   1.120   4.442  0.2189 -0.1641 -2.5935
  138OSM   H16G15027   6.993   1.140   4.457  0.0362  1.2683 -1.8484
  138OSM   C17F15028   6.908   0.946   4.529  0.1778 -0.2908 -0.4950
  138OSM   H17F15029   7.010   0.903   4.534  0.6165  0.7153 -0.4537
  138OSM   H17G15030   6.839   0.872   4.484  1.6944 -1.1762 -1.4514
  138OSM   C18F15031   6.869   0.983   4.668 -0.0565 -0.0189  0.1225
  138OSM   H18F15032   6.935   1.056   4.719 -0.3243 -0.1853  0.7145
  138OSM   H18G15033   6.861   0.890   4.728  0.1597  0.6326  1.1818
  138OSM   H18H15034   6.772   1.037   4.667 -0.0309  0.0339 -1.2579
  139OSM      N15035   1.993   3.575   2.524 -0.2433  0.4573 -0.2606
  139OSM    C1515036   1.934   3.591   2.381 -0.0157  0.1332 -0.3283
  139OSM   H15A15037   1.976   3.679   2.336  1.8346 -0.1019  0.8391
  139OSM   H15B15038   1.826   3.593   2.371  0.0994 -0.9329 -2.5804
  139OSM   H15C15039   1.966   3.510   2.317 -0.6561 -0.0406 -0.4363
  139OSM    C1415040   1.945   3.696   2.602  0.2775 -0.0344 -0.6207
  139OSM   H14A15041   1.983   3.699   2.703  0.5642 -2.2120 -0.6136
  139OSM   H14B15042   1.838   3.680   2.608 -0.0923  2.3078  0.4268
  139OSM   H14C15043   1.962   3.788   2.547  1.7642 -0.7136 -1.3422
  139OSM    C1315044   1.933   3.448   2.588  0.2755 -0.1265  0.1740
  139OSM   H13A15045   1.953   3.357   2.535  0.5236 -0.2740  0.5176
  139OSM   H13B15046   1.825   3.454   2.587  0.3177  1.2185  0.4828
  139OSM   H13C15047   1.956   3.439   2.694 -0.2696 -0.7162  0.2449
  139OSM    C1215048   2.139   3.565   2.513 -0.1776 -0.5341 -0.2888
  139OSM   H12A15049   2.169   3.635   2.436  0.6423 -2.0420 -1.3977
  139OSM   H12B15050   2.159   3.468   2.469  1.3417  0.1724 -1.2389
  139OSM    C1115051   2.227   3.584   2.637  0.4780  0.2239 -0.6214
  139OSM   H11A15052   2.324   3.531   2.623 -0.7151 -1.4133 -3.3306
  139OSM   H11B15053   2.174   3.537   2.722 -0.1457  1.0916 -0.5171
  139OSM      P15054   2.306   3.835   2.575 -0.9684  0.3369 -0.0257
  139OSM    O1315055   2.302   3.789   2.433  0.3388 -0.0548  0.1036
  139OSM    O1415056   2.241   3.963   2.609 -0.2192  0.1758  0.1874
  139OSM    O1115057   2.450   3.824   2.631  0.7819  0.2690 -0.9988
  139OSM    O1215058   2.237   3.724   2.669 -0.1990 -0.1859  0.1185
  139OSM    C1S15059   2.485   3.829   2.772  0.5000  0.5002 -0.0397
  139OSM    H1S15060   2.522   3.730   2.807  0.4263  1.5998  3.6420
  139OSM    H1T15061   2.391   3.848   2.828 -0.2366  1.9362 -1.6738
  139OSM     NF15062   2.592   3.951   2.969  0.2880  0.2785  0.1743
  139OSM    HNF15063   2.582   4.040   3.011 -2.3712  0.9149 -1.5414
  139OSM    C2S15064   2.594   3.931   2.812 -0.3203  0.3987 -0.4993
  139OSM    H2S15065   2.693   3.889   2.785 -0.5032 -1.2182  1.1256
  139OSM    C3S15066   2.573   4.060   2.735  0.0439 -0.6995 -0.1192
  139OSM    H3S15067   2.468   4.095   2.742  1.2933  3.5029  0.5818
  139OSM     O315068   2.605   4.041   2.602 -0.2661  0.0423 -0.3051
  139OSM    HO315069   2.573   3.954   2.580  1.2557 -0.3363 -1.1502
  139OSM    C4S15070   2.663   4.179   2.776 -0.4318  0.7478  0.4534
  139OSM    H4S15071   2.619   4.280   2.787 -1.3984  0.2131  1.9419
  139OSM    C5S15072   2.794   4.165   2.797 -0.6928  0.4792  0.1329
  139OSM    H5S15073   2.839   4.072   2.760  2.3478  2.1085 -0.6482
  139OSM    C6S15074   2.889   4.269   2.831 -0.0296 -0.1760  0.3950
  139OSM    H6S15075   2.842   4.369   2.818 -1.7464 -0.9015  0.7162
  139OSM    H6T15076   2.972   4.268   2.757 -0.1640 -2.1328  0.2341
  139OSM    C7S15077   2.947   4.262   2.972  0.1892 -0.6912 -0.0381
  139OSM    H7S15078   3.002   4.355   2.998 -0.7067 -0.6109  1.7379
  139OSM    H7T15079   3.026   4.185   2.982  1.4595  0.7673  1.8668
  139OSM    C8S15080   2.848   4.230   3.085 -0.1200 -0.2799 -0.4086
  139OSM    H8S15081   2.797   4.136   3.053  2.1158 -1.6050 -0.2651
  139OSM    H8T15082   2.781   4.319   3.084 -0.8350 -0.7904  0.6488
  139OSM    C9S15083   2.917   4.228   3.230 -0.2386  0.0181  0.2790
  139OSM    H9S15084   2.969   4.323   3.254 -1.1509  0.3621  0.9483
  139OSM    H9T15085   2.986   4.141   3.225  0.8556  0.8023  1.3156
  139OSM   C10S15086   2.823   4.197   3.338  0.3268 -0.1429 -0.4360
  139OSM   H10S15087   2.766   4.105   3.310  0.8416 -0.5506 -0.1551
  139OSM   H10T15088   2.751   4.282   3.343 -0.5979 -0.9529  0.7548
  139OSM   C11S15089   2.897   4.157   3.469  0.0257  0.3663 -0.3956
  139OSM   H11S15090   2.965   4.239   3.500  1.0169  0.0319 -1.5818
  139OSM   H11T15091   2.950   4.061   3.453 -0.4870 -0.3060  1.6368
  139OSM   C12S15092   2.789   4.131   3.576 -0.3336  0.1630 -0.4265
  139OSM   H12S15093   2.726   4.042   3.553  1.0781 -1.0513  0.2174
  139OSM   H12T15094   2.722   4.219   3.584  0.2165  0.4753  1.1432
  139OSM   C13S15095   2.841   4.091   3.708  0.2878 -0.4598  0.0232
  139OSM   H13S15096   2.894   3.994   3.697  2.0274  0.1390  2.2336
  139OSM   H13T15097   2.769   4.078   3.791  1.4416 -1.9017  0.8545
  139OSM   C14S15098   2.947   4.195   3.759 -0.3446 -0.4803 -0.1484
  139OSM   H14S15099   2.913   4.297   3.734 -0.3371 -0.1219  1.2425
  139OSM   H14T15100   3.046   4.183   3.709 -0.3555 -1.9068  0.1180
  139OSM   C15S15101   2.973   4.191   3.909 -0.3219 -0.2125 -0.1756
  139OSM   H15S15102   2.874   4.213   3.954  0.2039 -0.7525  1.2802
  139OSM   H15T15103   3.028   4.277   3.952 -1.1934 -0.0338  0.6057
  139OSM   C16S15104   3.041   4.068   3.973 -0.1928  0.6230 -0.4682
  139OSM   H16S15105   3.148   4.075   3.944 -0.0906  2.6414  0.2571
  139OSM   H16T15106   3.001   3.973   3.930  0.4060 -1.5014  3.2067
  139OSM   C17S15107   3.029   4.050   4.126  0.0541  0.6123 -0.7274
  139OSM   H17S15108   2.923   4.031   4.153  1.1064 -3.3481  1.3107
  139OSM   H17T15109   3.064   4.134   4.190  0.4510 -1.0193  1.3071
  139OSM   C18S15110   3.095   3.918   4.174  0.1478  0.3526  0.2688
  139OSM   H18S15111   3.056   3.826   4.124  0.5202 -0.0789  0.7691
  139OSM   H18T15112   3.068   3.886   4.277 -1.6376 -3.6325 -1.2103
  139OSM   H18U15113   3.205   3.920   4.166  0.1361 -1.5712 -1.1730
  139OSM    C1F15114   2.616   3.845   3.048  0.1359  0.3113 -0.9176
  139OSM     OF15115   2.660   3.741   3.004 -0.1702  0.2875 -0.5350
  139OSM    C2F15116   2.623   3.863   3.198 -0.3973 -0.1923 -0.0767
  139OSM    H2F15117   2.581   3.963   3.224  2.1678  0.9634 -0.1010
  139OSM    H2G15118   2.726   3.851   3.238  0.0871  1.1223 -0.8617
  139OSM    C3F15119   2.510   3.779   3.258 -0.2753  0.6357 -0.0668
  139OSM    H3F15120   2.539   3.672   3.253 -1.6807  0.1909  0.7555
  139OSM    H3G15121   2.405   3.789   3.223 -0.7460 -0.2175  1.0232
  139OSM    C4F15122   2.508   3.803   3.404  0.6826 -0.7959 -0.5211
  139OSM    H4F15123   2.615   3.811   3.435  0.3998  3.3062  0.0109
  139OSM    H4G15124   2.452   3.718   3.449  1.7054 -2.0398 -1.5121
  139OSM    C5F15125   2.435   3.929   3.453  0.3580 -0.3924 -0.2178
  139OSM    H5F15126   2.339   3.935   3.398  0.0379 -0.9948  0.2664
  139OSM    H5G15127   2.488   4.024   3.429 -0.6563  0.0183 -0.8921
  139OSM    C6F15128   2.407   3.904   3.601 -0.1565 -0.3686 -0.5496
  139OSM    H6F15129   2.503   3.880   3.652 -1.7084  0.1750  2.9676
  139OSM    H6G15130   2.344   3.813   3.609  1.4836 -1.3757  2.5743
  139OSM    C7F15131   2.351   4.019   3.679 -0.5605 -0.5396  0.7030
  139OSM    H7F15132   2.251   4.045   3.637 -0.3975  1.2966  1.3556
  139OSM    H7G15133   2.416   4.109   3.682  0.4716 -1.2457  0.2451
  139OSM    C8F15134   2.324   3.985   3.827  0.1604 -0.0730  0.4957
  139OSM    H8F15135   2.289   3.880   3.842  0.7662 -0.1005  1.7997
  139OSM    H8G15136   2.248   4.061   3.855  0.1359 -0.4284  1.4175
  139OSM    C9F15137   2.450   3.994   3.919  0.3629 -0.3007  0.1407
  139OSM    H9F15138   2.531   4.051   3.872  1.8078 -1.6957  0.8398
  139OSM   C10F15139   2.466   3.934   4.040  0.1992  0.4982 -0.1994
  139OSM   H10F15140   2.564   3.942   4.088  0.3462 -1.7442 -0.0503
  139OSM   C11F15141   2.369   3.848   4.115 -0.7642 -0.3367  0.1736
  139OSM   H11F15142   2.399   3.741   4.120  1.0065 -0.0699 -2.5571
  139OSM   H11G15143   2.273   3.842   4.059 -1.2728  1.0782  0.8547
  139OSM   C12F15144   2.317   3.907   4.250 -0.0136 -0.2573 -0.1431
  139OSM   H12F15145   2.404   3.947   4.306  3.1535 -4.0203 -1.8660
  139OSM   H12G15146   2.274   3.822   4.306  0.6189  0.1233  0.9561
  139OSM   C13F15147   2.218   4.022   4.229  0.1273  0.2434  0.1115
  139OSM   H13F15148   2.117   3.988   4.200 -0.4061  2.3211 -0.6275
  139OSM   H13G15149   2.244   4.096   4.150 -1.3771  0.4142 -0.2509
  139OSM   C14F15150   2.195   4.097   4.355 -0.3752 -0.2377 -0.7060
  139OSM   H14F15151   2.290   4.143   4.388  0.1001 -1.5995 -0.0981
  139OSM   H14G15152   2.166   4.019   4.429 -0.9634  0.6747  0.0392
  139OSM   C15F15153   2.083   4.198   4.344  0.5065 -0.3852 -0.1385
  139OSM   H15F15154   1.987   4.142   4.350  0.0758  0.4487  1.1093
  139OSM   H15G15155   2.081   4.246   4.244 -2.2967  0.6189  0.3197
  139OSM   C16F15156   2.090   4.308   4.453 -0.3950  0.0706 -0.1735
  139OSM   H16F15157   2.189   4.358   4.455 -0.9739  1.3743 -1.8435
  139OSM   H16G15158   2.087   4.247   4.546  0.2070 -0.2741 -0.3771
  139OSM   C17F15159   1.966   4.393   4.467 -0.2896 -0.6020  0.3683
  139OSM   H17F15160   1.883   4.327   4.499 -3.0997  2.3904 -0.1263
  139OSM   H17G15161   1.939   4.428   4.365 -0.0179  1.1381  0.8616
  139OSM   C18F15162   1.982   4.508   4.564 -0.1911  0.1635 -0.0145
  139OSM   H18F15163   2.044   4.593   4.530  2.2453 -0.7249  1.9627
  139OSM   H18G15164   2.029   4.468   4.656  0.8510 -0.1634 -0.6758
  139OSM   H18H15165   1.889   4.554   4.605 -0.4292  0.5029 -0.8908
  140OSM      N15166   0.962   1.880   2.482 -0.4847 -0.0501 -0.9541
  140OSM    C1515167   0.847   1.790   2.536  0.1882  0.2441  0.1313
  140OSM   H15A15168   0.885   1.695   2.571 -1.8682 -1.0195 -0.8813
  140OSM   H15B15169   0.782   1.769   2.453 -0.5071 -0.2456  0.7909
  140OSM   H15C15170   0.791   1.840   2.614  0.0725  1.1800 -0.5389
  140OSM    C1415171   1.034   1.787   2.391 -0.0790  0.2088  0.2368
  140OSM   H14A15172   1.051   1.688   2.432  0.4727 -0.6007 -1.8353
  140OSM   H14B15173   1.132   1.822   2.363  0.9929 -1.6251  1.4676
  140OSM   H14C15174   0.985   1.773   2.296 -1.1965 -0.8253  0.9251
  140OSM    C1315175   0.907   1.999   2.408 -0.5279  0.7515  0.1010
  140OSM   H13A15176   0.850   1.973   2.320 -0.0595  0.9390 -0.2611
  140OSM   H13B15177   0.979   2.078   2.390  0.2991 -0.3024 -1.3470
  140OSM   H13C15178   0.826   2.043   2.465 -1.8547 -1.2015 -0.1748
  140OSM    C1215179   1.045   1.915   2.604 -0.0169 -0.2042 -1.0476
  140OSM   H12A15180   1.068   1.828   2.663  0.1438 -0.4418 -1.4566
  140OSM   H12B15181   0.997   1.982   2.674  3.1248  0.6038  0.5161
  140OSM    C1115182   1.181   1.982   2.565  0.1672 -0.0063  0.2978
  140OSM   H11A15183   1.166   2.092   2.555  0.6147 -0.1573 -3.2887
  140OSM   H11B15184   1.220   1.955   2.465 -0.7133 -0.1488 -0.0177
  140OSM      P15185   1.381   1.843   2.664 -0.2315 -0.2279 -0.2430
  140OSM    O1315186   1.309   1.719   2.706  0.3043 -0.2483  0.9740
  140OSM    O1415187   1.457   1.843   2.531 -0.5209  0.5465 -0.4367
  140OSM    O1115188   1.493   1.872   2.765 -0.3444 -0.5352 -0.4230
  140OSM    O1215189   1.283   1.969   2.660 -1.0489 -0.5107  0.0204
  140OSM    C1S15190   1.447   1.921   2.895  0.1474 -0.0110  0.1635
  140OSM    H1S15191   1.352   1.879   2.935  0.1706  1.0503  1.4088
  140OSM    H1T15192   1.429   2.031   2.892  0.5510  0.0497 -0.1114
  140OSM     NF15193   1.468   1.930   3.144 -0.0265  0.0803 -0.0739
  140OSM    HNF15194   1.496   2.009   3.198 -0.1058 -1.1664  1.9110
  140OSM    C2S15195   1.539   1.888   3.021 -0.9398 -0.2788  0.4698
  140OSM    H2S15196   1.556   1.778   3.021  1.7566  0.0792  0.9324
  140OSM    C3S15197   1.673   1.955   2.998 -1.0443  0.4026 -0.0145
  140OSM    H3S15198   1.638   2.060   3.010 -0.4102  0.6310 -0.1217
  140OSM     O315199   1.731   1.948   2.872  0.6666  0.5437 -0.1724
  140OSM    HO315200   1.660   1.916   2.816  0.5041  3.7574 -2.0375
  140OSM    C4S15201   1.769   1.906   3.103 -0.0015  0.1035  0.2731
  140OSM    H4S15202   1.779   1.797   3.111  0.9796  0.2162  0.6741
  140OSM    C5S15203   1.832   1.981   3.192 -0.2301  0.1337 -0.4346
  140OSM    H5S15204   1.831   2.090   3.181  2.0400  0.2622  0.0127
  140OSM    C6S15205   1.923   1.931   3.300  0.2918  0.7959 -0.6314
  140OSM    H6S15206   2.025   1.958   3.265  0.6162 -1.5261 -1.6308
  140OSM    H6T15207   1.928   1.821   3.312 -0.3070  0.6661 -1.4609
  140OSM    C7S15208   1.902   1.999   3.437  0.3857  0.1991 -0.2882
  140OSM    H7S15209   1.794   1.995   3.459  0.4185  1.8507  0.3138
  140OSM    H7T15210   1.919   2.109   3.427  0.4509  0.1681 -0.5364
  140OSM    C8S15211   1.988   1.937   3.548 -0.3314  0.6304  0.3542
  140OSM    H8S15212   2.092   1.974   3.548  0.7617 -2.1121 -0.9728
  140OSM    H8T15213   1.998   1.826   3.542  3.7406  0.7252  1.8879
  140OSM    C9S15214   1.916   1.968   3.685  0.0682  0.2494 -0.1770
  140OSM    H9S15215   1.820   1.913   3.699  0.8514 -0.5794  2.6611
  140OSM    H9T15216   1.900   2.078   3.682 -0.3277  0.1797 -3.2600
  140OSM   C10S15217   2.012   1.952   3.807  0.8034  0.7625  0.4408
  140OSM   H10S15218   2.107   2.005   3.784  0.6591  1.1019  0.6212
  140OSM   H10T15219   2.038   1.845   3.820  0.2403  0.8837  2.9726
  140OSM   C11S15220   1.957   2.002   3.936  0.1417  0.1188 -0.5957
  140OSM   H11S15221   1.884   1.930   3.981  1.7347 -0.9215  0.4106
  140OSM   H11T15222   1.901   2.096   3.915 -1.4931 -0.9503 -1.2913
  140OSM   C12S15223   2.064   2.035   4.045  0.5890 -0.6897  0.3167
  140OSM   H12S15224   2.110   2.133   4.016  1.0833  0.0706  3.3605
  140OSM   H12T15225   2.139   1.953   4.048  0.6913 -0.6449 -0.5476
  140OSM   C13S15226   2.005   2.052   4.194 -0.0798  0.4601  0.3947
  140OSM   H13S15227   1.954   1.960   4.231  0.4810  0.7847  2.0515
  140OSM   H13T15228   1.930   2.132   4.174 -0.9286 -0.2173  0.7716
  140OSM   C14S15229   2.116   2.098   4.287  0.4657  0.2640 -0.8769
  140OSM   H14S15230   2.153   2.200   4.261 -0.6346  0.6432 -0.9903
  140OSM   H14T15231   2.206   2.034   4.275 -0.3239 -1.2044  0.6917
  140OSM   C15S15232   2.090   2.088   4.440 -0.4595  0.7819  0.1016
  140OSM   H15S15233   2.020   2.007   4.468 -0.8823  0.0661 -2.7961
  140OSM   H15T15234   2.030   2.176   4.472 -3.0853 -0.8576 -0.0433
  140OSM   C16S15235   2.218   2.073   4.525 -0.0187  0.0770 -0.2433
  140OSM   H16S15236   2.291   2.151   4.493 -0.3578  0.3009 -0.4825
  140OSM   H16T15237   2.262   1.974   4.500 -1.7707  0.0093 -3.5229
  140OSM   C17S15238   2.188   2.093   4.676  0.4393  0.1670  0.3760
  140OSM   H17S15239   2.120   2.015   4.716  0.7760  0.1366  0.9027
  140OSM   H17T15240   2.127   2.186   4.672 -1.1536 -0.5676  3.8558
  140OSM   C18S15241   2.319   2.101   4.757  0.2832  0.1255 -0.6708
  140OSM   H18S15242   2.309   2.129   4.864 -2.5378 -0.5098 -0.7084
  140OSM   H18T15243   2.383   2.185   4.721 -0.2154  0.7815 -0.0677
  140OSM   H18U15244   2.370   2.003   4.756 -1.7882 -1.0066 -1.8954
  140OSM    C1F15245   1.355   1.880   3.199 -0.7127  0.6993  0.4759
  140OSM     OF15246   1.288   1.786   3.145 -0.2826  0.0899 -0.9659
  140OSM    C2F15247   1.312   1.937   3.333  0.2614 -0.3295 -0.1219
  140OSM    H2F15248   1.233   2.016   3.325  1.6559  1.0641 -0.7077
  140OSM    H2G15249   1.396   1.992   3.381 -0.7316 -0.3600  1.7361
  140OSM    C3F15250   1.283   1.826   3.432 -0.4987 -0.1189  0.4372
  140OSM    H3F15251   1.365   1.752   3.417 -0.9511 -0.2997 -1.3681
  140OSM    H3G15252   1.192   1.769   3.402  0.3214 -0.3242 -1.8823
  140OSM    C4F15253   1.276   1.872   3.577  0.1628  0.6329 -0.2047
  140OSM    H4F15254   1.377   1.880   3.622  1.6413  0.6075 -3.2339
  140OSM    H4G15255   1.231   1.790   3.637  1.3990 -0.1451 -0.3135
  140OSM    C5F15256   1.193   2.003   3.596  0.3281  0.4070  0.3916
  140OSM    H5F15257   1.103   2.008   3.532  1.2740  0.4105 -0.9853
  140OSM    H5G15258   1.252   2.088   3.556  0.1683  0.1834 -0.3301
  140OSM    C6F15259   1.160   2.027   3.745  0.1747 -0.2187 -0.0509
  140OSM    H6F15260   1.257   2.015   3.797 -0.2458 -0.8999  0.5874
  140OSM    H6G15261   1.098   1.937   3.764 -0.1890 -0.6278 -2.7299
  140OSM    C7F15262   1.078   2.156   3.782 -0.6603 -0.4004 -0.2723
  140OSM    H7F15263   0.987   2.154   3.717 -0.3280  0.2870 -0.7658
  140OSM    H7G15264   1.133   2.246   3.749  0.5896 -1.2484 -0.5817
  140OSM    C8F15265   1.047   2.164   3.924 -0.2197 -0.2873 -0.4187
  140OSM    H8F15266   1.007   2.064   3.950 -0.3323 -0.8952 -2.7038
  140OSM    H8G15267   0.962   2.235   3.924 -1.2353 -1.4720 -0.8528
  140OSM    C9F15268   1.165   2.194   4.024  0.0219  0.6350  0.8622
  140OSM    H9F15269   1.264   2.219   3.984  0.2466  1.8481  2.0997
  140OSM   C10F15270   1.151   2.185   4.158 -0.1125 -0.5302 -0.6179
  140OSM   H10F15271   1.242   2.194   4.219 -0.2393  0.6536 -0.5896
  140OSM   C11F15272   1.027   2.133   4.232  0.0634  0.0900 -0.2466
  140OSM   H11F15273   1.065   2.069   4.314 -1.6766  0.4024  0.8462
  140OSM   H11G15274   0.974   2.056   4.170 -1.9504  1.6505 -0.5717
  140OSM   C12F15275   0.933   2.238   4.286 -0.1830 -0.2201 -0.5715
  140OSM   H12F15276   0.834   2.186   4.284  0.4597 -1.4576 -1.2204
  140OSM   H12G15277   0.924   2.323   4.214  1.5124 -0.1427 -0.7218
  140OSM   C13F15278   0.964   2.298   4.421 -0.7132 -0.8236  0.0018
  140OSM   H13F15279   1.058   2.357   4.415 -0.7713 -0.8187 -0.9816
  140OSM   H13G15280   0.980   2.208   4.485  1.6304 -0.1149  0.5291
  140OSM   C14F15281   0.846   2.375   4.481  0.6275  0.0866  0.4849
  140OSM   H14F15282   0.768   2.297   4.496  0.5064  0.4848  2.0908
  140OSM   H14G15283   0.803   2.447   4.409  0.8739 -0.8716 -0.6462
  140OSM   C15F15284   0.869   2.423   4.622 -0.0426 -0.0865 -0.5127
  140OSM   H15F15285   0.969   2.471   4.629  0.1499 -0.4650 -0.6842
  140OSM   H15G15286   0.875   2.340   4.695 -4.2955  0.2776  0.5337
  140OSM   C16F15287   0.761   2.511   4.679  0.6506  0.3643 -0.4161
  140OSM   H16F15288   0.657   2.471   4.676  1.3636 -1.7468  0.7532
  140OSM   H16G15289   0.778   2.613   4.638  1.2552  0.8975  1.0991
  140OSM   C17F15290   0.784   2.531   4.834  0.1930 -0.8367 -0.1435
  140OSM   H17F15291   0.875   2.594   4.851 -1.7278  1.6248  1.9685
  140OSM   H17G15292   0.796   2.437   4.892  0.7568  0.4451  1.9273
  140OSM   C18F15293   0.671   2.619   4.889  0.6123  0.1916 -0.1578
  140OSM   H18F15294   0.671   2.611   5.000  0.0899  0.4919 -0.1331
  140OSM   H18G15295   0.574   2.578   4.854  0.0827  0.5547  0.8275
  140OSM   H18H15296   0.673   2.724   4.853 -2.3853  0.7971  1.0795
  141OSM      N15297   3.292   6.135   2.575  0.1523 -0.0251  0.0168
  141OSM    C1515298   3.211   6.070   2.464  0.3106  0.2181  0.1179
  141OSM   H15A15299   3.122   6.127   2.444 -1.0803 -2.5442 -2.3945
  141OSM   H15B15300   3.180   5.973   2.500 -0.2060  0.4657  0.3455
  141OSM   H15C15301   3.271   6.042   2.378 -3.2298 -1.8660 -1.9019
  141OSM    C1415302   3.197   6.145   2.689  0.5666 -0.7805 -0.6616
  141OSM   H14A15303   3.111   6.208   2.671  1.2832  0.5136  0.3931
  141OSM   H14B15304   3.257   6.182   2.770  0.2373 -2.3837  0.3605
  141OSM   H14C15305   3.154   6.048   2.710  0.7709 -0.7321 -0.0142
  141OSM    C1315306   3.396   6.028   2.604 -0.1397  0.1988 -0.3749
  141OSM   H13A15307   3.454   6.059   2.689  0.0119 -1.7470  0.2874
  141OSM   H13B15308   3.469   6.015   2.526 -0.3606  0.8670 -0.7010
  141OSM   H13C15309   3.355   5.930   2.623 -0.0280  0.2896  0.3318
  141OSM    C1215310   3.348   6.262   2.530  0.2703 -0.7055  0.1795
  141OSM   H12A15311   3.383   6.260   2.427 -0.3124 -0.0103 -0.0387
  141OSM   H12B15312   3.438   6.285   2.585 -0.3154 -0.6373  1.1186
  141OSM    C1115313   3.252   6.395   2.540 -0.4233  0.0766  0.6337
  141OSM   H11A15314   3.312   6.483   2.511  1.7583 -1.4645  0.1875
  141OSM   H11B15315   3.225   6.404   2.648 -0.4826  2.5242  0.4525
  141OSM      P15316   3.047   6.507   2.416 -0.1457 -0.0075  0.3472
  141OSM    O1315317   3.131   6.616   2.362 -0.1806  0.7865 -0.6394
  141OSM    O1415318   2.933   6.462   2.336 -0.0131 -0.4232  0.3587
  141OSM    O1115319   3.002   6.548   2.563  0.3535 -0.1957  0.4196
  141OSM    O1215320   3.142   6.384   2.451 -0.7711 -0.0097  0.4146
  141OSM    C1S15321   2.884   6.486   2.625 -0.1686  0.1791  0.1145
  141OSM    H1S15322   2.903   6.377   2.616  0.4883  0.4429 -2.6871
  141OSM    H1T15323   2.781   6.507   2.589 -0.4301 -0.1594  0.6505
  141OSM     NF15324   2.763   6.436   2.840 -0.3746 -0.2271  0.2189
  141OSM    HNF15325   2.676   6.484   2.838  0.3947  1.2055 -0.2244
  141OSM    C2S15326   2.881   6.513   2.783  0.2990  0.1626 -0.0796
  141OSM    H2S15327   2.975   6.473   2.826 -0.6013 -1.5224  0.4248
  141OSM    C3S15328   2.872   6.661   2.813  0.0521 -0.2948 -0.4698
  141OSM    H3S15329   2.768   6.692   2.787 -0.4835 -0.3899  1.3999
  141OSM     O315330   2.959   6.738   2.729 -0.0904 -0.5332 -0.0939
  141OSM    HO315331   2.993   6.673   2.667  1.5303  1.4950 -1.4607
  141OSM    C4S15332   2.883   6.696   2.958 -0.3283  0.1407 -0.3278
  141OSM    H4S15333   2.786   6.715   3.006 -0.1963  2.3407 -0.8327
  141OSM    C5S15334   2.991   6.736   3.029 -0.1729  1.1747  0.1547
  141OSM    H5S15335   3.087   6.743   2.977  0.1093 -0.8030  0.3439
  141OSM    C6S15336   2.981   6.792   3.170  0.9007 -0.3272 -0.5039
  141OSM    H6S15337   2.878   6.829   3.190  0.9169 -1.0335  1.0206
  141OSM    H6T15338   3.053   6.876   3.179  1.7020 -0.7042 -2.7649
  141OSM    C7S15339   3.023   6.688   3.285 -0.0441  0.2779 -0.1494
  141OSM    H7S15340   3.114   6.626   3.268  0.6391  0.7574  1.5233
  141OSM    H7T15341   2.949   6.604   3.286  1.3604 -1.0016  0.7768
  141OSM    C8S15342   3.026   6.750   3.425  0.1523 -0.7207 -0.0402
  141OSM    H8S15343   2.925   6.789   3.449  0.8328  0.6929  0.6510
  141OSM    H8T15344   3.097   6.835   3.429 -1.4085  0.5912  0.8913
  141OSM    C9S15345   3.066   6.656   3.541  0.3986  0.2597  1.6870
  141OSM    H9S15346   3.176   6.641   3.546  0.6086  0.1988 -1.3469
  141OSM    H9T15347   3.025   6.553   3.539 -2.7994  1.3423 -2.7685
  141OSM   C10S15348   3.025   6.716   3.679 -0.1107 -0.7102  0.0749
  141OSM   H10S15349   2.919   6.749   3.689 -0.0773  0.3551 -2.4480
  141OSM   H10T15350   3.079   6.814   3.687 -1.6125  0.0810  1.1467
  141OSM   C11S15351   3.075   6.637   3.801 -0.1597 -0.1345  0.2472
  141OSM   H11S15352   3.181   6.609   3.783 -0.2628 -0.2660 -0.1720
  141OSM   H11T15353   3.015   6.544   3.816 -0.6268  0.3652  1.6528
  141OSM   C12S15354   3.058   6.710   3.938  0.0984  0.0263  0.8996
  141OSM   H12S15355   2.955   6.746   3.959 -0.2098 -1.5816  2.3671
  141OSM   H12T15356   3.117   6.804   3.941 -0.4520  0.3974  4.7128
  141OSM   C13S15357   3.116   6.627   4.047 -0.5382 -0.0843 -0.4409
  141OSM   H13S15358   3.218   6.593   4.018 -0.3947 -0.1589  0.1457
  141OSM   H13T15359   3.065   6.529   4.065  1.9843 -1.0119  2.5229
  141OSM   C14S15360   3.120   6.707   4.181 -0.4901 -1.0148  0.5055
  141OSM   H14S15361   3.164   6.805   4.157 -0.5960 -1.0952 -0.0237
  141OSM   H14T15362   3.189   6.644   4.242 -0.6467 -0.3253  1.4100
  141OSM   C15S15363   2.979   6.744   4.237  0.1290 -0.0113  0.1205
  141OSM   H15S15364   2.916   6.654   4.253  3.0455 -2.2900 -0.3842
  141OSM   H15T15365   2.929   6.816   4.168  1.3961  0.5629 -0.2344
  141OSM   C16S15366   2.982   6.812   4.376  0.2875  0.4835 -0.7409
  141OSM   H16S15367   2.881   6.784   4.413  0.5837  0.2907 -0.0472
  141OSM   H16T15368   3.003   6.919   4.354  0.7064  0.4916 -0.3311
  141OSM   C17S15369   3.083   6.754   4.483  0.3350 -0.5160  0.6580
  141OSM   H17S15370   3.185   6.783   4.451 -0.0793  0.4891  0.2025
  141OSM   H17T15371   3.074   6.644   4.474  1.5722 -0.5780 -0.0617
  141OSM   C18S15372   3.071   6.811   4.620  0.3585 -0.0451 -0.1559
  141OSM   H18S15373   3.132   6.904   4.629  1.5439 -0.8750  0.7416
  141OSM   H18T15374   3.095   6.737   4.699  0.2955 -1.0565 -1.0599
  141OSM   H18U15375   2.968   6.840   4.647  0.0935 -1.0773 -0.0065
  141OSM    C1F15376   2.761   6.305   2.856  0.4625  0.5069 -0.5009
  141OSM     OF15377   2.852   6.234   2.817 -0.1895 -0.2343 -0.3405
  141OSM    C2F15378   2.629   6.244   2.900 -0.0315  0.2362  0.7472
  141OSM    H2F15379   2.568   6.220   2.810  0.9916 -1.2149  0.4079
  141OSM    H2G15380   2.578   6.319   2.963 -1.7331 -0.6115  0.4438
  141OSM    C3F15381   2.656   6.120   2.985 -0.5913 -0.2486  0.2113
  141OSM    H3F15382   2.727   6.145   3.067 -0.4316  0.5092 -0.1492
  141OSM    H3G15383   2.698   6.038   2.923 -1.3295  1.5591 -2.8910
  141OSM    C4F15384   2.533   6.051   3.044 -0.4719 -0.2556 -0.1949
  141OSM    H4F15385   2.557   5.950   3.082 -0.4279 -0.2908 -0.3150
  141OSM    H4G15386   2.464   6.033   2.960 -0.0716  2.5842 -1.2578
  141OSM    C5F15387   2.488   6.138   3.164 -0.3809  0.1224 -0.2067
  141OSM    H5F15388   2.429   6.230   3.141  0.1960 -0.2445 -3.5702
  141OSM    H5G15389   2.583   6.170   3.212  0.6964 -1.5269 -1.1636
  141OSM    C6F15390   2.434   6.052   3.283 -0.5361  0.3278  0.5170
  141OSM    H6F15391   2.486   5.955   3.300 -0.4810  0.3792  0.6498
  141OSM    H6G15392   2.325   6.035   3.285 -0.4526 -0.1982  1.3381
  141OSM    C7F15393   2.424   6.137   3.413 -0.4916 -0.1059 -0.1355
  141OSM    H7F15394   2.353   6.220   3.392  0.2239  1.0530  1.7337
  141OSM    H7G15395   2.522   6.188   3.428 -0.1699 -1.5265  3.6367
  141OSM    C8F15396   2.375   6.061   3.543  0.2462  0.1414 -0.3966
  141OSM    H8F15397   2.429   5.965   3.535 -0.7845 -0.4341 -0.6523
  141OSM    H8G15398   2.270   6.028   3.524  0.7136 -1.3631 -0.5131
  141OSM    C9F15399   2.379   6.133   3.674  0.1398  0.0698 -0.8137
  141OSM    H9F15400   2.296   6.206   3.682 -0.0192 -0.3083  2.7019
  141OSM   C10F15401   2.474   6.131   3.765  0.5558 -0.0740 -0.2516
  141OSM   H10F15402   2.466   6.199   3.851  0.8916  0.3111 -0.5203
  141OSM   C11F15403   2.588   6.025   3.767  0.2455 -0.0051  0.5126
  141OSM   H11F15404   2.679   6.065   3.816  0.9629 -0.4471 -0.4194
  141OSM   H11G15405   2.612   5.993   3.663  0.3483 -0.8748  0.7910
  141OSM   C12F15406   2.534   5.909   3.852  0.2083 -0.3357 -0.4444
  141OSM   H12F15407   2.608   5.827   3.848  1.3323  0.5550  1.0780
  141OSM   H12G15408   2.444   5.870   3.799 -1.3579 -0.1135  1.8965
  141OSM   C13F15409   2.508   5.939   4.002 -0.2995  0.1586 -0.7639
  141OSM   H13F15410   2.483   5.853   4.067  0.0765 -0.8083 -1.8651
  141OSM   H13G15411   2.412   5.993   4.016 -0.8384 -0.9261 -0.1989
  141OSM   C14F15412   2.620   6.026   4.061 -0.3664 -0.4836 -0.4207
  141OSM   H14F15413   2.619   6.121   4.004  1.5621  1.0681  1.9408
  141OSM   H14G15414   2.716   5.969   4.058 -0.0139  0.0064  1.0424
  141OSM   C15F15415   2.602   6.077   4.210  0.1111  0.6573  0.5473
  141OSM   H15F15416   2.507   6.135   4.205  0.4576  1.1441 -1.1052
  141OSM   H15G15417   2.683   6.152   4.223 -0.2254  1.2150 -0.3990
  141OSM   C16F15418   2.592   5.956   4.305 -0.1612 -0.0944 -1.1477
  141OSM   H16F15419   2.502   5.898   4.277  0.5677 -0.7228 -2.2765
  141OSM   H16G15420   2.577   6.000   4.406  1.7990  0.7312 -1.1608
  141OSM   C17F15421   2.719   5.867   4.309  0.0814 -0.0837  0.9702
  141OSM   H17F15422   2.801   5.941   4.323  0.0965  0.0572  0.1788
  141OSM   H17G15423   2.738   5.820   4.210 -0.6476 -1.0538  1.2821
  141OSM   C18F15424   2.706   5.762   4.420  0.3778 -0.2555  0.3493
  141OSM   H18F15425   2.624   5.687   4.408  0.1187 -0.0487  0.7759
  141OSM   H18G15426   2.691   5.818   4.515  1.4619  3.2118 -1.3722
  141OSM   H18H15427   2.796   5.696   4.428 -0.7811 -2.1890 -1.5251
  142OSM      N15428   5.227   1.377   2.097  0.5818 -0.1719  0.8004
  142OSM    C1515429   5.114   1.455   2.030  0.1592 -0.0332 -0.7884
  142OSM   H15A15430   5.132   1.561   2.036 -1.4713  0.4890 -3.4206
  142OSM   H15B15431   5.023   1.435   2.086  0.4016  0.9896  0.0036
  142OSM   H15C15432   5.107   1.432   1.925  0.0424  2.4854 -1.3836
  142OSM    C1415433   5.203   1.236   2.083  0.1829  0.1315 -1.5104
  142OSM   H14A15434   5.180   1.196   1.985 -2.4868 -3.2811  0.2878
  142OSM   H14B15435   5.117   1.207   2.142  3.1734 -1.7805  2.3787
  142OSM   H14C15436   5.287   1.178   2.116 -0.9895 -1.5773 -1.4180
  142OSM    C1315437   5.340   1.420   2.012 -0.1550 -0.3006 -0.2958
  142OSM   H13A15438   5.326   1.389   1.909 -1.6742 -1.6380  0.2784
  142OSM   H13B15439   5.431   1.369   2.041  0.1421 -0.7313 -1.8643
  142OSM   H13C15440   5.362   1.525   2.022  2.8702 -0.9030  0.2499
  142OSM    C1215441   5.245   1.419   2.237  0.0490  0.3490  0.4968
  142OSM   H12A15442   5.238   1.526   2.236 -0.3172  0.3445  1.3759
  142OSM   H12B15443   5.344   1.385   2.264 -0.0156  0.9164  1.4783
  142OSM    C1115444   5.137   1.371   2.336 -0.1714 -0.4459 -0.1275
  142OSM   H11A15445   5.169   1.403   2.437  1.3450 -0.0700 -0.6913
  142OSM   H11B15446   5.138   1.260   2.343 -1.9177 -0.3741  2.6576
  142OSM      P15447   4.876   1.334   2.309  0.3479 -0.3246 -0.7472
  142OSM    O1315448   4.768   1.427   2.343  0.3195 -0.9995  0.3975
  142OSM    O1415449   4.871   1.265   2.178 -0.1413 -0.1302 -0.0353
  142OSM    O1115450   4.908   1.236   2.429 -0.1180  0.5816  0.2289
  142OSM    O1215451   5.010   1.430   2.303 -0.0411  0.3942 -0.8249
  142OSM    C1S15452   4.902   1.275   2.563 -0.0727 -0.6846 -0.9347
  142OSM    H1S15453   4.818   1.343   2.589 -1.2513 -2.0703 -0.9593
  142OSM    H1T15454   4.997   1.323   2.593 -0.9143 -1.4030  3.4831
  142OSM     NF15455   4.865   1.183   2.800  0.0903  0.0042  0.0787
  142OSM    HNF15456   4.949   1.172   2.852  0.8594 -1.0170 -1.3104
  142OSM    C2S15457   4.880   1.152   2.659  0.2670  1.2665 -0.0455
  142OSM    H2S15458   4.783   1.114   2.620  0.7826 -0.1952  0.0437
  142OSM    C3S15459   4.978   1.036   2.633 -0.9933 -0.1921  1.1785
  142OSM    H3S15460   5.081   1.078   2.636 -1.5374  1.2151  1.2309
  142OSM     O315461   4.967   0.983   2.505  0.1770  0.2236 -0.1991
  142OSM    HO315462   4.924   1.060   2.467 -2.3635 -0.9134  0.1639
  142OSM    C4S15463   4.952   0.927   2.727 -0.0355 -0.0875  0.3481
  142OSM    H4S15464   4.853   0.880   2.732  0.3416 -0.7394  2.6061
  142OSM    C5S15465   5.041   0.875   2.810 -0.4124  1.6597 -0.6267
  142OSM    H5S15466   5.143   0.915   2.822 -0.5331  1.2102  2.8478
  142OSM    C6S15467   5.008   0.773   2.911 -0.5002  0.2239  0.3342
  142OSM    H6S15468   5.103   0.728   2.945  0.1618  0.7457 -0.7951
  142OSM    H6T15469   4.929   0.706   2.871 -1.4680  1.9642 -0.7797
  142OSM    C7S15470   4.964   0.861   3.040  0.2388 -0.1583  0.4935
  142OSM    H7S15471   4.912   0.784   3.102  1.4826 -1.8896 -0.5325
  142OSM    H7T15472   4.884   0.929   3.005  1.4248  1.5865  1.0798
  142OSM    C8S15473   5.069   0.918   3.129 -0.0332  0.0319 -0.0187
  142OSM    H8S15474   5.091   1.020   3.091 -1.9343  0.3706 -0.3339
  142OSM    H8T15475   5.155   0.854   3.100  0.8386 -0.0933  2.5486
  142OSM    C9S15476   5.048   0.916   3.281 -0.6242  0.4477  0.2330
  142OSM    H9S15477   5.032   0.811   3.314  1.2498 -0.1358 -0.5728
  142OSM    H9T15478   4.953   0.972   3.295 -1.6040 -1.3728  1.2714
  142OSM   C10S15479   5.158   0.981   3.365  0.5073  0.1883  0.2878
  142OSM   H10S15480   5.175   1.082   3.322  3.3232 -1.5237 -3.0899
  142OSM   H10T15481   5.260   0.941   3.347  0.6549  0.1117  1.2334
  142OSM   C11S15482   5.118   0.973   3.512  0.9047  0.4255  0.8794
  142OSM   H11S15483   5.112   0.867   3.545  1.1917  0.5200  1.2548
  142OSM   H11T15484   5.018   1.017   3.529  0.4136 -0.3195 -0.0496
  142OSM   C12S15485   5.217   1.042   3.603  0.1260 -0.1757  0.1078
  142OSM   H12S15486   5.217   1.153   3.598  3.0745  0.0992  2.9330
  142OSM   H12T15487   5.307   0.998   3.556 -0.1374 -0.1717 -0.4032
  142OSM   C13S15488   5.199   0.997   3.750 -0.0412 -0.7515  0.5141
  142OSM   H13S15489   5.215   0.887   3.754 -1.4203 -1.0403 -0.8977
  142OSM   H13T15490   5.093   1.011   3.779  0.2383  0.7741  0.8782
  142OSM   C14S15491   5.286   1.072   3.847 -0.3323 -0.0905 -0.0674
  142OSM   H14S15492   5.278   1.181   3.827  1.4986  0.1103  0.1438
  142OSM   H14T15493   5.390   1.035   3.833 -1.1418 -2.5954  0.0104
  142OSM   C15S15494   5.240   1.039   3.988  0.9321 -0.0417 -0.2764
  142OSM   H15S15495   5.255   0.934   4.019  0.0639  0.0201  0.3845
  142OSM   H15T15496   5.133   1.066   4.000  0.6878  0.2219 -2.5344
  142OSM   C16S15497   5.320   1.119   4.094 -0.1515 -0.5868  0.2861
  142OSM   H16S15498   5.314   1.224   4.058 -0.1703 -0.6231  0.1834
  142OSM   H16T15499   5.425   1.084   4.082  0.8645  2.6977 -1.8723
  142OSM   C17S15500   5.264   1.105   4.241 -0.5445 -0.1309  0.2531
  142OSM   H17S15501   5.354   1.124   4.303 -0.0980  1.3772 -0.7746
  142OSM   H17T15502   5.233   1.000   4.257  1.1086 -0.3485  2.6042
  142OSM   C18S15503   5.151   1.213   4.267 -0.4138  0.1699 -0.4972
  142OSM   H18S15504   5.057   1.198   4.210 -1.0620 -0.9581  0.8254
  142OSM   H18T15505   5.189   1.317   4.260 -0.0717  0.3880  2.9091
  142OSM   H18U15506   5.123   1.202   4.373  0.6586 -0.2204 -0.2371
  142OSM    C1F15507   4.765   1.262   2.839  0.2305  0.1782 -0.3277
  142OSM     OF15508   4.665   1.280   2.765  0.0559  0.1312 -0.1269
  142OSM    C2F15509   4.774   1.309   2.981  0.0637 -0.2286  0.3864
  142OSM    H2F15510   4.735   1.239   3.059 -1.7603 -2.2258 -2.1548
  142OSM    H2G15511   4.716   1.402   2.996  1.2864  0.4785  0.8865
  142OSM    C3F15512   4.917   1.357   3.028  0.0518  0.7002 -0.0423
  142OSM    H3F15513   4.964   1.430   2.958 -0.6958  2.1479  0.9087
  142OSM    H3G15514   4.984   1.269   3.021 -0.5758 -0.0556  2.4259
  142OSM    C4F15515   4.918   1.424   3.166  0.0159 -0.1591 -0.9415
  142OSM    H4F15516   4.840   1.502   3.175 -1.5614 -1.5707 -1.6398
  142OSM    H4G15517   5.016   1.474   3.179 -0.8808  1.0672  1.8154
  142OSM    C5F15518   4.923   1.335   3.294 -0.2784  0.2837 -0.2499
  142OSM    H5F15519   5.003   1.259   3.291 -0.5623 -0.0963  0.9105
  142OSM    H5G15520   4.834   1.269   3.305  0.4916 -0.4574  2.1002
  142OSM    C6F15521   4.943   1.408   3.430 -0.1226  0.2213  0.1467
  142OSM    H6F15522   4.851   1.470   3.443  0.8797  1.7963  0.0582
  142OSM    H6G15523   5.019   1.489   3.429 -0.5801  0.6648 -1.2871
  142OSM    C7F15524   4.950   1.318   3.555  0.1920 -0.2504  0.5211
  142OSM    H7F15525   5.031   1.245   3.532 -0.5247 -1.3326  1.3468
  142OSM    H7G15526   4.862   1.254   3.577 -1.1398  1.8237  1.5578
  142OSM    C8F15527   4.974   1.406   3.681 -0.3567 -0.4283  0.2961
  142OSM    H8F15528   4.897   1.485   3.696  1.1147  1.2428 -0.5787
  142OSM    H8G15529   5.061   1.470   3.655  1.2984 -2.6220  0.2226
  142OSM    C9F15530   5.008   1.330   3.806 -0.2016 -0.4701 -0.7954
  142OSM    H9F15531   5.074   1.242   3.800  3.9064  2.3308 -0.2082
  142OSM   C10F15532   4.969   1.368   3.930 -0.1832  0.3288  0.2635
  142OSM   H10F15533   4.983   1.299   4.015 -0.8462  0.1058  0.2007
  142OSM   C11F15534   4.903   1.499   3.954  0.7355 -0.5945 -0.0335
  142OSM   H11F15535   4.794   1.486   3.939  0.3123  3.1945 -1.3062
  142OSM   H11G15536   4.939   1.574   3.880 -2.1087  1.2773  0.3223
  142OSM   C12F15537   4.936   1.553   4.097  0.4766 -0.4383  0.4152
  142OSM   H12F15538   4.911   1.661   4.090 -0.2213 -0.6786 -1.4174
  142OSM   H12G15539   5.047   1.549   4.099  0.5538  0.9852 -0.0657
  142OSM   C13F15540   4.866   1.485   4.223 -0.0273  0.0433  0.8439
  142OSM   H13F15541   4.895   1.379   4.237 -2.3515 -0.4324  2.5709
  142OSM   H13G15542   4.759   1.472   4.197  0.5538 -1.6320 -0.9714
  142OSM   C14F15543   4.885   1.556   4.356 -0.4239 -0.1864  0.0643
  142OSM   H14F15544   4.805   1.629   4.382  0.4602 -0.2194  3.4017
  142OSM   H14G15545   4.969   1.628   4.351  1.2804 -1.9693  1.2915
  142OSM   C15F15546   4.899   1.456   4.466 -0.0856  0.4217 -0.2993
  142OSM   H15F15547   4.993   1.398   4.457  0.9640  1.9616  0.2304
  142OSM   H15G15548   4.831   1.372   4.444  2.5294 -1.5763 -1.2652
  142OSM   C16F15549   4.876   1.519   4.603 -0.1521  0.4143 -0.3205
  142OSM   H16F15550   4.873   1.426   4.664  3.3805 -0.8667 -1.8367
  142OSM   H16G15551   4.783   1.580   4.602 -0.7686 -0.4264  1.3627
  142OSM   C17F15552   4.996   1.600   4.652 -0.9406 -0.5329  0.1095
  142OSM   H17F15553   5.005   1.689   4.586 -0.6150 -1.7575 -1.5773
  142OSM   H17G15554   5.075   1.524   4.634  2.7704  2.8101  0.9480
  142OSM   C18F15555   4.992   1.646   4.796 -0.6270 -0.2626  0.2026
  142OSM   H18F15556   4.889   1.686   4.810 -0.2220  0.3130  1.6893
  142OSM   H18G15557   5.056   1.736   4.809 -0.6419 -0.3903  1.2351
  142OSM   H18H15558   5.016   1.569   4.873  2.1124 -1.3817 -1.6335
  143OSM      N15559   3.435   1.099   2.232  0.4545  0.6529 -0.0769
  143OSM    C1515560   3.483   1.090   2.098 -0.2101 -0.1395  0.5513
  143OSM   H15A15561   3.416   1.132   2.025  0.5930 -0.2070 -0.2381
  143OSM   H15B15562   3.514   0.994   2.062  0.9705  1.1808 -2.2085
  143OSM   H15C15563   3.575   1.146   2.084 -1.1700  1.2343 -0.6061
  143OSM    C1415564   3.318   1.007   2.247  0.4915 -0.4328  0.0006
  143OSM   H14A15565   3.264   1.036   2.337  2.2062  0.1600  0.8924
  143OSM   H14B15566   3.348   0.906   2.268  1.3495 -0.0241  0.8610
  143OSM   H14C15567   3.259   1.010   2.157  0.0181  2.9402  0.2891
  143OSM    C1315568   3.546   1.054   2.325 -0.6110  0.1493  0.6307
  143OSM   H13A15569   3.642   1.090   2.290 -0.1100 -0.3456  1.4729
  143OSM   H13B15570   3.558   0.947   2.323  0.8717  0.2518  1.7463
  143OSM   H13C15571   3.532   1.099   2.422  0.3139  0.5387  0.5987
  143OSM    C1215572   3.398   1.241   2.259  0.6805  0.0692  0.6619
  143OSM   H12A15573   3.333   1.272   2.179  2.4127  3.5453  0.3961
  143OSM   H12B15574   3.476   1.313   2.240  0.2675  0.7044  1.3238
  143OSM    C1115575   3.335   1.258   2.401 -0.1322 -0.2124  0.4133
  143OSM   H11A15576   3.343   1.366   2.423  0.8812  0.2299 -1.7868
  143OSM   H11B15577   3.383   1.194   2.478  1.3449 -0.1189 -0.3833
  143OSM      P15578   3.107   1.265   2.530  0.0200  0.0749 -0.1124
  143OSM    O1315579   3.037   1.388   2.503  0.1802  0.6413  0.0690
  143OSM    O1415580   3.030   1.144   2.567 -0.1061 -0.1324 -0.6263
  143OSM    O1115581   3.216   1.285   2.643  0.0290 -0.0585  0.2872
  143OSM    O1215582   3.190   1.228   2.400 -0.1675 -0.0999  0.2256
  143OSM    C1S15583   3.193   1.257   2.780 -0.2000  0.5937 -1.1735
  143OSM    H1S15584   3.092   1.213   2.796  0.3284 -1.1192 -2.2891
  143OSM    H1T15585   3.193   1.349   2.843 -1.7840 -0.3701  0.3142
  143OSM     NF15586   3.260   1.113   2.965  0.0954 -0.2354 -0.1264
  143OSM    HNF15587   3.283   1.164   3.048  1.6491  1.3018 -1.4464
  143OSM    C2S15588   3.307   1.169   2.845 -0.1395 -0.5856 -0.6132
  143OSM    H2S15589   3.330   1.081   2.780  1.8899 -1.3545  1.0094
  143OSM    C3S15590   3.432   1.252   2.854 -0.1207  0.3391 -0.7151
  143OSM    H3S15591   3.415   1.346   2.911  2.0708  0.3201  0.0445
  143OSM     O315592   3.471   1.304   2.726  0.4261  0.2329 -0.3762
  143OSM    HO315593   3.386   1.333   2.690 -0.6217  0.1859  1.9024
  143OSM    C4S15594   3.541   1.184   2.928  0.0857 -1.0636 -0.2323
  143OSM    H4S15595   3.540   1.212   3.034  0.6081  0.5890 -0.6342
  143OSM    C5S15596   3.640   1.106   2.885 -0.1590  0.1373  0.4311
  143OSM    H5S15597   3.636   1.080   2.778 -2.4578 -0.3514  0.5781
  143OSM    C6S15598   3.752   1.046   2.960 -0.3382  0.5952 -0.0802
  143OSM    H6S15599   3.835   1.027   2.889  0.3869 -2.6331  1.4407
  143OSM    H6T15600   3.717   0.948   2.998 -0.5354  0.9595  0.6898
  143OSM    C7S15601   3.794   1.129   3.079  0.7012  0.3584  0.3545
  143OSM    H7S15602   3.709   1.134   3.151  1.4977 -0.3421  1.3723
  143OSM    H7T15603   3.816   1.233   3.048 -0.5240  0.5480  0.0492
  143OSM    C8S15604   3.920   1.061   3.142  0.6570  0.2754 -0.2302
  143OSM    H8S15605   4.015   1.084   3.090 -0.9830  1.6735 -2.8621
  143OSM    H8T15606   3.911   0.950   3.139 -1.0319  0.3390  0.9094
  143OSM    C9S15607   3.946   1.092   3.289  0.2338  0.6294  0.1754
  143OSM    H9S15608   3.937   1.203   3.300  1.5286  0.8237 -0.5701
  143OSM    H9T15609   4.051   1.071   3.316  0.2665 -0.5734 -0.8229
  143OSM   C10S15610   3.848   1.015   3.382 -1.2025 -0.1140 -0.5270
  143OSM   H10S15611   3.833   0.915   3.338  0.2107 -0.3490 -0.5290
  143OSM   H10T15612   3.752   1.072   3.383 -1.3769 -0.3086  2.9303
  143OSM   C11S15613   3.908   1.016   3.524  0.3335 -0.5921  0.5721
  143OSM   H11S15614   3.882   1.109   3.580 -0.9712 -0.2162 -0.5990
  143OSM   H11T15615   4.019   1.005   3.520  0.3194 -1.5281  2.0403
  143OSM   C12S15616   3.837   0.896   3.592 -0.5913  0.7524 -0.3335
  143OSM   H12S15617   3.851   0.804   3.532  1.2589 -0.2281  1.4671
  143OSM   H12T15618   3.729   0.921   3.598 -0.2826  2.0410  0.3620
  143OSM   C13S15619   3.900   0.855   3.729  0.3538  0.2470 -0.7384
  143OSM   H13S15620   3.999   0.806   3.714 -0.4126 -2.1626  1.2169
  143OSM   H13T15621   3.831   0.783   3.778 -1.0830  1.8805 -0.2850
  143OSM   C14S15622   3.918   0.982   3.809  0.4014  0.1764  0.7805
  143OSM   H14S15623   3.827   1.046   3.805 -0.3197 -0.8710  0.1157
  143OSM   H14T15624   4.003   1.048   3.778 -0.2751 -0.7063 -3.6462
  143OSM   C15S15625   3.929   0.937   3.950 -0.1396  0.1891 -0.0123
  143OSM   H15S15626   4.006   0.858   3.961 -1.6465 -1.5374 -1.2725
  143OSM   H15T15627   3.838   0.882   3.982 -2.2296  2.9028 -0.8972
  143OSM   C16S15628   3.942   1.054   4.046 -0.4194  0.5137 -0.2605
  143OSM   H16S15629   3.869   1.137   4.031  0.0415  1.2755  1.5283
  143OSM   H16T15630   4.036   1.104   4.016  0.4013 -0.9886 -0.2562
  143OSM   C17S15631   3.934   1.006   4.192 -0.3594  0.0671  0.0045
  143OSM   H17S15632   3.832   0.966   4.211 -0.9976  0.4043 -2.4263
  143OSM   H17T15633   3.947   1.099   4.251  1.2431 -1.5048  2.3051
  143OSM   C18S15634   4.044   0.908   4.234  0.4812  0.0028 -0.1505
  143OSM   H18S15635   4.027   0.882   4.340 -3.0987  2.0599 -0.0885
  143OSM   H18T15636   4.144   0.951   4.211  0.7452  0.0262  0.9979
  143OSM   H18U15637   4.026   0.812   4.180 -0.9033  0.2753 -0.2145
  143OSM    C1F15638   3.164   1.019   2.985 -0.3456  0.3622  0.2915
  143OSM     OF15639   3.108   0.968   2.885  0.1365 -0.4230 -0.1429
  143OSM    C2F15640   3.126   0.980   3.127 -0.7732 -0.1144  0.0609
  143OSM    H2F15641   3.141   1.077   3.179 -1.7705  1.9671 -3.2412
  143OSM    H2G15642   3.189   0.899   3.170 -0.0016  0.2605 -0.3469
  143OSM    C3F15643   2.977   0.936   3.150  0.3142 -0.3998  0.1128
  143OSM    H3F15644   2.960   0.838   3.101  1.2400 -0.4059 -0.2136
  143OSM    H3G15645   2.916   1.009   3.094 -2.1646 -2.8495 -0.6118
  143OSM    C4F15646   2.942   0.941   3.300  0.1652  0.0051 -0.3146
  143OSM    H4F15647   2.832   0.952   3.292  0.2387 -0.0223 -1.4879
  143OSM    H4G15648   2.990   1.030   3.346  1.0641 -0.1652 -0.8865
  143OSM    C5F15649   2.979   0.817   3.384 -0.2110 -0.7082  0.6776
  143OSM    H5F15650   3.071   0.759   3.364 -0.5235 -0.9246 -0.1938
  143OSM    H5G15651   2.905   0.738   3.358 -0.9290  0.5670 -1.4191
  143OSM    C6F15652   2.968   0.853   3.536  0.0630  0.2230  0.4912
  143OSM    H6F15653   2.870   0.902   3.551 -0.8641 -0.7917 -1.6891
  143OSM    H6G15654   3.050   0.924   3.559 -0.1024  1.0858 -1.3675
  143OSM    C7F15655   2.983   0.727   3.629  0.4160 -0.4405  0.3805
  143OSM    H7F15656   3.062   0.659   3.591 -1.6135 -1.3710 -2.5439
  143OSM    H7G15657   2.887   0.670   3.629 -0.7183  1.3749 -0.3577
  143OSM    C8F15658   3.004   0.769   3.777 -0.9702 -0.4708  0.5705
  143OSM    H8F15659   3.104   0.816   3.783  0.8131 -3.7010 -1.1213
  143OSM    H8G15660   3.009   0.680   3.843 -1.5549 -1.1392 -0.2645
  143OSM    C9F15661   2.893   0.873   3.813  0.4372  0.6853  0.3286
  143OSM    H9F15662   2.804   0.878   3.748  2.0002  1.6153 -1.8676
  143OSM   C10F15663   2.901   0.962   3.916  0.0563  0.9309  0.4960
  143OSM   H10F15664   2.805   1.016   3.923 -0.4385  0.1728 -0.1268
  143OSM   C11F15665   3.004   0.990   4.023  0.0963  0.6152  0.3150
  143OSM   H11F15666   3.076   1.067   3.985  1.6599 -1.1113 -0.4090
  143OSM   H11G15667   3.066   0.899   4.038  1.0789  1.2400  0.1444
  143OSM   C12F15668   2.948   1.046   4.149  0.2085 -0.3847 -0.6467
  143OSM   H12F15669   2.897   1.141   4.124  2.9117  0.7273 -2.3817
  143OSM   H12G15670   3.031   1.078   4.216 -0.3919 -3.4741  1.8251
  143OSM   C13F15671   2.881   0.931   4.224  0.4290 -0.8223  0.0391
  143OSM   H13F15672   2.954   0.848   4.212  1.0573 -0.4163  0.9493
  143OSM   H13G15673   2.786   0.905   4.173  0.1141 -0.9899  0.7164
  143OSM   C14F15674   2.842   0.957   4.369  0.0376 -0.0758 -0.5020
  143OSM   H14F15675   2.767   1.039   4.375  0.7519  0.5232  0.8175
  143OSM   H14G15676   2.926   0.982   4.438 -1.4519 -1.5886  1.9802
  143OSM   C15F15677   2.781   0.833   4.432 -0.1699 -0.1190 -0.0133
  143OSM   H15F15678   2.865   0.763   4.452 -0.4801 -0.5963 -0.3521
  143OSM   H15G15679   2.706   0.781   4.368  0.0835 -1.1897  0.5385
  143OSM   C16F15680   2.709   0.864   4.562  0.3901  0.2026  0.0837
  143OSM   H16F15681   2.761   0.946   4.616  1.2755  1.9436 -3.1654
  143OSM   H16G15682   2.715   0.773   4.626  2.2669 -0.6006 -1.1533
  143OSM   C17F15683   2.572   0.919   4.535  1.0187 -0.6555  0.7364
  143OSM   H17F15684   2.530   0.855   4.454 -0.0812  2.6257 -1.4943
  143OSM   H17G15685   2.572   1.025   4.504 -1.8441 -0.1007  2.3212
  143OSM   C18F15686   2.474   0.906   4.648  0.1078  0.0517 -0.3909
  143OSM   H18F15687   2.400   0.987   4.641 -0.3779 -0.1636  1.6687
  143OSM   H18G15688   2.526   0.929   4.743  0.2764 -0.9569 -0.2220
  143OSM   H18H15689   2.407   0.817   4.651 -1.4641  1.1688  3.6155
  144OSM      N15690   1.079   0.955   2.420 -0.0256 -1.0840  0.3598
  144OSM    C1515691   1.010   1.094   2.415 -0.7478 -0.2678  0.3069
  144OSM   H15A15692   0.979   1.102   2.312 -0.6620 -0.9264  0.2273
  144OSM   H15B15693   1.089   1.167   2.425 -1.4217  0.4047  0.9649
  144OSM   H15C15694   0.936   1.109   2.493 -0.6255  1.3617  0.1494
  144OSM    C1415695   0.974   0.855   2.382 -0.0084  0.8099 -0.3852
  144OSM   H14A15696   0.887   0.884   2.439 -1.1763 -0.5680 -1.3960
  144OSM   H14B15697   1.006   0.758   2.415  2.0015  1.6002  0.1172
  144OSM   H14C15698   0.952   0.857   2.276 -0.7680  0.1691 -0.2546
  144OSM    C1315699   1.184   0.959   2.313 -0.3617  0.0669 -0.3451
  144OSM   H13A15700   1.210   0.857   2.288 -0.3279  0.5040 -2.2103
  144OSM   H13B15701   1.276   1.007   2.343 -1.3459  1.0350  1.2876
  144OSM   H13C15702   1.155   0.992   2.215  0.0355  1.7015  0.0518
  144OSM    C1215703   1.138   0.922   2.552 -0.1273 -0.4957 -0.6863
  144OSM   H12A15704   1.194   0.831   2.541 -1.4021 -1.4423  0.3068
  144OSM   H12B15705   1.062   0.904   2.627 -0.7586  1.2962 -0.8257
  144OSM    C1115706   1.227   1.037   2.625  0.2320  0.5809 -0.2899
  144OSM   H11A15707   1.259   0.997   2.724  0.4194  1.7130  0.1144
  144OSM   H11B15708   1.159   1.123   2.642 -0.6032 -0.3084  1.1559
  144OSM      P15709   1.473   0.974   2.570  0.6343  0.0327 -0.0415
  144OSM    O1315710   1.436   0.850   2.644 -0.6335 -0.5134 -0.1182
  144OSM    O1415711   1.535   0.958   2.434  0.3226 -0.3277 -0.2993
  144OSM    O1115712   1.574   1.061   2.654  0.2393 -0.3258  0.1685
  144OSM    O1215713   1.346   1.073   2.556 -0.5723 -0.7000 -0.0168
  144OSM    C1S15714   1.544   1.180   2.735 -0.2858  0.7003  0.2132
  144OSM    H1S15715   1.448   1.226   2.703 -0.3804 -0.3305 -1.0873
  144OSM    H1T15716   1.625   1.256   2.733  2.1247 -1.6983 -0.5131
  144OSM     NF15717   1.513   1.264   2.962  0.3358 -0.1280 -0.1657
  144OSM    HNF15718   1.578   1.284   3.034 -0.3038 -1.8721  0.9409
  144OSM    C2S15719   1.532   1.139   2.889  0.2943 -0.4695 -0.0551
  144OSM    H2S15720   1.428   1.103   2.900 -0.0626  0.2662 -0.9556
  144OSM    C3S15721   1.649   1.055   2.937 -0.6042 -0.1137 -0.4958
  144OSM    H3S15722   1.745   1.107   2.915 -0.9094  0.1102 -1.3674
  144OSM     O315723   1.662   0.935   2.853  0.4228  0.5806  0.1083
  144OSM    HO315724   1.621   0.956   2.769 -2.0609  0.8228  1.2951
  144OSM    C4S15725   1.654   1.019   3.085  0.2133 -0.7788 -0.0955
  144OSM    H4S15726   1.731   1.070   3.144 -0.9293 -0.4026  1.1095
  144OSM    C5S15727   1.595   0.916   3.143  0.4356 -0.4494 -0.1043
  144OSM    H5S15728   1.533   0.851   3.079 -0.0903  1.6615 -1.8696
  144OSM    C6S15729   1.617   0.872   3.284  0.1836 -1.0704  0.7576
  144OSM    H6S15730   1.726   0.870   3.304  0.6914  2.2343 -0.9295
  144OSM    H6T15731   1.584   0.769   3.308  2.3659 -1.1934  3.9037
  144OSM    C7S15732   1.548   0.965   3.391  0.6518  0.3150  0.0945
  144OSM    H7S15733   1.438   0.952   3.387  0.7087 -0.3069  0.4582
  144OSM    H7T15734   1.559   1.074   3.371 -0.3800  0.3151 -0.5499
  144OSM    C8S15735   1.609   0.946   3.531 -0.4846  0.4349  0.0130
  144OSM    H8S15736   1.718   0.963   3.519 -0.7840  2.3411 -0.3535
  144OSM    H8T15737   1.592   0.837   3.544 -0.0301  0.3793  0.1490
  144OSM    C9S15738   1.556   1.026   3.654 -0.2177  0.3735 -0.7292
  144OSM    H9S15739   1.446   1.028   3.643 -0.1467 -0.3280 -1.7108
  144OSM    H9T15740   1.591   1.130   3.639  1.1077  0.2470  1.1191
  144OSM   C10S15741   1.602   0.960   3.794 -0.6990  0.0445  0.2064
  144OSM   H10S15742   1.710   0.983   3.789 -0.9635  1.5458  1.1446
  144OSM   H10T15743   1.587   0.850   3.784 -1.5728  0.1700  0.0264
  144OSM   C11S15744   1.533   1.016   3.915  0.2257  0.2964 -0.2353
  144OSM   H11S15745   1.426   0.987   3.918  0.4483 -0.5861 -0.3366
  144OSM   H11T15746   1.544   1.126   3.916 -0.7812  0.4046  0.4080
  144OSM   C12S15747   1.596   0.952   4.043 -0.7601 -0.6856 -0.1040
  144OSM   H12S15748   1.704   0.932   4.033 -0.3092  0.4053  1.9427
  144OSM   H12T15749   1.549   0.851   4.051 -0.4105 -0.7458  1.4603
  144OSM   C13S15750   1.564   1.033   4.167  0.2445 -0.0066  0.4830
  144OSM   H13S15751   1.455   1.057   4.172  0.6214  1.6323  1.8272
  144OSM   H13T15752   1.605   1.136   4.156 -1.1890  0.4288 -1.3368
  144OSM   C14S15753   1.610   0.963   4.292 -0.2301  0.5313  0.6162
  144OSM   H14S15754   1.703   0.903   4.283 -1.4990 -1.5444  0.7356
  144OSM   H14T15755   1.537   0.888   4.330 -0.8184  0.9027  0.2414
  144OSM   C15S15756   1.617   1.058   4.411 -0.8337  0.2403  0.1218
  144OSM   H15S15757   1.698   1.131   4.388 -0.5399 -0.0655  0.1905
  144OSM   H15T15758   1.640   0.984   4.490 -1.3851 -1.7599 -1.5042
  144OSM   C16S15759   1.488   1.135   4.437  0.4004  0.3994  0.5167
  144OSM   H16S15760   1.419   1.059   4.479 -0.6993  1.1139  0.0321
  144OSM   H16T15761   1.451   1.177   4.341  1.9562 -0.2091 -0.4009
  144OSM   C17S15762   1.493   1.242   4.541  1.1332 -1.7478 -0.4027
  144OSM   H17S15763   1.393   1.289   4.558  1.8902 -0.3514  0.3789
  144OSM   H17T15764   1.547   1.332   4.507 -3.2998  2.0232  1.4321
  144OSM   C18S15765   1.544   1.193   4.674  0.5847 -0.4643  0.4927
  144OSM   H18S15766   1.492   1.095   4.684  0.1497 -0.3555 -0.6063
  144OSM   H18T15767   1.523   1.257   4.762  0.7146 -0.1488  0.2975
  144OSM   H18U15768   1.652   1.169   4.665  0.3199 -2.1666  1.4010
  144OSM    C1F15769   1.406   1.345   2.959  0.2700  0.7977  0.4417
  144OSM     OF15770   1.310   1.330   2.882  0.2875 -0.5622 -0.1352
  144OSM    C2F15771   1.399   1.442   3.066  0.5297  0.6650 -0.0110
  144OSM    H2F15772   1.354   1.539   3.038 -0.4044  0.5625  1.0830
  144OSM    H2G15773   1.502   1.461   3.105  0.8749 -0.0087 -0.5715
  144OSM    C3F15774   1.328   1.378   3.192 -0.2990  0.0233 -0.8283
  144OSM    H3F15775   1.362   1.279   3.228  1.8347  0.8715 -0.3342
  144OSM    H3G15776   1.223   1.358   3.165 -0.6335 -1.0883  1.1388
  144OSM    C4F15777   1.339   1.473   3.310 -0.6987 -0.5526  0.5120
  144OSM    H4F15778   1.293   1.568   3.276  0.7771 -0.0450 -0.1733
  144OSM    H4G15779   1.449   1.470   3.328 -1.0971 -0.1974  3.5552
  144OSM    C5F15780   1.273   1.429   3.441  0.5838 -0.5256 -0.1378
  144OSM    H5F15781   1.172   1.383   3.432 -0.5138  1.8670 -0.7836
  144OSM    H5G15782   1.266   1.521   3.502 -2.4845 -1.1717  0.6619
  144OSM    C6F15783   1.369   1.326   3.513 -0.3732  0.1459 -0.2481
  144OSM    H6F15784   1.468   1.366   3.544  1.1299 -1.2665 -2.8905
  144OSM    H6G15785   1.383   1.235   3.451 -0.9031  0.8321 -1.4131
  144OSM    C7F15786   1.289   1.270   3.635  0.2878 -0.1417  0.1552
  144OSM    H7F15787   1.308   1.161   3.649 -0.6344 -0.5124 -1.3325
  144OSM    H7G15788   1.179   1.282   3.626  0.2777 -0.0820  0.3551
  144OSM    C8F15789   1.336   1.342   3.764 -0.1108 -0.8990  0.4588
  144OSM    H8F15790   1.446   1.330   3.769 -0.1675 -0.8322  3.1606
  144OSM    H8G15791   1.291   1.293   3.853 -0.5330 -0.6111  0.4055
  144OSM    C9F15792   1.295   1.485   3.765  0.0683 -0.0033  0.0611
  144OSM    H9F15793   1.350   1.559   3.705  0.6500 -0.3931  0.1014
  144OSM   C10F15794   1.195   1.542   3.835 -0.6953  0.5039 -1.0790
  144OSM   H10F15795   1.182   1.651   3.823 -2.3327  0.6831  1.4862
  144OSM   C11F15796   1.096   1.478   3.924 -0.1008  0.1526 -0.0021
  144OSM   H11F15797   1.090   1.369   3.904 -3.0801  0.3329 -0.5458
  144OSM   H11G15798   0.997   1.515   3.891  0.5864 -0.2792 -2.8631
  144OSM   C12F15799   1.121   1.497   4.074 -0.3127 -0.6427 -0.2431
  144OSM   H12F15800   1.230   1.478   4.086  0.3327  2.9293  0.7098
  144OSM   H12G15801   1.066   1.419   4.130  0.0770 -0.9578 -0.2886
  144OSM   C13F15802   1.088   1.632   4.134 -0.3132 -0.0460  0.7617
  144OSM   H13F15803   0.983   1.656   4.104 -0.6151 -0.5751  1.3792
  144OSM   H13G15804   1.152   1.706   4.082 -0.3860  0.5595  1.5199
  144OSM   C14F15805   1.096   1.635   4.288  0.3735 -0.1546 -0.0975
  144OSM   H14F15806   1.189   1.582   4.315  0.2028 -1.3303 -1.6612
  144OSM   H14G15807   1.006   1.581   4.324 -0.8235  1.3175 -0.7329
  144OSM   C15F15808   1.104   1.768   4.357  0.4414  0.3402  0.1040
  144OSM   H15F15809   1.004   1.815   4.340  0.2654 -0.4141 -1.0164
  144OSM   H15G15810   1.188   1.830   4.317 -0.6555  1.8447  0.0289
  144OSM   C16F15811   1.133   1.772   4.510 -0.0305  0.3875  0.1462
  144OSM   H16F15812   1.125   1.875   4.550  0.8596 -0.3933  2.4983
  144OSM   H16G15813   1.239   1.740   4.518  0.7217  2.1787 -1.6301
  144OSM   C17F15814   1.039   1.681   4.595 -0.3566  0.1335  0.8100
  144OSM   H17F15815   1.019   1.588   4.536  0.1849  1.1009 -0.9691
  144OSM   H17G15816   0.940   1.731   4.592 -0.6088 -0.2082 -3.5481
  144OSM   C18F15817   1.096   1.664   4.735  0.3896  0.7096  0.1128
  144OSM   H18F15818   1.085   1.756   4.796 -1.6308  0.1267  0.6997
  144OSM   H18G15819   1.202   1.633   4.745 -0.5876 -2.1995  2.7059
  144OSM   H18H15820   1.061   1.570   4.782  2.7559 -0.6585 -0.6700
  145SAPE     N15821   4.082   1.612   6.910 -0.0975  0.1454  0.9096
  145SAPE   HN115822   4.021   1.543   6.862  0.7883  0.9798 -1.5794
  145SAPE   HN215823   4.093   1.688   6.840  0.4485 -1.5296 -0.9281
  145SAPE   HN315824   4.175   1.570   6.928 -0.1573  0.6961  2.7045
  145SAPE   C1215825   4.044   1.670   7.043  0.2522  0.4143  0.1249
  145SAPE  H12A15826   4.117   1.749   7.074  1.9402 -0.6887 -0.8894
  145SAPE  H12B15827   4.047   1.585   7.115 -0.2013 -0.0122 -0.3575
  145SAPE   C1115828   3.905   1.730   7.033  0.1497 -0.1054  0.1354
  145SAPE  H11A15829   3.904   1.804   6.951  1.7961 -0.2333 -0.0337
  145SAPE  H11B15830   3.876   1.767   7.134 -0.9541 -0.4237 -0.0532
  145SAPE     P15831   3.669   1.652   6.961  0.0280  0.0201  0.2881
  145SAPE   O1315832   3.585   1.529   6.986  0.4256  0.1760 -0.7113
  145SAPE   O1415833   3.634   1.769   7.044  0.3910  0.3596 -0.4491
  145SAPE   O1215834   3.818   1.622   6.988 -0.0289  0.3253  0.2345
  145SAPE   O1115835   3.669   1.693   6.804 -0.1208 -0.9779  0.1695
  145SAPE    C115836   3.774   1.652   6.712  0.1910 -0.5022 -0.6048
  145SAPE    HA15837   3.860   1.718   6.732 -0.2966 -0.6025  2.2402
  145SAPE    HB15838   3.799   1.545   6.726  0.4404 -0.7721 -2.7774
  145SAPE    C215839   3.724   1.674   6.571  0.2199 -0.1031 -0.4818
  145SAPE    HS15840   3.793   1.618   6.504  0.1739  0.4587 -1.0051
  145SAPE   O2115841   3.734   1.816   6.545  0.0806 -0.5409  0.1211
  145SAPE   C2115842   3.854   1.861   6.505  0.1479 -0.1355 -0.3893
  145SAPE   O2215843   3.959   1.803   6.499  0.2147  0.1918 -0.1397
  145SAPE   C2215844   3.844   2.012   6.478 -0.2129 -0.5990 -0.4457
  145SAPE   H2R15845   3.841   2.061   6.578 -0.3516  0.4778 -0.9700
  145SAPE   H2S15846   3.941   2.044   6.434 -1.3817  0.4343 -2.4195
  145SAPE    C315847   3.578   1.615   6.551 -0.2901 -0.0888  0.3816
  145SAPE    HX15848   3.518   1.640   6.642 -0.0341 -1.1695  0.8663
  145SAPE    HY15849   3.587   1.504   6.550 -0.8289 -0.1749 -2.3385
  145SAPE   O3115850   3.526   1.658   6.424 -0.5052 -0.4126 -0.3131
  145SAPE   C3115851   3.422   1.740   6.421  0.2432  0.1598  0.5504
  145SAPE   O3215852   3.382   1.790   6.525 -0.3946  0.0570 -0.2418
  145SAPE   C3215853   3.386   1.780   6.281 -0.1064 -0.1254 -0.2600
  145SAPE   H2X15854   3.397   1.890   6.280 -0.9884 -0.0325 -0.3594
  145SAPE   H2Y15855   3.280   1.749   6.287 -0.1566 -0.2252 -1.4130
  145SAPE   C2315856   3.724   2.038   6.375  0.2885 -0.3547 -0.6063
  145SAPE   H3R15857   3.632   2.002   6.426 -0.1307 -0.6360 -1.5380
  145SAPE   H3S15858   3.737   1.968   6.290  0.2148 -0.7358 -0.3042
  145SAPE   C2415859   3.728   2.183   6.321 -0.4437  0.0251 -0.0461
  145SAPE   H4R15860   3.668   2.189   6.228 -1.0322 -0.9077  0.2694
  145SAPE   H4S15861   3.828   2.227   6.299 -0.6304  1.8673  2.3477
  145SAPE   C2515862   3.664   2.275   6.421  0.5226 -0.2321 -0.5176
  145SAPE   H5R15863   3.706   2.269   6.522 -0.8185  0.8513  0.1492
  145SAPE   C2615864   3.552   2.348   6.405  0.3972  0.4347  0.3970
  145SAPE   H6R15865   3.519   2.406   6.493  1.4930  0.5245  0.7640
  145SAPE   C2715866   3.480   2.359   6.273  0.0868 -0.0623 -0.5973
  145SAPE   H7R15867   3.416   2.268   6.269 -1.1889  0.7708  0.0570
  145SAPE   H7S15868   3.545   2.351   6.183  0.3788  0.8757 -0.4809
  145SAPE   C2815869   3.389   2.472   6.255  0.3200 -0.6130  0.2024
  145SAPE   H8R15870   3.356   2.529   6.343  1.0915 -0.9734  0.7356
  145SAPE   C2915871   3.342   2.492   6.125  0.1229  0.8468 -0.0251
  145SAPE   H9R15872   3.284   2.583   6.108  0.6105  1.4458  1.3501
  145SAPE  C21015873   3.375   2.419   5.997  0.6786 -0.1187 -0.5582
  145SAPE  H10R15874   3.301   2.340   5.972 -1.0799  0.7360  1.5715
  145SAPE  H10S15875   3.466   2.357   6.008 -0.0902 -1.2342 -0.3799
  145SAPE  C21115876   3.404   2.513   5.884  0.3799 -0.0791 -0.2891
  145SAPE  H11R15877   3.460   2.602   5.916  1.4713 -0.3238 -1.4199
  145SAPE  C21215878   3.374   2.506   5.746 -0.7361  0.1465 -0.9988
  145SAPE  H12R15879   3.416   2.587   5.684  1.5315 -0.4430 -0.3220
  145SAPE  C21315880   3.300   2.400   5.672 -0.1667 -0.3553 -0.2438
  145SAPE  H13R15881   3.245   2.454   5.592  1.5709  2.8375  0.5614
  145SAPE  H13S15882   3.224   2.354   5.739  1.9504 -3.1084  0.4906
  145SAPE  C21415883   3.390   2.287   5.626  0.6773  0.0564  0.2436
  145SAPE  H14R15884   3.463   2.243   5.696  1.3160  0.2653 -0.2746
  145SAPE  C21515885   3.385   2.234   5.501 -0.3746  0.0072 -0.3980
  145SAPE  H15R15886   3.455   2.154   5.475 -2.4615 -2.0379 -0.0752
  145SAPE  C21615887   3.292   2.279   5.388  0.2002  0.4173  0.2259
  145SAPE  H16R15888   3.337   2.347   5.313 -1.0257 -1.3266 -2.2357
  145SAPE  H16S15889   3.211   2.345   5.426  1.1201  0.9248  1.3425
  145SAPE  C21715890   3.234   2.165   5.304  0.5001 -0.6802  0.4119
  145SAPE  H17R15891   3.200   2.081   5.368  0.2824 -0.2411  0.8828
  145SAPE  H17S15892   3.320   2.112   5.256 -0.8855 -0.1294 -2.9412
  145SAPE  C21815893   3.128   2.215   5.200  0.4354  0.6013 -0.0551
  145SAPE  H18R15894   3.185   2.289   5.140 -1.1623  1.9489  0.0178
  145SAPE  H18S15895   3.038   2.258   5.249  0.0135  0.7939 -0.9627
  145SAPE  C21915896   3.062   2.109   5.112 -0.6259 -0.3628 -0.7614
  145SAPE  H19R15897   3.002   2.171   5.042  1.6483  0.8279 -1.7695
  145SAPE  H19S15898   2.992   2.043   5.167  0.2920 -3.4168 -2.9690
  145SAPE  C22015899   3.159   2.032   5.014 -0.5619  0.6500  0.5104
  145SAPE  H20R15900   3.244   2.095   4.981 -0.5888  0.5877  0.3159
  145SAPE  H20S15901   3.100   1.996   4.927 -0.0500 -0.0679  0.4506
  145SAPE  H20T15902   3.205   1.946   5.066 -1.0161 -1.7424 -2.7004
  145SAPE   C3315903   3.465   1.710   6.168  0.3344 -0.7793 -0.1692
  145SAPE   H3X15904   3.403   1.722   6.077  1.3549 -1.0621 -0.9215
  145SAPE   H3Y15905   3.474   1.602   6.192 -0.3537 -0.7292  0.3484
  145SAPE   C3415906   3.608   1.761   6.141  0.6219 -0.1840  0.2913
  145SAPE   H4X15907   3.665   1.700   6.067  1.8245  1.1391  0.0824
  145SAPE   H4Y15908   3.671   1.764   6.232 -0.4128  1.1473  0.9932
  145SAPE   C3515909   3.605   1.902   6.068  0.4468 -0.3741  0.1553
  145SAPE   H5X15910   3.707   1.945   6.072 -0.5029  2.0173  0.9978
  145SAPE   H5Y15911   3.548   1.978   6.126 -0.6769 -1.0420 -0.0439
  145SAPE   C3615912   3.566   1.898   5.919 -0.7311 -0.6588  0.6244
  145SAPE   H6X15913   3.458   1.876   5.906 -0.7674  1.0356 -3.1724
  145SAPE   H6Y15914   3.625   1.819   5.869  0.3155  1.2562 -1.3476
  145SAPE   C3715915   3.600   2.038   5.845  0.5601  0.1558  0.1075
  145SAPE   H7X15916   3.529   2.108   5.894  0.8067  2.0823 -2.1165
  145SAPE   H7Y15917   3.556   2.035   5.744 -1.3280  0.5365  0.8737
  145SAPE   C3815918   3.741   2.095   5.848  0.2809 -0.3007  0.2411
  145SAPE   H8X15919   3.757   2.126   5.954 -2.5520 -1.3440  1.0877
  145SAPE   H8Y15920   3.737   2.186   5.785  0.4893 -0.7577 -0.4341
  145SAPE   C3915921   3.845   2.009   5.779 -0.4702 -0.1633 -0.5053
  145SAPE   H9X15922   3.812   2.009   5.673 -1.8746 -1.8964 -0.1362
  145SAPE   H9Y15923   3.836   1.904   5.816  0.1084 -0.4093 -1.0432
  145SAPE  C31015924   3.992   2.058   5.789 -0.0463 -0.1635  0.3366
  145SAPE  H10X15925   4.012   2.078   5.897 -1.5984  0.0507  0.6087
  145SAPE  H10Y15926   4.006   2.154   5.735 -0.1497  0.7189  1.8035
  145SAPE  C31115927   4.107   1.954   5.745 -0.2984  0.0146  0.9197
  145SAPE  H11X15928   4.109   1.873   5.820  2.3321 -3.0752 -2.1625
  145SAPE  H11Y15929   4.204   2.008   5.747 -0.4567  0.2991  1.0535
  145SAPE  C31215930   4.084   1.902   5.602 -0.2650  0.0847 -0.3298
  145SAPE  H12X15931   4.050   1.989   5.541 -1.2241 -0.2218 -0.2384
  145SAPE  H12Y15932   4.017   1.814   5.603  2.2811 -1.9992 -0.9175
  145SAPE  C31315933   4.213   1.856   5.524  0.0808  0.1091  0.1667
  145SAPE  H13X15934   4.260   1.767   5.571  0.2211  0.1582  0.1171
  145SAPE  H13Y15935   4.292   1.933   5.538  0.9739 -1.0668  1.9414
  145SAPE  C31415936   4.190   1.814   5.376  0.2434 -0.1221  0.0566
  145SAPE  H14X15937   4.290   1.789   5.335  0.4214 -1.8439  1.3786
  145SAPE  H14Y15938   4.150   1.900   5.319  0.9510 -1.2519 -2.2845
  145SAPE  C31515939   4.103   1.685   5.351 -0.1866 -0.4226  0.9794
  145SAPE  H15X15940   4.010   1.694   5.411 -2.3830 -0.7880 -2.1006
  145SAPE  H15Y15941   4.157   1.592   5.378 -1.6716 -1.6175 -0.0285
  145SAPE  C31615942   4.062   1.681   5.204  0.0286 -0.1605 -0.6599
  145SAPE  H16X15943   3.993   1.765   5.182  0.1196  0.5082  1.3534
  145SAPE  H16Y15944   3.994   1.594   5.198 -0.8913  0.3188  1.7812
  145SAPE  C31715945   4.178   1.660   5.105  0.1072  0.8502 -0.7672
  145SAPE  H17X15946   4.229   1.566   5.135 -1.2422  0.9192  2.1580
  145SAPE  H17Y15947   4.250   1.744   5.115  1.5275 -0.4456  0.1589
  145SAPE  C31815948   4.135   1.646   4.960  0.6792 -0.1790 -0.4683
  145SAPE  H18X15949   4.209   1.642   4.877  0.2726 -0.6379 -0.8183
  145SAPE  H18Y15950   4.050   1.715   4.941  0.7463  0.6124  1.8241
  145SAPE  H18Z15951   4.086   1.546   4.956 -1.0531  0.5892  0.3109
  146SAPE     N15952   6.775   0.081   6.921  0.2727 -0.2204 -0.5258
  146SAPE   HN115953   6.841   0.046   6.849 -1.3859 -0.8187 -1.8369
  146SAPE   HN215954   6.826   0.068   7.010  2.3931  1.2204 -1.4555
  146SAPE   HN315955   6.698   0.011   6.920 -0.2018  0.2646 -2.1789
  146SAPE   C1215956   6.718   0.221   6.914 -0.0346  1.0067 -0.2328
  146SAPE  H12A15957   6.678   0.248   7.014  0.4280 -0.8788  0.5253
  146SAPE  H12B15958   6.630   0.229   6.848 -0.6395 -0.3154  0.3713
  146SAPE   C1115959   6.826   0.329   6.877  0.5443 -0.2564 -0.1364
  146SAPE  H11A15960   6.779   0.430   6.882  2.0620  0.4379  1.9505
  146SAPE  H11B15961   6.843   0.303   6.771  0.7761 -0.5475 -0.0279
  146SAPE     P15962   6.938   0.392   7.100  0.2179  0.0712 -0.4343
  146SAPE   O1315963   6.801   0.402   7.152 -0.0920  0.1032 -0.5535
  146SAPE   O1415964   7.032   0.318   7.189  0.3729 -0.2639 -0.7582
  146SAPE   O1215965   6.943   0.311   6.962 -0.9579 -0.4807 -0.4912
  146SAPE   O1115966   6.998   0.538   7.063 -0.1233  0.0715 -0.2037
  146SAPE    C115967   7.133   0.537   7.011  0.9322 -0.2550  0.0045
  146SAPE    HA15968   7.217   0.521   7.082  1.5768 -1.5214 -0.9919
  146SAPE    HB15969   7.135   0.461   6.930 -2.4094 -0.6366  0.1437
  146SAPE    C215970   7.174   0.668   6.938  0.3446 -0.2108 -0.0924
  146SAPE    HS15971   7.188   0.741   7.020  0.2613 -0.7750  0.4234
  146SAPE   O2115972   7.074   0.709   6.848  0.6745  0.2007  0.1569
  146SAPE   C2115973   7.056   0.839   6.840 -0.1073 -0.6173  0.1096
  146SAPE   O2215974   7.128   0.930   6.882  0.1304 -0.5611  0.4724
  146SAPE   C2215975   6.924   0.864   6.770 -0.2439  0.5744  0.4028
  146SAPE   H2R15976   6.876   0.951   6.820 -0.7452 -0.2589  1.3942
  146SAPE   H2S15977   6.932   0.897   6.664 -1.4855  0.3386  0.2202
  146SAPE    C315978   7.320   0.659   6.874  0.1904 -0.1434 -0.0059
  146SAPE    HX15979   7.396   0.638   6.953  1.0299 -0.3628 -0.8565
  146SAPE    HY15980   7.346   0.758   6.831  4.4990 -0.2804  1.7185
  146SAPE   O3115981   7.315   0.554   6.769 -0.2574  0.1722  0.5004
  146SAPE   C3115982   7.420   0.477   6.759 -0.4614 -0.2360 -0.1419
  146SAPE   O3215983   7.526   0.493   6.822  0.3042  0.1284  0.1884
  146SAPE   C3215984   7.399   0.389   6.630 -0.4030  0.4018  0.7595
  146SAPE   H2X15985   7.293   0.398   6.599  0.2372  1.3842 -1.3570
  146SAPE   H2Y15986   7.421   0.285   6.661  0.9752  0.3944 -0.1619
  146SAPE   C2315987   6.828   0.747   6.786 -0.0395 -0.4031  0.4274
  146SAPE   H3R15988   6.841   0.710   6.890 -0.9746 -2.8264 -0.2600
  146SAPE   H3S15989   6.856   0.664   6.718 -1.2526 -1.6922  1.4517
  146SAPE   C2415990   6.680   0.777   6.759 -0.5775  0.3218  0.2983
  146SAPE   H4R15991   6.670   0.812   6.654 -0.7156  2.2600  0.9182
  146SAPE   H4S15992   6.645   0.869   6.811  1.7231  0.9288  0.8506
  146SAPE   C2515993   6.590   0.669   6.803 -0.1065 -0.4356  0.3516
  146SAPE   H5R15994   6.594   0.658   6.912 -0.2553  0.1017  0.4140
  146SAPE   C2615995   6.538   0.582   6.715  0.5466 -0.5393 -0.3499
  146SAPE   H6R15996   6.488   0.497   6.763  0.2029 -0.2111 -0.1263
  146SAPE   C2715997   6.543   0.594   6.569  0.6910 -0.5119  0.2570
  146SAPE   H7R15998   6.501   0.502   6.523  0.2453 -0.2013  0.0327
  146SAPE   H7S15999   6.650   0.587   6.540  0.3007 -2.7649 -0.8422
  146SAPE   C2816000   6.471   0.714   6.506  0.1606  0.4593  0.9944
  146SAPE   H8R16001   6.415   0.778   6.575 -2.0817  0.8338 -1.0553
  146SAPE   C2916002   6.485   0.753   6.377 -0.1674  0.8012  0.0457
  146SAPE   H9R16003   6.429   0.842   6.345 -0.9866  0.3203  0.1325
  146SAPE  C21016004   6.571   0.689   6.266  0.5802 -0.0079  0.4904
  146SAPE  H10R16005   6.636   0.604   6.298  1.8321  0.3570 -0.9687
  146SAPE  H10S16006   6.657   0.754   6.239  0.4478 -0.0532 -0.0339
  146SAPE  C21116007   6.461   0.633   6.174  0.3228 -0.2292 -0.5084
  146SAPE  H11R16008   6.388   0.569   6.226  0.6591 -0.6645 -0.5669
  146SAPE  C21216009   6.449   0.650   6.039 -0.2237  0.1930 -0.7057
  146SAPE  H12R16010   6.368   0.592   5.992 -1.3080 -0.5207  1.8687
  146SAPE  C21316011   6.527   0.721   5.937  0.1226  0.4159  0.0671
  146SAPE  H13R16012   6.630   0.681   5.954 -0.8040 -1.4778  1.7760
  146SAPE  H13S16013   6.535   0.824   5.978 -1.7222  0.3353  0.7063
  146SAPE  C21416014   6.476   0.715   5.800  1.3096  0.1295 -0.1194
  146SAPE  H14R16015   6.392   0.786   5.791  0.6015 -0.8740 -2.1293
  146SAPE  C21516016   6.505   0.643   5.696 -0.4635  0.0029 -0.0710
  146SAPE  H15R16017   6.440   0.659   5.609  0.1295  2.1134 -0.2082
  146SAPE  C21616018   6.611   0.538   5.684  0.0785 -0.0776  0.0056
  146SAPE  H16R16019   6.575   0.447   5.737 -0.8452  0.9265  1.1658
  146SAPE  H16S16020   6.706   0.576   5.727 -0.4229  3.0642 -1.3653
  146SAPE  C21716021   6.642   0.505   5.536  0.7054 -1.0858 -0.0286
  146SAPE  H17R16022   6.550   0.463   5.491  0.0179 -0.4663  0.7695
  146SAPE  H17S16023   6.710   0.419   5.519  0.3294 -1.0765 -1.7322
  146SAPE  C21816024   6.697   0.608   5.441  0.4415 -0.0687 -0.1352
  146SAPE  H18R16025   6.792   0.640   5.489  0.6933 -0.7906 -0.1382
  146SAPE  H18S16026   6.636   0.700   5.431  3.3574  2.0588  0.5297
  146SAPE  C21916027   6.709   0.558   5.294 -0.3394 -0.1460 -0.5464
  146SAPE  H19R16028   6.718   0.646   5.228 -1.0324  0.1843 -0.2239
  146SAPE  H19S16029   6.611   0.518   5.260 -0.7570  0.4210 -0.0378
  146SAPE  C22016030   6.832   0.471   5.275  0.3483 -0.0906  0.3672
  146SAPE  H20R16031   6.855   0.441   5.171 -0.6353 -0.0081  0.1153
  146SAPE  H20S16032   6.830   0.379   5.337 -1.4860 -2.2292 -2.6073
  146SAPE  H20T16033   6.922   0.522   5.316  1.7590 -1.2565 -1.1553
  146SAPE   C3316034   7.491   0.413   6.509  0.0252 -0.6683 -0.6138
  146SAPE   H3X16035   7.596   0.395   6.538 -0.4358 -1.8723  0.3811
  146SAPE   H3Y16036   7.495   0.517   6.468 -0.6053 -0.1040  0.6840
  146SAPE   C3416037   7.448   0.321   6.397  0.3327  0.0486 -0.4622
  146SAPE   H4X16038   7.341   0.339   6.373  0.9494  2.2183 -1.8761
  146SAPE   H4Y16039   7.475   0.217   6.425  0.7570  0.1213 -0.5955
  146SAPE   C3516040   7.521   0.359   6.262  0.5905 -0.2246 -0.4716
  146SAPE   H5X16041   7.632   0.354   6.264  0.6396  0.6490 -0.6479
  146SAPE   H5Y16042   7.485   0.463   6.244 -0.6350 -0.5417  0.0685
  146SAPE   C3616043   7.462   0.258   6.153 -0.2918  0.1136  0.1826
  146SAPE   H6X16044   7.355   0.240   6.177 -0.7213 -1.4649 -2.4879
  146SAPE   H6Y16045   7.519   0.168   6.181  3.8357  2.8270  1.4000
  146SAPE   C3716046   7.479   0.320   6.015  0.3580 -0.0779  0.4884
  146SAPE   H7X16047   7.422   0.414   6.006 -0.0723 -0.5067 -2.2066
  146SAPE   H7Y16048   7.431   0.251   5.942 -1.7396  1.1160  0.6909
  146SAPE   C3816049   7.619   0.325   5.964  0.6605 -0.3859  0.3061
  146SAPE   H8X16050   7.684   0.236   5.948  0.9418  0.1913 -2.1048
  146SAPE   H8Y16051   7.676   0.389   6.035  1.0402 -2.5255  2.0423
  146SAPE   C3916052   7.631   0.400   5.825  0.3110  0.2269 -0.3729
  146SAPE   H9X16053   7.573   0.494   5.841 -0.0155  0.0030 -0.2534
  146SAPE   H9Y16054   7.586   0.335   5.748 -0.5658 -0.3625  0.6191
  146SAPE  C31016055   7.776   0.434   5.787 -0.1692 -0.1657  0.1277
  146SAPE  H10X16056   7.829   0.340   5.813 -0.0363 -0.1958 -0.2522
  146SAPE  H10Y16057   7.812   0.517   5.852  2.5503 -1.3886  0.3447
  146SAPE  C31116058   7.779   0.488   5.640  0.8797 -0.4148  0.3542
  146SAPE  H11X16059   7.704   0.570   5.644 -0.2189 -1.4158  1.1417
  146SAPE  H11Y16060   7.741   0.421   5.560  0.1910  2.2505 -1.6769
  146SAPE  C31216061   7.909   0.555   5.591  0.1051  0.1513 -0.3075
  146SAPE  H12X16062   7.987   0.477   5.607  1.2131  1.3609  0.3083
  146SAPE  H12Y16063   7.940   0.644   5.650 -0.6666  0.6817 -0.6839
  146SAPE  C31316064   7.908   0.585   5.441  0.1755  0.4371 -0.1881
  146SAPE  H13X16065   7.885   0.489   5.391 -0.1442  0.3581  0.1106
  146SAPE  H13Y16066   8.003   0.632   5.406 -1.0184  4.7204  1.6317
  146SAPE  C31416067   7.805   0.694   5.416 -0.5960  0.5620 -0.6802
  146SAPE  H14X16068   7.818   0.780   5.486 -1.7994 -0.2312  0.5667
  146SAPE  H14Y16069   7.709   0.660   5.461  0.5695  2.0190  3.4152
  146SAPE  C31516070   7.776   0.730   5.274 -0.0512 -0.4299  0.3864
  146SAPE  H15X16071   7.763   0.636   5.216  0.6606 -0.1915 -0.1615
  146SAPE  H15Y16072   7.875   0.765   5.240  0.2228 -2.4923 -1.1310
  146SAPE  C31616073   7.670   0.837   5.245 -0.3392  0.8103 -0.1168
  146SAPE  H16X16074   7.709   0.933   5.285 -0.0474  1.0893 -1.0363
  146SAPE  H16Y16075   7.573   0.800   5.285  0.2296 -0.0661  0.4832
  146SAPE  C31716076   7.647   0.864   5.097 -1.1804  0.3458  0.1998
  146SAPE  H17X16077   7.584   0.787   5.048 -0.9740  1.2026 -1.5144
  146SAPE  H17Y16078   7.752   0.868   5.059 -1.1609 -1.7233 -0.0871
  146SAPE  C31816079   7.585   0.998   5.068  0.2088 -0.0235  0.2275
  146SAPE  H18X16080   7.616   1.071   5.146 -0.6202  0.7435 -0.1515
  146SAPE  H18Y16081   7.474   0.998   5.058 -0.0449  0.4293  2.3856
  146SAPE  H18Z16082   7.625   1.027   4.969 -0.2074 -0.3378 -0.0339
  147SAPE     N16083   5.294   6.278   7.546 -0.4760  0.4065  0.5440
  147SAPE   HN116084   5.267   6.305   7.449  2.2276  0.9744 -0.1285
  147SAPE   HN216085   5.391   6.243   7.558  0.0069  1.5247  0.1318
  147SAPE   HN316086   5.230   6.213   7.595  0.2454 -0.2932  0.5690
  147SAPE   C1216087   5.299   6.414   7.596  0.0549 -0.0273 -0.0963
  147SAPE  H12A16088   5.332   6.422   7.702 -0.0022  0.2043 -0.0963
  147SAPE  H12B16089   5.196   6.454   7.593  0.1069  0.3868  2.1419
  147SAPE   C1116090   5.390   6.495   7.511  0.6124  0.0876 -0.2044
  147SAPE  H11A16091   5.496   6.463   7.513  0.0845 -2.1009 -2.5007
  147SAPE  H11B16092   5.395   6.596   7.557  1.7218 -0.4736  1.0073
  147SAPE     P16093   5.416   6.582   7.265 -0.1771  0.3618  0.0017
  147SAPE   O1316094   5.317   6.618   7.156  0.1959  0.9578 -0.1511
  147SAPE   O1416095   5.489   6.694   7.328 -0.6130 -0.0500 -0.6529
  147SAPE   O1216096   5.332   6.502   7.375  0.5547 -0.1007  0.2803
  147SAPE   O1116097   5.521   6.470   7.214  0.2808 -0.3379  0.1614
  147SAPE    C116098   5.476   6.336   7.189  0.2813  0.6440 -0.3066
  147SAPE    HA16099   5.503   6.269   7.274 -2.7667  0.2330  0.4752
  147SAPE    HB16100   5.366   6.322   7.182  0.4538 -0.5826 -0.7289
  147SAPE    C216101   5.555   6.294   7.062  0.9875 -0.2189 -0.1810
  147SAPE    HS16102   5.663   6.316   7.070  1.0930 -1.1414  1.3515
  147SAPE   O2116103   5.500   6.374   6.957  0.1634  0.2791 -0.4478
  147SAPE   C2116104   5.584   6.461   6.902  0.7128  0.1214 -0.2365
  147SAPE   O2216105   5.699   6.473   6.929  0.1723  0.1403  0.3015
  147SAPE   C2216106   5.499   6.533   6.788 -0.2701  0.2148 -0.1559
  147SAPE   H2R16107   5.431   6.454   6.749 -0.3418 -0.7880  1.8637
  147SAPE   H2S16108   5.435   6.602   6.847 -0.2461 -0.3127  0.4954
  147SAPE    C316109   5.545   6.149   7.015 -0.2354  0.4040  0.0020
  147SAPE    HX16110   5.449   6.123   6.965  0.1019 -1.1829  0.1345
  147SAPE    HY16111   5.538   6.091   7.110  2.3346 -0.5073 -0.2839
  147SAPE   O3116112   5.652   6.113   6.932  0.0124  0.5098 -0.2527
  147SAPE   C3116113   5.760   6.075   7.003 -0.1503 -0.2902 -0.1808
  147SAPE   O3216114   5.769   6.087   7.126 -0.0685 -0.2454  0.3103
  147SAPE   C3216115   5.864   6.024   6.903 -0.2294  0.4707  0.1248
  147SAPE   H2X16116   5.814   5.953   6.833 -0.3102  1.4835 -0.8858
  147SAPE   H2Y16117   5.941   5.964   6.955  2.4790  1.1822 -2.7497
  147SAPE   C2316118   5.595   6.602   6.689  0.6292 -1.0595 -0.0062
  147SAPE   H3R16119   5.675   6.530   6.663 -0.7915 -1.1896 -5.1450
  147SAPE   H3S16120   5.654   6.680   6.742 -1.1158  0.5860 -0.3852
  147SAPE   C2416121   5.517   6.653   6.566  0.2146  0.0053  0.3181
  147SAPE   H4R16122   5.590   6.703   6.498  0.2201 -1.7566 -1.0324
  147SAPE   H4S16123   5.443   6.726   6.604  1.1615  0.6105  1.0551
  147SAPE   C2516124   5.442   6.541   6.496  0.1795 -0.3359 -0.8497
  147SAPE   H5R16125   5.367   6.494   6.562 -1.0911  2.9073  0.2132
  147SAPE   C2616126   5.476   6.492   6.374 -0.4491  0.4654 -0.1548
  147SAPE   H6R16127   5.422   6.403   6.340  0.4074 -1.2427  2.6736
  147SAPE   C2716128   5.580   6.550   6.280  0.1161  0.2143  0.3156
  147SAPE   H7R16129   5.644   6.628   6.326 -1.3979 -0.1518  3.3125
  147SAPE   H7S16130   5.530   6.600   6.194 -0.1677 -0.2855  0.1850
  147SAPE   C2816131   5.676   6.443   6.225  0.0305 -0.1519  0.0462
  147SAPE   H8R16132   5.743   6.411   6.306 -1.1920 -2.6243  0.1972
  147SAPE   C2916133   5.681   6.386   6.101  0.7294 -0.1801  0.5951
  147SAPE   H9R16134   5.762   6.316   6.077 -0.5573 -1.2036 -1.0707
  147SAPE  C21016135   5.588   6.421   5.990  0.5524  0.0940  0.0764
  147SAPE  H10R16136   5.633   6.491   5.916 -0.4830 -0.3398 -1.0077
  147SAPE  H10S16137   5.492   6.467   6.022 -1.6735 -3.9539 -0.1392
  147SAPE  C21116138   5.531   6.302   5.919  0.4790 -1.1697 -0.2165
  147SAPE  H11R16139   5.495   6.225   5.988  2.2509  0.0713  2.2358
  147SAPE  C21216140   5.517   6.286   5.786  0.2857 -0.7008 -0.3025
  147SAPE  H12R16141   5.470   6.193   5.749  1.5044 -1.8790  1.0122
  147SAPE  C21316142   5.541   6.399   5.681 -1.1707  0.4013 -0.1485
  147SAPE  H13R16143   5.645   6.431   5.699 -0.5060 -1.0267 -1.2423
  147SAPE  H13S16144   5.480   6.488   5.708 -0.3022  0.5742  1.3673
  147SAPE  C21416145   5.534   6.345   5.542 -0.2460 -0.2306 -0.4300
  147SAPE  H14R16146   5.598   6.256   5.528 -0.7543 -0.3895 -1.8140
  147SAPE  C21516147   5.472   6.394   5.439  0.4215 -0.3439 -0.5597
  147SAPE  H15R16148   5.469   6.336   5.346  2.4098 -1.7698  0.1798
  147SAPE  C21616149   5.374   6.511   5.427  0.2077  0.3156 -1.1731
  147SAPE  H16R16150   5.379   6.581   5.513  2.6548  0.6211 -1.5089
  147SAPE  H16S16151   5.271   6.472   5.412  0.4682  0.0840 -2.5330
  147SAPE  C21716152   5.410   6.597   5.314 -0.4726  0.5988 -0.1340
  147SAPE  H17R16153   5.520   6.606   5.306 -0.3611 -1.4101 -5.4876
  147SAPE  H17S16154   5.355   6.694   5.306  0.5343  1.1728 -0.2601
  147SAPE  C21816155   5.382   6.534   5.182  0.7097  0.6381 -0.2193
  147SAPE  H18R16156   5.282   6.487   5.186  0.9168  0.2584  1.1370
  147SAPE  H18S16157   5.451   6.449   5.161  1.1825  0.7081  0.9286
  147SAPE  C21916158   5.376   6.625   5.065  0.5569 -0.7115  0.3729
  147SAPE  H19R16159   5.281   6.683   5.058  0.0597 -1.4766  0.6808
  147SAPE  H19S16160   5.369   6.563   4.973 -1.7366 -0.6005  0.3975
  147SAPE  C22016161   5.495   6.720   5.055  0.1342  0.1507 -1.1618
  147SAPE  H20R16162   5.473   6.797   5.132  0.8299 -0.7809 -0.0099
  147SAPE  H20S16163   5.498   6.756   4.950 -0.2352  0.2020 -1.1549
  147SAPE  H20T16164   5.586   6.659   5.072  2.0168  3.3800  1.4234
  147SAPE   C3316165   5.953   6.127   6.826  0.0750 -0.3330 -0.4640
  147SAPE   H3X16166   6.038   6.076   6.774 -0.7385  0.1627 -2.3855
  147SAPE   H3Y16167   5.995   6.200   6.898  0.1917 -0.0272 -0.8377
  147SAPE   C3416168   5.877   6.200   6.719 -0.3010 -0.1484 -0.4931
  147SAPE   H4X16169   5.801   6.263   6.771  0.7762 -1.1956  2.5421
  147SAPE   H4Y16170   5.830   6.127   6.650 -2.3641  0.6621 -0.0562
  147SAPE   C3516171   5.957   6.311   6.644  0.2061  0.0718  0.8068
  147SAPE   H5X16172   5.973   6.396   6.714 -0.0015 -0.6525  1.7482
  147SAPE   H5Y16173   5.895   6.369   6.572  2.3247  1.6716  0.1840
  147SAPE   C3616174   6.086   6.270   6.581  0.1512  0.3573 -0.3089
  147SAPE   H6X16175   6.076   6.182   6.514  2.2192  0.7027 -1.1304
  147SAPE   H6Y16176   6.164   6.246   6.656  0.6342 -0.0168 -0.9109
  147SAPE   C3716177   6.137   6.389   6.495 -0.7872  0.3945 -0.6912
  147SAPE   H7X16178   6.137   6.485   6.552 -2.1549  0.9734 -1.6075
  147SAPE   H7Y16179   6.064   6.415   6.415  0.1174 -0.3558 -1.7930
  147SAPE   C3816180   6.276   6.364   6.438 -0.2920 -0.0017  0.0229
  147SAPE   H8X16181   6.249   6.287   6.363 -2.6912  0.3861  0.4018
  147SAPE   H8Y16182   6.352   6.329   6.511  0.7771  0.5014 -0.8182
  147SAPE   C3916183   6.328   6.485   6.371 -0.0373  0.0753  0.4192
  147SAPE   H9X16184   6.390   6.543   6.442  2.5068 -0.7147 -1.0479
  147SAPE   H9Y16185   6.241   6.546   6.337  0.6990  0.4854 -0.7934
  147SAPE  C31016186   6.420   6.448   6.250  0.6021  0.1117 -0.0681
  147SAPE  H10X16187   6.361   6.428   6.157 -1.0217  0.4341  0.8523
  147SAPE  H10Y16188   6.479   6.355   6.269 -0.4168 -0.4335  0.5135
  147SAPE  C31116189   6.526   6.552   6.225  0.1671  0.2324  0.0769
  147SAPE  H11X16190   6.590   6.542   6.315 -0.7687  0.9287  0.8389
  147SAPE  H11Y16191   6.493   6.658   6.216 -0.7994  0.2385  2.6967
  147SAPE  C31216192   6.619   6.516   6.107  0.0933 -0.2111 -0.3326
  147SAPE  H12X16193   6.573   6.524   6.006  0.1069 -0.6881 -0.3742
  147SAPE  H12Y16194   6.624   6.406   6.121  0.5340 -0.0504  0.8995
  147SAPE  C31316195   6.754   6.596   6.114  0.1843 -0.1994 -0.0545
  147SAPE  H13X16196   6.834   6.523   6.088 -0.5173 -1.2016  0.4955
  147SAPE  H13Y16197   6.769   6.622   6.221  0.5105  1.9041 -0.5754
  147SAPE  C31416198   6.767   6.706   6.008 -0.6145  0.6336  0.0250
  147SAPE  H14X16199   6.747   6.673   5.904 -2.9216  1.5616  0.1303
  147SAPE  H14Y16200   6.870   6.747   6.010  0.6277 -2.2320 -0.5063
  147SAPE  C31516201   6.681   6.835   6.041  0.0377  0.2149 -0.7113
  147SAPE  H15X16202   6.688   6.851   6.151 -0.6205 -1.3474 -0.4191
  147SAPE  H15Y16203   6.574   6.813   6.018  0.2551  0.3508 -1.9234
  147SAPE  C31616204   6.728   6.959   5.958 -0.4055  0.2771 -0.1509
  147SAPE  H16X16205   6.668   6.954   5.865 -2.1758  2.7834  0.7579
  147SAPE  H16Y16206   6.836   6.953   5.931 -0.6344 -0.7628 -0.8651
  147SAPE  C31716207   6.691   7.089   6.035  0.0838  0.1250 -0.0918
  147SAPE  H17X16208   6.696   7.182   5.974 -3.8080  2.3967  2.5908
  147SAPE  H17Y16209   6.756   7.091   6.125  0.3512  0.9520 -0.3004
  147SAPE  C31816210   6.538   7.093   6.083 -0.6414  0.0682 -0.8432
  147SAPE  H18X16211   6.484   7.128   5.992 -0.3670 -1.7817 -1.7556
  147SAPE  H18Y16212   6.543   7.166   6.167  1.2753  1.2779 -1.9129
  147SAPE  H18Z16213   6.502   6.996   6.123  2.3616 -0.7944  0.0867
  148SAPE     N16214   3.879   4.710   7.100  0.0671 -0.8156  0.0122
  148SAPE   HN116215   3.801   4.778   7.107 -0.0938 -1.1221  1.5039
  148SAPE   HN216216   3.866   4.616   7.142  2.3858 -0.7638  1.0053
  148SAPE   HN316217   3.957   4.756   7.152  0.2449 -0.9462 -0.1391
  148SAPE   C1216218   3.925   4.691   6.961 -0.4167 -0.2290 -0.0661
  148SAPE  H12A16219   3.901   4.768   6.884  1.7298 -1.8268 -2.5118
  148SAPE  H12B16220   3.898   4.593   6.917  0.2262 -0.1195 -0.7233
  148SAPE   C1116221   4.080   4.696   6.962  0.0065  0.2851  1.0314
  148SAPE  H11A16222   4.099   4.801   6.995  1.3358  0.4732 -0.2352
  148SAPE  H11B16223   4.112   4.690   6.856 -1.4533 -0.9405  0.6349
  148SAPE     P16224   4.204   4.472   6.989 -0.0286  0.3527  0.3694
  148SAPE   O1316225   4.260   4.398   7.101 -0.7549  0.2439 -0.1342
  148SAPE   O1416226   4.100   4.400   6.906  0.1464 -0.6656 -0.2907
  148SAPE   O1216227   4.131   4.595   7.051  0.1942  0.3394 -0.0689
  148SAPE   O1116228   4.319   4.526   6.896  0.0093 -0.1842  0.2185
  148SAPE    C116229   4.401   4.629   6.954  0.4298 -0.7937 -0.2382
  148SAPE    HA16230   4.333   4.713   6.979  0.7032 -1.2666  2.3406
  148SAPE    HB16231   4.449   4.597   7.049  0.4840 -0.1517 -0.0476
  148SAPE    C216232   4.514   4.682   6.855  0.1033 -0.1304 -0.3594
  148SAPE    HS16233   4.536   4.785   6.891 -0.2229 -0.6408  1.4107
  148SAPE   O2116234   4.470   4.678   6.720  0.5533  0.1447 -0.1498
  148SAPE   C2116235   4.373   4.746   6.687 -0.4814 -0.2308  0.6860
  148SAPE   O2216236   4.318   4.838   6.749 -0.5801  0.2108  0.0585
  148SAPE   C2216237   4.319   4.707   6.552  0.1380  0.1242 -0.5711
  148SAPE   H2R16238   4.331   4.597   6.539 -0.1273 -0.4936  3.3810
  148SAPE   H2S16239   4.211   4.732   6.560  0.5304  2.0522 -0.9042
  148SAPE    C316240   4.647   4.602   6.875 -0.6767 -0.0810  0.0498
  148SAPE    HX16241   4.607   4.499   6.880  1.3259 -0.8496  3.3550
  148SAPE    HY16242   4.695   4.617   6.975  0.9693  1.0165 -0.8560
  148SAPE   O3116243   4.745   4.632   6.777  0.1038 -0.4205 -0.2851
  148SAPE   C3116244   4.753   4.541   6.675 -0.6842 -0.0909  0.3029
  148SAPE   O3216245   4.675   4.445   6.661  0.0141  0.2571  0.0942
  148SAPE   C3216246   4.877   4.576   6.587  0.4479  0.6016  0.1249
  148SAPE   H2X16247   4.967   4.548   6.647 -0.4701  0.7544  1.6265
  148SAPE   H2Y16248   4.871   4.685   6.565 -2.0216 -0.0235 -2.9005
  148SAPE   C2316249   4.380   4.782   6.429 -0.0728  0.6645  0.4426
  148SAPE   H3R16250   4.371   4.892   6.439 -0.4231  0.7076 -0.2682
  148SAPE   H3S16251   4.307   4.760   6.347  0.4487  0.0218  0.1377
  148SAPE   C2416252   4.517   4.731   6.400  0.3699  0.6223 -0.8077
  148SAPE   H4R16253   4.517   4.623   6.377 -0.3248  0.3256  0.4715
  148SAPE   H4S16254   4.578   4.750   6.491 -1.0171 -0.4311  0.3910
  148SAPE   C2516255   4.578   4.812   6.288  0.3023  0.4361  0.8317
  148SAPE   H5R16256   4.661   4.882   6.308  0.4018  0.5578  0.0236
  148SAPE   C2616257   4.549   4.793   6.154 -0.4511 -0.4459  0.2634
  148SAPE   H6R16258   4.579   4.858   6.071 -1.8007 -0.5693 -0.3552
  148SAPE   C2716259   4.451   4.697   6.095 -0.0648  0.1081 -0.6039
  148SAPE   H7R16260   4.425   4.622   6.172 -3.1893  2.1557  0.5237
  148SAPE   H7S16261   4.510   4.638   6.021 -0.1821  0.3108 -0.8636
  148SAPE   C2816262   4.320   4.754   6.043 -0.4144 -0.2072 -0.5733
  148SAPE   H8R16263   4.248   4.803   6.110  1.8826 -0.6613  2.4447
  148SAPE   C2916264   4.287   4.778   5.914 -0.3671  0.5719 -0.1400
  148SAPE   H9R16265   4.186   4.821   5.904 -0.3129  0.5607 -0.7700
  148SAPE  C21016266   4.351   4.740   5.779  1.0278  0.1164 -0.0443
  148SAPE  H10R16267   4.441   4.674   5.785  1.3939  0.7262  1.7617
  148SAPE  H10S16268   4.377   4.831   5.720  0.2697 -0.5096 -1.3845
  148SAPE  C21116269   4.237   4.666   5.706 -0.2371 -0.2613  0.2898
  148SAPE  H11R16270   4.195   4.575   5.753  1.8048 -2.0915 -1.2584
  148SAPE  C21216271   4.216   4.669   5.571  0.2454  0.4393  0.2525
  148SAPE  H12R16272   4.154   4.588   5.529 -1.4711  1.5927  0.5032
  148SAPE  C21316273   4.265   4.753   5.460 -0.3928 -0.0813  0.1181
  148SAPE  H13R16274   4.315   4.848   5.487 -0.5529  0.2508 -0.7365
  148SAPE  H13S16275   4.175   4.791   5.407 -1.3508 -0.7940  1.1806
  148SAPE  C21416276   4.344   4.673   5.362  0.4480 -0.2513 -0.2874
  148SAPE  H14R16277   4.402   4.590   5.405 -1.3633 -1.3398  0.2048
  148SAPE  C21516278   4.327   4.669   5.225  0.0464  0.3274 -0.5902
  148SAPE  H15R16279   4.398   4.614   5.162 -0.2778  0.3922 -1.0164
  148SAPE  C21616280   4.251   4.776   5.155 -0.4126 -0.2083 -0.1577
  148SAPE  H16R16281   4.245   4.868   5.218 -0.9838  0.8646 -1.6986
  148SAPE  H16S16282   4.151   4.740   5.122 -0.3435  0.0053 -0.6138
  148SAPE  C21716283   4.323   4.807   5.030 -0.2452 -0.0205  0.4170
  148SAPE  H17R16284   4.304   4.720   4.963 -2.1012  1.5384 -1.1945
  148SAPE  H17S16285   4.433   4.809   5.046  0.1006 -0.9096 -1.4850
  148SAPE  C21816286   4.272   4.930   4.949  0.2914  0.2537 -0.2439
  148SAPE  H18R16287   4.289   5.022   5.008  0.5579 -0.1324  0.2973
  148SAPE  H18S16288   4.163   4.915   4.936  0.1532 -0.2920  1.2603
  148SAPE  C21916289   4.333   4.941   4.807  0.4809 -0.5764 -0.1192
  148SAPE  H19R16290   4.331   4.838   4.766  3.8677 -0.6027 -0.4735
  148SAPE  H19S16291   4.441   4.961   4.821 -0.0971  0.8437  3.4192
  148SAPE  C22016292   4.268   5.043   4.714 -0.6836 -0.4676  0.7740
  148SAPE  H20R16293   4.336   5.045   4.626  1.9323  0.0078  2.6797
  148SAPE  H20S16294   4.277   5.147   4.752  0.6817  2.2341 -5.5127
  148SAPE  H20T16295   4.162   5.031   4.684 -1.1682  2.8408  0.7664
  148SAPE   C3316296   4.867   4.507   6.444  0.1755  0.4065 -0.1799
  148SAPE   H3X16297   4.771   4.543   6.402 -0.0432 -0.2864 -0.2908
  148SAPE   H3Y16298   4.868   4.397   6.459  4.1494  0.3739  0.5968
  148SAPE   C3416299   4.983   4.536   6.357 -0.0843  0.0987  0.2025
  148SAPE   H4X16300   4.997   4.444   6.296 -0.1344  0.5787 -0.5394
  148SAPE   H4Y16301   5.078   4.558   6.410 -0.0939  2.0499 -0.5113
  148SAPE   C3516302   4.960   4.652   6.267  0.1980 -0.4859 -0.1638
  148SAPE   H5X16303   4.943   4.751   6.314  0.6559 -0.3463 -0.2889
  148SAPE   H5Y16304   4.864   4.638   6.213 -0.7154  0.9192  1.0193
  148SAPE   C3616305   5.068   4.663   6.166 -0.2994 -0.4962  0.7782
  148SAPE   H6X16306   5.123   4.568   6.150  0.9366  0.4074 -0.6542
  148SAPE   H6Y16307   5.144   4.735   6.204  0.8226 -0.9266 -0.5438
  148SAPE   C3716308   5.023   4.729   6.035  0.7052 -0.9903 -0.0784
  148SAPE   H7X16309   5.103   4.767   5.968 -0.5310  0.1532 -0.9500
  148SAPE   H7Y16310   4.979   4.826   6.066  4.2489  0.1425  2.0117
  148SAPE   C3816311   4.919   4.631   5.960  0.3754  0.2620  0.2074
  148SAPE   H8X16312   4.820   4.638   6.008  0.0819  1.6293 -0.5306
  148SAPE   H8Y16313   4.955   4.526   5.966 -3.0935 -1.0175  0.9464
  148SAPE   C3916314   4.911   4.687   5.811 -0.4191 -0.7014  0.5032
  148SAPE   H9X16315   4.840   4.620   5.758 -1.9821  1.4054 -0.1660
  148SAPE   H9Y16316   5.014   4.679   5.769 -0.1422 -4.0954  1.4776
  148SAPE  C31016317   4.864   4.838   5.809  0.1907  0.3315  0.4289
  148SAPE  H10X16318   4.957   4.892   5.839  1.5232 -1.2802 -0.6222
  148SAPE  H10Y16319   4.776   4.860   5.873 -0.6274 -2.8800  0.5638
  148SAPE  C31116320   4.836   4.888   5.668  0.5806 -0.3531  1.0811
  148SAPE  H11X16321   4.927   4.883   5.604 -0.2180 -0.7408 -0.0387
  148SAPE  H11Y16322   4.814   4.996   5.680  2.4014  0.1549  0.2979
  148SAPE  C31216323   4.714   4.823   5.602  0.2625 -0.1332 -0.4270
  148SAPE  H12X16324   4.639   4.814   5.684  0.8388  1.7391  0.3520
  148SAPE  H12Y16325   4.747   4.720   5.577 -1.6372 -0.9196  0.0854
  148SAPE  C31316326   4.660   4.887   5.477 -0.5783  1.3673 -0.4826
  148SAPE  H13X16327   4.650   4.995   5.502  0.7977  1.3277  0.4078
  148SAPE  H13Y16328   4.565   4.837   5.452 -0.0771  0.3647 -0.4473
  148SAPE  C31416329   4.755   4.885   5.356  0.4741 -0.5701 -0.7098
  148SAPE  H14X16330   4.821   4.797   5.375  0.1705 -0.0941  3.1727
  148SAPE  H14Y16331   4.821   4.974   5.363  0.5584 -0.7168  0.6092
  148SAPE  C31516332   4.697   4.847   5.219  0.0249  0.4678  0.1039
  148SAPE  H15X16333   4.618   4.921   5.196  1.2043  1.6626 -0.2756
  148SAPE  H15Y16334   4.639   4.754   5.233  0.1502  0.4631  0.6022
  148SAPE  C31616335   4.808   4.836   5.114 -0.4673  0.1144  0.7487
  148SAPE  H16X16336   4.871   4.758   5.161 -2.1926 -0.2151  2.6804
  148SAPE  H16Y16337   4.847   4.939   5.097 -0.9156  0.0916 -0.5326
  148SAPE  C31716338   4.765   4.781   4.979  0.1684  0.4590  0.1689
  148SAPE  H17X16339   4.718   4.859   4.915 -1.1116 -0.5738 -0.1741
  148SAPE  H17Y16340   4.688   4.704   4.999  0.2690  0.4656  0.6019
  148SAPE  C31816341   4.871   4.707   4.897  0.3219 -0.0179 -0.2393
  148SAPE  H18X16342   4.821   4.644   4.820  0.4966  0.0784 -0.4341
  148SAPE  H18Y16343   4.937   4.655   4.970  0.2014 -0.7514 -0.6457
  148SAPE  H18Z16344   4.932   4.783   4.844 -0.6654  1.2557  0.4042
  149SAPE     N16345   3.177   2.470   7.121  0.0900 -0.4681 -0.2790
  149SAPE   HN116346   3.124   2.419   7.194 -1.5077 -0.1861 -1.1888
  149SAPE   HN216347   3.221   2.396   7.063  3.6923 -0.2669  1.9222
  149SAPE   HN316348   3.247   2.522   7.177 -1.0352  0.5367  0.2536
  149SAPE   C1216349   3.077   2.547   7.037  0.4691 -0.1336  0.0704
  149SAPE  H12A16350   3.009   2.474   6.989  0.3675 -0.1529  0.2419
  149SAPE  H12B16351   3.132   2.606   6.961 -1.7469  2.9537  0.6702
  149SAPE   C1116352   2.987   2.641   7.123 -0.6245 -0.4478  0.1058
  149SAPE  H11A16353   2.919   2.700   7.059  0.9221  2.1325  0.6927
  149SAPE  H11B16354   3.050   2.722   7.167 -1.4268 -0.4904  1.4116
  149SAPE     P16355   2.766   2.586   7.256  0.1284  0.7022 -0.4316
  149SAPE   O1316356   2.718   2.461   7.322 -0.3556 -0.1362  0.2564
  149SAPE   O1416357   2.742   2.715   7.327  0.6580 -0.5289  0.1678
  149SAPE   O1216358   2.917   2.566   7.225 -0.4433 -0.2309 -0.5219
  149SAPE   O1116359   2.708   2.598   7.108 -0.1362  0.1264 -0.4481
  149SAPE    C116360   2.611   2.508   7.057 -0.5839  0.2028  0.0338
  149SAPE    HA16361   2.589   2.423   7.124  1.1094 -0.9585 -0.8121
  149SAPE    HB16362   2.511   2.553   7.036  0.2220  2.0490 -0.0254
  149SAPE    C216363   2.679   2.451   6.933  0.4800  0.2744 -0.0840
  149SAPE    HS16364   2.778   2.414   6.966 -0.2919 -0.5658  1.3941
  149SAPE   O2116365   2.699   2.549   6.824  0.3453  0.0731  0.5725
  149SAPE   C2116366   2.804   2.534   6.753 -0.0122  0.1826 -0.0530
  149SAPE   O2216367   2.885   2.442   6.754  0.5915  0.3565  0.0558
  149SAPE   C2216368   2.817   2.654   6.655 -0.2185  0.0889  0.0525
  149SAPE   H2R16369   2.716   2.685   6.620 -0.0134  0.5539 -0.1402
  149SAPE   H2S16370   2.853   2.743   6.712  0.1648 -0.0751  0.0668
  149SAPE    C316371   2.596   2.327   6.886 -0.4074 -0.1043 -0.5784
  149SAPE    HX16372   2.492   2.363   6.877 -1.3500 -2.5820 -0.3008
  149SAPE    HY16373   2.595   2.259   6.974  0.6168  0.6054  0.0062
  149SAPE   O3116374   2.642   2.272   6.762 -0.4813  0.1851  0.4210
  149SAPE   C3116375   2.561   2.184   6.710 -0.1591  0.4169 -0.5370
  149SAPE   O3216376   2.451   2.154   6.758 -0.1501  0.1996  0.4807
  149SAPE   C3216377   2.611   2.133   6.575  0.5750  0.6841 -0.1510
  149SAPE   H2X16378   2.522   2.132   6.508 -0.7641 -0.9026  1.5778
  149SAPE   H2Y16379   2.661   2.035   6.591  0.4441  1.0310  2.9521
  149SAPE   C2316380   2.923   2.638   6.540  0.9002 -0.3313  0.9523
  149SAPE   H3R16381   2.866   2.579   6.465  1.9922  1.5854 -1.5447
  149SAPE   H3S16382   3.002   2.571   6.580  0.5608 -1.3216  0.0159
  149SAPE   C2416383   2.985   2.769   6.481 -0.1537 -0.7604  0.8552
  149SAPE   H4R16384   3.072   2.747   6.416 -1.2288  2.3510 -1.9501
  149SAPE   H4S16385   3.027   2.832   6.563 -1.3880  0.7695  0.3681
  149SAPE   C2516386   2.872   2.839   6.414 -0.0964 -0.5703  0.3221
  149SAPE   H5R16387   2.803   2.891   6.483 -0.8182  1.8150 -2.0360
  149SAPE   C2616388   2.852   2.845   6.279  0.2379 -0.1596 -0.3744
  149SAPE   H6R16389   2.757   2.888   6.241  0.5434  0.2949 -0.6353
  149SAPE   C2716390   2.933   2.778   6.170  0.2866  0.2873  0.1794
  149SAPE   H7R16391   2.865   2.727   6.098 -1.3855  0.0606  1.8356
  149SAPE   H7S16392   2.986   2.690   6.212 -0.6767 -1.2928 -1.7237
  149SAPE   C2816393   3.029   2.854   6.088  0.0046  0.2333 -0.5161
  149SAPE   H8R16394   3.126   2.865   6.138 -1.0114  2.1073  1.1983
  149SAPE   C2916395   3.007   2.920   5.970  0.4288 -0.0899 -0.2987
  149SAPE   H9R16396   3.087   2.964   5.909  0.7391 -0.4913 -0.1841
  149SAPE  C21016397   2.868   2.936   5.897  0.4881  0.2556  0.1591
  149SAPE  H10R16398   2.841   3.042   5.875  0.0411  0.0342 -0.3790
  149SAPE  H10S16399   2.789   2.905   5.970  0.3654  2.4639  1.0392
  149SAPE  C21116400   2.863   2.843   5.773  0.4048 -0.5000  0.1157
  149SAPE  H11R16401   2.838   2.740   5.803 -0.6367 -0.1449  0.5304
  149SAPE  C21216402   2.869   2.876   5.642 -0.8460 -0.6820  0.3289
  149SAPE  H12R16403   2.852   2.794   5.571  0.3878 -1.4202  0.8552
  149SAPE  C21316404   2.894   3.009   5.573  0.3625  0.7001  0.1845
  149SAPE  H13R16405   2.914   3.081   5.656 -1.5883 -0.3329  1.6465
  149SAPE  H13S16406   2.803   3.049   5.523 -0.7689  0.0880  1.6792
  149SAPE  C21416407   3.000   2.995   5.472 -0.2746  0.1948 -0.5118
  149SAPE  H14R16408   3.097   2.976   5.521 -2.0797 -0.6005  3.1407
  149SAPE  C21516409   2.990   3.001   5.339  0.1522  0.1209 -0.3431
  149SAPE  H15R16410   3.085   2.992   5.284  1.0370 -1.1027  1.2937
  149SAPE  C21616411   2.864   3.042   5.263 -0.5505 -0.3524  0.3887
  149SAPE  H16R16412   2.780   3.008   5.327  2.1787 -0.9420  4.0352
  149SAPE  H16S16413   2.858   2.993   5.164 -3.4088  0.1397  0.2508
  149SAPE  C21716414   2.858   3.190   5.234  0.8921  0.2857 -0.0339
  149SAPE  H17R16415   2.941   3.234   5.175  0.4999 -0.5051 -1.2312
  149SAPE  H17S16416   2.859   3.247   5.329  1.5532  1.2462 -0.5972
  149SAPE  C21816417   2.731   3.237   5.160 -0.0822 -0.4783  0.4347
  149SAPE  H18R16418   2.646   3.186   5.209  0.8740 -3.1551 -0.5068
  149SAPE  H18S16419   2.734   3.184   5.062  0.5893  1.3099 -0.5717
  149SAPE  C21916420   2.704   3.387   5.133 -0.2420  0.6957 -0.1123
  149SAPE  H19R16421   2.721   3.435   5.232 -2.7324  0.8437  0.3023
  149SAPE  H19S16422   2.595   3.402   5.115 -0.1732  1.3536 -0.0315
  149SAPE  C22016423   2.782   3.449   5.018  1.3896  0.0008 -0.8762
  149SAPE  H20R16424   2.779   3.560   5.027  0.7061 -0.1380  1.4426
  149SAPE  H20S16425   2.734   3.431   4.920  1.1120 -0.9333 -0.5750
  149SAPE  H20T16426   2.890   3.422   5.030  1.9560  2.4053  0.2239
  149SAPE   C3316427   2.712   2.228   6.512 -0.0416  0.5272 -0.2016
  149SAPE   H3X16428   2.815   2.220   6.553  0.5345  1.6981 -1.3523
  149SAPE   H3Y16429   2.665   2.327   6.531 -3.7631 -1.0317 -0.3229
  149SAPE   C3416430   2.730   2.222   6.356  0.1155  0.4396  0.3130
  149SAPE   H4X16431   2.627   2.231   6.316 -1.0355 -0.9106  2.7523
  149SAPE   H4Y16432   2.771   2.122   6.330  0.5615  1.4766 -3.6618
  149SAPE   C3516433   2.825   2.322   6.293  0.4796  0.4781  0.7949
  149SAPE   H5X16434   2.929   2.286   6.308  1.7087  2.8917 -1.1630
  149SAPE   H5Y16435   2.805   2.422   6.337 -0.6830  0.7996 -0.3860
  149SAPE   C3616436   2.802   2.336   6.145 -0.1831 -0.0917  1.1967
  149SAPE   H6X16437   2.708   2.394   6.145  1.4628  2.7614  0.5923
  149SAPE   H6Y16438   2.784   2.236   6.099 -0.3830  0.8106 -0.7746
  149SAPE   C3716439   2.928   2.409   6.080 -0.9653  0.0075 -0.8781
  149SAPE   H7X16440   2.996   2.326   6.052  1.2424  1.8494 -1.2740
  149SAPE   H7Y16441   2.973   2.468   6.163 -0.7523 -2.0421  0.5456
  149SAPE   C3816442   2.903   2.485   5.955  0.1671  0.1246  0.6277
  149SAPE   H8X16443   2.988   2.544   5.917  1.1908 -1.0866  0.9750
  149SAPE   H8Y16444   2.828   2.563   5.983 -0.0884  0.8172 -1.7066
  149SAPE   C3916445   2.849   2.393   5.845 -1.3282  0.2028 -0.5632
  149SAPE   H9X16446   2.763   2.333   5.880  0.9555 -2.5169  0.8617
  149SAPE   H9Y16447   2.920   2.315   5.808  0.1420  1.8680 -1.4254
  149SAPE  C31016448   2.801   2.464   5.718 -0.2603  0.7216 -0.7010
  149SAPE  H10X16449   2.724   2.540   5.742 -0.0251  0.3289  1.4656
  149SAPE  H10Y16450   2.750   2.382   5.662 -0.6551 -0.6183  1.4957
  149SAPE  C31116451   2.908   2.515   5.617 -0.5727 -0.6356  0.1381
  149SAPE  H11X16452   2.988   2.438   5.615 -0.9161 -0.9718 -0.7884
  149SAPE  H11Y16453   2.962   2.607   5.647  1.7739 -1.3477 -1.6045
  149SAPE  C31216454   2.852   2.536   5.478 -0.4610 -0.1232  0.4683
  149SAPE  H12X16455   2.774   2.616   5.480 -1.2609 -0.8947  0.7630
  149SAPE  H12Y16456   2.804   2.441   5.447  0.4376 -0.7803  1.0502
  149SAPE  C31316457   2.964   2.569   5.367  0.9509 -0.2400  0.1456
  149SAPE  H13X16458   3.058   2.510   5.366  2.4730  2.0554 -2.0115
  149SAPE  H13Y16459   2.991   2.676   5.379 -0.0603  0.2295 -1.4797
  149SAPE  C31416460   2.909   2.553   5.227  0.4147  0.3175  0.0062
  149SAPE  H14X16461   2.811   2.603   5.217 -0.4960 -1.5323 -0.8025
  149SAPE  H14Y16462   2.882   2.446   5.212  0.8762  0.0333  1.0828
  149SAPE  C31516463   3.002   2.610   5.122  0.2673 -0.2431 -0.8118
  149SAPE  H15X16464   3.085   2.538   5.108  1.7884  1.3415 -0.2340
  149SAPE  H15Y16465   3.042   2.709   5.152 -0.9045  0.1895 -0.6138
  149SAPE  C31616466   2.936   2.616   4.984 -0.0362  0.0730 -0.3099
  149SAPE  H16X16467   3.005   2.660   4.909  0.0210 -0.4997 -0.5943
  149SAPE  H16Y16468   2.848   2.684   4.995 -2.1024 -2.4388 -0.4875
  149SAPE  C31716469   2.894   2.478   4.922 -0.0174 -0.0048  0.5241
  149SAPE  H17X16470   2.835   2.418   4.995 -1.4456  0.2177 -0.4103
  149SAPE  H17Y16471   2.985   2.418   4.898  0.6683  0.2556  2.3162
  149SAPE  C31816472   2.812   2.478   4.791 -0.3682 -0.1925 -0.1673
  149SAPE  H18X16473   2.872   2.520   4.707 -1.9459  0.7754 -0.8579
  149SAPE  H18Y16474   2.721   2.541   4.792 -1.0329 -1.0899  2.2514
  149SAPE  H18Z16475   2.782   2.372   4.775  0.8596 -0.5715 -0.0445
  150SAPE     N16476   6.346   4.457   6.865 -0.1100 -0.3495 -0.1213
  150SAPE   HN116477   6.445   4.489   6.863 -0.6208  1.4256  0.4853
  150SAPE   HN216478   6.281   4.536   6.846 -0.5780 -1.0127 -1.4193
  150SAPE   HN316479   6.327   4.412   6.957 -0.8864  0.7878  0.3033
  150SAPE   C1216480   6.322   4.359   6.754  0.7204 -0.0990  0.3741
  150SAPE  H12A16481   6.313   4.416   6.659  1.1817  0.7733  0.8426
  150SAPE  H12B16482   6.221   4.315   6.774  0.2069  0.5509 -0.6933
  150SAPE   C1116483   6.433   4.253   6.750  0.4869  0.0784  0.0168
  150SAPE  H11A16484   6.533   4.300   6.740  0.1632  1.1093  1.3586
  150SAPE  H11B16485   6.401   4.187   6.666 -1.9776 -3.3837  3.3125
  150SAPE     P16486   6.549   4.081   6.916  0.1773 -0.2399  0.6382
  150SAPE   O1316487   6.639   4.170   6.989 -0.2912 -0.1483 -0.5385
  150SAPE   O1416488   6.510   3.961   6.993 -0.5291 -0.0667  0.0145
  150SAPE   O1216489   6.422   4.167   6.863 -0.0255 -0.1272 -0.0142
  150SAPE   O1116490   6.628   4.038   6.788 -0.0898 -0.3877  0.4430
  150SAPE    C116491   6.748   4.114   6.752 -0.1206  0.1791  1.0286
  150SAPE    HA16492   6.722   4.220   6.731 -3.1877 -1.1880 -3.7431
  150SAPE    HB16493   6.830   4.091   6.823  0.6215 -1.9272 -0.4263
  150SAPE    C216494   6.800   4.069   6.610 -0.2103 -0.5675 -0.3063
  150SAPE    HS16495   6.852   4.161   6.578 -1.0580 -0.8899 -2.8259
  150SAPE   O2116496   6.694   4.043   6.524  0.6324  0.4206 -0.0292
  150SAPE   C2116497   6.620   4.147   6.472 -0.1068 -0.4402 -0.7463
  150SAPE   O2216498   6.651   4.263   6.475  0.6646  0.1077  0.2208
  150SAPE   C2216499   6.496   4.086   6.398  0.2004 -0.1653 -0.8819
  150SAPE   H2R16500   6.533   3.990   6.355 -0.1946 -0.7424  0.0350
  150SAPE   H2S16501   6.431   4.047   6.479  0.9139  1.0895  0.3354
  150SAPE    C316502   6.901   3.952   6.637  0.5641 -0.1693  0.5937
  150SAPE    HX16503   6.861   3.883   6.714 -0.8494 -1.0694 -0.8806
  150SAPE    HY16504   6.992   3.994   6.685  2.9719 -1.8871 -2.1360
  150SAPE   O3116505   6.956   3.892   6.511 -0.2843 -0.5558 -0.6618
  150SAPE   C3116506   6.897   3.781   6.482  0.5564 -0.2661  0.5270
  150SAPE   O3216507   6.786   3.744   6.534  0.6789 -0.6149  1.2659
  150SAPE   C3216508   6.954   3.721   6.353  0.4138  0.0178  1.1402
  150SAPE   H2X16509   7.061   3.699   6.373  1.2447  3.2219  0.7518
  150SAPE   H2Y16510   6.961   3.800   6.274  1.0458 -0.2088  0.9671
  150SAPE   C2316511   6.421   4.179   6.297  0.1852  0.0421  0.3083
  150SAPE   H3R16512   6.406   4.278   6.346 -0.0917  0.5583 -0.7902
  150SAPE   H3S16513   6.324   4.131   6.273  0.4429 -2.3545  3.3656
  150SAPE   C2416514   6.496   4.185   6.164 -0.3598  0.5200 -0.1153
  150SAPE   H4R16515   6.605   4.187   6.186 -0.0545  0.5884 -1.5322
  150SAPE   H4S16516   6.466   4.277   6.108 -2.1044 -0.3366 -0.6670
  150SAPE   C2516517   6.468   4.071   6.072 -0.2302  0.9969 -0.5026
  150SAPE   H5R16518   6.524   3.983   6.107 -2.2502 -0.6356 -1.1766
  150SAPE   C2616519   6.408   4.068   5.950  0.1541  0.5227  0.5685
  150SAPE   H6R16520   6.416   3.972   5.897  1.7503  1.4112 -0.9293
  150SAPE   C2716521   6.341   4.186   5.881  0.2704  0.2705 -0.5695
  150SAPE   H7R16522   6.395   4.220   5.789 -5.0056  1.5958 -3.6027
  150SAPE   H7S16523   6.329   4.269   5.953 -3.4389  0.2122 -0.9589
  150SAPE   C2816524   6.198   4.166   5.841 -0.8362 -0.4903 -1.2355
  150SAPE   H8R16525   6.156   4.092   5.911 -0.8770 -1.6222 -2.4189
  150SAPE   C2916526   6.128   4.213   5.735 -0.5025  0.3571  0.8541
  150SAPE   H9R16527   6.020   4.191   5.727 -0.3637  0.3101 -2.9631
  150SAPE  C21016528   6.176   4.296   5.620  0.1694  0.4013 -0.1297
  150SAPE  H10R16529   6.273   4.350   5.629 -1.1665  3.0247 -0.4010
  150SAPE  H10S16530   6.100   4.377   5.615  1.3703  1.6971  1.3721
  150SAPE  C21116531   6.177   4.235   5.485  0.1905 -0.4384 -0.2347
  150SAPE  H11R16532   6.177   4.125   5.493  0.3324 -0.4651 -0.5658
  150SAPE  C21216533   6.199   4.288   5.363 -0.2727 -0.7393 -0.2729
  150SAPE  H12R16534   6.184   4.226   5.273 -2.5566  1.4994 -1.5667
  150SAPE  C21316535   6.211   4.436   5.332  0.7525 -0.1043 -0.3779
  150SAPE  H13R16536   6.273   4.444   5.240 -0.0580  0.2896 -0.8965
  150SAPE  H13S16537   6.263   4.487   5.417 -0.6881  0.5741  0.1216
  150SAPE  C21416538   6.084   4.514   5.312 -0.3721  0.8987 -0.2348
  150SAPE  H14R16539   5.989   4.484   5.358 -1.1520  1.0608 -1.6916
  150SAPE  C21516540   6.073   4.615   5.232 -0.0654 -0.7507 -0.2569
  150SAPE  H15R16541   5.976   4.663   5.211 -1.6569 -2.7817  1.9317
  150SAPE  C21616542   6.183   4.672   5.153  0.5643  0.1992  0.3291
  150SAPE  H16R16543   6.142   4.669   5.050  1.2761  0.3503  0.0344
  150SAPE  H16S16544   6.280   4.617   5.141 -0.1951 -0.6375 -3.2655
  150SAPE  C21716545   6.209   4.818   5.183 -0.1073  0.5376  0.5540
  150SAPE  H17R16546   6.262   4.832   5.280 -0.1725  0.7630  0.5577
  150SAPE  H17S16547   6.112   4.869   5.197 -1.3019 -1.1088 -1.2425
  150SAPE  C21816548   6.276   4.892   5.063  0.1393  0.1655  0.3799
  150SAPE  H18R16549   6.212   4.862   4.978  0.6571 -1.3432  0.4955
  150SAPE  H18S16550   6.375   4.842   5.056 -0.7062 -1.4058 -1.0873
  150SAPE  C21916551   6.282   5.042   5.078  0.6017  0.1444  0.3508
  150SAPE  H19R16552   6.183   5.090   5.086 -0.1694 -1.2207 -0.6399
  150SAPE  H19S16553   6.322   5.086   4.985 -0.6074  0.4146 -0.0495
  150SAPE  C22016554   6.376   5.083   5.185 -0.2296 -0.8947  0.1410
  150SAPE  H20R16555   6.483   5.058   5.169 -0.3675 -0.7616 -1.0743
  150SAPE  H20S16556   6.348   5.037   5.283 -0.1680 -1.0753  0.0738
  150SAPE  H20T16557   6.376   5.193   5.195 -0.5311 -0.7708 -1.1238
  150SAPE   C3316558   6.879   3.604   6.292  1.0764  0.7601  0.8990
  150SAPE   H3X16559   6.775   3.638   6.271  1.2643  0.4248 -0.6865
  150SAPE   H3Y16560   6.886   3.515   6.358 -0.7512 -0.3154 -0.2771
  150SAPE   C3416561   6.946   3.556   6.160 -0.6477 -0.5417 -1.3616
  150SAPE   H4X16562   6.882   3.474   6.120 -2.7308  0.8556 -1.0426
  150SAPE   H4Y16563   7.050   3.528   6.187 -0.9487  0.6027  1.2264
  150SAPE   C3516564   6.958   3.660   6.048  0.0897 -0.3043  0.0090
  150SAPE   H5X16565   7.042   3.727   6.078  0.1045 -1.5290  3.0427
  150SAPE   H5Y16566   6.861   3.714   6.051 -1.4863 -2.9895  0.4674
  150SAPE   C3616567   6.965   3.596   5.913 -0.1475  0.3138  0.0426
  150SAPE   H6X16568   6.892   3.514   5.896  0.8640 -0.4638 -0.6556
  150SAPE   H6Y16569   7.060   3.538   5.908 -0.4257 -0.4774  2.5993
  150SAPE   C3716570   6.969   3.697   5.801  0.2216  0.6381  0.2087
  150SAPE   H7X16571   7.024   3.786   5.838 -0.4298  0.9226  0.4961
  150SAPE   H7Y16572   6.864   3.721   5.776  0.0248 -0.0349  0.3648
  150SAPE   C3816573   7.012   3.634   5.667 -0.2385  0.0885 -0.0971
  150SAPE   H8X16574   6.948   3.547   5.641 -0.1601  0.2719 -0.9341
  150SAPE   H8Y16575   7.113   3.589   5.679 -0.7228 -0.7796  0.9118
  150SAPE   C3916576   7.020   3.746   5.561 -0.0255  0.2178  0.6036
  150SAPE   H9X16577   7.098   3.809   5.610  1.7306 -1.8729  0.6072
  150SAPE   H9Y16578   6.922   3.798   5.560  0.4274  1.1609  1.8069
  150SAPE  C31016579   7.057   3.692   5.425 -0.2225 -0.0540 -0.8136
  150SAPE  H10X16580   6.982   3.622   5.382  0.5693 -0.4342 -1.6105
  150SAPE  H10Y16581   7.154   3.638   5.425  0.5616  1.2557 -2.7825
  150SAPE  C31116582   7.070   3.803   5.326  0.1954 -0.0241 -0.4472
  150SAPE  H11X16583   7.132   3.771   5.239 -1.0590 -2.5847 -0.4735
  150SAPE  H11Y16584   7.131   3.887   5.367  0.1301  0.6105 -1.6080
  150SAPE  C31216585   6.941   3.867   5.269  0.2414  1.0357 -0.1098
  150SAPE  H12X16586   6.876   3.900   5.352  2.1279 -0.8315  2.2611
  150SAPE  H12Y16587   6.888   3.786   5.214  1.4429  0.2624 -0.1674
  150SAPE  C31316588   6.988   3.975   5.178  0.1512 -0.6495  0.2614
  150SAPE  H13X16589   7.047   3.923   5.099  0.0975 -1.3033  0.6429
  150SAPE  H13Y16590   7.065   4.042   5.221  1.1079 -0.0533 -2.1774
  150SAPE  C31416591   6.879   4.052   5.100 -0.0900 -0.1935 -0.4070
  150SAPE  H14X16592   6.808   4.087   5.178 -1.8173 -2.3603 -0.8880
  150SAPE  H14Y16593   6.824   3.983   5.032 -2.2303  0.4140  0.6325
  150SAPE  C31516594   6.939   4.164   5.015 -0.3490 -0.9369 -0.3280
  150SAPE  H15X16595   6.866   4.248   5.013 -0.4466 -0.9859  0.6103
  150SAPE  H15Y16596   6.949   4.133   4.909 -0.5163  0.6847 -0.8461
  150SAPE  C31616597   7.080   4.223   5.054 -0.2669 -0.1219  0.5284
  150SAPE  H16X16598   7.146   4.135   5.065 -0.7350 -0.5940 -0.3140
  150SAPE  H16Y16599   7.055   4.275   5.149  0.7371  0.8021  0.3099
  150SAPE  C31716600   7.155   4.320   4.957 -0.5455  0.2967 -0.9614
  150SAPE  H17X16601   7.087   4.405   4.932  0.5181  1.7992  0.9481
  150SAPE  H17Y16602   7.169   4.264   4.862  1.2259 -0.3372 -0.3559
  150SAPE  C31816603   7.294   4.372   4.998 -0.1349 -0.0552 -0.2176
  150SAPE  H18X16604   7.364   4.309   5.057  0.4314  2.2686  1.7345
  150SAPE  H18Y16605   7.287   4.460   5.064 -0.2939  2.0128 -2.8316
  150SAPE  H18Z16606   7.350   4.394   4.905  0.8872  0.6250  0.5411
  151SAPE     N16607   1.514   1.316   6.943  0.3703 -0.1902 -0.0265
  151SAPE   HN116608   1.609   1.355   6.959  0.8425 -0.0174 -2.8675
  151SAPE   HN216609   1.538   1.219   6.913 -0.3179 -0.2993 -0.2451
  151SAPE   HN316610   1.475   1.363   6.859  0.1581 -1.4461 -0.6518
  151SAPE   C1216611   1.440   1.300   7.081 -0.7259 -0.4679  0.3657
  151SAPE  H12A16612   1.375   1.389   7.095  0.8088  0.3627  2.6895
  151SAPE  H12B16613   1.517   1.305   7.160  0.5452 -1.6527 -0.7541
  151SAPE   C1116614   1.349   1.176   7.098 -0.4322 -0.3118  0.6931
  151SAPE  H11A16615   1.311   1.154   7.200  0.3078 -1.2645  0.7768
  151SAPE  H11B16616   1.402   1.081   7.075 -0.4166 -0.0909 -0.2412
  151SAPE     P16617   1.108   1.236   7.010  0.2807 -0.3872  0.0255
  151SAPE   O1316618   1.022   1.126   7.059  0.4827  0.4888  0.5058
  151SAPE   O1416619   1.108   1.363   7.090 -0.0764 -0.1058  0.1964
  151SAPE   O1216620   1.248   1.184   6.990  0.2124 -0.7822  0.0647
  151SAPE   O1116621   1.060   1.281   6.863 -0.0164 -0.5134  0.2771
  151SAPE    C116622   1.146   1.292   6.752  0.0032  0.1988 -0.1697
  151SAPE    HA16623   1.173   1.397   6.727 -1.9379  0.5180 -1.1060
  151SAPE    HB16624   1.247   1.253   6.779  1.4878  3.7174 -0.0390
  151SAPE    C216625   1.095   1.241   6.615  0.5150  0.3387 -0.1142
  151SAPE    HS16626   1.005   1.303   6.595  0.2650  0.4556  1.3277
  151SAPE   O2116627   1.082   1.101   6.619  0.8335  0.2879  0.5285
  151SAPE   C2116628   0.962   1.053   6.648 -0.2374 -0.0730  0.0702
  151SAPE   O2216629   0.868   1.125   6.674 -0.2250 -0.6315 -0.3419
  151SAPE   C2216630   0.965   0.904   6.653  0.0111  0.4937 -0.5251
  151SAPE   H2R16631   1.049   0.876   6.719 -1.8961 -0.6724  1.5649
  151SAPE   H2S16632   0.873   0.872   6.707 -0.1037 -0.2877 -1.1838
  151SAPE    C316633   1.188   1.273   6.496 -0.2126 -0.4625  0.1746
  151SAPE    HX16634   1.279   1.215   6.519 -0.1967 -0.9815 -1.0920
  151SAPE    HY16635   1.204   1.383   6.493 -1.4866 -0.2830 -1.5880
  151SAPE   O3116636   1.146   1.236   6.357  0.7788 -0.3977  0.1276
  151SAPE   C3116637   1.062   1.326   6.301  0.7138 -0.8522 -0.5433
  151SAPE   O3216638   1.037   1.436   6.345  0.2219  0.5282  0.1723
  151SAPE   C3216639   1.028   1.269   6.168  0.8001 -0.4403  0.5587
  151SAPE   H2X16640   0.958   1.184   6.180 -0.3747  0.2737 -0.8959
  151SAPE   H2Y16641   1.124   1.237   6.122  0.0417 -1.1497 -0.5839
  151SAPE   C2316642   0.981   0.838   6.518  0.1759 -0.7088 -0.0366
  151SAPE   H3R16643   1.053   0.753   6.525  0.1513 -0.7711 -0.5160
  151SAPE   H3S16644   1.018   0.905   6.437  0.7522 -1.7247 -0.6384
  151SAPE   C2416645   0.852   0.761   6.467 -0.4735 -1.1968 -0.3181
  151SAPE   H4R16646   0.814   0.700   6.551  2.3418 -1.7417  0.6798
  151SAPE   H4S16647   0.884   0.683   6.394 -1.5137 -2.1985  0.2754
  151SAPE   C2516648   0.752   0.861   6.412  0.4470  0.3715  0.2660
  151SAPE   H5R16649   0.696   0.912   6.492 -0.8406 -1.1742  0.4128
  151SAPE   C2616650   0.733   0.891   6.281 -0.4183  0.1490  0.5720
  151SAPE   H6R16651   0.656   0.968   6.263 -0.1773  0.4258  0.7017
  151SAPE   C2716652   0.805   0.828   6.161  0.1434  0.6669  0.1313
  151SAPE   H7R16653   0.733   0.755   6.117  2.3786 -0.5944 -1.7128
  151SAPE   H7S16654   0.894   0.770   6.194  1.2972  2.7353  0.8331
  151SAPE   C2816655   0.852   0.919   6.052 -0.4163  0.3167 -0.1842
  151SAPE   H8R16656   0.949   0.965   6.075 -0.1448 -0.6580  0.6608
  151SAPE   C2916657   0.806   0.947   5.933  0.2693  0.8538 -0.1032
  151SAPE   H9R16658   0.863   1.016   5.869  0.9170 -1.1868 -1.8478
  151SAPE  C21016659   0.684   0.891   5.858 -0.1414  0.3949 -0.3722
  151SAPE  H10R16660   0.604   0.967   5.852 -0.9667 -0.4902 -1.0319
  151SAPE  H10S16661   0.643   0.808   5.920 -2.6549  2.5755  1.1025
  151SAPE  C21116662   0.717   0.824   5.727  0.7173 -0.1734  0.7290
  151SAPE  H11R16663   0.775   0.731   5.733  1.6852  0.3564 -0.0791
  151SAPE  C21216664   0.687   0.872   5.602 -0.5241  0.2414  0.0849
  151SAPE  H12R16665   0.731   0.811   5.521  0.6271  2.0031 -0.6626
  151SAPE  C21316666   0.614   0.994   5.550  0.1259  0.1134  0.2679
  151SAPE  H13R16667   0.658   1.018   5.451 -1.1074  0.8373 -0.1328
  151SAPE  H13S16668   0.625   1.080   5.620 -1.2779 -0.9832  1.9204
  151SAPE  C21416669   0.470   0.964   5.542  0.1281  0.3467 -0.3763
  151SAPE  H14R16670   0.428   0.918   5.633  1.1100 -1.6282 -0.8697
  151SAPE  C21516671   0.387   0.981   5.439  0.3681 -0.4114  0.2221
  151SAPE  H15R16672   0.285   0.940   5.445  1.2301 -2.5233  3.3432
  151SAPE  C21616673   0.418   1.040   5.307 -0.2023  0.6974  0.0351
  151SAPE  H16R16674   0.364   0.976   5.234  0.8626 -2.0154  1.4910
  151SAPE  H16S16675   0.526   1.041   5.281  0.4091 -3.1199  1.7620
  151SAPE  C21716676   0.357   1.181   5.287 -0.2049  0.5988 -1.1374
  151SAPE  H17R16677   0.426   1.248   5.343  0.8559 -0.2838 -1.3546
  151SAPE  H17S16678   0.254   1.196   5.325 -0.3994  1.1167 -1.8498
  151SAPE  C21816679   0.355   1.216   5.135  0.4640 -0.4639 -0.0734
  151SAPE  H18R16680   0.298   1.144   5.073 -1.8312  1.6405 -0.5481
  151SAPE  H18S16681   0.462   1.212   5.104  1.4533  0.3958  2.8432
  151SAPE  C21916682   0.304   1.354   5.106  1.0397 -0.3011 -0.6875
  151SAPE  H19R16683   0.371   1.417   5.043  1.0684  0.5571  0.1784
  151SAPE  H19S16684   0.307   1.405   5.205  0.5021 -2.3680  0.4477
  151SAPE  C22016685   0.154   1.384   5.059  0.2068 -0.9000  0.4968
  151SAPE  H20R16686   0.078   1.370   5.138 -0.7144  0.3237 -0.1481
  151SAPE  H20S16687   0.129   1.325   4.968  0.5096  0.6153 -0.5959
  151SAPE  H20T16688   0.142   1.493   5.041  1.2618 -1.0081 -1.0838
  151SAPE   C3316689   0.964   1.378   6.067  0.2703  0.2739 -0.2567
  151SAPE   H3X16690   1.015   1.476   6.073  0.9796 -0.1314  0.4835
  151SAPE   H3Y16691   0.864   1.409   6.104  0.7366  0.6669  0.7109
  151SAPE   C3416692   0.947   1.321   5.929 -0.0460  1.0327 -0.3284
  151SAPE   H4X16693   0.894   1.223   5.930  3.5041 -1.0467 -1.2119
  151SAPE   H4Y16694   1.048   1.290   5.896 -0.4481 -0.1525 -0.4970
  151SAPE   C3516695   0.886   1.407   5.822 -0.5398 -0.2634 -0.8027
  151SAPE   H5X16696   0.945   1.499   5.839 -0.5100 -0.6548  1.6991
  151SAPE   H5Y16697   0.780   1.433   5.841 -0.0597  0.2410  1.4569
  151SAPE   C3616698   0.879   1.369   5.674  0.9490 -0.3255  0.0519
  151SAPE   H6X16699   0.873   1.458   5.608 -0.3810 -1.7154 -1.8083
  151SAPE   H6Y16700   0.788   1.309   5.655  1.4103 -0.6314 -1.2957
  151SAPE   C3716701   0.993   1.283   5.634  0.4954 -0.2891  0.3553
  151SAPE   H7X16702   0.992   1.191   5.696  0.0026  0.3924  1.3780
  151SAPE   H7Y16703   1.085   1.343   5.648  0.1754 -0.1077  1.8602
  151SAPE   C3816704   0.981   1.245   5.487  0.8512 -1.0590  0.0327
  151SAPE   H8X16705   0.947   1.337   5.435 -0.2553  0.9634  3.8941
  151SAPE   H8Y16706   0.905   1.168   5.464 -0.3325  0.5091 -1.6005
  151SAPE   C3916707   1.111   1.197   5.434  0.3121  0.3917  0.0148
  151SAPE   H9X16708   1.113   1.088   5.412 -0.0263  0.6978 -1.6719
  151SAPE   H9Y16709   1.185   1.221   5.513 -0.4136 -0.0398  0.8396
  151SAPE  C31016710   1.170   1.255   5.306 -0.5395  0.2783  0.0464
  151SAPE  H10X16711   1.268   1.218   5.268 -0.6225  0.4835 -0.3742
  151SAPE  H10Y16712   1.183   1.364   5.322 -2.0655  0.3741  0.7976
  151SAPE  C31116713   1.065   1.230   5.198  0.6548  0.0168  0.5652
  151SAPE  H11X16714   0.957   1.247   5.219  0.3315 -1.3894  0.1272
  151SAPE  H11Y16715   1.074   1.120   5.184 -0.7997 -0.1968  1.1851
  151SAPE  C31216716   1.096   1.305   5.061  0.5049 -0.1089 -0.6653
  151SAPE  H12X16717   1.205   1.318   5.043  0.6668 -1.3107 -0.6607
  151SAPE  H12Y16718   1.048   1.405   5.065 -0.4274 -0.5899  0.3191
  151SAPE  C31316719   1.032   1.248   4.929 -0.2159 -0.7035 -0.0702
  151SAPE  H13X16720   1.015   1.335   4.862  0.5026 -2.2528 -2.3495
  151SAPE  H13Y16721   0.941   1.186   4.944  1.1136 -2.3950  1.5919
  151SAPE  C31416722   1.129   1.144   4.866  0.0580 -0.0339 -0.5611
  151SAPE  H14X16723   1.136   1.057   4.935 -0.0968  0.2360 -0.2056
  151SAPE  H14Y16724   1.230   1.189   4.856 -0.4759  2.1569  2.5722
  151SAPE  C31516725   1.078   1.097   4.730 -0.4853 -0.2193 -0.8735
  151SAPE  H15X16726   0.991   1.028   4.724 -1.1735  0.3406  1.7053
  151SAPE  H15Y16727   1.157   1.032   4.686 -0.8309 -0.4632 -1.1493
  151SAPE  C31616728   1.069   1.213   4.628 -0.4761 -0.0835  0.3301
  151SAPE  H16X16729   1.160   1.277   4.623 -0.2795 -0.4431 -3.4431
  151SAPE  H16Y16730   0.971   1.259   4.655 -0.1667  0.6726  0.1947
  151SAPE  C31716731   1.057   1.153   4.485 -0.4038  0.3426 -0.2774
  151SAPE  H17X16732   0.966   1.089   4.478  0.0741 -0.4042  0.2050
  151SAPE  H17Y16733   1.147   1.088   4.480 -0.2692  0.5081  0.0202
  151SAPE  C31816734   1.046   1.262   4.378  0.4761  0.0200 -0.5186
  151SAPE  H18X16735   0.939   1.294   4.375 -0.3554 -2.4166  0.8498
  151SAPE  H18Y16736   1.078   1.233   4.276 -0.6568  2.1005 -1.5333
  151SAPE  H18Z16737   1.111   1.348   4.405 -0.1963  0.6073 -0.7398
  152SAPE     N16738   6.450   3.219   7.154  0.8394  0.5357 -0.0756
  152SAPE   HN116739   6.476   3.314   7.119  0.8788  0.8835  0.8621
  152SAPE   HN216740   6.426   3.157   7.074  0.8311  2.5948 -1.7820
  152SAPE   HN316741   6.361   3.227   7.206  1.4179 -0.7210  1.1739
  152SAPE   C1216742   6.548   3.136   7.236  0.3444  0.0773 -0.4647
  152SAPE  H12A16743   6.639   3.122   7.174  1.2661  0.1380  0.8392
  152SAPE  H12B16744   6.487   3.044   7.250 -2.0423  1.4290 -1.3141
  152SAPE   C1116745   6.590   3.211   7.360 -0.0155  0.4600  0.5367
  152SAPE  H11A16746   6.661   3.149   7.419  1.9732  1.9178 -0.2442
  152SAPE  H11B16747   6.504   3.229   7.428 -1.1712  0.3347 -0.8400
  152SAPE     P16748   6.795   3.347   7.274 -0.0849  0.1438 -0.2110
  152SAPE   O1316749   6.847   3.485   7.290  0.3564 -0.3695  0.3363
  152SAPE   O1416750   6.883   3.235   7.328  0.3065 -0.4955 -0.4692
  152SAPE   O1216751   6.657   3.333   7.342 -0.5217 -0.5997  0.2774
  152SAPE   O1116752   6.767   3.320   7.123 -0.4337  0.0720 -0.1959
  152SAPE    C116753   6.851   3.378   7.019 -0.4293  0.0080  0.6898
  152SAPE    HA16754   6.873   3.485   7.040 -1.8821  0.8634 -1.6855
  152SAPE    HB16755   6.936   3.314   6.986 -1.3224  0.8063 -3.8792
  152SAPE    C216756   6.770   3.390   6.881 -0.1964 -0.2557  0.1690
  152SAPE    HS16757   6.679   3.439   6.920  0.2131  0.3437  0.3885
  152SAPE   O2116758   6.735   3.263   6.829 -0.1662 -0.2506  0.0369
  152SAPE   C2116759   6.635   3.261   6.741  0.2516  0.4236  0.4485
  152SAPE   O2216760   6.577   3.365   6.705 -0.1055 -0.0937  0.1213
  152SAPE   C2216761   6.600   3.114   6.711  0.1847  0.0619 -0.4022
  152SAPE   H2R16762   6.697   3.063   6.697 -0.3220 -1.2605  0.7513
  152SAPE   H2S16763   6.541   3.074   6.795 -1.2195  0.8299 -0.9839
  152SAPE    C316764   6.841   3.480   6.773 -0.4230 -0.0435 -0.1546
  152SAPE    HX16765   6.860   3.571   6.835  3.2576 -0.8766  0.1577
  152SAPE    HY16766   6.771   3.511   6.692 -0.4993  1.7730  0.5491
  152SAPE   O3116767   6.962   3.421   6.718 -0.3056 -0.1056 -0.5477
  152SAPE   C3116768   7.067   3.494   6.685  0.0905  0.1720 -0.2119
  152SAPE   O3216769   7.068   3.615   6.683 -0.3800  0.3131 -0.5075
  152SAPE   C3216770   7.189   3.408   6.646  0.3550  0.5605 -0.8136
  152SAPE   H2X16771   7.153   3.303   6.643  1.2507  0.2519 -1.1496
  152SAPE   H2Y16772   7.270   3.440   6.716 -0.7573 -0.0457  0.8149
  152SAPE   C2316773   6.517   3.099   6.586 -0.5495  0.1544  0.3621
  152SAPE   H3R16774   6.433   3.171   6.585  1.3333  2.4660 -0.7309
  152SAPE   H3S16775   6.478   2.995   6.579 -3.2147  1.0986 -0.1164
  152SAPE   C2416776   6.590   3.131   6.454 -0.1833 -0.1510 -0.1471
  152SAPE   H4R16777   6.663   3.048   6.446  1.9270  1.4956  0.9639
  152SAPE   H4S16778   6.653   3.222   6.459 -0.1724 -0.2165  1.9834
  152SAPE   C2516779   6.502   3.142   6.334  0.3647 -0.5639  0.0390
  152SAPE   H5R16780   6.441   3.053   6.309 -0.5774 -0.1222  0.6878
  152SAPE   C2616781   6.487   3.245   6.261  0.4566 -0.8254  0.1049
  152SAPE   H6R16782   6.412   3.245   6.180 -0.8382  2.6506  1.1148
  152SAPE   C2716783   6.558   3.383   6.252  0.1843  0.3187  1.0705
  152SAPE   H7R16784   6.551   3.432   6.152 -0.3969 -1.8114  0.0237
  152SAPE   H7S16785   6.667   3.359   6.251  0.5684  1.8332 -0.6839
  152SAPE   C2816786   6.514   3.473   6.364 -0.0455 -0.1657 -0.3876
  152SAPE   H8R16787   6.518   3.443   6.470  1.7209  2.4089  0.3744
  152SAPE   C2916788   6.462   3.598   6.348 -0.5760  0.1397 -0.3148
  152SAPE   H9R16789   6.431   3.657   6.435 -0.3152 -0.9575  0.5530
  152SAPE  C21016790   6.429   3.660   6.210 -0.3759 -0.1720 -0.3219
  152SAPE  H10R16791   6.390   3.760   6.241  0.0598 -0.2906  0.6456
  152SAPE  H10S16792   6.350   3.598   6.162 -1.3519  0.0748  0.8787
  152SAPE  C21116793   6.549   3.691   6.123  0.3463 -0.2427 -1.0615
  152SAPE  H11R16794   6.625   3.751   6.176 -0.0600  1.0230 -1.8708
  152SAPE  C21216795   6.555   3.658   5.994 -0.1535  1.1245  0.2963
  152SAPE  H12R16796   6.634   3.688   5.923 -0.3804  1.4520  0.1836
  152SAPE  C21316797   6.445   3.575   5.932  0.3576 -0.4858 -0.4433
  152SAPE  H13R16798   6.422   3.626   5.836 -1.7656 -1.0418 -0.2728
  152SAPE  H13S16799   6.341   3.589   5.969 -0.1947  3.7377 -2.9551
  152SAPE  C21416800   6.466   3.428   5.899 -0.1138  0.2195  0.0115
  152SAPE  H14R16801   6.400   3.354   5.948  0.0205 -0.2254 -0.4637
  152SAPE  C21516802   6.544   3.370   5.806  0.2956 -0.3134 -0.1774
  152SAPE  H15R16803   6.551   3.260   5.798  0.3562 -0.4768  1.6334
  152SAPE  C21616804   6.635   3.435   5.710  0.0302 -0.0300  0.3588
  152SAPE  H16R16805   6.736   3.391   5.706 -0.8849 -2.2787  0.8414
  152SAPE  H16S16806   6.637   3.546   5.707 -0.0704 -0.0455 -0.9197
  152SAPE  C21716807   6.572   3.407   5.568 -0.0248 -0.3294  0.2026
  152SAPE  H17R16808   6.461   3.416   5.567 -0.1804 -1.0574  3.0850
  152SAPE  H17S16809   6.593   3.304   5.533  1.0555  0.3779 -1.3471
  152SAPE  C21816810   6.624   3.504   5.463 -0.2523  0.0205  0.0137
  152SAPE  H18R16811   6.735   3.503   5.465 -0.1898 -2.3571 -1.1937
  152SAPE  H18S16812   6.593   3.608   5.489 -1.3573  0.2339 -1.9666
  152SAPE  C21916813   6.581   3.477   5.317  0.2637  0.6526 -0.1670
  152SAPE  H19R16814   6.470   3.471   5.320  0.3376 -2.4191  0.2675
  152SAPE  H19S16815   6.630   3.382   5.286 -1.9336 -0.7687  0.4779
  152SAPE  C22016816   6.624   3.598   5.234  0.1067  0.1643 -0.4936
  152SAPE  H20R16817   6.607   3.584   5.125 -1.2155 -1.3721 -0.1417
  152SAPE  H20S16818   6.734   3.613   5.232 -0.1972  2.8819 -1.4220
  152SAPE  H20T16819   6.591   3.691   5.284 -1.4784 -0.1984 -0.8151
  152SAPE   C3316820   7.233   3.438   6.497  0.2697 -0.2750  0.3671
  152SAPE   H3X16821   7.279   3.539   6.484  0.0294 -0.0437  1.2213
  152SAPE   H3Y16822   7.142   3.443   6.433 -1.4464 -2.2727  2.4701
  152SAPE   C3416823   7.321   3.322   6.427  0.3082  0.1462  0.5052
  152SAPE   H4X16824   7.253   3.239   6.396  0.3972  0.2483  0.0188
  152SAPE   H4Y16825   7.386   3.288   6.510  1.4407  2.4688  0.6562
  152SAPE   C3516826   7.407   3.360   6.309 -0.3891 -0.6648 -0.4265
  152SAPE   H5X16827   7.448   3.268   6.263  1.7370 -0.2534  0.5021
  152SAPE   H5Y16828   7.492   3.425   6.339 -0.2970 -0.2118 -1.6017
  152SAPE   C3616829   7.330   3.430   6.195 -0.0112  0.1461  0.5162
  152SAPE   H6X16830   7.313   3.535   6.225  0.0107 -0.0553  1.2626
  152SAPE   H6Y16831   7.235   3.379   6.168  0.1933  0.2436 -0.4392
  152SAPE   C3716832   7.422   3.434   6.071  0.2788  0.5491  0.2396
  152SAPE   H7X16833   7.421   3.333   6.024 -0.3548 -0.6436  2.6404
  152SAPE   H7Y16834   7.528   3.445   6.099  1.4764 -0.0794 -3.5358
  152SAPE   C3816835   7.383   3.540   5.966  0.6961  0.8647 -0.4109
  152SAPE   H8X16836   7.377   3.633   6.026 -0.6928 -0.7758  2.1549
  152SAPE   H8Y16837   7.286   3.509   5.921  1.2733 -0.4126 -0.8064
  152SAPE   C3916838   7.492   3.558   5.855 -0.0750 -0.0329  0.5112
  152SAPE   H9X16839   7.588   3.546   5.909 -1.7815  0.1604  3.8570
  152SAPE   H9Y16840   7.477   3.662   5.819 -0.4633  0.3838  1.8127
  152SAPE  C31016841   7.476   3.452   5.748  0.9701  0.9759 -0.0511
  152SAPE  H10X16842   7.376   3.463   5.703  0.5267 -1.8856 -0.0005
  152SAPE  H10Y16843   7.465   3.348   5.787  0.6710 -0.1420 -2.8684
  152SAPE  C31116844   7.582   3.442   5.637 -0.4674  0.5095  0.1445
  152SAPE  H11X16845   7.643   3.352   5.660 -0.1671 -0.5496 -3.9915
  152SAPE  H11Y16846   7.646   3.532   5.642  0.9692 -0.5269  1.5798
  152SAPE  C31216847   7.526   3.407   5.495  0.3609 -1.0186  0.0273
  152SAPE  H12X16848   7.443   3.334   5.506  0.2022 -0.7335  0.8308
  152SAPE  H12Y16849   7.602   3.355   5.432 -1.6312 -0.4992 -3.0188
  152SAPE  C31316850   7.478   3.528   5.412 -0.1444  0.5618 -0.5144
  152SAPE  H13X16851   7.566   3.594   5.395 -1.8417  3.1128 -0.0892
  152SAPE  H13Y16852   7.412   3.590   5.477 -0.1993  0.7999 -0.7888
  152SAPE  C31416853   7.418   3.496   5.277 -0.5145 -0.5609 -0.7252
  152SAPE  H14X16854   7.312   3.463   5.281 -0.3444 -0.9719  1.0665
  152SAPE  H14Y16855   7.476   3.413   5.231 -3.0925 -2.4509 -0.7976
  152SAPE  C31516856   7.416   3.625   5.191  0.2254  0.2076 -0.1748
  152SAPE  H15X16857   7.522   3.651   5.170  1.0839 -0.8072  2.4536
  152SAPE  H15Y16858   7.374   3.707   5.252  0.4715  1.2359 -1.3478
  152SAPE  C31616859   7.329   3.615   5.065 -0.3039  0.2183 -0.2303
  152SAPE  H16X16860   7.226   3.577   5.086 -1.1643  0.7416 -3.0904
  152SAPE  H16Y16861   7.375   3.535   5.003 -0.7636  0.6351 -1.1255
  152SAPE  C31716862   7.313   3.749   4.991  0.5266  0.6100  0.3856
  152SAPE  H17X16863   7.330   3.838   5.055  1.2578 -0.7679  2.1802
  152SAPE  H17Y16864   7.207   3.764   4.961  0.5883 -0.1439 -0.2225
  152SAPE  C31816865   7.406   3.753   4.871 -0.2067  0.7278 -0.1049
  152SAPE  H18X16866   7.375   3.693   4.783 -1.2277  1.0137  0.0461
  152SAPE  H18Y16867   7.508   3.717   4.897 -0.5293  0.3757  0.7304
  152SAPE  H18Z16868   7.402   3.861   4.848 -3.4317  1.2973  2.3597
  153SAPE     N16869   5.816   2.981   6.905 -0.2793 -0.0806 -0.1635
  153SAPE   HN116870   5.836   2.893   6.956 -0.3993 -0.7217 -1.1788
  153SAPE   HN216871   5.779   3.037   6.984 -0.9463 -0.0940 -0.4548
  153SAPE   HN316872   5.730   2.964   6.848  0.1127  0.3397 -0.8912
  153SAPE   C1216873   5.924   3.037   6.820  0.1972 -0.1012  0.3977
  153SAPE  H12A16874   5.924   3.146   6.843  2.5749 -0.2330  1.2197
  153SAPE  H12B16875   5.900   3.016   6.713 -1.4181 -2.4583  1.1432
  153SAPE   C1116876   6.054   2.962   6.854 -0.6043  0.1039 -0.3178
  153SAPE  H11A16877   6.137   3.003   6.792 -1.2618  2.1727  0.1142
  153SAPE  H11B16878   6.048   2.855   6.824  0.8126  0.1318 -0.7857
  153SAPE     P16879   6.237   2.965   7.043 -0.0289 -0.2302 -0.0101
  153SAPE   O1316880   6.321   3.074   6.981 -0.3251  0.0626 -0.5412
  153SAPE   O1416881   6.239   2.965   7.195 -0.1678  0.2254  0.4309
  153SAPE   O1216882   6.092   2.987   6.991 -0.0431  0.0506  0.1552
  153SAPE   O1116883   6.287   2.819   6.990 -0.5053 -0.1352 -0.1312
  153SAPE    C116884   6.384   2.806   6.888 -0.0833  0.3398 -0.2132
  153SAPE    HA16885   6.352   2.860   6.797 -2.3570  0.7970  0.7917
  153SAPE    HB16886   6.483   2.847   6.917  0.6746 -0.4835 -1.5363
  153SAPE    C216887   6.393   2.661   6.842 -0.6300 -0.0930  0.2041
  153SAPE    HS16888   6.469   2.617   6.910 -0.5571  0.4939  0.5105
  153SAPE   O2116889   6.452   2.640   6.707 -0.1781  0.4943 -0.4984
  153SAPE   C2116890   6.566   2.701   6.683  0.2888  0.9356  0.5024
  153SAPE   O2216891   6.632   2.764   6.760 -0.1845  0.3002  0.4678
  153SAPE   C2216892   6.609   2.669   6.540 -0.9135  0.0941 -0.2818
  153SAPE   H2R16893   6.696   2.601   6.554 -1.0530  0.0071  0.2138
  153SAPE   H2S16894   6.527   2.615   6.487 -0.4174 -0.7123 -0.2390
  153SAPE    C316895   6.258   2.583   6.857  0.9062 -0.1217  0.2661
  153SAPE    HX16896   6.187   2.625   6.783 -0.4769  1.5793  2.4157
  153SAPE    HY16897   6.212   2.602   6.957 -1.1748 -1.2681 -0.4261
  153SAPE   O3116898   6.271   2.445   6.838  0.2059  0.0969  0.5527
  153SAPE   C3116899   6.270   2.401   6.716  0.1677  0.9522  0.6884
  153SAPE   O3216900   6.234   2.467   6.619 -0.9375 -0.4105 -0.1870
  153SAPE   C3216901   6.319   2.255   6.710 -0.4373  0.2797  0.6888
  153SAPE   H2X16902   6.263   2.210   6.795 -0.9795  0.2605  0.3295
  153SAPE   H2Y16903   6.426   2.255   6.740  0.5398 -0.9471 -2.4313
  153SAPE   C2316904   6.672   2.783   6.463  0.2870 -0.7546 -0.0925
  153SAPE   H3R16905   6.745   2.845   6.518 -1.1720 -0.0984  1.1910
  153SAPE   H3S16906   6.594   2.844   6.413  0.9968 -0.7118 -1.1836
  153SAPE   C2416907   6.752   2.728   6.338  0.1191  0.4390  0.0867
  153SAPE   H4R16908   6.826   2.656   6.380 -0.2807  0.7661  1.3924
  153SAPE   H4S16909   6.809   2.813   6.297  1.7974 -1.0501 -0.7909
  153SAPE   C2516910   6.663   2.652   6.244 -0.2055 -0.5767  0.0427
  153SAPE   H5R16911   6.616   2.561   6.285  0.7768 -0.9895  0.2752
  153SAPE   C2616912   6.665   2.678   6.116 -0.4201  0.0134  0.4244
  153SAPE   H6R16913   6.600   2.616   6.051 -1.0692 -0.8999  1.8739
  153SAPE   C2716914   6.745   2.792   6.053  0.6587  0.3809  0.0681
  153SAPE   H7R16915   6.771   2.780   5.946  0.8913  1.0396  0.0469
  153SAPE   H7S16916   6.849   2.786   6.091  1.0146 -0.3264 -0.9633
  153SAPE   C2816917   6.688   2.930   6.074 -0.0623  0.0717 -0.0588
  153SAPE   H8R16918   6.699   2.963   6.179 -2.2556 -0.8364  0.5168
  153SAPE   C2916919   6.637   3.014   5.987  0.7930  0.3087  0.3988
  153SAPE   H9R16920   6.599   3.113   6.017 -0.9814 -0.0744 -0.4721
  153SAPE  C21016921   6.601   2.974   5.846 -0.2577  0.0331  0.2556
  153SAPE  H10R16922   6.492   2.981   5.827 -1.0511 -1.7403  3.5318
  153SAPE  H10S16923   6.614   2.864   5.834 -0.8142 -0.1881  1.5152
  153SAPE  C21116924   6.669   3.053   5.737  0.1468 -0.1916  0.0017
  153SAPE  H11R16925   6.723   3.143   5.770 -0.2004 -1.0620  3.3421
  153SAPE  C21216926   6.654   3.021   5.607  0.1070  0.2072  0.2872
  153SAPE  H12R16927   6.714   3.083   5.539 -1.1429  0.8839 -0.2301
  153SAPE  C21316928   6.586   2.896   5.550 -0.0557  0.4921 -0.0908
  153SAPE  H13R16929   6.514   2.857   5.625  0.6301 -1.6089 -0.4573
  153SAPE  H13S16930   6.652   2.810   5.527 -0.5836  0.1043 -0.1823
  153SAPE  C21416931   6.495   2.933   5.429 -0.1703  0.2231 -0.1656
  153SAPE  H14R16932   6.389   2.903   5.437  0.0694 -0.2732  1.7191
  153SAPE  C21516933   6.529   2.980   5.312 -0.1796 -0.5045  0.1481
  153SAPE  H15R16934   6.451   3.011   5.241 -0.1579  0.9250  0.7110
  153SAPE  C21616935   6.672   3.009   5.270  1.1819 -0.2287 -0.1162
  153SAPE  H16R16936   6.751   2.972   5.340  2.4378  0.3485 -1.1752
  153SAPE  H16S16937   6.682   3.119   5.260 -0.3085 -0.2241 -2.1811
  153SAPE  C21716938   6.703   2.952   5.129 -0.3183 -0.0287  0.7089
  153SAPE  H17R16939   6.625   2.987   5.059  1.2762  1.2629 -0.5151
  153SAPE  H17S16940   6.681   2.843   5.130 -1.4741  0.1953  0.4205
  153SAPE  C21816941   6.842   2.978   5.093  0.6118 -0.4220  0.5758
  153SAPE  H18R16942   6.916   2.965   5.175  1.6131  1.3695  0.0154
  153SAPE  H18S16943   6.862   3.087   5.078 -0.5042 -0.3653 -0.6586
  153SAPE  C21916944   6.869   2.896   4.968  0.2961 -0.4465  0.6855
  153SAPE  H19R16945   6.786   2.900   4.895 -0.2758 -3.9537  0.9749
  153SAPE  H19S16946   6.855   2.788   4.990 -0.6408 -0.9800 -2.1119
  153SAPE  C22016947   7.009   2.920   4.907  0.4172 -0.4277 -0.1479
  153SAPE  H20R16948   7.027   3.026   4.880 -0.1971 -0.3040 -0.0824
  153SAPE  H20S16949   7.043   2.847   4.830 -0.3376 -2.2178  1.1380
  153SAPE  H20T16950   7.086   2.907   4.987 -1.7658  1.6858  2.4732
  153SAPE   C3316951   6.292   2.172   6.581  0.5146 -0.0232  1.1316
  153SAPE   H3X16952   6.185   2.179   6.551  0.9544 -0.4999 -0.6988
  153SAPE   H3Y16953   6.324   2.067   6.602  0.9355 -0.5865 -1.8934
  153SAPE   C3416954   6.383   2.215   6.463 -0.9259 -0.6702  0.2758
  153SAPE   H4X16955   6.456   2.139   6.429 -0.0736 -0.3173  1.2669
  153SAPE   H4Y16956   6.436   2.303   6.505 -1.6187 -0.3766  0.5523
  153SAPE   C3516957   6.310   2.267   6.343 -0.9307  0.4531  0.1337
  153SAPE   H5X16958   6.245   2.352   6.372 -0.4198  0.6800  0.6425
  153SAPE   H5Y16959   6.257   2.178   6.303 -0.2245 -0.0576  0.3107
  153SAPE   C3616960   6.398   2.315   6.229  0.2585  0.1205 -0.1716
  153SAPE   H6X16961   6.466   2.231   6.204 -0.6051 -0.0059 -2.3484
  153SAPE   H6Y16962   6.454   2.404   6.264  1.1037 -0.5649  0.2626
  153SAPE   C3716963   6.312   2.349   6.101 -0.3402  0.0829 -0.3231
  153SAPE   H7X16964   6.244   2.436   6.120 -0.7017 -0.2599 -0.0150
  153SAPE   H7Y16965   6.242   2.266   6.080 -1.2457  0.3116  1.5148
  153SAPE   C3816966   6.389   2.379   5.966 -0.4909  0.7031 -0.2832
  153SAPE   H8X16967   6.466   2.300   5.955 -1.6986 -0.3310 -1.7132
  153SAPE   H8Y16968   6.433   2.478   5.990  0.1731  0.3408  0.0241
  153SAPE   C3916969   6.305   2.384   5.833  1.2452  0.4227 -0.5684
  153SAPE   H9X16970   6.226   2.457   5.862  0.8882 -0.6423  1.2888
  153SAPE   H9Y16971   6.268   2.281   5.819 -0.5023  0.7122  1.4127
  153SAPE  C31016972   6.374   2.439   5.709  0.5631  0.3155  0.2758
  153SAPE  H10X16973   6.465   2.376   5.697  0.8638  1.0441 -1.5160
  153SAPE  H10Y16974   6.417   2.541   5.719  0.8319  0.3192 -0.8040
  153SAPE  C31116975   6.287   2.426   5.582 -0.7860 -0.0216 -0.4508
  153SAPE  H11X16976   6.185   2.467   5.598  0.0154  1.4715  1.1510
  153SAPE  H11Y16977   6.284   2.321   5.546 -0.6773 -0.9404  1.9942
  153SAPE  C31216978   6.353   2.518   5.475  0.0737  0.2982  0.4335
  153SAPE  H12X16979   6.464   2.509   5.474  0.0786  0.3386  0.6782
  153SAPE  H12Y16980   6.329   2.621   5.507 -1.2692 -0.1314  0.8570
  153SAPE  C31316981   6.290   2.496   5.331  0.0139  0.6686 -0.1729
  153SAPE  H13X16982   6.181   2.499   5.349  0.2770  1.9137  1.5320
  153SAPE  H13Y16983   6.313   2.392   5.297  0.8544  0.8914 -0.3284
  153SAPE  C31416984   6.328   2.607   5.239  0.0028  0.1014  0.6623
  153SAPE  H14X16985   6.439   2.602   5.234 -0.0844 -2.2192 -3.6318
  153SAPE  H14Y16986   6.289   2.706   5.271 -1.7245 -0.1570 -0.5018
  153SAPE  C31516987   6.286   2.589   5.081  1.0557 -0.4674 -0.3787
  153SAPE  H15X16988   6.296   2.680   5.018 -1.4557 -2.3799 -3.8671
  153SAPE  H15Y16989   6.178   2.567   5.092  0.3002  1.2606 -3.4713
  153SAPE  C31616990   6.338   2.461   5.018  0.1164  0.1472 -0.1689
  153SAPE  H16X16991   6.319   2.374   5.084 -2.1323 -0.7786 -1.8861
  153SAPE  H16Y16992   6.446   2.467   4.990 -0.2110 -1.7846 -2.1476
  153SAPE  C31716993   6.269   2.430   4.888 -0.4643  0.0049 -0.0687
  153SAPE  H17X16994   6.273   2.524   4.829  0.1186 -0.9175 -1.5635
  153SAPE  H17Y16995   6.162   2.420   4.917  0.3365 -2.0470  2.5494
  153SAPE  C31816996   6.325   2.313   4.811  0.3449 -0.4759 -0.7614
  153SAPE  H18X16997   6.281   2.306   4.709 -0.4225  3.0457 -0.7723
  153SAPE  H18Y16998   6.310   2.217   4.866  0.7866  0.4599  1.0884
  153SAPE  H18Z16999   6.434   2.331   4.803  0.6006 -0.8542  1.2489
  154SAPE     N17000   2.284   6.509   6.949  0.1525  0.0563 -0.4683
  154SAPE   HN117001   2.310   6.459   7.036 -0.9262  0.0641 -0.1322
  154SAPE   HN217002   2.191   6.476   6.916  0.3900 -1.4289  0.2537
  154SAPE   HN317003   2.360   6.490   6.881 -0.8456  1.1606 -1.9626
  154SAPE   C1217004   2.276   6.659   6.973 -0.3756 -0.0463 -0.0118
  154SAPE  H12A17005   2.239   6.705   6.879 -0.0385 -0.1321 -0.1885
  154SAPE  H12B17006   2.379   6.691   7.000 -0.8126  1.1274  0.2917
  154SAPE   C1117007   2.185   6.690   7.094 -0.3481 -0.2811  0.2519
  154SAPE  H11A17008   2.173   6.800   7.101  0.4384 -0.1373 -0.5470
  154SAPE  H11B17009   2.244   6.659   7.183  0.2456  0.2534  0.0532
  154SAPE     P17010   1.915   6.691   7.060 -0.0585 -0.2351 -0.0710
  154SAPE   O1317011   1.825   6.590   7.006 -0.3144 -0.4340 -0.0913
  154SAPE   O1417012   1.871   6.759   7.179 -0.8901 -0.2785  0.5343
  154SAPE   O1217013   2.057   6.621   7.091  0.4211  0.9511  0.3108
  154SAPE   O1117014   1.958   6.795   6.957  0.3253 -0.7076 -0.1125
  154SAPE    C117015   1.860   6.871   6.881  0.6801  1.0498 -0.0174
  154SAPE    HA17016   1.780   6.805   6.841  2.5085 -1.1139 -0.3705
  154SAPE    HB17017   1.817   6.949   6.947 -1.6662 -1.4211  1.5733
  154SAPE    C217018   1.918   6.940   6.755 -0.4139  0.8975 -0.3660
  154SAPE    HS17019   1.837   6.991   6.698 -2.8691  0.8121  2.7617
  154SAPE   O2117020   1.989   6.854   6.669  0.0314  0.3869 -0.0606
  154SAPE   C2117021   1.911   6.776   6.592  0.4764  0.8383  0.3144
  154SAPE   O2217022   1.790   6.765   6.605  0.0443  0.5908 -0.6400
  154SAPE   C2217023   1.998   6.688   6.501  0.6440 -0.8003 -0.0178
  154SAPE   H2R17024   2.051   6.766   6.442 -0.0054 -0.3392 -0.0040
  154SAPE   H2S17025   2.072   6.635   6.564  0.7998 -0.4351  0.1096
  154SAPE    C317026   2.018   7.051   6.800 -0.0745 -0.3576 -0.2900
  154SAPE    HX17027   2.102   7.001   6.853  0.7109  1.2594  0.0473
  154SAPE    HY17028   1.968   7.104   6.883 -1.1733 -3.0033  0.8235
  154SAPE   O3117029   2.078   7.141   6.698 -0.0329  0.1731  0.0421
  154SAPE   C3117030   2.010   7.251   6.677 -0.1334  0.3809 -0.1097
  154SAPE   O3217031   1.926   7.299   6.749 -0.3025 -0.9839  0.5455
  154SAPE   C3217032   2.065   7.329   6.562 -0.8186 -0.1526 -0.7111
  154SAPE   H2X17033   2.027   7.295   6.463  1.9716  0.6908 -2.1986
  154SAPE   H2Y17034   2.174   7.308   6.560 -0.4965  0.3995  3.2862
  154SAPE   C2317035   1.912   6.605   6.401  0.1956 -0.4749 -0.3196
  154SAPE   H3R17036   1.853   6.666   6.330  2.4818  0.7506 -1.2642
  154SAPE   H3S17037   1.842   6.544   6.462  2.0722 -1.4465  0.9511
  154SAPE   C2417038   2.000   6.514   6.322 -0.6303  0.2891  0.3246
  154SAPE   H4R17039   2.048   6.441   6.391 -1.4495 -1.0964 -0.5109
  154SAPE   H4S17040   2.079   6.574   6.272 -0.2346  0.5987  1.2950
  154SAPE   C2517041   1.916   6.439   6.218 -0.6073  1.1800 -0.4234
  154SAPE   H5R17042   1.816   6.408   6.251  0.4740 -0.7602  1.2875
  154SAPE   C2617043   1.957   6.417   6.091 -0.4125 -0.0515  0.3913
  154SAPE   H6R17044   1.887   6.368   6.022 -1.8463  1.0215  1.0153
  154SAPE   C2717045   2.092   6.461   6.024  0.0786  0.6833 -0.0903
  154SAPE   H7R17046   2.123   6.396   5.939  0.3693 -0.3976  0.8173
  154SAPE   H7S17047   2.169   6.474   6.103  0.6876  0.2942 -0.6081
  154SAPE   C2817048   2.058   6.597   5.964 -0.4865 -0.6052  0.3199
  154SAPE   H8R17049   2.020   6.674   6.033 -2.0590 -0.0794 -1.0512
  154SAPE   C2917050   2.066   6.641   5.836  0.0408 -0.0757 -0.2448
  154SAPE   H9R17051   2.025   6.743   5.825  0.5786  0.1785  0.0326
  154SAPE  C21017052   2.101   6.577   5.715 -0.4104  0.0328  0.8282
  154SAPE  H10R17053   2.097   6.469   5.738  1.0153 -0.2155  0.0739
  154SAPE  H10S17054   2.211   6.585   5.700 -0.5554 -0.4977 -0.7877
  154SAPE  C21117055   2.029   6.621   5.589 -0.1023  0.2592  0.2260
  154SAPE  H11R17056   1.932   6.669   5.608 -0.1234 -0.1070  1.1435
  154SAPE  C21217057   2.064   6.575   5.471 -0.1328  0.4365  0.4448
  154SAPE  H12R17058   2.013   6.617   5.383  2.9657 -0.4805 -2.0027
  154SAPE  C21317059   2.185   6.489   5.443 -0.2957  0.6637  0.5788
  154SAPE  H13R17060   2.135   6.393   5.466 -2.7049  1.0132 -2.4007
  154SAPE  H13S17061   2.271   6.518   5.507  0.8784 -2.2521  0.4620
  154SAPE  C21417062   2.225   6.491   5.298 -0.3812  0.0038 -0.1765
  154SAPE  H14R17063   2.187   6.576   5.240  1.3248  0.0576 -1.2856
  154SAPE  C21517064   2.293   6.399   5.229  0.1582 -0.5361 -0.4424
  154SAPE  H15R17065   2.317   6.414   5.123  1.5788  0.2945 -0.0401
  154SAPE  C21617066   2.330   6.265   5.289 -0.5019  0.1183  0.2358
  154SAPE  H16R17067   2.238   6.211   5.321 -0.3441  1.1252  2.5522
  154SAPE  H16S17068   2.396   6.282   5.376  1.3378  2.6125 -1.5182
  154SAPE  C21717069   2.385   6.172   5.179  1.3745  0.1206  0.1035
  154SAPE  H17R17070   2.475   6.217   5.131 -0.1730  1.5716 -1.6079
  154SAPE  H17S17071   2.307   6.145   5.106 -0.8054  0.5903  2.1285
  154SAPE  C21817072   2.440   6.040   5.225  0.3395 -0.9882 -0.2640
  154SAPE  H18R17073   2.359   5.980   5.273  0.7389 -0.8894  0.5453
  154SAPE  H18S17074   2.507   6.063   5.310 -1.1070  0.6687  0.5013
  154SAPE  C21917075   2.507   5.963   5.115 -0.2065 -0.2449 -0.3244
  154SAPE  H19R17076   2.528   5.860   5.149  0.0214 -0.1197 -0.0766
  154SAPE  H19S17077   2.607   6.007   5.092  0.2969 -1.4772 -0.5367
  154SAPE  C22017078   2.433   5.959   4.981  0.2287 -0.3155 -0.1889
  154SAPE  H20R17079   2.441   6.061   4.936 -0.3993  0.3874  1.2223
  154SAPE  H20S17080   2.325   5.939   4.996 -0.2254  1.8188 -0.1964
  154SAPE  H20T17081   2.470   5.879   4.913  0.5033 -0.3123 -0.0475
  154SAPE   C3317082   2.052   7.480   6.576  0.0086  0.4264  0.1621
  154SAPE   H3X17083   2.121   7.509   6.658  1.6110  0.3184 -1.1101
  154SAPE   H3Y17084   1.949   7.511   6.606 -0.0154  0.5649 -0.0583
  154SAPE   C3417085   2.088   7.555   6.448  0.4110 -0.0772  0.2814
  154SAPE   H4X17086   2.182   7.513   6.408 -0.6061 -0.3360 -2.0238
  154SAPE   H4Y17087   2.102   7.661   6.478 -0.6622 -0.0582  0.7860
  154SAPE   C3517088   1.974   7.540   6.339  0.3797  0.2524  0.0936
  154SAPE   H5X17089   1.941   7.646   6.339  0.3821  0.2735  1.3693
  154SAPE   H5Y17090   1.898   7.471   6.380  1.6211 -0.9548  0.4247
  154SAPE   C3617091   2.018   7.486   6.209  0.2811 -0.5853  0.3310
  154SAPE   H6X17092   2.011   7.375   6.219 -2.6355 -0.6683 -1.3798
  154SAPE   H6Y17093   2.121   7.513   6.181 -0.7345  2.5070 -0.8090
  154SAPE   C3717094   1.929   7.538   6.102  0.4087  0.4224  0.7052
  154SAPE   H7X17095   1.940   7.648   6.094 -0.3422  0.4012 -1.5660
  154SAPE   H7Y17096   1.826   7.517   6.137 -0.3494  1.0338 -1.0480
  154SAPE   C3817097   1.960   7.475   5.965  0.6561  0.5063  0.2819
  154SAPE   H8X17098   1.944   7.366   5.972 -2.4942  0.6838 -2.1451
  154SAPE   H8Y17099   2.068   7.484   5.939  1.1359  1.3066  2.3504
  154SAPE   C3917100   1.869   7.521   5.850 -0.1693 -0.4123  0.6795
  154SAPE   H9X17101   1.805   7.609   5.872 -1.2545 -1.7008  3.1147
  154SAPE   H9Y17102   1.805   7.437   5.815 -0.6360  0.6474 -1.0882
  154SAPE  C31017103   1.956   7.564   5.729  0.4329 -0.0565  0.8109
  154SAPE  H10X17104   2.023   7.481   5.698 -0.4768  0.1305 -1.8617
  154SAPE  H10Y17105   1.998   7.663   5.756 -0.0764  0.4720 -0.2780
  154SAPE  C31117106   1.871   7.602   5.604  0.1870  0.6250  1.1937
  154SAPE  H11X17107   1.802   7.688   5.618  3.0160  3.3981 -0.4308
  154SAPE  H11Y17108   1.808   7.514   5.577 -0.4415  0.8520  1.9091
  154SAPE  C31217109   1.952   7.624   5.476 -0.2636  0.1311  0.0658
  154SAPE  H12X17110   2.030   7.548   5.455  1.5048  1.6558  0.8126
  154SAPE  H12Y17111   2.002   7.724   5.482  0.0918 -0.0646  0.4141
  154SAPE  C31317112   1.859   7.619   5.357  0.3112 -0.2480 -0.0665
  154SAPE  H13X17113   1.798   7.711   5.366  0.0324 -0.3588 -0.7410
  154SAPE  H13Y17114   1.796   7.531   5.380  2.1492 -1.3678  0.9886
  154SAPE  C31417115   1.932   7.620   5.223 -0.5538  0.0472 -0.1256
  154SAPE  H14X17116   1.859   7.608   5.140  0.7806 -1.9961 -1.0936
  154SAPE  H14Y17117   2.003   7.534   5.222 -1.8392 -1.0466 -1.3747
  154SAPE  C31517118   2.022   7.748   5.183  0.0910  0.4534  0.5888
  154SAPE  H15X17119   2.112   7.756   5.249 -0.0497  1.2566  0.7019
  154SAPE  H15Y17120   1.965   7.844   5.186 -0.3939  0.3075 -1.8329
  154SAPE  C31617121   2.068   7.728   5.036  0.1150 -0.2728  0.4331
  154SAPE  H16X17122   1.978   7.704   4.976  0.4352 -1.3010  0.3418
  154SAPE  H16Y17123   2.138   7.641   5.033  0.4121 -0.0259 -2.0455
  154SAPE  C31717124   2.138   7.845   4.964  0.0492  0.1862 -0.8141
  154SAPE  H17X17125   2.170   7.907   5.050  0.4496 -0.0160 -0.8177
  154SAPE  H17Y17126   2.070   7.891   4.889 -1.4202 -0.8731 -0.1873
  154SAPE  C31817127   2.269   7.798   4.897 -0.2564 -0.3089  0.0324
  154SAPE  H18X17128   2.238   7.718   4.825 -3.3870 -1.1628  2.0847
  154SAPE  H18Y17129   2.334   7.751   4.974  0.4916 -0.6356 -0.7711
  154SAPE  H18Z17130   2.315   7.890   4.855 -1.5002 -0.4529 -1.8005
  155SAPE     N17131   6.452   6.208   6.982  0.2584 -0.8381 -0.2321
  155SAPE   HN117132   6.534   6.158   6.942  3.1418  3.1946  0.0711
  155SAPE   HN217133   6.469   6.282   7.053 -1.9018 -0.6977  0.2208
  155SAPE   HN317134   6.392   6.137   7.030 -2.0174  1.5785  0.7653
  155SAPE   C1217135   6.367   6.269   6.875  0.4342  0.3615 -0.0326
  155SAPE  H12A17136   6.269   6.288   6.923  0.1528  1.3645 -0.9736
  155SAPE  H12B17137   6.355   6.195   6.793 -1.1381  0.5856 -0.0376
  155SAPE   C1117138   6.431   6.402   6.811  0.2736 -0.6367 -0.0449
  155SAPE  H11A17139   6.348   6.445   6.751 -0.6268 -1.1922  0.7753
  155SAPE  H11B17140   6.517   6.371   6.747 -0.9831  0.5218 -2.4180
  155SAPE     P17141   6.479   6.642   6.875  0.1245 -0.0917  0.3044
  155SAPE   O1317142   6.353   6.713   6.903  0.0677  0.3652 -0.1883
  155SAPE   O1417143   6.603   6.694   6.937 -0.2382  0.1649  0.0874
  155SAPE   O1217144   6.466   6.494   6.917  0.0944 -0.2130  0.3461
  155SAPE   O1117145   6.500   6.629   6.720 -0.1565  0.2470 -0.1971
  155SAPE    C117146   6.626   6.598   6.657 -0.2135  0.3068  0.8686
  155SAPE    HA17147   6.703   6.552   6.724  1.0225 -1.8680 -1.8538
  155SAPE    HB17148   6.610   6.528   6.572 -0.6185  1.1744  0.2275
  155SAPE    C217149   6.694   6.722   6.586  0.2419 -0.7778  0.1563
  155SAPE    HS17150   6.710   6.801   6.663 -0.2489 -1.4136  0.9231
  155SAPE   O2117151   6.605   6.765   6.475  0.0893 -0.0732 -0.2005
  155SAPE   C2117152   6.534   6.874   6.505  0.4580 -0.1898  0.7890
  155SAPE   O2217153   6.538   6.932   6.615  0.2450 -0.0541 -0.7868
  155SAPE   C2217154   6.433   6.912   6.394 -0.6386 -0.4910  0.2726
  155SAPE   H2R17155   6.462   6.998   6.330 -0.5946 -0.1437  0.7560
  155SAPE   H2S17156   6.416   6.830   6.321  1.0874  0.2727 -1.0814
  155SAPE    C317157   6.829   6.686   6.517  0.1041  0.5758 -0.5138
  155SAPE    HX17158   6.810   6.599   6.450 -0.5821  1.5593 -1.6519
  155SAPE    HY17159   6.900   6.662   6.599 -0.9979 -3.2347 -0.4821
  155SAPE   O3117160   6.878   6.787   6.428 -0.2329  0.7217 -0.2969
  155SAPE   C3117161   6.917   6.904   6.478 -0.0884 -0.5407 -0.0069
  155SAPE   O3217162   6.919   6.933   6.597 -0.0788  0.1486 -0.4791
  155SAPE   C3217163   6.965   6.999   6.368 -0.1438  0.7790  0.0899
  155SAPE   H2X17164   6.880   7.020   6.299  0.0314  0.3250 -0.2678
  155SAPE   H2Y17165   7.047   6.949   6.312  0.1375  2.1177 -0.7450
  155SAPE   C2317166   6.294   6.947   6.452 -0.5048 -0.7368  0.0963
  155SAPE   H3R17167   6.241   6.998   6.369  0.0586 -3.7362 -2.3111
  155SAPE   H3S17168   6.311   7.025   6.529  0.2706 -1.0063  0.2108
  155SAPE   C2417169   6.214   6.830   6.510  0.1450  0.1325  0.4398
  155SAPE   H4R17170   6.278   6.783   6.587  0.0192 -1.6233 -0.4556
  155SAPE   H4S17171   6.202   6.754   6.429 -2.1562 -1.4667  2.1474
  155SAPE   C2517172   6.083   6.877   6.571  0.7361  0.4976  0.0723
  155SAPE   H5R17173   6.084   6.941   6.661 -1.5717  0.6308  0.0649
  155SAPE   C2617174   5.958   6.870   6.522 -0.4520  0.7242 -0.0803
  155SAPE   H6R17175   5.873   6.910   6.581 -1.9867  0.1936 -1.8540
  155SAPE   C2717176   5.917   6.812   6.390  0.3877  0.1424 -0.6236
  155SAPE   H7R17177   5.851   6.725   6.411  0.1912  0.1359 -1.2457
  155SAPE   H7S17178   6.001   6.785   6.323  1.2560 -0.2654  0.6077
  155SAPE   C2817179   5.842   6.925   6.320  1.2015  0.4394  0.2133
  155SAPE   H8R17180   5.789   6.991   6.390 -1.3189 -1.6624  0.4209
  155SAPE   C2917181   5.865   6.972   6.195  0.2779  1.0336 -0.5951
  155SAPE   H9R17182   5.814   7.066   6.171 -0.5438  0.4680 -1.1105
  155SAPE  C21017183   5.950   6.905   6.089  0.7356  0.2978 -0.7449
  155SAPE  H10R17184   6.056   6.920   6.117  0.9204  0.1412 -1.3398
  155SAPE  H10S17185   5.946   6.970   5.999 -0.0042  2.1160  0.5592
  155SAPE  C21117186   5.908   6.768   6.050 -0.2877 -0.4702 -0.1467
  155SAPE  H11R17187   5.825   6.723   6.107  0.3650 -1.7558 -0.1705
  155SAPE  C21217188   5.962   6.696   5.953  0.4030  0.2129 -0.1187
  155SAPE  H12R17189   5.932   6.592   5.937 -1.9297  0.9419 -0.9068
  155SAPE  C21317190   6.077   6.733   5.863 -0.3509 -0.4204 -0.1679
  155SAPE  H13R17191   6.090   6.843   5.851  1.6959 -0.5537  0.5327
  155SAPE  H13S17192   6.057   6.702   5.758 -0.4462 -0.5570 -0.1107
  155SAPE  C21417193   6.205   6.685   5.919 -0.3237  0.4984 -0.2813
  155SAPE  H14R17194   6.212   6.638   6.018  3.6882 -1.5436 -1.3067
  155SAPE  C21517195   6.318   6.679   5.850  0.1362 -0.0264  0.1801
  155SAPE  H15R17196   6.412   6.641   5.894 -0.8668 -0.3524  2.1584
  155SAPE  C21617197   6.340   6.739   5.715 -0.2414 -0.1382 -0.2992
  155SAPE  H16R17198   6.254   6.725   5.647  0.5977  2.3770 -2.0002
  155SAPE  H16S17199   6.430   6.698   5.664  0.1597  1.4076 -0.8893
  155SAPE  C21717200   6.385   6.890   5.733 -0.5584  0.1264  0.4481
  155SAPE  H17R17201   6.468   6.879   5.806  0.8912 -0.2064 -1.1744
  155SAPE  H17S17202   6.309   6.953   5.783 -0.8617  0.9896 -1.0424
  155SAPE  C21817203   6.449   6.952   5.604 -0.4423 -0.1195  0.0048
  155SAPE  H18R17204   6.549   6.907   5.585  0.1774  1.8672 -1.7937
  155SAPE  H18S17205   6.484   7.055   5.629  0.4372 -0.4005 -0.0389
  155SAPE  C21917206   6.352   6.962   5.487 -0.4074  0.1104 -0.3328
  155SAPE  H19R17207   6.253   7.002   5.517 -0.5414  0.1272 -0.7893
  155SAPE  H19S17208   6.330   6.855   5.464 -1.0048  0.4509 -1.4056
  155SAPE  C22017209   6.404   7.037   5.366 -0.1796  0.5324 -0.3831
  155SAPE  H20R17210   6.323   7.031   5.291 -0.9523  0.2252  0.4532
  155SAPE  H20S17211   6.503   7.001   5.332  1.7556  0.1688  4.6812
  155SAPE  H20T17212   6.416   7.145   5.392  2.4176  0.1480  0.2773
  155SAPE   C3317213   7.012   7.131   6.426 -0.8958 -0.4145  0.4395
  155SAPE   H3X17214   7.102   7.125   6.492 -0.6682  0.6778  0.2412
  155SAPE   H3Y17215   6.928   7.166   6.490 -1.5317  0.8301 -1.0158
  155SAPE   C3417216   7.034   7.241   6.321 -0.8193  0.2592  0.3854
  155SAPE   H4X17217   6.962   7.224   6.239  1.9312  0.3179 -2.2137
  155SAPE   H4Y17218   7.138   7.230   6.282 -0.4558  1.7918  0.8350
  155SAPE   C3517219   7.029   7.394   6.363  0.1707 -0.2803  0.2736
  155SAPE   H5X17220   7.116   7.417   6.428  0.9978  2.6085 -1.6267
  155SAPE   H5Y17221   6.940   7.418   6.426  1.0610  1.9790  0.7846
  155SAPE   C3617222   7.028   7.480   6.237  1.1734  0.0999 -0.2660
  155SAPE   H6X17223   6.993   7.581   6.266 -1.6175 -1.6920  3.3162
  155SAPE   H6Y17224   6.963   7.429   6.163  1.8941 -3.1180  1.1553
  155SAPE   C3717225   7.165   7.486   6.176 -0.7928  0.4116  0.0481
  155SAPE   H7X17226   7.206   7.383   6.180 -2.4885 -0.3371 -0.6055
  155SAPE   H7Y17227   7.213   7.565   6.238 -0.7429 -0.1818  0.7792
  155SAPE   C3817228   7.175   7.534   6.036 -0.5865  0.2448 -0.5498
  155SAPE   H8X17229   7.277   7.576   6.025 -0.6197  0.2340 -0.8939
  155SAPE   H8Y17230   7.094   7.608   6.016 -1.1761 -0.7022 -1.7682
  155SAPE   C3917231   7.150   7.426   5.933 -0.4060  0.2596  0.6767
  155SAPE   H9X17232   7.047   7.389   5.952 -0.9420  1.6571  0.5724
  155SAPE   H9Y17233   7.232   7.354   5.954  1.5951  2.4763  0.9394
  155SAPE  C31017234   7.155   7.477   5.786  0.5181  0.3877 -0.3125
  155SAPE  H10X17235   7.249   7.536   5.773  0.8898 -0.4457 -1.6864
  155SAPE  H10Y17236   7.070   7.546   5.768  1.3411  1.0407 -1.9684
  155SAPE  C31117237   7.159   7.363   5.677  0.0207  0.2884  0.1548
  155SAPE  H11X17238   7.261   7.319   5.685 -0.4361 -1.1864 -1.4950
  155SAPE  H11Y17239   7.158   7.413   5.578 -2.5204 -0.3552 -0.2136
  155SAPE  C31217240   7.055   7.250   5.694  0.7477  0.0817 -0.0784
  155SAPE  H12X17241   6.956   7.297   5.678  0.9295  0.0555 -1.3232
  155SAPE  H12Y17242   7.067   7.224   5.802  0.9298 -0.7194 -0.2851
  155SAPE  C31317243   7.073   7.128   5.608  0.2801  0.1128  0.9777
  155SAPE  H13X17244   7.177   7.091   5.626  0.7215  1.0861  0.5194
  155SAPE  H13Y17245   7.056   7.160   5.503 -1.0922 -0.8112  0.8946
  155SAPE  C31417246   6.980   7.016   5.659  0.3765 -0.1448 -0.0506
  155SAPE  H14X17247   6.878   7.053   5.639  1.1640  2.2835  0.1241
  155SAPE  H14Y17248   7.000   7.004   5.768 -2.5866  1.3399  0.7604
  155SAPE  C31517249   7.023   6.884   5.600  0.3399 -0.4591 -0.2468
  155SAPE  H15X17250   7.119   6.843   5.638 -0.7377 -1.8306  1.1149
  155SAPE  H15Y17251   7.039   6.894   5.490  2.2296  0.2310  0.0521
  155SAPE  C31617252   6.918   6.777   5.619  0.9235  0.4072  0.6117
  155SAPE  H16X17253   6.846   6.802   5.538  2.0767  1.0008 -0.2714
  155SAPE  H16Y17254   6.872   6.786   5.719 -0.7632 -2.1175  0.1568
  155SAPE  C31717255   6.965   6.627   5.607 -0.5571  0.0922 -0.0598
  155SAPE  H17X17256   6.877   6.558   5.608 -0.5865  0.1252 -0.3130
  155SAPE  H17Y17257   7.032   6.606   5.693  0.9115  3.6352 -0.1799
  155SAPE  C31817258   7.057   6.604   5.481  0.3046  0.5919 -0.2531
  155SAPE  H18X17259   7.090   6.498   5.475 -1.7795 -0.0082 -2.0548
  155SAPE  H18Y17260   7.147   6.670   5.488  2.7419 -2.2921 -1.9624
  155SAPE  H18Z17261   7.008   6.628   5.385 -0.5391 -1.0225 -0.2567
  156SAPE     N17262   1.541   2.144   7.238  0.2273 -0.9394 -0.0137
  156SAPE   HN117263   1.523   2.156   7.136 -3.5231 -2.2161  0.3319
  156SAPE   HN217264   1.505   2.231   7.283  2.3095  0.6523 -1.2257
  156SAPE   HN317265   1.644   2.148   7.254  0.0849  2.2573  0.8425
  156SAPE   C1217266   1.460   2.034   7.285 -0.4026  0.6198  0.0702
  156SAPE  H12A17267   1.361   2.056   7.240 -0.3583 -0.8267 -0.8183
  156SAPE  H12B17268   1.459   2.040   7.396 -1.9543  0.7518  0.0729
  156SAPE   C1117269   1.520   1.910   7.228 -0.4065  0.7089  0.6086
  156SAPE  H11A17270   1.470   1.827   7.284 -0.3741  1.5887  1.9866
  156SAPE  H11B17271   1.629   1.906   7.253 -0.2639 -0.6773 -0.1105
  156SAPE     P17272   1.389   1.834   7.004 -0.1332  0.1277  0.2909
  156SAPE   O1317273   1.401   1.691   7.042 -0.7881 -0.2454 -0.1983
  156SAPE   O1417274   1.264   1.901   7.034  0.2822 -0.1668  0.3986
  156SAPE   O1217275   1.500   1.913   7.087  0.0010 -0.2554  0.5128
  156SAPE   O1117276   1.431   1.870   6.858 -0.2132 -0.5482 -0.0964
  156SAPE    C117277   1.389   1.997   6.800 -0.2964 -0.1558 -0.4033
  156SAPE    HA17278   1.286   2.029   6.826  0.9025  3.7019  0.2395
  156SAPE    HB17279   1.457   2.075   6.839  0.7813 -0.9369 -0.6750
  156SAPE    C217280   1.382   1.975   6.640 -0.1750  0.3740  0.3254
  156SAPE    HS17281   1.484   1.947   6.604 -0.6039  2.3980 -2.8931
  156SAPE   O2117282   1.329   2.088   6.565  0.5654 -0.1216 -0.2109
  156SAPE   C2117283   1.419   2.183   6.552  0.4349 -0.0261  0.1656
  156SAPE   O2217284   1.535   2.178   6.589  0.1878  0.1784 -0.0729
  156SAPE   C2217285   1.368   2.305   6.483 -0.3998 -0.8010  0.2435
  156SAPE   H2R17286   1.262   2.330   6.503 -0.3884  0.4240 -1.0386
  156SAPE   H2S17287   1.423   2.395   6.519 -0.9726  0.1610 -1.1856
  156SAPE    C317288   1.287   1.848   6.607  0.5736  0.0257  0.2791
  156SAPE    HX17289   1.184   1.864   6.645 -0.2641 -2.3470 -0.7940
  156SAPE    HY17290   1.334   1.768   6.669  1.2292  0.3254  0.1795
  156SAPE   O3117291   1.277   1.810   6.462  0.0459  0.2938 -0.4084
  156SAPE   C3117292   1.329   1.686   6.445  0.3415 -0.1535 -0.2768
  156SAPE   O3217293   1.359   1.615   6.538 -0.4392 -0.0129 -0.0602
  156SAPE   C3217294   1.333   1.647   6.299  0.3209 -0.2627  0.3846
  156SAPE   H2X17295   1.367   1.740   6.247  0.3731 -1.4374 -1.7993
  156SAPE   H2Y17296   1.232   1.628   6.259  0.3340  2.9086 -1.4970
  156SAPE   C2317297   1.389   2.306   6.326  0.0778 -0.0731 -0.2182
  156SAPE   H3R17298   1.489   2.259   6.315  0.2390  0.3644 -0.6786
  156SAPE   H3S17299   1.405   2.412   6.296 -3.2726  0.2685 -1.1336
  156SAPE   C2417300   1.277   2.243   6.246  0.0022 -0.0900  0.6918
  156SAPE   H4R17301   1.279   2.274   6.140  2.7512 -3.6213 -0.5113
  156SAPE   H4S17302   1.180   2.275   6.289  0.3633  0.6783  0.9619
  156SAPE   C2517303   1.276   2.092   6.262 -0.3156  0.4123  0.0574
  156SAPE   H5R17304   1.229   2.062   6.357  0.1770  0.8918  0.4584
  156SAPE   C2617305   1.304   1.998   6.173  0.6743  0.4701  0.0337
  156SAPE   H6R17306   1.278   1.894   6.197  2.5170  0.3395  1.7190
  156SAPE   C2717307   1.342   2.039   6.027  0.6747  0.5189 -0.3618
  156SAPE   H7R17308   1.429   2.107   6.035  0.8549  0.3194 -0.6040
  156SAPE   H7S17309   1.256   2.095   5.983 -0.0603 -0.9832 -0.9066
  156SAPE   C2817310   1.396   1.938   5.934  0.2891  0.1702  0.5170
  156SAPE   H8R17311   1.456   1.857   5.978 -1.4442 -2.5944 -1.8209
  156SAPE   C2917312   1.380   1.929   5.802 -0.1960 -0.2641  0.6532
  156SAPE   H9R17313   1.434   1.853   5.743  0.3228 -0.0293  0.8206
  156SAPE  C21017314   1.291   2.017   5.711 -0.4881 -0.5555 -0.1212
  156SAPE  H10R17315   1.334   2.119   5.701 -1.1761 -0.0480  1.7751
  156SAPE  H10S17316   1.198   2.035   5.769  0.2354  1.8514  0.3729
  156SAPE  C21117317   1.233   1.970   5.585 -0.1119  0.3372  0.1267
  156SAPE  H11R17318   1.166   1.883   5.590 -0.5540  0.5601 -1.3414
  156SAPE  C21217319   1.238   2.029   5.460 -0.3587 -0.2879  0.0271
  156SAPE  H12R17320   1.182   1.974   5.383 -0.5901 -0.7271  0.4968
  156SAPE  C21317321   1.299   2.156   5.430 -0.0575 -0.4568 -0.1261
  156SAPE  H13R17322   1.410   2.146   5.430 -0.1007 -0.9428 -0.1258
  156SAPE  H13S17323   1.270   2.228   5.510 -3.0449 -1.1169 -0.4900
  156SAPE  C21417324   1.240   2.220   5.301 -0.8538 -0.0107  0.0713
  156SAPE  H14R17325   1.133   2.242   5.318 -0.5385  0.2828  1.9624
  156SAPE  C21517326   1.300   2.232   5.178 -0.4074 -0.1752  0.9178
  156SAPE  H15R17327   1.255   2.286   5.093 -0.2501 -1.9276 -0.3376
  156SAPE  C21617328   1.447   2.203   5.153  0.1743  0.4483  0.8407
  156SAPE  H16R17329   1.496   2.189   5.252  1.3996  0.3472  0.2374
  156SAPE  H16S17330   1.500   2.283   5.098  1.8069 -1.5292 -0.6279
  156SAPE  C21717331   1.471   2.068   5.079  0.6573 -0.2528  0.6431
  156SAPE  H17R17332   1.441   2.075   4.973  0.2441 -1.9858  0.6230
  156SAPE  H17S17333   1.407   1.996   5.134 -1.1640  0.7980 -0.0138
  156SAPE  C21817334   1.614   2.011   5.108  0.2577 -0.6718  0.1885
  156SAPE  H18R17335   1.606   1.910   5.063  2.1541  0.2733 -2.5489
  156SAPE  H18S17336   1.629   2.007   5.218 -1.5644  0.7655  0.5386
  156SAPE  C21917337   1.724   2.082   5.033  0.0017 -0.0787  0.0455
  156SAPE  H19R17338   1.744   2.182   5.076  0.3328 -1.1387  2.5248
  156SAPE  H19S17339   1.707   2.083   4.923  1.4190 -1.7333 -0.2339
  156SAPE  C22017340   1.852   1.991   5.047 -0.6030 -0.0400  0.0577
  156SAPE  H20R17341   1.885   1.972   5.151  0.7486 -1.5437 -0.5969
  156SAPE  H20S17342   1.939   2.038   4.996  1.2481 -2.2245  1.0241
  156SAPE  H20T17343   1.831   1.894   4.997  0.8205  0.3450 -1.3576
  156SAPE   C3317344   1.435   1.547   6.249 -0.1095 -0.6762 -0.3698
  156SAPE   H3X17345   1.413   1.441   6.275 -0.0945 -0.5605  0.1224
  156SAPE   H3Y17346   1.524   1.571   6.310 -0.8797 -0.3639  0.6714
  156SAPE   C3417347   1.459   1.571   6.094 -0.1032 -0.0632  0.5677
  156SAPE   H4X17348   1.530   1.501   6.045  1.0560  0.0557  1.9996
  156SAPE   H4Y17349   1.514   1.665   6.070  1.3546 -1.2593 -1.0577
  156SAPE   C3517350   1.335   1.572   6.001 -0.0302 -0.4599 -1.1040
  156SAPE   H5X17351   1.279   1.667   6.018  0.0146 -0.5020 -0.7049
  156SAPE   H5Y17352   1.257   1.498   6.031 -3.2886  3.5621  1.6341
  156SAPE   C3617353   1.371   1.562   5.854  0.5691 -0.1394  0.4635
  156SAPE   H6X17354   1.416   1.463   5.830  0.5453 -0.5386  2.0030
  156SAPE   H6Y17355   1.452   1.635   5.835  1.8939 -1.8386 -0.7520
  156SAPE   C3717356   1.253   1.591   5.757 -0.1905  0.0924  0.5720
  156SAPE   H7X17357   1.197   1.684   5.782 -0.6031  0.8738 -2.8033
  156SAPE   H7Y17358   1.186   1.503   5.775  0.4164 -0.5048 -0.0501
  156SAPE   C3817359   1.304   1.585   5.610  0.3103  0.1535 -0.6241
  156SAPE   H8X17360   1.361   1.490   5.600  0.7959  0.2994  0.6362
  156SAPE   H8Y17361   1.369   1.674   5.600  0.5295  0.2029  0.9928
  156SAPE   C3917362   1.196   1.600   5.500 -0.4719 -0.2093  0.0728
  156SAPE   H9X17363   1.120   1.676   5.528  0.8636  1.1498  0.1475
  156SAPE   H9Y17364   1.142   1.504   5.494 -1.7088  0.3457  1.7290
  156SAPE  C31017365   1.259   1.633   5.362  0.4200 -0.0256  0.4786
  156SAPE  H10X17366   1.330   1.557   5.324  2.3540  0.7556  2.3340
  156SAPE  H10Y17367   1.334   1.712   5.383  1.9987 -1.2909 -0.2425
  156SAPE  C31117368   1.169   1.687   5.252  0.4001 -0.2629  0.2331
  156SAPE  H11X17369   1.119   1.783   5.279  1.3785  0.0629  0.9088
  156SAPE  H11Y17370   1.103   1.606   5.213  1.3879 -0.7780 -0.3879
  156SAPE  C31217371   1.257   1.714   5.122 -0.6063 -0.1369 -0.8740
  156SAPE  H12X17372   1.327   1.799   5.137 -1.6587  1.0168 -2.1887
  156SAPE  H12Y17373   1.188   1.755   5.045  0.5879  2.4610 -0.6435
  156SAPE  C31317374   1.326   1.596   5.067  0.1770  0.5034  0.0143
  156SAPE  H13X17375   1.299   1.586   4.960 -1.1406 -1.9867  0.4938
  156SAPE  H13Y17376   1.280   1.505   5.113 -2.5043  1.0830 -1.3413
  156SAPE  C31417377   1.477   1.599   5.092 -0.2598 -0.1910 -0.3869
  156SAPE  H14X17378   1.503   1.639   5.192 -1.0218 -1.8815  0.5301
  156SAPE  H14Y17379   1.525   1.662   5.014  1.2560 -0.1074  0.5825
  156SAPE  C31517380   1.537   1.462   5.073  0.2504 -0.7297  0.3280
  156SAPE  H15X17381   1.524   1.422   4.970 -3.1840 -0.9293  0.7167
  156SAPE  H15Y17382   1.486   1.401   5.150 -1.0205  1.0607  0.9676
  156SAPE  C31617383   1.682   1.467   5.104 -0.7904 -0.8252  0.0337
  156SAPE  H16X17384   1.704   1.526   5.196 -1.7771  0.5788 -0.5995
  156SAPE  H16Y17385   1.732   1.527   5.024 -1.0595 -0.0274  0.4512
  156SAPE  C31717386   1.752   1.326   5.116 -0.7246 -0.4353  0.3515
  156SAPE  H17X17387   1.689   1.282   5.196 -1.5992 -1.2017 -0.7285
  156SAPE  H17Y17388   1.857   1.349   5.144  0.2767 -1.1183 -2.4468
  156SAPE  C31817389   1.765   1.241   4.990 -0.6812 -0.3232 -0.1999
  156SAPE  H18X17390   1.803   1.308   4.911  1.1907  1.5992  2.1717
  156SAPE  H18Y17391   1.667   1.200   4.958 -0.4397 -0.6544 -0.5278
  156SAPE  H18Z17392   1.835   1.158   5.015  1.8941  0.8493 -3.0081
  157SAPE     N17393   2.299   5.661   7.061  0.2746  0.3296  0.5885
  157SAPE   HN117394   2.279   5.647   7.162  2.3753 -0.6332  0.9269
  157SAPE   HN217395   2.215   5.643   7.002  0.7395 -0.1809  0.0737
  157SAPE   HN317396   2.365   5.585   7.037 -3.5943 -3.2477  0.0897
  157SAPE   C1217397   2.356   5.799   7.043 -1.0216  0.1219  0.8942
  157SAPE  H12A17398   2.315   5.838   6.948 -0.1444 -0.5175  0.2289
  157SAPE  H12B17399   2.465   5.791   7.022 -1.0495  0.9883  0.3614
  157SAPE   C1117400   2.320   5.886   7.155 -0.5374  0.7938 -0.0464
  157SAPE  H11A17401   2.360   5.986   7.131  0.0016  0.4904 -0.4433
  157SAPE  H11B17402   2.368   5.852   7.249  0.3400  1.8221 -0.1097
  157SAPE     P17403   2.091   6.009   7.182  0.1336  0.2092  0.2854
  157SAPE   O1317404   1.951   5.970   7.203 -0.4985  0.4431  0.4314
  157SAPE   O1417405   2.149   6.100   7.286 -0.1033  0.1130  0.1228
  157SAPE   O1217406   2.188   5.885   7.182  0.2309 -0.0517 -0.5009
  157SAPE   O1117407   2.111   6.073   7.039  0.2849 -0.3023  0.2227
  157SAPE    C117408   2.023   6.015   6.940 -0.4057 -0.2038  0.1962
  157SAPE    HA17409   2.044   5.907   6.953  0.0588 -0.2463 -0.7872
  157SAPE    HB17410   1.914   6.028   6.958 -1.0221 -3.8607 -0.1682
  157SAPE    C217411   2.055   6.068   6.797 -0.0718  0.5347 -0.3199
  157SAPE    HS17412   2.059   6.179   6.798  0.2035  0.5238 -0.0799
  157SAPE   O2117413   1.953   6.022   6.703  0.1152 -0.5892  0.0507
  157SAPE   C2117414   1.938   6.102   6.595 -0.0436  0.8802 -0.4019
  157SAPE   O2217415   1.995   6.209   6.576  0.2276  0.4698 -0.4450
  157SAPE   C2217416   1.847   6.036   6.494 -0.1335  0.2074 -0.3019
  157SAPE   H2R17417   1.887   5.936   6.464 -0.2390  0.2027 -0.4276
  157SAPE   H2S17418   1.747   6.025   6.543  0.1227  1.3653  0.5112
  157SAPE    C317419   2.199   6.023   6.760  0.0127  0.5173 -0.4594
  157SAPE    HX17420   2.203   5.912   6.757 -0.1937  0.5266 -1.2713
  157SAPE    HY17421   2.261   6.053   6.848  0.4407  0.6947 -0.8181
  157SAPE   O3117422   2.247   6.076   6.636 -0.1175  0.3608  0.0095
  157SAPE   C3117423   2.312   6.191   6.653 -0.0416  0.7819 -0.1883
  157SAPE   O3217424   2.301   6.264   6.750 -0.5339 -0.2751  0.6259
  157SAPE   C3217425   2.399   6.209   6.530  0.0970 -0.0120 -0.4558
  157SAPE   H2X17426   2.470   6.124   6.519 -0.1462 -0.1202 -1.2228
  157SAPE   H2Y17427   2.450   6.308   6.541 -1.9859  0.9503  1.2310
  157SAPE   C2317428   1.835   6.124   6.367  1.1472 -0.3367  0.1983
  157SAPE   H3R17429   1.937   6.153   6.336  1.4872 -0.9407  0.7249
  157SAPE   H3S17430   1.776   6.218   6.376 -2.1758 -1.9484 -2.6606
  157SAPE   C2417431   1.787   6.053   6.240  0.0341  0.2006 -0.6378
  157SAPE   H4R17432   1.857   5.972   6.210 -1.9406 -1.3989 -1.1547
  157SAPE   H4S17433   1.792   6.121   6.151 -3.7089 -1.6828 -2.5274
  157SAPE   C2517434   1.646   5.999   6.258  0.4531  0.4660  0.2856
  157SAPE   H5R17435   1.593   6.042   6.344  0.7228 -0.6458  1.0279
  157SAPE   C2617436   1.597   5.889   6.205 -0.0821  0.4528 -0.5166
  157SAPE   H6R17437   1.492   5.863   6.228  0.9115 -1.2608  2.6808
  157SAPE   C2717438   1.663   5.796   6.102  0.1076 -0.3499  0.5588
  157SAPE   H7R17439   1.771   5.779   6.119 -0.1904 -1.4973  1.5046
  157SAPE   H7S17440   1.659   5.861   6.012 -0.5828 -1.2290 -0.0663
  157SAPE   C2817441   1.586   5.662   6.081 -0.6726  0.2475 -0.7462
  157SAPE   H8R17442   1.621   5.580   6.147 -1.9356 -1.1218 -1.7229
  157SAPE   C2917443   1.502   5.633   5.981 -0.1004 -0.1038  0.2302
  157SAPE   H9R17444   1.464   5.530   5.978  2.7517 -1.2418  0.0754
  157SAPE  C21017445   1.454   5.734   5.875 -0.0347  0.3432 -0.0890
  157SAPE  H10R17446   1.519   5.824   5.865  2.0972 -1.3594 -3.8712
  157SAPE  H10S17447   1.352   5.764   5.906 -0.9900 -0.2509 -2.3785
  157SAPE  C21117448   1.449   5.674   5.738 -0.7767  1.0966  1.1030
  157SAPE  H11R17449   1.497   5.575   5.743 -1.2159  0.8988  1.4507
  157SAPE  C21217450   1.381   5.717   5.630  0.1405  0.4850  0.5498
  157SAPE  H12R17451   1.392   5.659   5.538 -0.3196 -0.9386  1.3531
  157SAPE  C21317452   1.301   5.852   5.626  0.5762  0.3480 -0.2657
  157SAPE  H13R17453   1.300   5.898   5.727 -4.6964 -1.1574  0.6395
  157SAPE  H13S17454   1.196   5.828   5.600  0.8105 -2.4302  0.9811
  157SAPE  C21417455   1.353   5.947   5.528 -0.2655 -0.1780 -0.1459
  157SAPE  H14R17456   1.402   6.034   5.576 -0.8023 -0.7495  1.4891
  157SAPE  C21517457   1.325   5.966   5.394 -0.1051 -0.2446  0.0633
  157SAPE  H15R17458   1.369   6.052   5.342  2.7628 -2.0642 -0.7069
  157SAPE  C21617459   1.240   5.888   5.299 -1.1127  0.1581 -0.1407
  157SAPE  H16R17460   1.151   5.946   5.268 -0.7616  0.1449 -1.2043
  157SAPE  H16S17461   1.218   5.790   5.348  0.1301  0.3532  0.8768
  157SAPE  C21717462   1.316   5.846   5.170  0.1524  0.3589  0.2557
  157SAPE  H17R17463   1.270   5.758   5.119  0.4157  0.6965 -0.5815
  157SAPE  H17S17464   1.416   5.810   5.199 -0.3256 -0.8010  0.5153
  157SAPE  C21817465   1.334   5.958   5.065  0.0883  0.0875  0.1313
  157SAPE  H18R17466   1.371   6.054   5.108 -0.1622 -0.0716  0.7156
  157SAPE  H18S17467   1.234   5.983   5.023  0.4585  1.0153 -0.2331
  157SAPE  C21917468   1.420   5.929   4.935  0.2277 -0.2282  0.3365
  157SAPE  H19R17469   1.413   5.822   4.906  1.2374 -0.6383  1.5089
  157SAPE  H19S17470   1.528   5.946   4.955  0.5786 -2.2502  0.3370
  157SAPE  C22017471   1.379   6.021   4.819  0.1114  0.2450 -0.2597
  157SAPE  H20R17472   1.452   6.028   4.735 -0.7139  1.3362 -0.9058
  157SAPE  H20S17473   1.375   6.125   4.858 -0.6024  0.3160 -0.5089
  157SAPE  H20T17474   1.280   5.995   4.777 -0.4826  0.2115  1.1228
  157SAPE   C3317475   2.310   6.208   6.405  0.1215  0.0877  0.1349
  157SAPE   H3X17476   2.225   6.277   6.421 -0.8340 -1.1845  0.6911
  157SAPE   H3Y17477   2.264   6.110   6.381 -0.4361  0.8191 -2.0190
  157SAPE   C3417478   2.391   6.257   6.281  0.3546  1.0542  0.3052
  157SAPE   H4X17479   2.419   6.364   6.293 -1.0544  1.5212 -0.3411
  157SAPE   H4Y17480   2.321   6.255   6.194 -2.1728 -0.8557  2.2125
  157SAPE   C3517481   2.521   6.172   6.253  0.3997  0.2303 -0.2225
  157SAPE   H5X17482   2.494   6.070   6.218  0.1595  0.6229 -1.2086
  157SAPE   H5Y17483   2.588   6.166   6.342 -0.4135 -1.7280  0.3187
  157SAPE   C3617484   2.617   6.236   6.143  0.6362  0.7669  0.3395
  157SAPE   H6X17485   2.717   6.189   6.137  0.0192 -0.4602 -0.7711
  157SAPE   H6Y17486   2.631   6.339   6.185  1.6648  0.8926 -0.3032
  157SAPE   C3717487   2.562   6.248   6.003  0.1340  0.2229 -0.1320
  157SAPE   H7X17488   2.464   6.299   6.014 -0.9964 -2.1366  1.9204
  157SAPE   H7Y17489   2.537   6.152   5.952 -0.4389  1.4275 -2.2092
  157SAPE   C3817490   2.639   6.325   5.904 -0.4934 -0.2457  0.0834
  157SAPE   H8X17491   2.743   6.286   5.904 -0.0990  0.7722  0.1180
  157SAPE   H8Y17492   2.643   6.434   5.927 -0.5580 -0.4942  1.3850
  157SAPE   C3917493   2.605   6.304   5.754 -0.1127 -0.2569 -0.4266
  157SAPE   H9X17494   2.499   6.328   5.734 -0.0594  1.2466  0.8683
  157SAPE   H9Y17495   2.612   6.197   5.728 -0.8074 -0.3492 -0.2373
  157SAPE  C31017496   2.702   6.379   5.667  0.3675 -0.5267  0.5228
  157SAPE  H10X17497   2.811   6.363   5.681  0.4320  1.0552  2.2433
  157SAPE  H10Y17498   2.684   6.482   5.706  0.8697 -1.4459  3.4786
  157SAPE  C31117499   2.658   6.364   5.519  0.5872 -0.3506 -0.2494
  157SAPE  H11X17500   2.560   6.415   5.514  0.4208 -0.6511 -0.0905
  157SAPE  H11Y17501   2.636   6.258   5.493 -1.8752 -0.4043  1.6903
  157SAPE  C31217502   2.765   6.418   5.423 -0.3980  0.3877  0.0048
  157SAPE  H12X17503   2.853   6.351   5.428 -1.0238 -0.5702 -1.2891
  157SAPE  H12Y17504   2.796   6.520   5.455 -1.2492  0.2861  1.2223
  157SAPE  C31317505   2.710   6.419   5.278  0.7571  0.0987  0.0962
  157SAPE  H13X17506   2.602   6.444   5.282  0.2509 -1.7834 -0.7881
  157SAPE  H13Y17507   2.723   6.331   5.211 -1.0958  0.8370 -1.3427
  157SAPE  C31417508   2.761   6.546   5.204  0.6647 -0.0374 -0.2589
  157SAPE  H14X17509   2.872   6.539   5.198  0.5570 -1.2864 -1.1487
  157SAPE  H14Y17510   2.718   6.641   5.243  0.4334 -0.5612  0.8001
  157SAPE  C31517511   2.719   6.553   5.052  0.2217  0.1119 -0.5853
  157SAPE  H15X17512   2.729   6.655   5.009 -1.8741  1.0762  0.9942
  157SAPE  H15Y17513   2.610   6.538   5.064 -0.5554  2.6357 -3.4803
  157SAPE  C31617514   2.792   6.455   4.961  0.4471 -0.7436 -0.7347
  157SAPE  H16X17515   2.792   6.356   5.011 -1.3764 -1.3274 -1.7779
  157SAPE  H16Y17516   2.898   6.483   4.943  0.6113 -1.6935 -1.3432
  157SAPE  C31717517   2.727   6.446   4.821 -0.1133 -0.1724  0.8741
  157SAPE  H17X17518   2.616   6.442   4.820 -0.2290  0.9623 -2.0530
  157SAPE  H17Y17519   2.764   6.349   4.780 -0.8050 -0.1293  0.1097
  157SAPE  C31817520   2.773   6.555   4.725  0.2067 -0.1816  0.2713
  157SAPE  H18X17521   2.776   6.513   4.622  2.3229  0.2861  0.0919
  157SAPE  H18Y17522   2.878   6.577   4.752  0.0471  0.0903  0.6872
  157SAPE  H18Z17523   2.705   6.642   4.733 -2.2689 -2.0685  1.3000
  158SAPE     N17524   4.610   5.664   7.060  0.3448  0.1645 -0.3923
  158SAPE   HN117525   4.601   5.766   7.039 -0.1081 -0.1615 -1.9063
  158SAPE   HN217526   4.516   5.634   7.095  0.2925 -0.3405 -0.9485
  158SAPE   HN317527   4.675   5.642   7.138 -3.8179 -0.3629  3.3219
  158SAPE   C1217528   4.656   5.588   6.946  0.0483  0.3551  1.5133
  158SAPE  H12A17529   4.742   5.647   6.909 -0.3998 -0.5233 -1.1961
  158SAPE  H12B17530   4.570   5.590   6.875 -0.5028  2.6896  2.1683
  158SAPE   C1117531   4.694   5.441   6.982  0.5981  0.2575 -0.0052
  158SAPE  H11A17532   4.780   5.441   7.051  0.7989  0.6780 -0.2476
  158SAPE  H11B17533   4.737   5.393   6.892 -0.6838 -2.2802  0.6354
  158SAPE     P17534   4.471   5.316   6.953 -0.1023  0.0460  0.2534
  158SAPE   O1317535   4.409   5.201   7.018 -1.3235 -0.0647 -0.1496
  158SAPE   O1417536   4.372   5.422   6.925 -0.5612  0.2854 -0.4565
  158SAPE   O1217537   4.584   5.370   7.046  0.7895 -0.0744 -0.7587
  158SAPE   O1117538   4.547   5.273   6.815  0.5216 -0.0039  0.2016
  158SAPE    C117539   4.568   5.133   6.795 -0.2389 -1.1811  0.5634
  158SAPE    HA17540   4.596   5.075   6.886  0.9812  1.1818  1.7724
  158SAPE    HB17541   4.487   5.076   6.744  1.0240  0.0699 -3.2085
  158SAPE    C217542   4.680   5.112   6.688  0.7535 -0.3149  0.9868
  158SAPE    HS17543   4.762   5.180   6.717 -0.1550  0.5362  1.6405
  158SAPE   O2117544   4.630   5.135   6.557  0.3745 -0.2430  0.1033
  158SAPE   C2117545   4.696   5.220   6.479 -0.1370 -0.1315 -0.6648
  158SAPE   O2217546   4.804   5.276   6.505 -0.3625 -0.7002 -0.0935
  158SAPE   C2217547   4.627   5.219   6.343  0.3267 -0.3863 -0.2370
  158SAPE   H2R17548   4.637   5.120   6.294 -0.5944 -0.4538 -0.3080
  158SAPE   H2S17549   4.519   5.240   6.357 -0.3699 -3.6201  0.1637
  158SAPE    C317550   4.736   4.967   6.684  0.3360 -0.2362 -0.0792
  158SAPE    HX17551   4.647   4.901   6.676 -1.1867  1.6108  1.0185
  158SAPE    HY17552   4.780   4.940   6.782 -4.0764 -1.4469  1.8020
  158SAPE   O3117553   4.832   4.954   6.569  0.0446 -0.0605 -0.3208
  158SAPE   C3117554   4.951   4.993   6.602  0.9695  0.3729 -0.3369
  158SAPE   O3217555   4.990   5.033   6.709 -0.0577  0.5548 -0.1254
  158SAPE   C3217556   5.030   4.999   6.478 -0.2625 -0.2149 -0.1177
  158SAPE   H2X17557   4.955   5.030   6.402  1.4277  1.9833 -1.0237
  158SAPE   H2Y17558   5.067   4.897   6.455  0.1156 -0.3287  0.9227
  158SAPE   C2317559   4.683   5.314   6.235  0.5869 -0.6919 -0.4026
  158SAPE   H3R17560   4.781   5.265   6.218 -0.4955 -2.7229 -1.2254
  158SAPE   H3S17561   4.690   5.420   6.265 -2.1684 -0.5103 -0.1778
  158SAPE   C2417562   4.603   5.315   6.102 -0.0529 -0.0457 -0.5712
  158SAPE   H4R17563   4.642   5.406   6.053  2.1313 -0.3103  0.5596
  158SAPE   H4S17564   4.498   5.341   6.127  0.5510  0.6908  1.4237
  158SAPE   C2517565   4.617   5.188   6.020  0.3440 -0.3299 -0.0538
  158SAPE   H5R17566   4.580   5.102   6.078 -0.6341  0.1025 -0.0091
  158SAPE   C2617567   4.653   5.175   5.893  0.3794  1.0694 -0.1800
  158SAPE   H6R17568   4.647   5.079   5.839  1.6304 -0.6442  2.5473
  158SAPE   C2717569   4.684   5.291   5.801  0.3159 -0.2135  0.1269
  158SAPE   H7R17570   4.731   5.240   5.714 -0.5291 -0.2452 -0.3182
  158SAPE   H7S17571   4.765   5.348   5.851  1.9223 -3.3591  1.4112
  158SAPE   C2817572   4.563   5.370   5.774  0.1111 -0.2951 -0.8568
  158SAPE   H8R17573   4.533   5.428   5.863 -0.3603 -0.2516 -1.0397
  158SAPE   C2917574   4.506   5.402   5.662  0.6032  0.2177  0.4118
  158SAPE   H9R17575   4.419   5.469   5.656  0.1298 -0.4553 -0.5246
  158SAPE  C21017576   4.541   5.344   5.528 -0.0942  0.0775  0.7065
  158SAPE  H10R17577   4.645   5.307   5.521 -0.3923 -0.5153 -0.8230
  158SAPE  H10S17578   4.549   5.435   5.464 -1.2075 -0.3866 -0.1171
  158SAPE  C21117579   4.439   5.245   5.486 -0.3737  0.1897  0.0561
  158SAPE  H11R17580   4.424   5.159   5.552 -0.7582  0.9154  0.9328
  158SAPE  C21217581   4.355   5.256   5.381 -0.0816  0.6266 -0.3132
  158SAPE  H12R17582   4.281   5.175   5.382 -1.0821  1.5154 -0.0298
  158SAPE  C21317583   4.337   5.368   5.282 -0.0815 -0.2198 -0.7222
  158SAPE  H13R17584   4.424   5.437   5.283 -0.1222 -0.1423  1.6173
  158SAPE  H13S17585   4.245   5.421   5.313 -0.1151  0.1096 -1.3637
  158SAPE  C21417586   4.332   5.325   5.142 -1.0798  0.5809 -0.2937
  158SAPE  H14R17587   4.403   5.244   5.122 -0.0291  1.8712 -2.0054
  158SAPE  C21517588   4.259   5.378   5.048 -0.2355  0.2127 -0.0486
  158SAPE  H15R17589   4.279   5.350   4.944  2.2110  0.8867  0.1919
  158SAPE  C21617590   4.158   5.493   5.066 -0.1207  0.1061  0.0600
  158SAPE  H16R17591   4.180   5.533   5.167  1.5343 -1.5876  0.4290
  158SAPE  H16S17592   4.056   5.448   5.075  0.2236 -0.5393  0.9619
  158SAPE  C21717593   4.169   5.602   4.953  0.0146 -0.4468 -0.3122
  158SAPE  H17R17594   4.129   5.575   4.853 -1.8117  0.1185  0.2260
  158SAPE  H17S17595   4.276   5.630   4.944 -0.2056  0.9944  1.0945
  158SAPE  C21817596   4.095   5.727   5.004  0.3976 -0.2631 -0.2216
  158SAPE  H18R17597   4.106   5.737   5.114  0.9644 -0.0406 -0.2982
  158SAPE  H18S17598   3.986   5.710   4.987  0.6208 -1.2974 -0.6722
  158SAPE  C21917599   4.145   5.848   4.945 -0.2395 -0.4825  0.6267
  158SAPE  H19R17600   4.144   5.834   4.835  1.8667  1.3513  0.2801
  158SAPE  H19S17601   4.252   5.858   4.973 -0.7243  0.2631  2.3495
  158SAPE  C22017602   4.057   5.970   4.986  0.1330  0.2663 -0.0088
  158SAPE  H20R17603   3.949   5.945   4.981 -0.1689  1.0152  2.0611
  158SAPE  H20S17604   4.057   6.042   4.902 -1.7823 -2.5111 -2.6211
  158SAPE  H20T17605   4.084   6.007   5.087 -0.9288  1.2769 -0.0719
  158SAPE   C3317606   5.148   5.100   6.470  0.0018 -0.3269 -0.3172
  158SAPE   H3X17607   5.232   5.081   6.540  0.6679  0.1442 -0.9628
  158SAPE   H3Y17608   5.106   5.199   6.496 -1.6420 -1.3653  1.1619
  158SAPE   C3417609   5.213   5.106   6.330 -0.2406  0.9555  0.6159
  158SAPE   H4X17610   5.247   5.003   6.308  0.9953  0.9077  2.4737
  158SAPE   H4Y17611   5.303   5.171   6.324 -1.1117  2.2237  0.9878
  158SAPE   C3517612   5.116   5.159   6.227 -0.2882  0.9142  0.3772
  158SAPE   H5X17613   5.097   5.268   6.244  1.1633  0.9977  1.7090
  158SAPE   H5Y17614   5.014   5.116   6.219  0.6347 -1.0065 -3.3595
  158SAPE   C3617615   5.172   5.129   6.083 -0.1231 -0.3110 -0.4460
  158SAPE   H6X17616   5.160   5.020   6.070 -0.2861 -0.3487 -0.0028
  158SAPE   H6Y17617   5.279   5.154   6.071 -0.4872  0.6884 -1.9383
  158SAPE   C3717618   5.096   5.210   5.981 -0.5367 -0.7353 -0.1140
  158SAPE   H7X17619   5.093   5.316   6.015  0.6075 -1.0254  0.9483
  158SAPE   H7Y17620   4.989   5.186   5.998 -1.1664  1.9402  0.2937
  158SAPE   C3817621   5.154   5.196   5.842  0.1414  0.1206 -0.2415
  158SAPE   H8X17622   5.162   5.088   5.816  0.2616  0.4107 -1.4671
  158SAPE   H8Y17623   5.258   5.236   5.837  0.6327 -0.8702  1.1175
  158SAPE   C3917624   5.082   5.274   5.739  0.6537  0.4925  0.5550
  158SAPE   H9X17625   5.081   5.385   5.749  1.1005  0.7776 -1.8654
  158SAPE   H9Y17626   4.978   5.236   5.745  1.1106 -0.7495  0.9573
  158SAPE  C31017627   5.141   5.242   5.598 -0.6417 -0.2093  0.0464
  158SAPE  H10X17628   5.131   5.138   5.559  1.0996  0.7698 -3.4064
  158SAPE  H10Y17629   5.251   5.255   5.603 -0.4123 -2.1486  1.3400
  158SAPE  C31117630   5.090   5.341   5.494  0.3986 -0.4189  0.0375
  158SAPE  H11X17631   5.095   5.448   5.523 -0.4618  0.3110 -2.3244
  158SAPE  H11Y17632   4.988   5.301   5.479 -0.4323  1.2609  0.8315
  158SAPE  C31217633   5.167   5.328   5.359 -0.3587 -0.0339  0.2540
  158SAPE  H12X17634   5.152   5.230   5.310  1.9452 -0.5642  0.5163
  158SAPE  H12Y17635   5.275   5.337   5.382  0.7547 -3.1682 -2.9623
  158SAPE  C31317636   5.125   5.440   5.262 -0.7930  0.0889  0.5409
  158SAPE  H13X17637   5.170   5.537   5.291  1.7067 -1.2354  1.3353
  158SAPE  H13Y17638   5.014   5.446   5.268 -0.6505  2.9543  1.8082
  158SAPE  C31417639   5.154   5.402   5.110  0.1017 -0.0296 -0.6416
  158SAPE  H14X17640   5.109   5.482   5.047 -0.5675  2.5661  2.8297
  158SAPE  H14Y17641   5.097   5.309   5.091 -3.7751  2.0576 -0.1077
  158SAPE  C31517642   5.303   5.400   5.059 -0.9056 -0.7386 -0.2922
  158SAPE  H15X17643   5.303   5.380   4.950 -0.5040  1.6067 -0.7815
  158SAPE  H15Y17644   5.354   5.309   5.096 -0.5227 -0.7501 -0.8281
  158SAPE  C31617645   5.391   5.525   5.088  0.9916 -0.1344 -0.0324
  158SAPE  H16X17646   5.488   5.511   5.037  1.8810  2.6621  0.6687
  158SAPE  H16Y17647   5.402   5.536   5.198 -0.3050  1.6559 -0.0415
  158SAPE  C31717648   5.324   5.658   5.033 -0.7160  0.1535  0.3038
  158SAPE  H17X17649   5.389   5.747   5.048  0.3949 -0.3439 -1.3355
  158SAPE  H17Y17650   5.231   5.678   5.091  0.4986  1.7531  1.8231
  158SAPE  C31817651   5.308   5.651   4.877 -0.1232  0.2006 -0.3744
  158SAPE  H18X17652   5.261   5.559   4.838 -0.4525  1.0859 -2.1430
  158SAPE  H18Y17653   5.404   5.671   4.824  0.1413  1.6014  0.5602
  158SAPE  H18Z17654   5.239   5.733   4.848  1.2379  1.4031 -0.3983
  159SAPE     N17655   3.898   2.887   2.827 -0.5284  0.2964  0.7650
  159SAPE   HN117656   3.921   2.787   2.847  0.3332  0.3813  0.2752
  159SAPE   HN217657   3.901   2.916   2.727  0.2765  2.4692  1.3414
  159SAPE   HN317658   3.967   2.951   2.874 -1.4745  2.3659 -0.5215
  159SAPE   C1217659   3.764   2.911   2.875 -0.3858  0.3136 -0.5905
  159SAPE  H12A17660   3.766   2.890   2.985 -1.7183  1.4878 -0.3144
  159SAPE  H12B17661   3.692   2.841   2.828  0.2331 -1.4911  1.0153
  159SAPE   C1117662   3.715   3.059   2.860  0.6664  0.0890  0.6648
  159SAPE  H11A17663   3.780   3.114   2.930  0.2564  0.4730  0.7452
  159SAPE  H11B17664   3.609   3.072   2.892  1.2064  1.1230  2.1308
  159SAPE     P17665   3.716   3.252   2.685  0.3956 -0.0395 -0.0063
  159SAPE   O1317666   3.842   3.312   2.646 -0.3319  0.3222  0.6131
  159SAPE   O1417667   3.601   3.277   2.594 -0.7091  0.3868 -0.0957
  159SAPE   O1217668   3.724   3.102   2.722 -0.9190  0.0366 -0.4716
  159SAPE   O1117669   3.691   3.316   2.825 -0.2980 -0.2326  0.9212
  159SAPE    C117670   3.613   3.432   2.847  0.0868 -0.3769  1.0609
  159SAPE    HA17671   3.640   3.522   2.788  0.0758 -2.0346 -1.6423
  159SAPE    HB17672   3.508   3.408   2.821  0.7427 -3.2617  0.7132
  159SAPE    C217673   3.620   3.462   2.997 -0.2670 -0.3790 -0.2096
  159SAPE    HS17674   3.722   3.497   3.021 -0.6824  0.8635 -0.1876
  159SAPE   O2117675   3.591   3.342   3.073 -0.1190  0.0870  0.1208
  159SAPE   C2117676   3.460   3.299   3.071 -0.8014  0.2301  0.4089
  159SAPE   O2217677   3.361   3.339   3.007 -0.0005 -0.0774  0.2496
  159SAPE   C2217678   3.460   3.193   3.176 -0.4254 -0.6873  0.0994
  159SAPE   H2R17679   3.508   3.098   3.145  1.7934  0.5173 -0.3676
  159SAPE   H2S17680   3.519   3.235   3.260 -0.7574  1.0889 -0.5004
  159SAPE    C317681   3.524   3.587   3.032 -0.0555  0.2648  0.0896
  159SAPE    HX17682   3.430   3.579   2.973  1.5634 -0.7018 -2.5096
  159SAPE    HY17683   3.583   3.666   2.982 -0.3640  1.4888  1.5713
  159SAPE   O3117684   3.496   3.615   3.170  0.2821 -0.8580  0.6387
  159SAPE   C3117685   3.597   3.666   3.240  0.1057  0.1502 -0.0665
  159SAPE   O3217686   3.710   3.687   3.190  0.3272  0.1205 -0.6600
  159SAPE   C3217687   3.556   3.694   3.383 -0.5076  0.1666 -0.3222
  159SAPE   H2X17688   3.447   3.675   3.390 -0.9107  1.9824 -1.0814
  159SAPE   H2Y17689   3.588   3.797   3.409  0.9519  0.0698 -1.5651
  159SAPE   C2317690   3.321   3.155   3.232 -0.3370  0.4596 -0.3405
  159SAPE   H3R17691   3.270   3.101   3.149  0.0489  1.3562 -1.1868
  159SAPE   H3S17692   3.270   3.253   3.247 -1.4569  0.3847 -2.9980
  159SAPE   C2417693   3.325   3.070   3.357 -0.9717  0.7643 -0.0244
  159SAPE   H4R17694   3.412   3.100   3.419 -1.4002  1.6686  0.1481
  159SAPE   H4S17695   3.351   2.969   3.319  1.6788  0.9363  1.1562
  159SAPE   C2517696   3.190   3.070   3.421 -0.1932  0.4759  0.6018
  159SAPE   H5R17697   3.118   3.103   3.344 -0.1191 -2.5848 -0.9056
  159SAPE   C2617698   3.157   3.041   3.550  0.4601  0.4222  0.8135
  159SAPE   H6R17699   3.053   3.058   3.580 -0.2268 -3.2669  1.0772
  159SAPE   C2717700   3.261   3.011   3.652 -0.0439  1.0546  0.7592
  159SAPE   H7R17701   3.272   3.101   3.717 -0.0552  0.1411  2.0777
  159SAPE   H7S17702   3.357   2.986   3.602  0.1749  2.0045  0.6978
  159SAPE   C2817703   3.227   2.878   3.723 -0.3542 -1.0190 -0.0100
  159SAPE   H8R17704   3.211   2.783   3.670  1.0105 -0.6404 -1.1739
  159SAPE   C2917705   3.219   2.867   3.858 -0.3441  1.0812  0.4005
  159SAPE   H9R17706   3.203   2.765   3.897  0.8510  0.2462 -1.1446
  159SAPE  C21017707   3.245   2.978   3.952  0.1121  0.3247 -0.1980
  159SAPE  H10R17708   3.174   3.059   3.925 -0.0974 -0.6029 -2.6281
  159SAPE  H10S17709   3.339   3.033   3.927 -0.9491  2.3396  0.0359
  159SAPE  C21117710   3.247   2.942   4.097 -0.1469 -0.4958  0.1764
  159SAPE  H11R17711   3.345   2.901   4.125  1.2240  1.8558 -0.8938
  159SAPE  C21217712   3.159   2.955   4.198  0.4184  0.0129 -0.2281
  159SAPE  H12R17713   3.192   2.912   4.294  0.8672  0.9742  0.0613
  159SAPE  C21317714   3.022   3.023   4.190  0.4796 -0.4744 -0.3848
  159SAPE  H13R17715   2.941   2.957   4.227  0.7125 -0.4815  0.1173
  159SAPE  H13S17716   2.995   3.054   4.087 -1.8850  0.5176  0.4592
  159SAPE  C21417717   3.002   3.152   4.274 -0.4709 -0.3974  0.1363
  159SAPE  H14R17718   3.081   3.229   4.269 -2.9909  2.4313  0.9252
  159SAPE  C21517719   2.894   3.190   4.345  0.6446  0.5308  0.7726
  159SAPE  H15R17720   2.904   3.287   4.396  0.7988  1.1876 -0.4794
  159SAPE  C21617721   2.777   3.104   4.388 -0.0467 -0.3617  0.1069
  159SAPE  H16R17722   2.797   2.997   4.362 -1.3520 -0.5662 -0.1313
  159SAPE  H16S17723   2.682   3.144   4.346  1.0707  1.3222 -0.9233
  159SAPE  C21717724   2.744   3.095   4.537 -0.4663 -0.3700 -0.3871
  159SAPE  H17R17725   2.828   3.046   4.591 -0.6514  1.7390  1.9830
  159SAPE  H17S17726   2.655   3.028   4.542 -0.8049 -0.6336 -5.1874
  159SAPE  C21817727   2.708   3.232   4.593 -0.3589 -0.1868 -0.1883
  159SAPE  H18R17728   2.654   3.296   4.520  1.3663  1.4412 -0.1186
  159SAPE  H18S17729   2.797   3.285   4.634 -1.6433  1.2054  0.9650
  159SAPE  C21917730   2.608   3.233   4.713  0.6876 -0.0476 -0.0585
  159SAPE  H19R17731   2.599   3.334   4.760  1.8700 -1.4237  3.4433
  159SAPE  H19S17732   2.647   3.162   4.789 -0.2228 -1.9982 -1.3279
  159SAPE  C22017733   2.469   3.190   4.675  0.3227  0.2693  0.5748
  159SAPE  H20R17734   2.419   3.248   4.595  0.7452 -0.9868 -0.6344
  159SAPE  H20S17735   2.407   3.170   4.765 -0.9143 -1.7081 -0.6272
  159SAPE  H20T17736   2.480   3.089   4.629 -2.6150  0.6845 -1.2930
  159SAPE   C3317737   3.612   3.598   3.493 -0.3487  0.5139  0.1478
  159SAPE   H3X17738   3.580   3.625   3.596  1.3311 -2.4861  1.6263
  159SAPE   H3Y17739   3.723   3.590   3.487 -0.2947  1.4021 -0.1303
  159SAPE   C3417740   3.552   3.458   3.475 -0.5362  0.8408 -0.4772
  159SAPE   H4X17741   3.579   3.405   3.381  1.5748 -1.6700  1.3981
  159SAPE   H4Y17742   3.441   3.459   3.484 -0.7573  1.8613 -2.6860
  159SAPE   C3517743   3.579   3.351   3.590 -0.1837  0.0208  0.5298
  159SAPE   H5X17744   3.686   3.322   3.579 -0.3967 -0.3638 -0.8077
  159SAPE   H5Y17745   3.534   3.253   3.565  1.1731 -0.1864 -1.3698
  159SAPE   C3617746   3.539   3.394   3.734 -0.0977  0.5696 -0.1234
  159SAPE   H6X17747   3.432   3.419   3.746 -0.4253 -0.5160 -0.6267
  159SAPE   H6Y17748   3.601   3.484   3.755  0.6668  0.2867 -1.0640
  159SAPE   C3717749   3.576   3.294   3.842  0.2227 -0.2331  0.5656
  159SAPE   H7X17750   3.687   3.282   3.838  0.3334  0.7763  0.0858
  159SAPE   H7Y17751   3.522   3.199   3.827 -1.1331  0.4543  0.9300
  159SAPE   C3817752   3.538   3.341   3.986  0.0763 -0.1284  0.5991
  159SAPE   H8X17753   3.574   3.445   4.001 -0.1824 -0.1930  1.7121
  159SAPE   H8Y17754   3.601   3.286   4.059  0.9314  0.5560  0.4026
  159SAPE   C3917755   3.389   3.351   4.022 -0.2877 -0.0031  1.1598
  159SAPE   H9X17756   3.352   3.247   4.018 -4.0681  1.2107  0.5043
  159SAPE   H9Y17757   3.341   3.398   3.934  1.8833 -1.3198 -0.8426
  159SAPE  C31017758   3.358   3.412   4.158 -0.1625  0.3992 -0.1878
  159SAPE  H10X17759   3.438   3.486   4.178  0.9138 -0.8580  0.3285
  159SAPE  H10Y17760   3.361   3.328   4.231 -1.7507  0.4465 -0.0257
  159SAPE  C31117761   3.228   3.488   4.151  0.3569 -0.1420 -0.6313
  159SAPE  H11X17762   3.147   3.412   4.159  0.8829 -0.8338 -1.6349
  159SAPE  H11Y17763   3.234   3.536   4.051  1.1945 -0.8082 -0.9177
  159SAPE  C31217764   3.213   3.594   4.265 -0.3376  0.4392 -0.9809
  159SAPE  H12X17765   3.129   3.663   4.243 -0.9670 -0.3862 -1.1984
  159SAPE  H12Y17766   3.306   3.653   4.278  1.2940 -2.4757  1.9650
  159SAPE  C31317767   3.177   3.528   4.402 -0.1512 -0.5765 -0.0689
  159SAPE  H13X17768   3.262   3.463   4.433  1.6565  1.8721  0.4404
  159SAPE  H13Y17769   3.092   3.457   4.392 -1.1794  0.6630 -0.3648
  159SAPE  C31417770   3.135   3.623   4.515  0.0810 -0.1166 -1.0564
  159SAPE  H14X17771   3.204   3.710   4.515  2.2334 -1.6305  2.2552
  159SAPE  H14Y17772   3.157   3.564   4.606 -0.5632  2.0515  0.5795
  159SAPE  C31517773   2.985   3.662   4.503 -0.1365  0.5109 -0.4768
  159SAPE  H15X17774   2.952   3.654   4.397 -2.2242  3.3130 -0.1454
  159SAPE  H15Y17775   2.973   3.771   4.520  2.1938  0.7572 -0.0585
  159SAPE  C31617776   2.895   3.570   4.582  0.3325  0.4382 -0.5714
  159SAPE  H16X17777   2.904   3.461   4.563 -1.1066 -0.5433  3.4218
  159SAPE  H16Y17778   2.787   3.594   4.566 -0.5351 -2.1605  0.8752
  159SAPE  C31717779   2.918   3.591   4.733  0.3785  0.4570 -0.3227
  159SAPE  H17X17780   3.021   3.559   4.757 -0.0827  0.6929  2.3206
  159SAPE  H17Y17781   2.839   3.533   4.786  0.1554  0.2507 -0.8771
  159SAPE  C31817782   2.918   3.732   4.793 -0.0942  0.3496 -0.1157
  159SAPE  H18X17783   2.922   3.727   4.903 -1.4134 -1.6485 -0.1005
  159SAPE  H18Y17784   2.821   3.778   4.764 -0.6489 -2.0255 -2.4784
  159SAPE  H18Z17785   2.995   3.802   4.752  1.1186 -0.1382  1.2340
  160SAPE     N17786   0.400   1.453   2.647  0.1496  0.0083  0.2428
  160SAPE   HN117787   0.355   1.360   2.644  0.2949 -0.0332 -1.6100
  160SAPE   HN217788   0.497   1.446   2.684 -0.3746 -1.5072  1.4336
  160SAPE   HN317789   0.343   1.509   2.715  0.6645 -0.2121  0.8577
  160SAPE   C1217790   0.395   1.521   2.513 -0.1080 -0.1484 -0.0645
  160SAPE  H12A17791   0.290   1.538   2.482 -1.8373 -1.4533  4.2808
  160SAPE  H12B17792   0.445   1.447   2.446 -0.3842  0.3448 -0.8305
  160SAPE   C1117793   0.463   1.653   2.506 -0.2694 -0.0564 -0.0664
  160SAPE  H11A17794   0.456   1.693   2.402 -0.6051  2.5576  0.8711
  160SAPE  H11B17795   0.571   1.638   2.531 -0.5374 -0.3631  0.9335
  160SAPE     P17796   0.478   1.808   2.716 -0.2662 -0.2572  0.1833
  160SAPE   O1317797   0.594   1.883   2.664  0.5266 -0.8431 -0.0144
  160SAPE   O1417798   0.376   1.879   2.799 -0.7674 -0.3812  0.0476
  160SAPE   O1217799   0.404   1.756   2.585  0.2944  0.4365  0.3715
  160SAPE   O1117800   0.522   1.671   2.772  0.3514 -0.8493 -0.3746
  160SAPE    C117801   0.643   1.674   2.854 -0.0975  0.3991 -0.3683
  160SAPE    HA17802   0.721   1.613   2.804  0.7086  1.6921 -0.7102
  160SAPE    HB17803   0.677   1.778   2.873  0.0404  0.3940 -0.5923
  160SAPE    C217804   0.625   1.615   3.001  0.6500  0.2481  0.2351
  160SAPE    HS17805   0.584   1.512   2.992  3.0576 -0.9680  1.8152
  160SAPE   O2117806   0.546   1.701   3.088 -0.4439  0.0548  0.4608
  160SAPE   C2117807   0.421   1.670   3.088 -0.4887 -0.2557  0.1809
  160SAPE   O2217808   0.366   1.594   3.006 -0.7226 -0.0548  0.0660
  160SAPE   C2217809   0.346   1.763   3.192  0.0884  0.1827 -0.2457
  160SAPE   H2R17810   0.382   1.724   3.290  0.5892  1.4636  0.0970
  160SAPE   H2S17811   0.375   1.869   3.180 -1.5605  0.8676  1.2936
  160SAPE    C317812   0.764   1.588   3.067  0.4973 -0.2416 -0.1621
  160SAPE    HX17813   0.810   1.686   3.089  2.1044 -1.1872  0.8561
  160SAPE    HY17814   0.825   1.542   2.986  0.2274  0.4416 -0.7717
  160SAPE   O3117815   0.750   1.515   3.189  0.4881  0.0356  0.0275
  160SAPE   C3117816   0.825   1.553   3.287 -0.4098  0.3566  0.2142
  160SAPE   O3217817   0.913   1.635   3.285 -0.2618 -0.0165 -0.2824
  160SAPE   C3217818   0.806   1.443   3.386 -0.8024 -0.2482  0.0936
  160SAPE   H2X17819   0.841   1.348   3.340 -0.0212  0.0025  0.1523
  160SAPE   H2Y17820   0.697   1.434   3.406 -0.7497  1.7510  1.7469
  160SAPE   C2317821   0.187   1.753   3.183 -0.0184  0.4007  0.2241
  160SAPE   H3R17822   0.165   1.718   3.080  2.5550  0.2903 -0.3496
  160SAPE   H3S17823   0.150   1.857   3.191  1.5369  0.8833  1.9734
  160SAPE   C2417824   0.127   1.665   3.289 -0.2161  0.2035 -0.1719
  160SAPE   H4R17825   0.018   1.670   3.272 -0.6805 -1.7607  1.7255
  160SAPE   H4S17826   0.147   1.705   3.390 -0.6122 -2.2439  0.9386
  160SAPE   C2517827   0.164   1.519   3.280  0.0362  0.2532 -0.1387
  160SAPE   H5R17828   0.188   1.468   3.185  0.0189 -3.0363  1.4533
  160SAPE   C2617829   0.201   1.441   3.382  0.3498  0.3667 -0.3305
  160SAPE   H6R17830   0.224   1.335   3.364 -1.0601 -0.3846  1.7686
  160SAPE   C2717831   0.206   1.466   3.529  0.0530 -0.4254 -0.2406
  160SAPE   H7R17832   0.182   1.372   3.582  0.0445 -2.1625 -3.0882
  160SAPE   H7S17833   0.121   1.534   3.553 -1.2813 -2.1678  0.1911
  160SAPE   C2817834   0.330   1.543   3.573  0.4169  0.2750 -0.5026
  160SAPE   H8R17835   0.395   1.590   3.497  0.5417  0.8241 -0.0681
  160SAPE   C2917836   0.370   1.571   3.702 -0.4288  0.6883  0.6018
  160SAPE   H9R17837   0.463   1.628   3.720  1.1391 -1.8417  1.0777
  160SAPE  C21017838   0.290   1.530   3.824 -0.5388 -0.4303 -0.4570
  160SAPE  H10R17839   0.181   1.539   3.806 -0.5003 -0.5530 -0.7426
  160SAPE  H10S17840   0.316   1.610   3.897  2.4709 -0.7467 -1.0413
  160SAPE  C21117841   0.332   1.392   3.880  0.6380  0.5142 -0.2971
  160SAPE  H11R17842   0.298   1.316   3.807 -0.7067  1.2160 -0.4443
  160SAPE  C21217843   0.396   1.355   3.993  1.0252 -0.0035  0.5520
  160SAPE  H12R17844   0.398   1.249   4.022 -4.1050 -0.8234 -1.1525
  160SAPE  C21317845   0.450   1.450   4.094 -0.6140 -0.2863  0.0184
  160SAPE  H13R17846   0.416   1.430   4.198 -0.1112 -0.4337  0.1537
  160SAPE  H13S17847   0.418   1.554   4.073 -1.9412 -0.5956  0.3932
  160SAPE  C21417848   0.603   1.447   4.102 -0.2864 -0.3320  0.0046
  160SAPE  H14R17849   0.644   1.478   4.005 -1.1217 -1.1824 -0.6372
  160SAPE  C21517850   0.684   1.420   4.202  0.8183  0.0590 -0.6077
  160SAPE  H15R17851   0.791   1.428   4.178  0.4947  0.2573 -2.1047
  160SAPE  C21617852   0.640   1.380   4.346 -0.2971  0.6435  1.0804
  160SAPE  H16R17853   0.540   1.424   4.369 -1.8995 -1.9605 -0.4773
  160SAPE  H16S17854   0.713   1.410   4.424  0.2637  0.6517  0.5570
  160SAPE  C21717855   0.632   1.223   4.351 -0.3269  0.1809  0.1915
  160SAPE  H17R17856   0.737   1.189   4.338  0.2533  1.3624  1.5039
  160SAPE  H17S17857   0.563   1.179   4.275 -2.6563  0.8423  1.8350
  160SAPE  C21817858   0.592   1.162   4.489 -0.5722 -0.5046  0.2187
  160SAPE  H18R17859   0.499   1.209   4.528  0.9854  1.4533  1.7914
  160SAPE  H18S17860   0.671   1.201   4.557 -2.1215 -0.6517  2.1937
  160SAPE  C21917861   0.597   1.006   4.513  0.5291 -0.7803 -0.4958
  160SAPE  H19R17862   0.674   0.954   4.453 -1.4688 -3.8325 -0.6447
  160SAPE  H19S17863   0.507   0.962   4.466 -0.8699  0.2677  1.0575
  160SAPE  C22017864   0.599   0.965   4.662  0.5586 -0.9359 -0.3894
  160SAPE  H20R17865   0.700   0.970   4.709  0.9580 -1.2000 -1.2045
  160SAPE  H20S17866   0.560   0.862   4.667  1.0961 -1.1441  4.1368
  160SAPE  H20T17867   0.535   1.036   4.719 -0.9677 -3.1745  0.8270
  160SAPE   C3317868   0.871   1.485   3.521 -0.2174  0.6827 -0.4617
  160SAPE   H3X17869   0.813   1.562   3.576  2.0016  1.1642  1.3522
  160SAPE   H3Y17870   0.972   1.523   3.495  0.6056 -1.2035 -0.2299
  160SAPE   C3417871   0.892   1.363   3.611  0.9321 -0.5837 -0.3094
  160SAPE   H4X17872   0.983   1.378   3.672  1.4096 -0.0907 -1.1270
  160SAPE   H4Y17873   0.910   1.269   3.553 -1.0511 -1.3667  0.2435
  160SAPE   C3517874   0.775   1.340   3.712  0.1104  0.0078  0.6014
  160SAPE   H5X17875   0.680   1.337   3.654 -0.1475  1.6599  0.8824
  160SAPE   H5Y17876   0.769   1.429   3.778  0.9397  2.1896 -2.0357
  160SAPE   C3617877   0.801   1.217   3.795 -0.0458  0.3325 -0.7426
  160SAPE   H6X17878   0.890   1.236   3.859 -0.4133 -2.3872  0.7374
  160SAPE   H6Y17879   0.821   1.134   3.724 -0.8937  0.5907 -1.2873
  160SAPE   C3717880   0.675   1.182   3.873 -0.7261  0.2579  0.1047
  160SAPE   H7X17881   0.599   1.174   3.793 -0.5657  0.2980 -0.0529
  160SAPE   H7Y17882   0.646   1.276   3.925  0.4710  1.6183 -1.5670
  160SAPE   C3817883   0.672   1.052   3.963  0.7006 -0.1362 -0.3883
  160SAPE   H8X17884   0.743   1.068   4.046  2.1129 -0.2802 -1.5380
  160SAPE   H8Y17885   0.709   0.967   3.901 -0.1524 -1.2410  0.5636
  160SAPE   C3917886   0.535   0.997   4.007 -0.2944  0.5423  0.2938
  160SAPE   H9X17887   0.478   1.016   3.914  0.3360  2.0839  0.1904
  160SAPE   H9Y17888   0.500   1.074   4.079  1.5010  1.9332 -0.2502
  160SAPE  C31017889   0.518   0.852   4.045 -0.3921 -0.0405  0.6418
  160SAPE  H10X17890   0.580   0.797   3.971  0.5277 -0.0781  1.4140
  160SAPE  H10Y17891   0.413   0.822   4.027 -0.0598 -2.0622  1.7618
  160SAPE  C31117892   0.574   0.808   4.176 -0.4791  0.4689  0.0836
  160SAPE  H11X17893   0.485   0.791   4.241 -0.3845 -0.3276  0.0129
  160SAPE  H11Y17894   0.641   0.875   4.233  0.0846  0.2110 -0.2691
  160SAPE  C31217895   0.653   0.679   4.173 -0.0987  0.2098  0.0763
  160SAPE  H12X17896   0.727   0.687   4.090  0.3924  0.4025  0.5338
  160SAPE  H12Y17897   0.584   0.596   4.146  0.5245 -0.1346 -0.4767
  160SAPE  C31317898   0.720   0.642   4.307 -0.1647 -0.2123  0.4250
  160SAPE  H13X17899   0.768   0.735   4.344 -1.0786  1.0023 -1.2727
  160SAPE  H13Y17900   0.803   0.571   4.289  2.0402  1.4063  3.2590
  160SAPE  C31417901   0.625   0.589   4.411 -0.0120  0.0675  0.4290
  160SAPE  H14X17902   0.562   0.518   4.354  1.7744  0.2602 -1.9080
  160SAPE  H14Y17903   0.551   0.662   4.451 -1.9520 -2.4246  1.6863
  160SAPE  C31517904   0.689   0.520   4.532  0.0644 -0.0899  0.2130
  160SAPE  H15X17905   0.755   0.437   4.500  1.9134 -0.0167  3.4869
  160SAPE  H15Y17906   0.620   0.478   4.608  1.1756 -0.5628  0.9849
  160SAPE  C31617907   0.786   0.617   4.602 -0.1015  0.4201  0.4507
  160SAPE  H16X17908   0.741   0.718   4.589 -1.6156 -0.3860 -1.0373
  160SAPE  H16Y17909   0.871   0.610   4.531 -1.2954  0.0143 -0.9928
  160SAPE  C31717910   0.811   0.578   4.750 -0.1849  0.7623  0.0900
  160SAPE  H17X17911   0.714   0.565   4.803  0.5309 -0.4254  1.1464
  160SAPE  H17Y17912   0.879   0.654   4.794 -0.4969  0.7434  0.6199
  160SAPE  C31817913   0.872   0.436   4.763  0.3360  0.5017 -0.0160
  160SAPE  H18X17914   0.912   0.431   4.867 -0.0117 -1.3042  0.0551
  160SAPE  H18Y17915   0.952   0.415   4.689  1.2497  1.0291  0.7966
  160SAPE  H18Z17916   0.793   0.358   4.760  0.6267  0.1797  0.4745
  161SAPE     N17917   5.780   5.188   3.012 -0.2515 -0.1299 -0.1087
  161SAPE   HN117918   5.841   5.225   3.088 -0.1796 -0.1452 -0.1588
  161SAPE   HN217919   5.694   5.137   3.042 -1.8832  0.7649 -2.9460
  161SAPE   HN317920   5.840   5.123   2.958  0.8657 -1.6340  2.7165
  161SAPE   C1217921   5.733   5.313   2.942 -0.2915  0.2980  0.5359
  161SAPE  H12A17922   5.680   5.286   2.848 -2.2088  0.5342  1.5006
  161SAPE  H12B17923   5.825   5.367   2.912  2.2563 -3.8791  0.0459
  161SAPE   C1117924   5.650   5.400   3.041 -0.1207  0.0597  0.4212
  161SAPE  H11A17925   5.560   5.341   3.066  1.2979 -2.4705 -0.0356
  161SAPE  H11B17926   5.617   5.498   3.002 -2.0767 -0.6698  0.1662
  161SAPE     P17927   5.787   5.539   3.211  0.2488  0.5191  0.0425
  161SAPE   O1317928   5.884   5.496   3.313 -0.4505 -0.0301 -0.0896
  161SAPE   O1417929   5.841   5.612   3.095 -0.7255 -0.9068 -0.3556
  161SAPE   O1217930   5.717   5.409   3.165 -0.0129 -0.1736  0.2378
  161SAPE   O1117931   5.682   5.627   3.278 -0.2488  0.0450  0.4681
  161SAPE    C117932   5.558   5.575   3.320 -0.0030  0.1044 -1.0872
  161SAPE    HA17933   5.473   5.617   3.262 -0.7010  2.7446  1.6107
  161SAPE    HB17934   5.554   5.464   3.320  1.2500  0.0017  1.2913
  161SAPE    C217935   5.529   5.629   3.462 -0.4569  0.5457 -0.6596
  161SAPE    HS17936   5.520   5.739   3.456  1.2097  0.8875  1.5882
  161SAPE   O2117937   5.622   5.585   3.560 -0.1278 -0.5570 -0.1320
  161SAPE   C2117938   5.715   5.678   3.572  0.1321  0.4803  0.4379
  161SAPE   O2217939   5.713   5.788   3.517 -0.1347  0.2160  0.2104
  161SAPE   C2217940   5.828   5.621   3.659  0.5918 -0.2652  0.6094
  161SAPE   H2R17941   5.799   5.532   3.718  1.2834 -0.3856  0.7779
  161SAPE   H2S17942   5.901   5.591   3.581 -0.3168 -3.3693  0.8450
  161SAPE    C317943   5.397   5.565   3.507  0.0677 -0.0503 -0.0231
  161SAPE    HX17944   5.417   5.456   3.503  0.0240 -0.2678  3.0358
  161SAPE    HY17945   5.310   5.593   3.443  0.6927  0.4007 -0.6879
  161SAPE   O3117946   5.368   5.602   3.643 -0.4781  1.1550 -0.2468
  161SAPE   C3117947   5.284   5.514   3.706 -0.0591 -0.4894  0.0294
  161SAPE   O3217948   5.225   5.426   3.648  0.6044  0.0035  0.0378
  161SAPE   C3217949   5.278   5.541   3.853 -0.2246  0.6642 -0.0951
  161SAPE   H2X17950   5.251   5.643   3.889 -2.2111  0.6417 -1.3628
  161SAPE   H2Y17951   5.381   5.537   3.895 -1.5592 -0.3036  3.4369
  161SAPE   C2317952   5.881   5.723   3.758  0.7192  0.2502  0.2153
  161SAPE   H3R17953   5.867   5.826   3.719  0.3483 -0.2146 -0.9046
  161SAPE   H3S17954   5.989   5.700   3.774  0.9602  2.0852  1.5981
  161SAPE   C2417955   5.818   5.702   3.896 -0.1816 -0.5463 -0.0863
  161SAPE   H4R17956   5.870   5.780   3.956 -1.9753  1.7105 -1.3407
  161SAPE   H4S17957   5.849   5.600   3.929 -2.0741 -0.6972  1.4474
  161SAPE   C2517958   5.665   5.715   3.903  0.5915  0.2341  0.1631
  161SAPE   H5R17959   5.614   5.710   3.805 -0.3092 -1.3514  0.6665
  161SAPE   C2617960   5.595   5.695   4.017  0.4793 -0.2319 -0.9173
  161SAPE   H6R17961   5.485   5.688   4.011  0.4253 -1.8759  1.0621
  161SAPE   C2717962   5.656   5.680   4.159  0.6286 -0.1991  0.4763
  161SAPE   H7R17963   5.713   5.767   4.197 -0.9439  0.0287  2.5175
  161SAPE   H7S17964   5.734   5.601   4.150  1.5784  0.8041 -0.2473
  161SAPE   C2817965   5.554   5.642   4.261  0.1949  0.6675 -0.3834
  161SAPE   H8R17966   5.472   5.586   4.213 -1.9856  2.8898  0.5658
  161SAPE   C2917967   5.564   5.650   4.395 -0.9296 -0.1116 -0.5452
  161SAPE   H9R17968   5.482   5.611   4.457 -0.5069 -3.4115 -1.8024
  161SAPE  C21017969   5.676   5.702   4.481 -0.8729  0.5838 -0.2661
  161SAPE  H10R17970   5.646   5.799   4.527  0.0595  0.0004  1.6702
  161SAPE  H10S17971   5.756   5.724   4.407 -0.9015 -0.5410 -0.6457
  161SAPE  C21117972   5.717   5.597   4.579 -0.0859  0.6924 -0.0687
  161SAPE  H11R17973   5.727   5.496   4.537  0.1376 -0.0614  1.6868
  161SAPE  C21217974   5.743   5.620   4.712 -0.1783 -0.1462 -0.0300
  161SAPE  H12R17975   5.773   5.535   4.774  1.3830 -0.3653 -1.0505
  161SAPE  C21317976   5.728   5.748   4.787 -0.4426  0.0621 -0.6523
  161SAPE  H13R17977   5.660   5.817   4.733  1.4439  2.5377 -0.0305
  161SAPE  H13S17978   5.827   5.795   4.807 -1.0757  0.7965  0.9486
  161SAPE  C21417979   5.677   5.719   4.927  0.9462  0.0599  0.5839
  161SAPE  H14R17980   5.637   5.617   4.940  3.9391 -1.2167  0.5472
  161SAPE  C21517981   5.667   5.793   5.038  0.9740 -0.2036  0.6082
  161SAPE  H15R17982   5.613   5.754   5.125  1.8133  0.0696  1.2593
  161SAPE  C21617983   5.702   5.934   5.042  0.2427 -0.2631  0.0673
  161SAPE  H16R17984   5.764   5.972   4.958 -0.3567  0.8823  0.1178
  161SAPE  H16S17985   5.757   5.949   5.138 -0.0334  1.2422  0.0176
  161SAPE  C21717986   5.577   6.023   5.037  0.5573 -0.1280  0.2012
  161SAPE  H17R17987   5.516   6.011   5.129  1.0144  1.9621  0.8356
  161SAPE  H17S17988   5.509   6.002   4.952  1.3185 -1.5177 -0.0903
  161SAPE  C21817989   5.609   6.175   5.009 -0.1687  0.7391 -0.4110
  161SAPE  H18R17990   5.701   6.202   5.066  0.9718 -0.1297 -1.7851
  161SAPE  H18S17991   5.518   6.233   5.035 -1.1767 -0.9746  0.0497
  161SAPE  C21917992   5.636   6.199   4.860 -0.7394 -0.1358 -0.4550
  161SAPE  H19R17993   5.567   6.132   4.803 -0.6554 -2.3311  1.8631
  161SAPE  H19S17994   5.738   6.168   4.831 -1.3447 -1.3940 -1.3554
  161SAPE  C22017995   5.628   6.340   4.817  0.3848 -0.0949 -0.5255
  161SAPE  H20R17996   5.527   6.378   4.793  0.3960  0.6574  0.5612
  161SAPE  H20S17997   5.692   6.372   4.732  1.2523  0.8958  0.4608
  161SAPE  H20T17998   5.674   6.407   4.893 -0.4794 -0.4824  0.3559
  161SAPE   C3317999   5.214   5.434   3.933 -0.3696  0.0604  0.1239
  161SAPE   H3X18000   5.257   5.336   3.903 -0.0480  0.4765 -0.8275
  161SAPE   H3Y18001   5.105   5.434   3.910 -0.0825 -0.4901 -1.3599
  161SAPE   C3418002   5.247   5.438   4.083 -0.6645 -0.7247  0.1107
  161SAPE   H4X18003   5.216   5.535   4.125 -2.0552 -1.0647 -0.1018
  161SAPE   H4Y18004   5.356   5.420   4.100 -0.3059  0.1063 -1.1793
  161SAPE   C3518005   5.169   5.328   4.158  0.4412  0.2433 -0.0996
  161SAPE   H5X18006   5.188   5.224   4.123  0.6844 -0.4698  2.0091
  161SAPE   H5Y18007   5.062   5.344   4.137  0.6665  0.3768 -1.2212
  161SAPE   C3618008   5.179   5.340   4.306  0.4569 -0.8834  0.1560
  161SAPE   H6X18009   5.167   5.447   4.330 -0.4670 -0.1739 -3.0462
  161SAPE   H6Y18010   5.283   5.323   4.343  0.6374  2.4508  1.5187
  161SAPE   C3718011   5.085   5.255   4.399  0.2629  0.1582  0.3874
  161SAPE   H7X18012   4.986   5.304   4.402 -0.1171 -0.4214 -1.3986
  161SAPE   H7Y18013   5.111   5.248   4.507  0.6003  0.4574  0.3258
  161SAPE   C3818014   5.083   5.102   4.357  0.3785  0.1566 -0.6040
  161SAPE   H8X18015   5.055   5.099   4.250  1.4912 -2.1606 -0.8929
  161SAPE   H8Y18016   5.013   5.051   4.426 -0.3115  2.3178  0.3978
  161SAPE   C3918017   5.215   5.029   4.375 -0.3310  0.0842  0.1824
  161SAPE   H9X18018   5.253   5.039   4.479 -0.9226 -0.5726  0.4687
  161SAPE   H9Y18019   5.293   5.081   4.316 -2.4237  1.7398 -1.3054
  161SAPE  C31018020   5.220   4.884   4.323  0.2964  0.1551 -0.0430
  161SAPE  H10X18021   5.322   4.845   4.342  0.1574 -0.9431 -1.3520
  161SAPE  H10Y18022   5.214   4.884   4.212  0.4636 -1.6929 -0.0876
  161SAPE  C31118023   5.109   4.791   4.370  0.6192  0.4174 -0.3027
  161SAPE  H11X18024   5.012   4.843   4.354  0.5134  0.2144 -0.3193
  161SAPE  H11Y18025   5.118   4.773   4.480 -0.7402 -0.5906 -0.3285
  161SAPE  C31218026   5.104   4.654   4.315 -0.2098  0.2077 -0.0109
  161SAPE  H12X18027   5.195   4.601   4.350  0.7844  0.2840 -2.2966
  161SAPE  H12Y18028   5.112   4.657   4.204 -2.0782 -0.9018 -0.2109
  161SAPE  C31318029   4.979   4.564   4.341 -1.1272 -0.8247 -0.3460
  161SAPE  H13X18030   4.999   4.458   4.313 -0.3576 -0.8550  0.2659
  161SAPE  H13Y18031   4.902   4.600   4.270 -1.8431 -1.1427  0.2547
  161SAPE  C31418032   4.924   4.574   4.479  0.1658  0.4476  0.2965
  161SAPE  H14X18033   4.899   4.681   4.497  2.6725  1.2472 -0.5850
  161SAPE  H14Y18034   4.994   4.543   4.560  1.4388  0.2699 -0.8414
  161SAPE  C31518035   4.800   4.502   4.509 -0.5348  0.7415  0.0599
  161SAPE  H15X18036   4.788   4.501   4.620 -0.0155 -2.4881  0.2013
  161SAPE  H15Y18037   4.799   4.392   4.493  1.4166  0.4701  1.4211
  161SAPE  C31618038   4.675   4.552   4.426  1.1892  0.5049  0.6089
  161SAPE  H16X18039   4.591   4.479   4.431  0.2557  1.5413  0.3370
  161SAPE  H16Y18040   4.705   4.554   4.319 -1.5028  0.7551 -0.2236
  161SAPE  C31718041   4.634   4.697   4.458  0.2566 -0.6019 -0.5619
  161SAPE  H17X18042   4.572   4.732   4.372  1.9946  1.6055 -1.0086
  161SAPE  H17Y18043   4.721   4.766   4.456  0.7679 -1.1260  1.7497
  161SAPE  C31818044   4.563   4.704   4.591 -0.1409 -0.0177  0.3517
  161SAPE  H18X18045   4.475   4.638   4.579  0.0294 -0.0641 -0.7526
  161SAPE  H18Y18046   4.528   4.806   4.619 -1.0070 -0.5310  1.2033
  161SAPE  H18Z18047   4.629   4.665   4.672  0.7886  3.4189  1.4174
  162SAPE     N18048   6.417   0.450   2.674  0.0862  0.5200  0.7632
  162SAPE   HN118049   6.338   0.427   2.611 -0.2610  1.6799  0.7401
  162SAPE   HN218050   6.454   0.530   2.617 -1.5385  0.1095 -0.9872
  162SAPE   HN318051   6.492   0.379   2.667  0.1036  0.6642 -1.3503
  162SAPE   C1218052   6.369   0.488   2.810 -0.0414 -1.0828  0.3672
  162SAPE  H12A18053   6.444   0.555   2.858 -0.1616 -0.6535 -0.0391
  162SAPE  H12B18054   6.339   0.393   2.861  0.0107 -1.7860 -0.8796
  162SAPE   C1118055   6.236   0.561   2.796 -0.5308 -0.3419 -0.6363
  162SAPE  H11A18056   6.201   0.583   2.899  1.8489  2.9125 -0.3799
  162SAPE  H11B18057   6.169   0.488   2.745 -0.5553  0.6833 -2.1296
  162SAPE     P18058   6.280   0.819   2.742 -0.5297  0.4162  0.2004
  162SAPE   O1318059   6.422   0.829   2.730 -0.4480 -0.1609  0.0968
  162SAPE   O1418060   6.193   0.905   2.660 -0.4143  0.0591  0.4852
  162SAPE   O1218061   6.245   0.674   2.710  0.4158 -1.2295 -0.0859
  162SAPE   O1118062   6.242   0.827   2.899 -0.3927 -0.0970 -0.5482
  162SAPE    C118063   6.104   0.830   2.941  0.7791  0.1686  0.1872
  162SAPE    HA18064   6.034   0.867   2.863 -0.4401 -3.6987 -0.7641
  162SAPE    HB18065   6.070   0.725   2.951 -2.2088  1.0982  0.7164
  162SAPE    C218066   6.085   0.902   3.075  0.0960  0.4747  0.1787
  162SAPE    HS18067   6.121   1.005   3.056 -2.9223  1.4816 -0.7341
  162SAPE   O2118068   6.161   0.830   3.174  0.4178  0.1424  0.1022
  162SAPE   C2118069   6.225   0.901   3.263  0.3304  0.1348  0.2830
  162SAPE   O2218070   6.228   1.024   3.265  0.0307 -0.4406  0.4424
  162SAPE   C2218071   6.310   0.798   3.339 -0.6256  0.9160  0.1290
  162SAPE   H2R18072   6.247   0.714   3.376  0.7774 -0.3504 -0.2874
  162SAPE   H2S18073   6.392   0.761   3.274 -2.1297 -1.3448 -0.6315
  162SAPE    C318074   5.941   0.913   3.123  0.6934  0.0101  0.0155
  162SAPE    HX18075   5.894   0.813   3.127  0.6232  0.0772  3.3236
  162SAPE    HY18076   5.901   0.978   3.042 -0.1674  0.6938  0.9586
  162SAPE   O3118077   5.928   0.985   3.248  0.4509  0.1485 -0.0937
  162SAPE   C3118078   5.800   1.015   3.280  0.4234 -0.0272  0.0511
  162SAPE   O3218079   5.696   0.973   3.227 -0.5609 -0.0825 -0.0786
  162SAPE   C3218080   5.796   1.114   3.399 -0.5315 -0.0841  0.3409
  162SAPE   H2X18081   5.795   1.219   3.365 -2.9837  0.5498  2.0779
  162SAPE   H2Y18082   5.892   1.105   3.453 -0.1557 -0.6110 -0.3966
  162SAPE   C2318083   6.385   0.858   3.461  0.6019  0.6320  0.1489
  162SAPE   H3R18084   6.311   0.915   3.521  0.9910  0.6842  0.5874
  162SAPE   H3S18085   6.467   0.927   3.431 -2.0592  3.6776 -0.7024
  162SAPE   C2418086   6.439   0.741   3.546  0.4981  0.4937  0.3788
  162SAPE   H4R18087   6.515   0.687   3.486 -0.3457 -1.5924  1.1105
  162SAPE   H4S18088   6.357   0.668   3.567  2.4159 -1.9937 -0.3256
  162SAPE   C2518089   6.489   0.785   3.678  0.1569  0.2172 -0.5845
  162SAPE   H5R18090   6.491   0.895   3.676 -0.6793  0.2229 -1.1974
  162SAPE   C2618091   6.497   0.719   3.801 -0.4569  0.0584  0.4194
  162SAPE   H6R18092   6.498   0.783   3.890 -0.1760  1.1091 -0.3305
  162SAPE   C2718093   6.471   0.574   3.823 -0.0052  0.0282  0.4419
  162SAPE   H7R18094   6.472   0.522   3.724  3.0679 -2.1164  1.4793
  162SAPE   H7S18095   6.364   0.559   3.849 -0.2761  0.4085 -0.4114
  162SAPE   C2818096   6.568   0.514   3.916  0.3419  0.8225  0.0527
  162SAPE   H8R18097   6.653   0.468   3.862 -0.0356 -0.6512  0.6481
  162SAPE   C2918098   6.563   0.483   4.049  0.3660  0.3195 -0.1985
  162SAPE   H9R18099   6.639   0.420   4.098 -1.2888 -2.0493 -0.5161
  162SAPE  C21018100   6.446   0.532   4.131  0.8792  0.0761  0.0672
  162SAPE  H10R18101   6.408   0.442   4.185  2.7904 -0.4151  0.6766
  162SAPE  H10S18102   6.368   0.572   4.064  2.3036  1.0698 -1.0587
  162SAPE  C21118103   6.489   0.642   4.227 -0.5549  0.0237 -0.3064
  162SAPE  H11R18104   6.499   0.743   4.185 -1.6213 -0.0441 -0.7393
  162SAPE  C21218105   6.516   0.618   4.356  0.1600  0.4098  0.7383
  162SAPE  H12R18106   6.544   0.700   4.424 -3.9125  0.9362  2.0700
  162SAPE  C21318107   6.486   0.491   4.432 -0.4562  0.4832 -0.3756
  162SAPE  H13R18108   6.383   0.457   4.409  0.1380 -1.0970 -0.7969
  162SAPE  H13S18109   6.473   0.503   4.542  0.2469 -2.9429  0.1696
  162SAPE  C21418110   6.587   0.387   4.396 -0.1391  0.3718 -0.2706
  162SAPE  H14R18111   6.569   0.330   4.304  2.8252 -0.7570 -0.2365
  162SAPE  C21518112   6.684   0.351   4.483  0.2705  0.1513  0.1669
  162SAPE  H15R18113   6.747   0.264   4.461  0.2398 -0.5854  2.6922
  162SAPE  C21618114   6.718   0.419   4.614 -0.8399  1.0572  0.1076
  162SAPE  H16R18115   6.700   0.528   4.604  2.4311  1.5160 -2.3696
  162SAPE  H16S18116   6.828   0.412   4.623 -0.7166  0.5934 -1.4901
  162SAPE  C21718117   6.650   0.352   4.741 -0.1506  0.2647  0.2045
  162SAPE  H17R18118   6.686   0.247   4.746  2.1808  0.7628 -3.0625
  162SAPE  H17S18119   6.542   0.332   4.727 -0.0636 -2.2419  2.2193
  162SAPE  C21818120   6.663   0.434   4.864  0.0832 -0.0142 -0.7297
  162SAPE  H18R18121   6.603   0.524   4.836 -0.8426 -1.1238 -2.5331
  162SAPE  H18S18122   6.771   0.448   4.884  0.3264 -3.6839  1.3183
  162SAPE  C21918123   6.598   0.366   4.991  0.1785  0.3949  0.3260
  162SAPE  H19R18124   6.600   0.438   5.075  0.3331 -1.8373  2.3432
  162SAPE  H19S18125   6.665   0.282   5.020  1.9784  1.5946 -0.1139
  162SAPE  C22018126   6.451   0.310   4.969 -0.1324  0.2383  0.2518
  162SAPE  H20R18127   6.414   0.272   5.066 -0.5652 -1.1147 -0.4196
  162SAPE  H20S18128   6.452   0.232   4.890 -0.6995  0.8389 -0.3574
  162SAPE  H20T18129   6.391   0.396   4.933  0.0543  0.1515 -0.2773
  162SAPE   C3318130   5.667   1.098   3.483 -0.1413  0.3110 -0.1426
  162SAPE   H3X18131   5.638   0.993   3.500  1.2596  0.0006  0.4941
  162SAPE   H3Y18132   5.580   1.146   3.434  0.5043  0.7550 -0.8679
  162SAPE   C3418133   5.678   1.159   3.620  0.3419 -0.1010 -0.3981
  162SAPE   H4X18134   5.574   1.167   3.658  0.5984 -1.4957  0.6851
  162SAPE   H4Y18135   5.719   1.262   3.627 -1.5130  0.6080  0.5279
  162SAPE   C3518136   5.762   1.081   3.722 -0.1939 -0.0815  0.7557
  162SAPE   H5X18137   5.866   1.066   3.687 -0.2277 -0.7338  0.9193
  162SAPE   H5Y18138   5.712   0.981   3.726 -0.5859 -0.0434 -1.8707
  162SAPE   C3618139   5.768   1.136   3.863  1.1516  0.4391  0.0549
  162SAPE   H6X18140   5.670   1.172   3.901  0.7344 -2.0645  1.5513
  162SAPE   H6Y18141   5.839   1.221   3.855  0.4308  1.3939  2.6795
  162SAPE   C3718142   5.813   1.034   3.963 -0.2598 -0.0552 -0.3779
  162SAPE   H7X18143   5.915   1.001   3.935  1.4692  1.7457  3.0535
  162SAPE   H7Y18144   5.738   0.953   3.953  0.0136 -0.7540  2.2657
  162SAPE   C3818145   5.825   1.092   4.104  0.6340  0.0525  0.1002
  162SAPE   H8X18146   5.733   1.135   4.149  1.7097  1.6771  0.8253
  162SAPE   H8Y18147   5.899   1.175   4.106 -0.6725  1.4647 -3.3635
  162SAPE   C3918148   5.882   0.989   4.204  0.0796  0.1435 -0.6533
  162SAPE   H9X18149   5.990   0.984   4.178 -0.3757  0.5164 -2.8491
  162SAPE   H9Y18150   5.832   0.894   4.177 -1.3087  0.6457  0.0912
  162SAPE  C31018151   5.860   1.039   4.342  0.4502  0.5340 -0.2024
  162SAPE  H10X18152   5.921   0.964   4.397 -2.3289 -1.1823  0.7058
  162SAPE  H10Y18153   5.755   1.021   4.374  0.4293  0.4696 -0.3062
  162SAPE  C31118154   5.906   1.182   4.384 -0.0247  0.8999  0.5797
  162SAPE  H11X18155   5.844   1.261   4.337 -2.6652 -1.6038 -0.4790
  162SAPE  H11Y18156   6.014   1.191   4.356 -0.1620  2.1004  0.4158
  162SAPE  C31218157   5.884   1.204   4.533  0.4987 -0.1725 -1.0913
  162SAPE  H12X18158   5.775   1.209   4.556  0.9144  3.3562  0.7019
  162SAPE  H12Y18159   5.913   1.303   4.574 -0.4422 -0.5072  0.4800
  162SAPE  C31318160   5.924   1.091   4.628 -0.1183  0.3260 -0.1569
  162SAPE  H13X18161   6.030   1.067   4.601  0.2074 -2.2761  2.8712
  162SAPE  H13Y18162   5.856   1.003   4.622 -1.3584  1.3456 -1.7418
  162SAPE  C31418163   5.927   1.146   4.774  0.5643 -0.2321  0.2630
  162SAPE  H14X18164   5.927   1.060   4.844  2.2999  1.3355  2.3446
  162SAPE  H14Y18165   5.831   1.202   4.780  0.6586 -0.0550  0.1419
  162SAPE  C31518166   6.044   1.238   4.804 -0.0280  0.3620 -0.4649
  162SAPE  H15X18167   6.044   1.306   4.715  2.3810  0.2676 -0.6006
  162SAPE  H15Y18168   6.136   1.177   4.791 -0.2243  0.2097 -1.2013
  162SAPE  C31618169   6.033   1.319   4.934 -0.2200 -0.4174 -0.1467
  162SAPE  H16X18170   6.053   1.253   5.022  2.2500 -0.3626 -0.6055
  162SAPE  H16Y18171   5.929   1.358   4.939 -0.5960 -1.4640  1.0159
  162SAPE  C31718172   6.131   1.435   4.945 -0.2837  0.1623  0.1180
  162SAPE  H17X18173   6.097   1.521   4.883 -0.0032 -0.1404 -0.4696
  162SAPE  H17Y18174   6.230   1.393   4.917 -1.3846 -1.2053 -1.9809
  162SAPE  C31818175   6.131   1.490   5.089 -0.4016  0.0597  0.2468
  162SAPE  H18X18176   6.193   1.580   5.109  1.2336 -0.8381 -0.6156
  162SAPE  H18Y18177   6.160   1.409   5.159 -1.3735 -0.0940  0.4910
  162SAPE  H18Z18178   6.023   1.515   5.100 -0.2965  1.0365 -0.7429
  163SAPE     N18179   4.475   0.364   1.982  0.7142  0.2666  0.0100
  163SAPE   HN118180   4.461   0.449   2.040  0.7861  1.5263 -1.7149
  163SAPE   HN218181   4.520   0.396   1.894 -1.0613 -0.3117 -1.1749
  163SAPE   HN318182   4.380   0.323   1.971  1.2803 -1.4498  1.1818
  163SAPE   C1218183   4.560   0.275   2.065  0.1851  0.1683  0.4560
  163SAPE  H12A18184   4.651   0.335   2.090 -0.1830  0.6872  0.5823
  163SAPE  H12B18185   4.599   0.182   2.019 -2.7608 -2.2477  2.4160
  163SAPE   C1118186   4.490   0.236   2.198  0.2489  0.2513 -0.2312
  163SAPE  H11A18187   4.563   0.183   2.263 -3.3773 -1.2370  3.0256
  163SAPE  H11B18188   4.409   0.176   2.154  1.7821 -0.9541 -1.4980
  163SAPE     P18189   4.365   0.364   2.395 -0.1412 -0.3747  0.1011
  163SAPE   O1318190   4.397   0.500   2.439  0.1983  0.3785 -0.4870
  163SAPE   O1418191   4.221   0.338   2.365 -0.2098  0.2055  0.5155
  163SAPE   O1218192   4.446   0.349   2.260 -0.1100  0.0506 -0.4083
  163SAPE   O1118193   4.428   0.249   2.489 -0.0683  0.1436  0.2390
  163SAPE    C118194   4.553   0.264   2.551 -0.0545 -0.0184 -0.0484
  163SAPE    HA18195   4.631   0.206   2.497 -0.3091 -1.0434  0.6599
  163SAPE    HB18196   4.587   0.370   2.548  0.3559 -0.1503 -0.1178
  163SAPE    C218197   4.565   0.230   2.704  0.4571 -0.0248 -0.5642
  163SAPE    HS18198   4.527   0.307   2.774  1.6535  1.9380 -1.9725
  163SAPE   O2118199   4.702   0.192   2.725 -0.1701 -0.3238 -0.0315
  163SAPE   C2118200   4.782   0.290   2.744 -0.1753  0.2712  0.0581
  163SAPE   O2218201   4.751   0.406   2.731 -0.1053 -0.1163 -0.3816
  163SAPE   C2218202   4.919   0.232   2.788 -0.1133  0.0635  0.3307
  163SAPE   H2R18203   4.904   0.144   2.854 -2.7870 -0.2090 -0.5246
  163SAPE   H2S18204   4.956   0.204   2.687 -0.0695  0.1755  0.3162
  163SAPE    C318205   4.476   0.104   2.744  0.5269  0.2275 -0.0417
  163SAPE    HX18206   4.521   0.019   2.688  1.2291 -0.1586  1.0696
  163SAPE    HY18207   4.370   0.122   2.717  0.2883 -1.4986 -0.3872
  163SAPE   O3118208   4.481   0.102   2.888 -0.2616 -0.1311 -0.0990
  163SAPE   C3118209   4.536  -0.009   2.937  0.0794  0.4135  0.0830
  163SAPE   O3218210   4.567  -0.111   2.873  0.5562  0.1645  0.1236
  163SAPE   C3218211   4.559   0.012   3.088 -0.4034 -0.0473  0.0120
  163SAPE   H2X18212   4.615   0.108   3.098  0.7029 -0.8799  2.5292
  163SAPE   H2Y18213   4.624  -0.072   3.121 -0.0744  0.5033  0.7863
  163SAPE   C2318214   5.018   0.333   2.849 -0.6745  0.3813 -0.1409
  163SAPE   H3R18215   5.007   0.434   2.804  1.0901  0.6016 -0.1520
  163SAPE   H3S18216   5.120   0.290   2.835 -0.7762 -0.8231  2.3070
  163SAPE   C2418217   5.002   0.340   3.008  0.2673  0.3801  0.4025
  163SAPE   H4R18218   5.092   0.392   3.049  0.3588  2.4523 -2.1648
  163SAPE   H4S18219   5.009   0.241   3.057 -0.0882  0.3977  0.4873
  163SAPE   C2518220   4.876   0.415   3.051 -0.2256 -0.2373  0.0093
  163SAPE   H5R18221   4.823   0.469   2.972 -0.9411 -0.9259  0.0022
  163SAPE   C2618222   4.830   0.423   3.177 -0.0883  0.2495  0.0027
  163SAPE   H6R18223   4.746   0.494   3.187  0.2105  0.7866 -1.0938
  163SAPE   C2718224   4.878   0.368   3.310  0.2946  0.1908  0.8447
  163SAPE   H7R18225   4.944   0.279   3.303 -0.5023 -0.2989 -1.6116
  163SAPE   H7S18226   4.785   0.331   3.358 -0.5865  0.8440 -0.3007
  163SAPE   C2818227   4.944   0.475   3.397 -0.4862 -0.2158  0.3360
  163SAPE   H8R18228   4.955   0.580   3.368  3.1722 -0.1074  1.5735
  163SAPE   C2918229   5.004   0.453   3.523  0.3381 -0.7820  0.1460
  163SAPE   H9R18230   5.043   0.540   3.578 -0.2239  0.2340 -1.0215
  163SAPE  C21018231   5.011   0.327   3.595 -0.1721  0.0851 -0.8854
  163SAPE  H10R18232   5.102   0.326   3.659 -1.3862  1.2156  0.9314
  163SAPE  H10S18233   5.021   0.236   3.532 -2.3693 -0.9947  0.2165
  163SAPE  C21118234   4.889   0.309   3.686 -0.1838 -0.3528  0.1616
  163SAPE  H11R18235   4.803   0.266   3.633 -0.2514  0.1240 -0.1223
  163SAPE  C21218236   4.873   0.328   3.818 -0.3879 -0.0065  0.1007
  163SAPE  H12R18237   4.771   0.310   3.856 -0.9206  1.4882 -0.5387
  163SAPE  C21318238   4.957   0.381   3.927 -0.0860  0.3607  0.2696
  163SAPE  H13R18239   5.046   0.315   3.932 -0.4270 -0.0971  0.4717
  163SAPE  H13S18240   4.902   0.359   4.022 -1.2135 -2.1692 -0.8593
  163SAPE  C21418241   4.996   0.522   3.912  0.1746  0.2443 -0.1549
  163SAPE  H14R18242   4.950   0.572   3.825 -1.4449  0.4616  0.7908
  163SAPE  C21518243   5.047   0.606   4.008  0.1555 -0.0131  0.5220
  163SAPE  H15R18244   5.078   0.710   3.991 -2.4957  0.7398 -0.2202
  163SAPE  C21618245   5.083   0.549   4.142  0.9459  0.5328  1.3388
  163SAPE  H16R18246   5.171   0.601   4.185 -0.2032  1.4415  2.6962
  163SAPE  H16S18247   5.108   0.442   4.129 -0.2579  0.1292  2.0968
  163SAPE  C21718248   4.959   0.553   4.229 -0.1955 -0.2803  0.2076
  163SAPE  H17R18249   4.876   0.492   4.187  0.5714 -1.8878  0.9325
  163SAPE  H17S18250   4.922   0.657   4.236 -0.3298 -0.2317 -1.0467
  163SAPE  C21818251   4.999   0.495   4.365  0.6114  0.0930  0.5472
  163SAPE  H18R18252   5.084   0.546   4.415 -0.6725  2.6516  0.3219
  163SAPE  H18S18253   5.030   0.390   4.351  0.9733  0.3631 -0.8930
  163SAPE  C21918254   4.885   0.516   4.470 -0.1073  0.0923 -0.4870
  163SAPE  H19R18255   4.793   0.463   4.438 -0.9072  0.4710  1.0578
  163SAPE  H19S18256   4.862   0.625   4.471 -0.0664  0.1549 -2.6936
  163SAPE  C22018257   4.921   0.462   4.609 -0.0451  0.0712  0.0369
  163SAPE  H20R18258   4.836   0.473   4.680 -2.5385  0.7752 -2.8117
  163SAPE  H20S18259   5.009   0.522   4.638  0.5625 -0.3877 -0.8087
  163SAPE  H20T18260   4.936   0.352   4.602 -2.3663 -0.2279 -1.4350
  163SAPE   C3318261   4.431   0.007   3.165  0.3436 -0.4313  0.5140
  163SAPE   H3X18262   4.368  -0.084   3.154  1.6118 -1.0594 -3.1190
  163SAPE   H3Y18263   4.373   0.096   3.131  3.7100  1.4581 -0.6955
  163SAPE   C3418264   4.450   0.020   3.317 -0.3376 -0.0538 -0.5561
  163SAPE   H4X18265   4.506  -0.073   3.342  0.7270 -0.2403 -3.3213
  163SAPE   H4Y18266   4.349   0.023   3.363  0.9262 -0.6879  2.4802
  163SAPE   C3518267   4.521   0.137   3.371  0.4927 -0.0576 -0.2256
  163SAPE   H5X18268   4.449   0.221   3.377 -2.2634 -2.1693 -1.2088
  163SAPE   H5Y18269   4.601   0.166   3.300 -0.6267  0.5890 -1.2557
  163SAPE   C3618270   4.585   0.137   3.514  0.1584 -0.1922  0.2575
  163SAPE   H6X18271   4.617   0.241   3.537 -1.5164  0.3984  0.0439
  163SAPE   H6Y18272   4.672   0.069   3.503  0.5108  0.4342 -0.9763
  163SAPE   C3718273   4.493   0.102   3.630 -0.8175  0.6525  0.3276
  163SAPE   H7X18274   4.464  -0.006   3.629  1.2054 -0.0265  2.6821
  163SAPE   H7Y18275   4.407   0.171   3.622  0.2462  1.8265 -1.3841
  163SAPE   C3818276   4.579   0.114   3.764  0.1621  0.7589  0.6159
  163SAPE   H8X18277   4.583   0.221   3.793  2.1041  1.8229 -2.9539
  163SAPE   H8Y18278   4.680   0.083   3.730 -0.3819 -0.1773 -0.2033
  163SAPE   C3918279   4.532   0.035   3.889 -0.0635  0.3436  0.3309
  163SAPE   H9X18280   4.514  -0.070   3.860  2.5681  0.3142 -1.5247
  163SAPE   H9Y18281   4.428   0.067   3.912  0.0514  1.1040 -0.1543
  163SAPE  C31018282   4.621   0.047   4.012 -0.3610 -0.3837 -0.0930
  163SAPE  H10X18283   4.724   0.018   3.983  0.3465  0.2640  1.6771
  163SAPE  H10Y18284   4.591  -0.028   4.089 -2.3011  1.0657  0.6560
  163SAPE  C31118285   4.618   0.183   4.077 -0.1949 -0.4094  0.5654
  163SAPE  H11X18286   4.520   0.208   4.123 -0.2900 -2.5363  1.6256
  163SAPE  H11Y18287   4.629   0.260   3.998 -0.0740 -0.2283  0.7591
  163SAPE  C31218288   4.742   0.208   4.172  0.4809  0.2481 -0.1392
  163SAPE  H12X18289   4.730   0.316   4.195 -1.6317 -0.0343  0.3090
  163SAPE  H12Y18290   4.841   0.190   4.127 -1.3335 -0.1698 -4.5076
  163SAPE  C31318291   4.719   0.130   4.311 -0.2581 -0.5950  0.6654
  163SAPE  H13X18292   4.811   0.141   4.373  0.6768 -0.1644 -0.7538
  163SAPE  H13Y18293   4.717   0.020   4.294  2.7754 -0.5857 -0.3025
  163SAPE  C31418294   4.593   0.179   4.387 -0.3841 -0.4439 -0.6375
  163SAPE  H14X18295   4.503   0.129   4.344 -2.2587  0.3329  2.0981
  163SAPE  H14Y18296   4.586   0.289   4.371  2.5067  0.0510  0.9630
  163SAPE  C31518297   4.606   0.137   4.532  0.2053 -0.0809  1.1856
  163SAPE  H15X18298   4.698   0.184   4.572  0.3172  1.3407 -0.5998
  163SAPE  H15Y18299   4.617   0.027   4.542 -0.1772  0.0480  3.7433
  163SAPE  C31618300   4.484   0.168   4.611 -0.6986  0.1606  0.2686
  163SAPE  H16X18301   4.394   0.115   4.573  0.1797 -0.5612 -0.9108
  163SAPE  H16Y18302   4.474   0.276   4.588  1.6357 -0.0238 -2.0988
  163SAPE  C31718303   4.502   0.146   4.766  0.2831  0.1475 -0.0088
  163SAPE  H17X18304   4.488   0.037   4.779 -1.4094  0.2865 -0.5130
  163SAPE  H17Y18305   4.414   0.188   4.819  0.4603  0.4756  0.0323
  163SAPE  C31818306   4.624   0.214   4.823  0.1748 -0.3666  0.0758
  163SAPE  H18X18307   4.630   0.183   4.930 -0.4173 -1.6969 -0.2526
  163SAPE  H18Y18308   4.624   0.325   4.824  2.9925 -0.2719  1.7364
  163SAPE  H18Z18309   4.722   0.185   4.779  0.4602  0.4234  0.1609
  164SAPE     N18310   0.848   4.040   2.060  0.6819 -0.2801  0.4081
  164SAPE   HN118311   0.880   4.016   1.964  1.4573 -3.5792  1.3651
  164SAPE   HN218312   0.745   4.041   2.075  0.7935  1.5384  1.4757
  164SAPE   HN318313   0.891   4.132   2.084  3.2851 -1.5755  1.0599
  164SAPE   C1218314   0.914   3.945   2.151 -0.1586  0.0991  0.4656
  164SAPE  H12A18315   1.018   3.940   2.114 -0.4764  2.5198 -0.9293
  164SAPE  H12B18316   0.863   3.846   2.149 -2.4557  1.1874  1.5380
  164SAPE   C1118317   0.907   4.002   2.294 -0.1266  0.0560  0.4278
  164SAPE  H11A18318   0.959   4.100   2.287  1.0642 -0.4545  1.8731
  164SAPE  H11B18319   0.966   3.944   2.368 -0.3017  2.0393  2.2017
  164SAPE     P18320   0.746   4.111   2.458 -0.0601 -0.0016 -0.0809
  164SAPE   O1318321   0.812   4.242   2.435  0.7080  0.1272  0.2124
  164SAPE   O1418322   0.597   4.117   2.480 -0.0012  0.9173  0.5837
  164SAPE   O1218323   0.772   4.002   2.337  0.6953 -0.5587  0.6962
  164SAPE   O1118324   0.814   4.025   2.574  0.3227 -0.3604  0.2659
  164SAPE    C118325   0.764   3.891   2.593  0.4359  0.0231 -0.2127
  164SAPE    HA18326   0.661   3.874   2.555  0.0053  1.2243  0.3788
  164SAPE    HB18327   0.832   3.823   2.536  3.1690  1.9275  0.5705
  164SAPE    C218328   0.769   3.844   2.744  0.4459 -0.0196  0.0596
  164SAPE    HS18329   0.676   3.882   2.790 -1.4258 -1.5019 -2.2485
  164SAPE   O2118330   0.882   3.895   2.811 -0.4967 -0.2978 -0.6742
  164SAPE   C2118331   0.864   4.021   2.854  0.2636  0.6470  0.5677
  164SAPE   O2218332   0.760   4.085   2.855  0.6927 -0.7296  0.6150
  164SAPE   C2218333   0.989   4.080   2.916  0.3598  0.4629 -0.0408
  164SAPE   H2R18334   1.056   3.996   2.944 -0.6738 -0.6614 -0.8586
  164SAPE   H2S18335   1.043   4.130   2.833 -0.6353 -0.5853 -1.3613
  164SAPE    C318336   0.764   3.689   2.748 -0.5206  0.1699 -0.0052
  164SAPE    HX18337   0.848   3.654   2.684 -1.6898  0.5192 -1.7689
  164SAPE    HY18338   0.678   3.652   2.689 -0.1688 -0.3634 -0.1842
  164SAPE   O3118339   0.753   3.644   2.888 -0.1447 -0.1302  1.0487
  164SAPE   C3118340   0.867   3.618   2.940  0.7570 -0.1609  0.4590
  164SAPE   O3218341   0.978   3.620   2.889  0.0729  0.2217  0.0931
  164SAPE   C3218342   0.850   3.603   3.095 -0.2326  0.2763  0.8253
  164SAPE   H2X18343   0.935   3.548   3.141 -0.5994  1.4167  3.0021
  164SAPE   H2Y18344   0.756   3.547   3.116  0.7120 -2.4894 -1.6847
  164SAPE   C2318345   0.971   4.174   3.038 -0.0489 -0.5035  0.3969
  164SAPE   H3R18346   0.909   4.117   3.111  0.7659 -0.0610  1.4613
  164SAPE   H3S18347   0.909   4.263   3.014  0.8860 -0.1761 -0.8723
  164SAPE   C2418348   1.101   4.234   3.091  0.2138  0.0139 -0.1552
  164SAPE   H4R18349   1.073   4.305   3.171 -2.9625 -0.8436 -0.3752
  164SAPE   H4S18350   1.162   4.285   3.013 -0.7991  0.0292 -0.9675
  164SAPE   C2518351   1.188   4.128   3.155 -0.2854 -0.5604  0.3766
  164SAPE   H5R18352   1.262   4.079   3.089  1.4919  1.4393  0.7991
  164SAPE   C2618353   1.188   4.102   3.285  0.1584 -0.1251  0.2319
  164SAPE   H6R18354   1.260   4.023   3.310  1.4810  0.2573 -2.0380
  164SAPE   C2718355   1.102   4.157   3.399  0.5528  0.0078 -0.0168
  164SAPE   H7R18356   1.066   4.079   3.470 -0.2577  0.1459 -0.2604
  164SAPE   H7S18357   1.001   4.189   3.362  1.1886  3.9596  1.2069
  164SAPE   C2818358   1.185   4.257   3.472  0.5507 -0.2697  0.8552
  164SAPE   H8R18359   1.258   4.313   3.411 -0.3666  0.0715  0.0369
  164SAPE   C2918360   1.171   4.277   3.601  0.1293  0.5247 -0.1806
  164SAPE   H9R18361   1.238   4.347   3.652 -0.7908  2.0056 -0.9129
  164SAPE  C21018362   1.063   4.219   3.689  0.1522 -0.3072  0.1768
  164SAPE  H10R18363   0.980   4.174   3.630 -2.1618  2.7455  0.8267
  164SAPE  H10S18364   1.017   4.301   3.748 -1.0723 -1.1349  0.4153
  164SAPE  C21118365   1.103   4.113   3.789 -0.2750  0.6033  0.1279
  164SAPE  H11R18366   1.190   4.046   3.777 -0.2922  0.5198  0.4635
  164SAPE  C21218367   1.024   4.077   3.897 -0.3726 -0.2942  0.1498
  164SAPE  H12R18368   1.070   4.010   3.972 -0.1281 -0.1400  0.1391
  164SAPE  C21318369   0.896   4.140   3.948 -0.4190 -0.5966  0.0308
  164SAPE  H13R18370   0.858   4.213   3.873 -2.2460 -1.1258  0.4003
  164SAPE  H13S18371   0.925   4.206   4.032  1.8778 -1.7912  0.2501
  164SAPE  C21418372   0.776   4.063   3.985 -0.0358  0.5380  0.2669
  164SAPE  H14R18373   0.730   4.093   4.080  0.8363  1.2402  0.4826
  164SAPE  C21518374   0.713   3.967   3.907  0.1451  0.5990  0.6807
  164SAPE  H15R18375   0.622   3.915   3.944  0.1041 -0.2001 -0.4950
  164SAPE  C21618376   0.753   3.914   3.770 -0.4027  0.2815 -0.8161
  164SAPE  H16R18377   0.723   3.807   3.774  1.3310 -0.2207  2.3754
  164SAPE  H16S18378   0.863   3.905   3.776 -0.6071 -1.5778  1.3337
  164SAPE  C21718379   0.712   3.995   3.650 -0.0188 -0.0131 -0.0805
  164SAPE  H17R18380   0.749   4.099   3.665 -0.8309  0.0968  1.2495
  164SAPE  H17S18381   0.601   3.999   3.652 -0.2837  0.5200 -4.7070
  164SAPE  C21818382   0.765   3.944   3.515 -0.3416  1.0169  0.2503
  164SAPE  H18R18383   0.730   3.840   3.502  0.2809  0.6585  1.3977
  164SAPE  H18S18384   0.874   3.926   3.524 -0.2740  1.1256 -0.3021
  164SAPE  C21918385   0.741   4.036   3.394 -0.1283  0.1352  0.1642
  164SAPE  H19R18386   0.769   3.985   3.299 -1.8646 -0.4567 -0.0732
  164SAPE  H19S18387   0.817   4.114   3.418  0.9209 -0.8094  0.0216
  164SAPE  C22018388   0.600   4.096   3.378  0.1914  0.3483 -0.2048
  164SAPE  H20R18389   0.578   4.131   3.482  3.5791  1.5323  0.2248
  164SAPE  H20S18390   0.523   4.021   3.349 -0.8390  0.5318  1.8167
  164SAPE  H20T18391   0.596   4.189   3.317 -0.4796 -0.2252 -1.0582
  164SAPE   C3318392   0.860   3.734   3.175 -0.2212 -0.4759  0.1888
  164SAPE   H3X18393   0.792   3.734   3.262 -1.5947 -0.4422 -0.8381
  164SAPE   H3Y18394   0.817   3.807   3.103 -0.0091 -0.2128  0.3308
  164SAPE   C3418395   1.000   3.768   3.210  0.6602  0.0787 -0.0201
  164SAPE   H4X18396   1.019   3.876   3.230 -1.1930  0.3310  0.5724
  164SAPE   H4Y18397   1.066   3.759   3.122 -1.6456 -2.5375 -1.6146
  164SAPE   C3518398   1.076   3.679   3.315  0.9628 -0.4194  0.3285
  164SAPE   H5X18399   1.185   3.692   3.298  0.8855  0.6113  0.5462
  164SAPE   H5Y18400   1.046   3.572   3.309 -1.1496  0.1757 -0.8392
  164SAPE   C3618401   1.042   3.732   3.461 -0.4680 -0.1660  0.5147
  164SAPE   H6X18402   0.932   3.724   3.475 -0.2981 -1.6219  1.1556
  164SAPE   H6Y18403   1.077   3.838   3.468 -1.2512  0.2156 -0.9139
  164SAPE   C3718404   1.104   3.648   3.572 -0.5264 -0.2367  0.5012
  164SAPE   H7X18405   1.212   3.649   3.547 -0.4905  0.4665  0.6742
  164SAPE   H7Y18406   1.075   3.540   3.571  0.9871 -0.6761 -0.8090
  164SAPE   C3818407   1.069   3.708   3.703  0.7332 -0.3133 -1.0535
  164SAPE   H8X18408   0.959   3.703   3.717  1.0942 -3.1611  2.0807
  164SAPE   H8Y18409   1.101   3.814   3.700 -0.2952  0.0353 -0.1270
  164SAPE   C3918410   1.135   3.652   3.831 -0.0346  0.2728 -0.2542
  164SAPE   H9X18411   1.244   3.642   3.815  0.1047  1.2336  0.0575
  164SAPE   H9Y18412   1.117   3.542   3.837 -1.7007  0.5648  0.8452
  164SAPE  C31018413   1.109   3.718   3.965  0.6505 -0.7256 -0.2437
  164SAPE  H10X18414   1.134   3.826   3.964  0.0959 -0.5910 -0.0675
  164SAPE  H10Y18415   1.186   3.687   4.039  0.6601  1.8508  0.9302
  164SAPE  C31118416   0.967   3.713   4.030  0.1737 -0.0106 -0.4166
  164SAPE  H11X18417   0.936   3.607   4.044  2.2915 -0.7346 -0.7784
  164SAPE  H11Y18418   0.892   3.763   3.965 -2.0186  0.5284  2.3170
  164SAPE  C31218419   0.962   3.781   4.169  0.5434 -0.1807 -0.0076
  164SAPE  H12X18420   0.950   3.891   4.161  0.3117 -0.0461  1.7380
  164SAPE  H12Y18421   1.062   3.766   4.217 -1.4701 -2.9724  3.8563
  164SAPE  C31318422   0.855   3.725   4.262  1.1317 -0.6177 -0.7877
  164SAPE  H13X18423   0.888   3.620   4.280 -0.7776 -0.9830  0.9512
  164SAPE  H13Y18424   0.754   3.715   4.217  0.5675  1.4180 -0.0857
  164SAPE  C31418425   0.850   3.794   4.397  0.2513 -0.3781 -0.0289
  164SAPE  H14X18426   0.808   3.897   4.388  0.5878 -0.3186 -0.9895
  164SAPE  H14Y18427   0.945   3.787   4.453 -0.1945 -3.7655  0.4649
  164SAPE  C31518428   0.744   3.723   4.488  0.2319  1.0805 -0.4846
  164SAPE  H15X18429   0.637   3.722   4.455 -0.4767  1.7484  1.6306
  164SAPE  H15Y18430   0.752   3.770   4.588  1.1185 -0.4242  0.1780
  164SAPE  C31618431   0.785   3.568   4.519 -0.1176 -0.0333  0.8600
  164SAPE  H16X18432   0.894   3.561   4.540 -0.1240 -0.5660  0.7229
  164SAPE  H16Y18433   0.763   3.506   4.430  0.4009  0.9388  0.0351
  164SAPE  C31718434   0.716   3.494   4.636 -0.4626 -0.8110  0.3328
  164SAPE  H17X18435   0.609   3.521   4.641 -0.0675  0.7513  1.4526
  164SAPE  H17Y18436   0.761   3.531   4.731  0.7165 -0.3992 -0.3564
  164SAPE  C31818437   0.736   3.338   4.636  0.0450 -0.2948  0.0564
  164SAPE  H18X18438   0.664   3.278   4.695  1.3564 -0.0616  1.9878
  164SAPE  H18Y18439   0.838   3.306   4.666 -0.0010 -1.3128 -0.7671
  164SAPE  H18Z18440   0.719   3.310   4.529  0.9861  1.7743 -0.6845
  165SAPE     N18441   0.383   0.536   2.670 -0.2237  0.0081  0.7686
  165SAPE   HN118442   0.455   0.485   2.616 -1.3200 -1.9312  1.0569
  165SAPE   HN218443   0.307   0.547   2.600 -0.0424 -0.6196  0.4691
  165SAPE   HN318444   0.420   0.630   2.698  0.2498  0.4605 -1.2299
  165SAPE   C1218445   0.329   0.475   2.803  0.4242 -0.0639  0.1044
  165SAPE  H12A18446   0.411   0.475   2.878  0.4232 -0.6305  0.1072
  165SAPE  H12B18447   0.286   0.379   2.768 -0.4865  0.9847 -1.7712
  165SAPE   C1118448   0.208   0.563   2.862 -0.7661 -0.2568 -0.8333
  165SAPE  H11A18449   0.253   0.664   2.853  0.2293 -0.7541 -1.6873
  165SAPE  H11B18450   0.183   0.556   2.970  0.6530  3.7176 -0.0579
  165SAPE     P18451  -0.052   0.576   2.806 -0.0130 -0.1783 -0.4036
  165SAPE   O1318452  -0.056   0.709   2.869 -0.2319  0.1746  0.3402
  165SAPE   O1418453  -0.129   0.541   2.684 -0.3381 -0.0158 -0.2869
  165SAPE   O1218454   0.100   0.554   2.772 -0.4476 -0.5316 -0.5638
  165SAPE   O1118455  -0.093   0.477   2.923 -0.3293 -0.2756  0.2372
  165SAPE    C118456  -0.050   0.341   2.916  0.5241 -0.9250 -0.0664
  165SAPE    HA18457  -0.027   0.304   2.814 -3.4918 -1.4756 -0.9312
  165SAPE    HB18458   0.051   0.326   2.959  0.0440  0.1823  1.5496
  165SAPE    C218459  -0.158   0.254   2.990  0.1069  0.3837 -0.8823
  165SAPE    HS18460  -0.242   0.261   2.917 -0.8573  0.5385  0.1928
  165SAPE   O2118461  -0.198   0.307   3.117 -0.1925  0.0743  0.2405
  165SAPE   C2118462  -0.329   0.287   3.150 -0.8973  0.5315  0.1789
  165SAPE   O2218463  -0.401   0.218   3.090  0.1544  0.2047 -0.0426
  165SAPE   C2218464  -0.370   0.379   3.267  0.4980 -0.0599  0.2892
  165SAPE   H2R18465  -0.279   0.438   3.290 -0.7773  2.9004 -1.6710
  165SAPE   H2S18466  -0.444   0.455   3.234 -2.4985 -2.8163  0.0554
  165SAPE    C318467  -0.135   0.097   3.001  0.1968 -0.4274  0.0551
  165SAPE    HX18468  -0.128   0.068   2.894  0.6895  1.9577 -0.6184
  165SAPE    HY18469  -0.219   0.046   3.053  0.8627 -1.4203  0.1897
  165SAPE   O3118470  -0.016   0.059   3.067 -0.4203 -0.4640 -0.4143
  165SAPE   C3118471  -0.018   0.035   3.202  0.0767 -1.1010  0.4086
  165SAPE   O3218472  -0.121   0.035   3.268  0.7299  0.6583  0.0609
  165SAPE   C3218473   0.128   0.016   3.249  0.4994  0.1571 -0.4774
  165SAPE   H2X18474   0.174   0.117   3.243 -0.5916  0.6595 -0.6876
  165SAPE   H2Y18475   0.176  -0.049   3.173  0.3143  0.8164 -1.1675
  165SAPE   C2318476  -0.436   0.287   3.371  0.4850 -0.5578  0.3844
  165SAPE   H3R18477  -0.369   0.199   3.382  0.3078 -0.7188  0.1787
  165SAPE   H3S18478  -0.530   0.232   3.351  0.4027 -0.2983  0.0395
  165SAPE   C2418479  -0.439   0.362   3.508  0.8479  0.3628 -0.5724
  165SAPE   H4R18480  -0.500   0.455   3.496 -0.0955 -0.1708 -0.0189
  165SAPE   H4S18481  -0.338   0.403   3.529  0.6746  0.0474  0.9612
  165SAPE   C2518482  -0.484   0.270   3.620 -0.2155  0.5284  0.6647
  165SAPE   H5R18483  -0.409   0.201   3.662 -0.5601 -3.1539 -3.9096
  165SAPE   C2618484  -0.612   0.249   3.652  0.5140 -0.5573 -0.5246
  165SAPE   H6R18485  -0.631   0.190   3.743 -1.6992 -0.1469 -0.6558
  165SAPE   C2718486  -0.733   0.321   3.599 -0.3354 -0.0420 -0.5684
  165SAPE   H7R18487  -0.724   0.331   3.489  1.5547 -3.4223 -0.8684
  165SAPE   H7S18488  -0.727   0.428   3.627  2.2034 -0.2995  0.1764
  165SAPE   C2818489  -0.868   0.256   3.640 -0.1480  0.0717  0.0697
  165SAPE   H8R18490  -0.922   0.210   3.555 -1.2692  0.5192  0.5237
  165SAPE   C2918491  -0.913   0.226   3.766 -0.1621 -0.6143 -0.1455
  165SAPE   H9R18492  -1.004   0.167   3.784 -1.9875  1.8548 -0.7010
  165SAPE  C21018493  -0.841   0.263   3.897 -0.1486 -0.3445 -0.5061
  165SAPE  H10R18494  -0.769   0.340   3.862 -1.4714  0.6763 -1.0385
  165SAPE  H10S18495  -0.787   0.181   3.948 -0.7097 -1.3173 -1.4387
  165SAPE  C21118496  -0.950   0.335   3.982  0.1310 -0.0874  0.5680
  165SAPE  H11R18497  -0.956   0.440   3.949  2.0783 -0.0288  0.2705
  165SAPE  C21218498  -0.997   0.290   4.098  0.2521 -0.2701 -0.1930
  165SAPE  H12R18499  -1.083   0.341   4.143  0.2648  0.0075 -0.4813
  165SAPE  C21318500  -0.975   0.153   4.144 -0.5884  0.3489  0.3598
  165SAPE  H13R18501  -0.870   0.119   4.130  0.4829  2.1052  3.3105
  165SAPE  H13S18502  -1.041   0.090   4.080  2.9213 -0.7408 -2.5173
  165SAPE  C21418503  -1.012   0.131   4.285 -0.2261 -0.6832  0.2799
  165SAPE  H14R18504  -1.113   0.094   4.308  0.3319 -1.5653  1.4692
  165SAPE  C21518505  -0.934   0.139   4.395 -0.2394  0.0164  0.3433
  165SAPE  H15R18506  -0.980   0.107   4.490 -2.2347  1.2725 -0.1372
  165SAPE  C21618507  -0.787   0.177   4.387  1.0773  0.6813  0.0304
  165SAPE  H16R18508  -0.773   0.273   4.333  0.6824  0.2979 -0.7655
  165SAPE  H16S18509  -0.731   0.097   4.334  0.1607 -1.3663  2.0073
  165SAPE  C21718510  -0.738   0.197   4.526 -0.5106  0.1374 -0.2807
  165SAPE  H17R18511  -0.808   0.266   4.578  2.0964  2.1419  0.7899
  165SAPE  H17S18512  -0.650   0.264   4.531 -1.0394  0.8881 -0.7982
  165SAPE  C21818513  -0.718   0.059   4.600  0.5111 -0.6408 -0.3646
  165SAPE  H18R18514  -0.649  -0.003   4.538  1.1138  0.9113 -1.3173
  165SAPE  H18S18515  -0.818   0.011   4.607  0.9488 -1.3719  1.1910
  165SAPE  C21918516  -0.651   0.078   4.737 -0.1951  0.4254  0.3270
  165SAPE  H19R18517  -0.549   0.124   4.736  0.7901 -1.6361  0.1856
  165SAPE  H19S18518  -0.612  -0.019   4.776  0.9805  0.5339 -0.5318
  165SAPE  C22018519  -0.741   0.149   4.840  0.1223 -0.2649 -0.3969
  165SAPE  H20R18520  -0.771   0.252   4.810  1.0653  0.9271  2.3485
  165SAPE  H20S18521  -0.686   0.157   4.937  0.7654  2.7892 -0.8909
  165SAPE  H20T18522  -0.827   0.082   4.856 -1.6962  1.1718 -3.3356
  165SAPE   C3318523   0.143  -0.052   3.383  0.2060 -0.5786 -0.1181
  165SAPE   H3X18524   0.095  -0.152   3.384 -1.2052  0.0737  0.7958
  165SAPE   H3Y18525   0.098   0.011   3.462  0.5571  1.7074 -1.6549
  165SAPE   C3418526   0.290  -0.062   3.426  0.0908 -0.1553 -0.3577
  165SAPE   H4X18527   0.346   0.034   3.425  0.8913 -0.3737  3.7297
  165SAPE   H4Y18528   0.324  -0.125   3.341  0.0663 -0.3613 -0.2158
  165SAPE   C3518529   0.299  -0.118   3.567 -0.5354 -0.0094  0.9548
  165SAPE   H5X18530   0.249  -0.045   3.634 -0.2944  1.0889 -0.0315
  165SAPE   H5Y18531   0.406  -0.110   3.598 -0.1313  1.4136 -0.7064
  165SAPE   C3618532   0.251  -0.265   3.576  0.1883  1.1080 -0.6776
  165SAPE   H6X18533   0.282  -0.317   3.483  0.7343 -0.6835  0.4345
  165SAPE   H6Y18534   0.140  -0.265   3.579  0.0509 -2.2093 -1.3163
  165SAPE   C3718535   0.314  -0.338   3.700  0.3495  0.0842 -0.3317
  165SAPE   H7X18536   0.423  -0.350   3.683  0.7103  0.1947  1.6820
  165SAPE   H7Y18537   0.268  -0.440   3.708  1.8481 -0.6504 -0.7794
  165SAPE   C3818538   0.287  -0.259   3.831  0.0059 -0.5480  0.1700
  165SAPE   H8X18539   0.188  -0.211   3.815 -0.0856 -1.0458 -0.8435
  165SAPE   H8Y18540   0.363  -0.179   3.842  0.3293 -0.5620 -1.7532
  165SAPE   C3918541   0.283  -0.349   3.951 -0.2714  0.2454  0.3109
  165SAPE   H9X18542   0.388  -0.376   3.975 -0.4059 -0.7226 -0.1199
  165SAPE   H9Y18543   0.225  -0.442   3.931 -1.7396 -0.0923  4.9388
  165SAPE  C31018544   0.224  -0.286   4.077  0.1968  0.2140  0.0527
  165SAPE  H10X18545   0.134  -0.222   4.060 -0.1778 -0.2668  0.1930
  165SAPE  H10Y18546   0.295  -0.224   4.135 -1.2828  0.2083  1.9995
  165SAPE  C31118547   0.181  -0.404   4.180 -0.1961  0.3408 -0.5991
  165SAPE  H11X18548   0.271  -0.459   4.214 -0.1834  0.4597 -0.4391
  165SAPE  H11Y18549   0.119  -0.480   4.129  2.2139 -1.7407 -0.6040
  165SAPE  C31218550   0.111  -0.359   4.304 -0.5598  0.1308  0.2018
  165SAPE  H12X18551   0.035  -0.283   4.276 -2.0618 -1.5341 -0.3910
  165SAPE  H12Y18552   0.190  -0.324   4.374  0.3577 -1.4822  0.0271
  165SAPE  C31318553   0.039  -0.465   4.384  0.3597  0.2759 -0.0219
  165SAPE  H13X18554   0.114  -0.544   4.406 -0.6576 -2.4009 -4.7945
  165SAPE  H13Y18555  -0.037  -0.518   4.322  0.3927 -0.8664  0.8875
  165SAPE  C31418556  -0.025  -0.403   4.508  0.3046  0.2481  0.3717
  165SAPE  H14X18557  -0.092  -0.474   4.561  1.7679 -1.6401 -0.2312
  165SAPE  H14Y18558  -0.091  -0.321   4.472 -0.2919  0.9377  2.7833
  165SAPE  C31518559   0.084  -0.366   4.606  0.3760 -0.1439 -0.5015
  165SAPE  H15X18560   0.121  -0.267   4.572 -1.9203  0.0293 -2.7764
  165SAPE  H15Y18561   0.167  -0.439   4.596  0.3451 -0.4362  1.0666
  165SAPE  C31618562   0.025  -0.361   4.748 -0.1315  0.5120  0.0892
  165SAPE  H16X18563   0.006  -0.465   4.781 -2.3640  1.0312  0.5464
  165SAPE  H16Y18564  -0.080  -0.324   4.751 -0.9466 -1.7097  2.5415
  165SAPE  C31718565   0.106  -0.273   4.851 -0.1656  0.5577  0.1130
  165SAPE  H17X18566   0.052  -0.266   4.948 -1.7748  0.6437 -0.7591
  165SAPE  H17Y18567   0.126  -0.183   4.789  0.7266 -0.2716 -0.8468
  165SAPE  C31818568   0.238  -0.339   4.887 -0.5390  0.1019 -0.8854
  165SAPE  H18X18569   0.300  -0.348   4.795  1.8510 -0.2624  0.6703
  165SAPE  H18Y18570   0.225  -0.435   4.943 -1.4749  1.1594  0.7866
  165SAPE  H18Z18571   0.292  -0.268   4.953 -1.7391  1.1921 -1.0443
  166SAPE     N18572   1.152   6.788   2.206  0.1559  0.6526  0.0023
  166SAPE   HN118573   1.239   6.731   2.199 -0.0495  0.3562 -0.2077
  166SAPE   HN218574   1.129   6.795   2.105  1.3586 -0.7276 -0.4045
  166SAPE   HN318575   1.161   6.884   2.245  1.7151  0.1147  1.0491
  166SAPE   C1218576   1.035   6.709   2.260  0.0856 -0.5074 -0.1123
  166SAPE  H12A18577   1.051   6.604   2.230 -3.4063 -1.2942  0.3774
  166SAPE  H12B18578   0.941   6.729   2.204  0.8520 -0.2601 -1.3582
  166SAPE   C1118579   1.016   6.734   2.414 -0.0609 -0.5298  0.5629
  166SAPE  H11A18580   1.107   6.694   2.464  0.5194 -0.0302 -0.0733
  166SAPE  H11B18581   0.929   6.682   2.458 -1.2690  1.3606  0.5041
  166SAPE     P18582   0.863   6.953   2.446 -0.1191  0.0156 -0.1544
  166SAPE   O1318583   0.876   7.080   2.527 -0.2527 -0.1751 -0.1187
  166SAPE   O1418584   0.820   6.973   2.306  0.2473  0.1859 -0.2398
  166SAPE   O1218585   1.001   6.867   2.441  0.2201 -0.2898 -0.1147
  166SAPE   O1118586   0.762   6.854   2.523  0.4793  0.6671  0.0966
  166SAPE    C118587   0.741   6.866   2.663  0.3929  0.3030  0.1462
  166SAPE    HA18588   0.771   6.957   2.719 -0.2052  0.3785  0.3561
  166SAPE    HB18589   0.632   6.857   2.681  0.2050 -2.5300 -1.7343
  166SAPE    C218590   0.805   6.749   2.745 -0.3696 -0.7786 -0.2103
  166SAPE    HS18591   0.799   6.776   2.853  1.9250  0.2948 -0.2805
  166SAPE   O2118592   0.945   6.730   2.724  0.0998 -0.4930  0.2486
  166SAPE   C2118593   1.020   6.832   2.765  0.0724 -0.5710  0.2887
  166SAPE   O2218594   0.980   6.935   2.823 -0.2771 -0.4138  0.7648
  166SAPE   C2218595   1.163   6.810   2.713  0.4937  0.2703  0.4965
  166SAPE   H2R18596   1.167   6.706   2.673  0.0159  0.4979 -0.1634
  166SAPE   H2S18597   1.181   6.880   2.629  1.3797  1.7271  1.8501
  166SAPE    C318598   0.726   6.616   2.725 -0.7892 -0.1587  0.1065
  166SAPE    HX18599   0.797   6.539   2.763  0.1012  0.8108  0.4564
  166SAPE    HY18600   0.714   6.598   2.616 -2.2480  1.4895 -0.0483
  166SAPE   O3118601   0.595   6.618   2.787 -0.2137 -0.1385 -0.2719
  166SAPE   C3118602   0.538   6.494   2.784 -0.0042 -0.5954 -0.4209
  166SAPE   O3218603   0.595   6.395   2.742 -0.1255  0.3487  0.0224
  166SAPE   C3218604   0.398   6.489   2.834 -0.1424  0.1554 -0.1408
  166SAPE   H2X18605   0.341   6.452   2.746 -1.7721 -0.9470  1.3192
  166SAPE   H2Y18606   0.365   6.593   2.856 -1.5398 -0.4017  0.5298
  166SAPE   C2318607   1.264   6.825   2.819  0.7156  0.2934 -0.2624
  166SAPE   H3R18608   1.256   6.933   2.847 -0.6677 -0.0999  0.9815
  166SAPE   H3S18609   1.368   6.817   2.782  0.2786 -0.0401 -1.4394
  166SAPE   C2418610   1.247   6.735   2.946  0.2453  0.0832  0.1899
  166SAPE   H4R18611   1.149   6.751   2.996  0.2630  0.1237  0.2118
  166SAPE   H4S18612   1.324   6.768   3.019  0.6190  1.6015 -0.8432
  166SAPE   C2518613   1.273   6.583   2.934 -0.7774 -0.3951 -0.1876
  166SAPE   H5R18614   1.380   6.557   2.927  0.1395  2.5738  1.1474
  166SAPE   C2618615   1.185   6.486   2.971 -0.0625 -0.3095 -0.3999
  166SAPE   H6R18616   1.206   6.381   2.949 -0.4098 -0.6144  0.6831
  166SAPE   C2718617   1.038   6.509   3.000 -0.2086  0.7028 -0.2038
  166SAPE   H7R18618   0.980   6.456   2.921  0.9468 -1.2769  0.1896
  166SAPE   H7S18619   0.995   6.610   2.984  0.2173  0.8678 -0.3012
  166SAPE   C2818620   0.986   6.450   3.125 -0.8181  0.3811 -0.4735
  166SAPE   H8R18621   0.896   6.387   3.125 -0.0095 -0.8788 -2.2926
  166SAPE   C2918622   1.036   6.475   3.250 -0.6546 -0.0436 -0.2483
  166SAPE   H9R18623   0.987   6.415   3.329 -0.7301 -0.6059 -0.7116
  166SAPE  C21018624   1.143   6.568   3.297 -0.5394 -0.0474 -0.5581
  166SAPE  H10R18625   1.109   6.635   3.379  1.8806  0.4423  0.1033
  166SAPE  H10S18626   1.161   6.642   3.217 -0.2025  3.7042  2.7028
  166SAPE  C21118627   1.274   6.505   3.323 -0.5245  0.1360  0.3351
  166SAPE  H11R18628   1.344   6.502   3.239  1.2362  0.8766  1.7225
  166SAPE  C21218629   1.320   6.460   3.445 -0.4956 -0.4384 -0.9023
  166SAPE  H12R18630   1.427   6.444   3.464 -0.3400 -2.4071 -2.9620
  166SAPE  C21318631   1.239   6.450   3.571  0.0208 -0.7623 -0.5929
  166SAPE  H13R18632   1.302   6.373   3.620  2.6488  0.9062 -1.1384
  166SAPE  H13S18633   1.133   6.428   3.548  0.4252 -2.2232 -1.1562
  166SAPE  C21418634   1.248   6.578   3.649  0.1797  0.0291  0.4210
  166SAPE  H14R18635   1.245   6.673   3.593 -0.7587 -0.0307  0.3598
  166SAPE  C21518636   1.267   6.595   3.779 -1.0398 -0.3403  0.0734
  166SAPE  H15R18637   1.263   6.696   3.822 -2.0561  0.1848 -1.1758
  166SAPE  C21618638   1.267   6.482   3.880 -1.5584 -0.3480  0.3699
  166SAPE  H16R18639   1.370   6.480   3.921 -1.5155  0.5906  0.3315
  166SAPE  H16S18640   1.260   6.382   3.831  0.3920  0.0677 -0.8786
  166SAPE  C21718641   1.166   6.505   3.995 -0.1564  0.1749 -0.3411
  166SAPE  H17R18642   1.066   6.468   3.963  0.2826  0.2855 -1.9180
  166SAPE  H17S18643   1.165   6.616   4.007 -0.2163  0.5606 -3.1856
  166SAPE  C21818644   1.206   6.443   4.131  0.1618  0.6614  0.1443
  166SAPE  H18R18645   1.305   6.481   4.163 -0.5543  2.8914 -0.1355
  166SAPE  H18S18646   1.220   6.336   4.104  2.7323  1.2212 -0.9704
  166SAPE  C21918647   1.113   6.463   4.248  0.5742  0.1287 -0.1801
  166SAPE  H19R18648   1.098   6.573   4.246  0.0390  0.0684  0.1670
  166SAPE  H19S18649   1.167   6.435   4.341  0.1836 -0.0698 -0.0093
  166SAPE  C22018650   0.978   6.401   4.231  0.2790  0.1538  0.7387
  166SAPE  H20R18651   0.932   6.434   4.135 -0.6492 -2.5914  0.1448
  166SAPE  H20S18652   0.915   6.433   4.316 -1.5862 -1.8589  0.2096
  166SAPE  H20T18653   0.992   6.290   4.232  0.3571  0.1557  0.2566
  166SAPE   C3318654   0.377   6.400   2.958 -0.2619  0.0653  0.1427
  166SAPE   H3X18655   0.445   6.312   2.947  0.2945  0.6915 -1.7690
  166SAPE   H3Y18656   0.282   6.343   2.959  1.2456 -2.6687  0.1263
  166SAPE   C3418657   0.411   6.467   3.086 -0.4395  0.8828  0.9102
  166SAPE   H4X18658   0.371   6.570   3.087 -0.5943  0.8309  2.4388
  166SAPE   H4Y18659   0.522   6.472   3.091 -0.2374 -0.4619 -0.9208
  166SAPE   C3518660   0.373   6.406   3.217 -0.5933 -0.3954  0.4196
  166SAPE   H5X18661   0.263   6.416   3.231 -0.6301 -1.0695  0.6520
  166SAPE   H5Y18662   0.422   6.460   3.301  1.6515  0.8726 -1.5836
  166SAPE   C3618663   0.411   6.257   3.225 -0.1244  0.4014 -0.1080
  166SAPE   H6X18664   0.521   6.251   3.214 -0.3104  1.7273 -3.8531
  166SAPE   H6Y18665   0.361   6.209   3.139 -1.0200  0.3676  0.4201
  166SAPE   C3718666   0.362   6.195   3.362 -0.4632 -0.2947 -0.4741
  166SAPE   H7X18667   0.340   6.086   3.353 -0.4354 -0.4637  1.1393
  166SAPE   H7Y18668   0.275   6.245   3.410 -0.4836 -1.0020  0.2730
  166SAPE   C3818669   0.476   6.202   3.462  0.1898 -0.0385  0.1419
  166SAPE   H8X18670   0.512   6.302   3.495 -2.0365  1.2656 -1.1524
  166SAPE   H8Y18671   0.567   6.161   3.414  1.4905  1.3875  1.2870
  166SAPE   C3918672   0.448   6.136   3.602 -0.2271 -0.0461  0.3699
  166SAPE   H9X18673   0.449   6.027   3.579  1.4589 -0.0827  0.4781
  166SAPE   H9Y18674   0.345   6.162   3.636 -0.8668  0.6933 -1.9290
  166SAPE  C31018675   0.562   6.165   3.700 -1.0939  0.1250 -0.1068
  166SAPE  H10X18676   0.578   6.273   3.718  0.5974  0.2193 -1.8283
  166SAPE  H10Y18677   0.660   6.129   3.661 -0.2227 -0.5623  2.5341
  166SAPE  C31118678   0.533   6.100   3.835  0.2042 -0.0283  0.3089
  166SAPE  H11X18679   0.617   6.132   3.900 -0.1217  0.4864  0.4789
  166SAPE  H11Y18680   0.549   5.990   3.823 -0.6913 -0.0717 -0.6428
  166SAPE  C31218681   0.401   6.126   3.901 -0.2341  0.0891 -0.1553
  166SAPE  H12X18682   0.332   6.042   3.881  1.0165 -0.8964 -0.5037
  166SAPE  H12Y18683   0.359   6.212   3.844 -0.9564  0.4538  0.8967
  166SAPE  C31318684   0.405   6.144   4.052  0.4628  0.1311 -0.9381
  166SAPE  H13X18685   0.300   6.168   4.080  0.8856  2.7689 -1.2807
  166SAPE  H13Y18686   0.461   6.240   4.060 -0.5829  0.8849 -2.1483
  166SAPE  C31418687   0.451   6.020   4.133  0.3162 -0.2997 -0.4235
  166SAPE  H14X18688   0.561   6.010   4.121  0.6575 -0.5580  2.3229
  166SAPE  H14Y18689   0.399   5.933   4.088  1.0743 -0.0067 -1.9181
  166SAPE  C31518690   0.414   6.039   4.285 -0.3788  0.2250  0.7923
  166SAPE  H15X18691   0.308   6.060   4.308 -0.8133 -2.1191  1.1501
  166SAPE  H15Y18692   0.475   6.113   4.341  0.3387  0.2445  0.0035
  166SAPE  C31618693   0.450   5.903   4.354  0.7607 -0.2609 -0.1085
  166SAPE  H16X18694   0.553   5.875   4.322  0.2958  0.2750 -2.2342
  166SAPE  H16Y18695   0.388   5.816   4.326 -1.7962  1.0393  1.1233
  166SAPE  C31718696   0.442   5.915   4.502 -0.1110 -0.1620 -1.0183
  166SAPE  H17X18697   0.336   5.918   4.535  0.4638 -1.3885  1.1475
  166SAPE  H17Y18698   0.487   6.014   4.524 -2.6277  0.8635 -0.0584
  166SAPE  C31818699   0.515   5.794   4.572  0.1319  0.8230  0.3531
  166SAPE  H18X18700   0.514   5.819   4.680  2.1225  4.0817 -0.2114
  166SAPE  H18Y18701   0.615   5.778   4.525  0.3966  1.3883  0.7035
  166SAPE  H18Z18702   0.454   5.705   4.549  0.4198  0.7331 -0.0772
  167SAPE     N18703   0.729   5.875   2.230 -0.5654  0.5561 -0.3079
  167SAPE   HN118704   0.643   5.892   2.174  0.5894  0.5879 -2.1625
  167SAPE   HN218705   0.802   5.833   2.169 -0.6607  1.5301 -1.1203
  167SAPE   HN318706   0.713   5.803   2.304  2.0490 -0.1886 -0.3697
  167SAPE   C1218707   0.790   5.992   2.287 -0.2447  0.0423 -0.8043
  167SAPE  H12A18708   0.723   6.027   2.369  1.3571 -2.2504  1.6494
  167SAPE  H12B18709   0.804   6.071   2.210 -0.3482 -0.3360 -1.2150
  167SAPE   C1118710   0.926   5.948   2.337  0.1804  0.3645 -0.3573
  167SAPE  H11A18711   0.907   5.875   2.418  0.4810 -0.1759 -0.7639
  167SAPE  H11B18712   0.986   6.029   2.381  0.8012 -0.7874  0.9831
  167SAPE     P18713   1.158   5.862   2.264  0.3294  0.1994 -0.0403
  167SAPE   O1318714   1.218   5.774   2.164  0.0291 -0.2582  0.1305
  167SAPE   O1418715   1.221   5.996   2.294  0.3563  0.0985  0.0892
  167SAPE   O1218716   1.006   5.881   2.234 -0.1729  0.2720  0.6449
  167SAPE   O1118717   1.153   5.780   2.397 -0.1002 -0.4224  0.5533
  167SAPE    C118718   1.105   5.642   2.385 -0.9623  0.0467 -0.5084
  167SAPE    HA18719   0.996   5.637   2.365 -0.6820  0.8157 -2.4028
  167SAPE    HB18720   1.155   5.592   2.299 -1.3416  1.7529 -1.7662
  167SAPE    C218721   1.126   5.561   2.520 -0.7986 -0.7608  0.0999
  167SAPE    HS18722   1.096   5.455   2.517 -0.6575 -0.8612  1.4364
  167SAPE   O2118723   1.063   5.642   2.623  0.0378  0.0297 -0.0259
  167SAPE   C2118724   0.930   5.625   2.637  0.2694  0.0003 -0.3103
  167SAPE   O2218725   0.862   5.536   2.586 -0.3971 -0.4639 -0.0052
  167SAPE   C2218726   0.872   5.737   2.729  0.1980  0.4497  0.5915
  167SAPE   H2R18727   0.949   5.814   2.751  2.6598 -1.7024 -0.0049
  167SAPE   H2S18728   0.788   5.771   2.664  0.3847  0.3870  0.3144
  167SAPE    C318729   1.281   5.560   2.555  0.8113  0.4027 -0.3397
  167SAPE    HX18730   1.304   5.668   2.551  1.1460  0.4267  1.3721
  167SAPE    HY18731   1.335   5.513   2.470  2.1958  2.1303 -0.4649
  167SAPE   O3118732   1.302   5.501   2.687 -0.8614 -0.5823  0.1080
  167SAPE   C3118733   1.307   5.370   2.678 -0.0330 -0.2480 -0.2231
  167SAPE   O3218734   1.287   5.301   2.578 -0.4222 -0.4665 -0.7444
  167SAPE   C3218735   1.348   5.319   2.817 -0.0900  0.4976 -0.0330
  167SAPE   H2X18736   1.415   5.393   2.867  0.8779 -0.8444  0.7382
  167SAPE   H2Y18737   1.395   5.222   2.790 -0.7895  0.2688 -0.4491
  167SAPE   C2318738   0.829   5.664   2.852  0.8453 -0.2845 -0.1545
  167SAPE   H3R18739   0.745   5.595   2.828  0.2564  0.3630  0.0068
  167SAPE   H3S18740   0.790   5.745   2.917  1.8945  0.3501 -0.2947
  167SAPE   C2418741   0.943   5.591   2.928  0.1043 -0.2742 -0.6908
  167SAPE   H4R18742   1.035   5.653   2.937 -0.0405 -0.2383  0.8852
  167SAPE   H4S18743   0.990   5.511   2.867  4.0794 -0.2815  1.9754
  167SAPE   C2518744   0.894   5.534   3.056  0.5902  0.3375 -1.1001
  167SAPE   H5R18745   0.794   5.491   3.042  0.3028  0.1616  1.1421
  167SAPE   C2618746   0.943   5.537   3.179  0.1393  0.2453 -0.9954
  167SAPE   H6R18747   0.894   5.472   3.254  2.0033  1.0481  1.0165
  167SAPE   C2718748   1.064   5.612   3.231  0.3102  0.6948 -0.1401
  167SAPE   H7R18749   1.036   5.664   3.325  2.2428 -0.0698  0.9123
  167SAPE   H7S18750   1.120   5.677   3.161  2.2296  1.5752  2.0961
  167SAPE   C2818751   1.171   5.509   3.260  0.1586  0.4958 -0.8970
  167SAPE   H8R18752   1.212   5.451   3.176  0.4430 -2.1356  0.9552
  167SAPE   C2918753   1.227   5.481   3.382  0.1862  0.0613  1.3026
  167SAPE   H9R18754   1.313   5.412   3.382  0.0683 -0.0875  1.6755
  167SAPE  C21018755   1.186   5.534   3.522 -0.4734  0.2648  0.2602
  167SAPE  H10R18756   1.188   5.644   3.508  2.3706 -0.0501 -3.9249
  167SAPE  H10S18757   1.262   5.511   3.599  0.7585  1.2353 -0.6177
  167SAPE  C21118758   1.051   5.478   3.555 -0.0817 -0.1286 -0.1091
  167SAPE  H11R18759   0.972   5.530   3.500  1.8101 -0.4641 -3.4086
  167SAPE  C21218760   1.026   5.391   3.653 -0.4789  0.2714  0.0268
  167SAPE  H12R18761   0.919   5.368   3.665 -0.5378  0.2657 -0.4779
  167SAPE  C21318762   1.113   5.311   3.750 -0.8603 -0.0976  0.7856
  167SAPE  H13R18763   1.197   5.252   3.709  0.2081  1.2036  1.0503
  167SAPE  H13S18764   1.047   5.231   3.790  0.2407 -1.3977  0.0789
  167SAPE  C21418765   1.166   5.399   3.866  0.1737 -0.1517  0.2948
  167SAPE  H14R18766   1.240   5.472   3.830  1.7193 -2.6011 -1.9143
  167SAPE  C21518767   1.125   5.389   3.991 -0.4340 -0.3294 -0.1517
  167SAPE  H15R18768   1.177   5.441   4.073  2.5169 -3.5929  0.3355
  167SAPE  C21618769   1.030   5.286   4.058  0.1876 -0.3472 -0.0869
  167SAPE  H16R18770   1.057   5.179   4.042  0.9058 -0.2075  0.1568
  167SAPE  H16S18771   0.926   5.291   4.017  0.4157 -2.6760 -1.0887
  167SAPE  C21718772   1.012   5.302   4.216 -0.4360 -0.6095 -0.0575
  167SAPE  H17R18773   0.942   5.221   4.246 -1.1169 -0.1348 -0.3438
  167SAPE  H17S18774   0.950   5.389   4.246  1.3269  0.8753 -0.5654
  167SAPE  C21818775   1.143   5.286   4.297  0.1285  0.0722 -0.1023
  167SAPE  H18R18776   1.210   5.375   4.296  1.2239 -0.6959  1.2001
  167SAPE  H18S18777   1.198   5.197   4.257  0.0162  0.1092 -0.3412
  167SAPE  C21918778   1.106   5.254   4.444 -0.1587 -0.4579  0.5397
  167SAPE  H19R18779   1.024   5.180   4.459 -0.0247 -0.7526 -0.1523
  167SAPE  H19S18780   1.081   5.344   4.504 -1.1158 -0.6119  0.3868
  167SAPE  C22018781   1.231   5.194   4.508 -0.3111 -0.0821  0.0893
  167SAPE  H20R18782   1.289   5.115   4.456  1.4789  0.9827  0.4001
  167SAPE  H20S18783   1.190   5.169   4.608 -0.5477  1.8564  0.5205
  167SAPE  H20T18784   1.297   5.283   4.520 -1.7941  1.0728  0.0139
  167SAPE   C3318785   1.226   5.291   2.914 -0.1048 -0.0193  0.6172
  167SAPE   H3X18786   1.157   5.230   2.852  2.6763 -0.6725 -2.1252
  167SAPE   H3Y18787   1.178   5.383   2.953  0.6308  0.4509  0.4450
  167SAPE   C3418788   1.271   5.191   3.029  0.2976 -0.7776  0.3309
  167SAPE   H4X18789   1.262   5.087   2.990 -0.9864  0.1040 -1.9068
  167SAPE   H4Y18790   1.197   5.195   3.112  0.9105 -0.1816  0.8595
  167SAPE   C3518791   1.403   5.233   3.093 -0.9742 -0.0404  0.5279
  167SAPE   H5X18792   1.408   5.341   3.121 -1.2634 -0.1081  0.8512
  167SAPE   H5Y18793   1.488   5.205   3.028 -0.7544  1.0395  0.3299
  167SAPE   C3618794   1.419   5.154   3.227  0.3760  0.3693 -0.2727
  167SAPE   H6X18795   1.417   5.045   3.206  0.1192 -0.5666  3.8334
  167SAPE   H6Y18796   1.321   5.163   3.279 -0.8620 -2.7220 -1.7957
  167SAPE   C3718797   1.537   5.211   3.303  0.0342  0.4802  0.4310
  167SAPE   H7X18798   1.561   5.311   3.262 -4.7734  1.4053 -0.7043
  167SAPE   H7Y18799   1.623   5.141   3.296  0.1960  0.7966 -1.1333
  167SAPE   C3818800   1.526   5.212   3.459  0.5974  0.3330  0.0012
  167SAPE   H8X18801   1.450   5.286   3.492 -0.5175 -0.5077 -0.6209
  167SAPE   H8Y18802   1.626   5.243   3.497  1.0608  0.6200 -1.3840
  167SAPE   C3918803   1.494   5.074   3.514  0.2710 -0.4969 -0.2522
  167SAPE   H9X18804   1.546   4.989   3.463 -2.2776 -2.0237 -0.4917
  167SAPE   H9Y18805   1.387   5.060   3.490  0.5260  1.5671 -3.0109
  167SAPE  C31018806   1.534   5.061   3.663  0.4450 -0.7662  0.3426
  167SAPE  H10X18807   1.643   5.040   3.664  0.8883  1.3221  0.1195
  167SAPE  H10Y18808   1.484   4.968   3.697 -2.7194  0.9783  0.8984
  167SAPE  C31118809   1.493   5.174   3.759 -0.5492  0.5740  0.3974
  167SAPE  H11X18810   1.405   5.228   3.718 -0.4310 -0.1473 -0.8535
  167SAPE  H11Y18811   1.575   5.248   3.745  0.5177 -0.9371 -1.8730
  167SAPE  C31218812   1.463   5.133   3.908 -0.8627  0.2739  0.2548
  167SAPE  H12X18813   1.390   5.049   3.912  0.6291 -1.0301  2.3586
  167SAPE  H12Y18814   1.411   5.221   3.951 -0.1292  1.8473 -1.8723
  167SAPE  C31318815   1.595   5.106   3.984  0.1020  0.1763  0.3386
  167SAPE  H13X18816   1.669   5.188   3.995 -0.1035  0.3771  0.2232
  167SAPE  H13Y18817   1.658   5.030   3.933  1.2079  1.1773  0.1723
  167SAPE  C31418818   1.559   5.054   4.124  0.1238 -0.3855 -0.2470
  167SAPE  H14X18819   1.498   4.964   4.099 -1.0258  0.5091 -0.7522
  167SAPE  H14Y18820   1.493   5.131   4.167  2.3600  2.0203 -0.8774
  167SAPE  C31518821   1.687   5.022   4.210 -0.3062  0.5279 -0.0376
  167SAPE  H15X18822   1.738   5.120   4.221 -2.3501  1.7375 -0.7563
  167SAPE  H15Y18823   1.748   4.956   4.144 -2.8290 -1.4624 -0.5704
  167SAPE  C31618824   1.670   4.956   4.341  0.8462  0.4007 -0.7400
  167SAPE  H16X18825   1.605   4.868   4.325  0.4130  0.2004  1.6475
  167SAPE  H16Y18826   1.615   5.021   4.412 -0.4254  2.4180 -3.4542
  167SAPE  C31718827   1.795   4.897   4.400  0.3376  0.0403 -0.8635
  167SAPE  H17X18828   1.867   4.979   4.421  0.1611  0.0144 -0.1208
  167SAPE  H17Y18829   1.845   4.824   4.334 -1.5251 -3.5052  1.2927
  167SAPE  C31818830   1.754   4.824   4.533  0.1085 -0.5313  0.7493
  167SAPE  H18X18831   1.701   4.906   4.587  2.8507  1.3763  0.7303
  167SAPE  H18Y18832   1.841   4.796   4.595  0.8222  1.4736  0.7377
  167SAPE  H18Z18833   1.683   4.740   4.520 -0.6382  0.1799  0.1106
  168SAPE     N18834   3.890   6.649   2.569  0.7933  0.2250  0.4154
  168SAPE   HN118835   3.817   6.704   2.519  0.9048  0.4107  0.4529
  168SAPE   HN218836   3.984   6.668   2.528  0.3798  0.3278 -0.5098
  168SAPE   HN318837   3.872   6.548   2.553  0.5603  0.3835 -0.3313
  168SAPE   C1218838   3.869   6.693   2.714  0.3318 -0.4491  0.5146
  168SAPE  H12A18839   3.873   6.804   2.720 -0.9398 -0.1520 -2.4248
  168SAPE  H12B18840   3.955   6.648   2.767  1.1454 -0.8690 -1.0885
  168SAPE   C1118841   3.738   6.648   2.765 -0.1038  0.1347  0.2637
  168SAPE  H11A18842   3.748   6.687   2.869  0.9796  0.3645  0.0852
  168SAPE  H11B18843   3.727   6.537   2.768  0.3478  0.0435 -1.0536
  168SAPE     P18844   3.488   6.686   2.743 -0.4531  0.2225 -0.0174
  168SAPE   O1318845   3.394   6.788   2.689 -0.0135 -0.3208 -0.6465
  168SAPE   O1418846   3.454   6.543   2.725 -0.5185  0.7486 -0.0999
  168SAPE   O1218847   3.633   6.716   2.690 -0.3243 -0.0803  0.1637
  168SAPE   O1118848   3.501   6.708   2.897  0.1339 -0.5364 -0.2343
  168SAPE    C118849   3.535   6.838   2.953  0.4733  0.0457 -0.3948
  168SAPE    HA18850   3.621   6.894   2.909  0.7520  1.3234  1.6359
  168SAPE    HB18851   3.449   6.909   2.949  1.2334  1.0604  0.7998
  168SAPE    C218852   3.576   6.831   3.109 -0.5177  0.1099  0.1484
  168SAPE    HS18853   3.583   6.933   3.153  0.3962 -0.8088  2.2715
  168SAPE   O2118854   3.700   6.762   3.131 -0.4093  0.6954  0.2807
  168SAPE   C2118855   3.814   6.842   3.126  0.0635  0.0065 -0.1528
  168SAPE   O2218856   3.811   6.957   3.096  0.0759 -0.2286 -0.5720
  168SAPE   C2218857   3.931   6.744   3.125 -0.1262  0.4099 -0.0743
  168SAPE   H2R18858   3.896   6.645   3.160 -1.6710  0.7875 -0.4367
  168SAPE   H2S18859   3.968   6.740   3.020 -1.2588 -0.2284 -0.4766
  168SAPE    C318860   3.460   6.756   3.187 -0.1910  0.0559 -0.8612
  168SAPE    HX18861   3.436   6.660   3.137  0.5176  1.2961 -3.7729
  168SAPE    HY18862   3.378   6.829   3.168  0.6165  1.0801 -0.4807
  168SAPE   O3118863   3.495   6.730   3.330  0.2335  0.0971 -0.3736
  168SAPE   C3118864   3.439   6.820   3.418 -0.2635  0.7974  0.6503
  168SAPE   O3218865   3.392   6.927   3.390  0.5048 -0.0491 -0.1293
  168SAPE   C3218866   3.466   6.760   3.547 -0.2324  0.3653 -0.1715
  168SAPE   H2X18867   3.572   6.784   3.567 -0.5007  1.6771 -0.2226
  168SAPE   H2Y18868   3.462   6.650   3.539  0.0793  0.0926  2.5480
  168SAPE   C2318869   4.047   6.781   3.222  1.1024  0.0059  0.1389
  168SAPE   H3R18870   4.063   6.890   3.237 -1.1199  0.3996  0.0534
  168SAPE   H3S18871   4.140   6.737   3.182 -1.0240 -3.6100 -1.3143
  168SAPE   C2418872   4.036   6.719   3.368  0.4920  0.5149 -0.2946
  168SAPE   H4R18873   4.124   6.754   3.428  0.4814 -2.3151  1.5748
  168SAPE   H4S18874   4.055   6.610   3.367 -0.8492  0.2526  0.5546
  168SAPE   C2518875   3.914   6.754   3.455 -0.0068 -0.4447  0.2761
  168SAPE   H5R18876   3.820   6.722   3.408 -0.3859 -0.3607  0.9655
  168SAPE   C2618877   3.909   6.807   3.576 -0.3918  0.2248 -0.4063
  168SAPE   H6R18878   3.816   6.823   3.632  0.7482  2.3292  0.9973
  168SAPE   C2718879   4.035   6.840   3.658 -0.2296  0.4176 -0.0129
  168SAPE   H7R18880   4.116   6.883   3.594  0.7579 -2.5664 -0.9069
  168SAPE   H7S18881   4.074   6.748   3.706 -0.7317 -0.5884 -1.4551
  168SAPE   C2818882   4.006   6.937   3.771  0.2619  0.3249 -0.1294
  168SAPE   H8R18883   3.961   7.033   3.743  1.0585  1.1629  1.3465
  168SAPE   C2918884   4.036   6.929   3.899 -0.1754  0.0085 -0.8191
  168SAPE   H9R18885   4.021   7.019   3.960  1.4436 -0.1785 -0.0666
  168SAPE  C21018886   4.108   6.824   3.974 -0.1467  0.3507  0.3775
  168SAPE  H10R18887   4.166   6.751   3.914  0.1992  0.4554  0.5847
  168SAPE  H10S18888   4.033   6.756   4.019 -1.1130  0.6403 -0.7338
  168SAPE  C21118889   4.189   6.899   4.079  0.1245  0.2733 -0.7009
  168SAPE  H11R18890   4.293   6.925   4.053 -0.2914  2.3503 -0.4573
  168SAPE  C21218891   4.145   6.906   4.201 -0.5332 -0.7722  0.4561
  168SAPE  H12R18892   4.207   6.957   4.276 -1.1267 -0.1912  0.5661
  168SAPE  C21318893   4.010   6.864   4.248  0.1969  0.2271  0.0143
  168SAPE  H13R18894   4.009   6.758   4.282 -1.6791  0.5489  1.1105
  168SAPE  H13S18895   3.933   6.873   4.169  0.7076  0.7095 -0.4377
  168SAPE  C21418896   3.967   6.941   4.368 -0.0205 -0.4905 -0.2782
  168SAPE  H14R18897   3.957   7.049   4.350  1.7438 -0.0169  1.2790
  168SAPE  C21518898   3.941   6.905   4.497 -0.0745 -0.0397  0.5488
  168SAPE  H15R18899   3.899   6.979   4.567  0.1370  0.5069  0.1045
  168SAPE  C21618900   3.949   6.762   4.541 -0.1696  0.1670  0.7516
  168SAPE  H16R18901   4.011   6.715   4.460 -1.9635  2.8440 -2.4411
  168SAPE  H16S18902   3.847   6.721   4.557  0.7651 -2.7114  0.0026
  168SAPE  C21718903   4.029   6.750   4.672  0.4936 -0.0376 -0.6128
  168SAPE  H17R18904   3.975   6.803   4.754  0.3363  2.6313 -2.3171
  168SAPE  H17S18905   4.126   6.805   4.662 -0.6367  2.2391  0.1822
  168SAPE  C21818906   4.065   6.608   4.721 -0.5819  0.4203 -0.8618
  168SAPE  H18R18907   4.140   6.612   4.803 -2.4605  0.1114  0.9526
  168SAPE  H18S18908   4.114   6.553   4.639 -2.7132  0.0932 -1.9936
  168SAPE  C21918909   3.950   6.514   4.742  0.6142 -0.0020 -0.2204
  168SAPE  H19R18910   3.887   6.509   4.650  1.7617 -0.8548 -0.9836
  168SAPE  H19S18911   3.885   6.537   4.829 -0.3197 -0.8434 -0.6610
  168SAPE  C22018912   3.982   6.369   4.771  0.1478  0.3456  0.0155
  168SAPE  H20R18913   4.016   6.304   4.688  0.1751 -1.2970  1.2644
  168SAPE  H20S18914   3.899   6.322   4.827  0.1887 -0.0167 -0.2298
  168SAPE  H20T18915   4.064   6.374   4.846 -0.8770 -0.4217  1.2278
  168SAPE   C3318916   3.394   6.826   3.665 -0.6531 -0.4725 -0.1873
  168SAPE   H3X18917   3.285   6.814   3.645 -0.9258  0.5173  0.6196
  168SAPE   H3Y18918   3.415   6.935   3.661  0.3032 -0.6553 -0.4583
  168SAPE   C3418919   3.435   6.793   3.811  0.4297 -0.3816  0.3384
  168SAPE   H4X18920   3.418   6.683   3.819 -1.3580 -0.3717 -2.0963
  168SAPE   H4Y18921   3.371   6.849   3.883  1.0010  2.4366 -1.2016
  168SAPE   C3518922   3.571   6.848   3.843  0.9330  0.5612  0.3196
  168SAPE   H5X18923   3.580   6.958   3.835  1.3721  0.4484 -0.8664
  168SAPE   H5Y18924   3.632   6.800   3.764  0.7758  0.6274  0.1596
  168SAPE   C3618925   3.624   6.815   3.985  0.2289 -0.5491  0.8204
  168SAPE   H6X18926   3.705   6.885   4.013  0.4588 -0.9466  1.1647
  168SAPE   H6Y18927   3.664   6.711   3.975  2.3712  0.1071  1.9736
  168SAPE   C3718928   3.521   6.834   4.096  0.1453  0.2525 -0.3737
  168SAPE   H7X18929   3.437   6.761   4.095  0.5879 -0.4000 -3.7831
  168SAPE   H7Y18930   3.481   6.936   4.077 -0.5234  0.3790  1.5423
  168SAPE   C3818931   3.583   6.822   4.237  0.1588 -0.4871  0.4206
  168SAPE   H8X18932   3.644   6.913   4.250  1.3970 -1.6234  3.9393
  168SAPE   H8Y18933   3.660   6.742   4.246  0.1308 -0.6785 -0.8737
  168SAPE   C3918934   3.490   6.840   4.355  0.1156  0.6956 -0.2122
  168SAPE   H9X18935   3.411   6.762   4.343  1.9361 -1.1002 -1.1474
  168SAPE   H9Y18936   3.453   6.945   4.352  2.5657  1.6730  1.2374
  168SAPE  C31018937   3.566   6.830   4.490 -0.1817  0.8013 -0.2940
  168SAPE  H10X18938   3.627   6.920   4.510  0.2154  0.3746  0.4268
  168SAPE  H10Y18939   3.631   6.741   4.479 -3.1548 -1.4707 -0.8764
  168SAPE  C31118940   3.478   6.800   4.610 -0.2499 -0.1919  0.4873
  168SAPE  H11X18941   3.409   6.716   4.591 -0.2836 -0.1256  0.3131
  168SAPE  H11Y18942   3.407   6.885   4.618 -1.4249 -1.0077 -0.8687
  168SAPE  C31218943   3.554   6.783   4.740 -0.2473  0.5195 -0.9255
  168SAPE  H12X18944   3.628   6.864   4.753 -0.9746  0.8522  1.5748
  168SAPE  H12Y18945   3.610   6.687   4.730 -1.6952 -0.3668 -0.9758
  168SAPE  C31318946   3.457   6.765   4.866  0.1124  0.3414  0.0408
  168SAPE  H13X18947   3.378   6.691   4.843 -0.0068  0.6569 -0.5749
  168SAPE  H13Y18948   3.403   6.862   4.875 -1.8949 -0.8622  1.8622
  168SAPE  C31418949   3.547   6.748   4.995 -0.4183 -0.0787  0.6137
  168SAPE  H14X18950   3.607   6.840   5.016  0.7524 -0.8588  0.7798
  168SAPE  H14Y18951   3.613   6.662   4.975 -2.4592 -1.7171  0.5931
  168SAPE  C31518952   3.464   6.697   5.112  0.4946  0.0529 -0.2061
  168SAPE  H15X18953   3.385   6.625   5.084  1.1061 -0.3341 -0.9772
  168SAPE  H15Y18954   3.416   6.792   5.144  0.3561  1.4285 -3.9297
  168SAPE  C31618955   3.548   6.644   5.223  0.6950 -0.1354 -0.2808
  168SAPE  H16X18956   3.623   6.575   5.180  2.0027  2.1025 -1.7764
  168SAPE  H16Y18957   3.471   6.595   5.287  1.0307  1.0183  1.0541
  168SAPE  C31718958   3.631   6.760   5.291  0.1280  0.6141  0.8346
  168SAPE  H17X18959   3.572   6.848   5.323 -0.2494  0.2530  1.1567
  168SAPE  H17Y18960   3.707   6.794   5.219  0.0764  0.3725  0.6642
  168SAPE  C31818961   3.717   6.717   5.410  0.2106 -0.4587 -0.4742
  168SAPE  H18X18962   3.788   6.796   5.442  0.7178 -0.9416 -0.4038
  168SAPE  H18Y18963   3.781   6.627   5.397 -0.6679 -0.9082 -1.8746
  168SAPE  H18Z18964   3.644   6.698   5.492 -0.7614  0.8927 -0.9959
  169SAPE     N18965   0.459   4.344   2.413  0.7100 -0.2663  0.1165
  169SAPE   HN118966   0.467   4.359   2.310 -0.2731  1.8313  0.2722
  169SAPE   HN218967   0.529   4.278   2.451  0.7435 -1.5673 -2.0626
  169SAPE   HN318968   0.367   4.300   2.435  0.1705  1.0589  0.6227
  169SAPE   C1218969   0.472   4.479   2.486  0.7445  0.3891 -0.0374
  169SAPE  H12A18970   0.421   4.465   2.584  1.6802  0.5883  0.4935
  169SAPE  H12B18971   0.404   4.547   2.429 -0.7359 -0.5509  0.5415
  169SAPE   C1118972   0.606   4.527   2.498 -0.0703 -0.6150  0.3587
  169SAPE  H11A18973   0.671   4.446   2.536  0.6090  0.0704  0.6880
  169SAPE  H11B18974   0.615   4.603   2.578 -0.6536  0.8688 -0.9342
  169SAPE     P18975   0.775   4.659   2.353  0.1772 -0.5135  0.3009
  169SAPE   O1318976   0.854   4.579   2.260 -0.1773  0.1603  0.7044
  169SAPE   O1418977   0.737   4.790   2.299  0.6919  0.6176 -0.2443
  169SAPE   O1218978   0.645   4.580   2.373  0.3159 -0.4249 -0.4594
  169SAPE   O1118979   0.843   4.662   2.494 -0.4573 -0.3413 -0.3459
  169SAPE    C118980   0.967   4.724   2.530 -0.2289  0.2643 -0.0713
  169SAPE    HA18981   1.032   4.648   2.579 -0.1610 -0.5530 -1.3827
  169SAPE    HB18982   1.022   4.767   2.444 -0.0430  3.0016  1.3148
  169SAPE    C218983   0.937   4.830   2.635  0.7286 -0.8718  0.0556
  169SAPE    HS18984   1.031   4.854   2.688  2.2482 -2.2095 -1.9033
  169SAPE   O2118985   0.829   4.794   2.722  0.0468 -0.0545 -0.6467
  169SAPE   C2118986   0.870   4.712   2.818 -0.7316 -0.4175 -0.6146
  169SAPE   O2218987   0.987   4.684   2.848 -1.0041 -0.1743  0.6564
  169SAPE   C2218988   0.750   4.644   2.887  0.3892  0.3458 -0.5280
  169SAPE   H2R18989   0.688   4.722   2.935  0.3760 -1.0248  1.8774
  169SAPE   H2S18990   0.674   4.605   2.816 -1.0050 -1.1308  1.6302
  169SAPE    C318991   0.890   4.959   2.554 -0.4587  0.1750  0.2920
  169SAPE    HX18992   0.787   4.923   2.532  1.5223 -4.9194 -2.3328
  169SAPE    HY18993   0.953   4.957   2.463  0.3803  0.2407  0.8578
  169SAPE   O3118994   0.900   5.079   2.636  0.3860 -0.3028 -0.2764
  169SAPE   C3118995   0.789   5.121   2.701 -0.3307 -0.2395  0.0191
  169SAPE   O3218996   0.674   5.077   2.693 -0.1900  0.0270  0.2821
  169SAPE   C3218997   0.823   5.236   2.802  0.2540 -0.2942 -0.0657
  169SAPE   H2X18998   0.793   5.329   2.750  0.8053  1.2151  2.1566
  169SAPE   H2Y18999   0.933   5.238   2.817  0.2309  2.1493  0.0744
  169SAPE   C2319000   0.776   4.520   2.980 -0.2567 -0.4989  0.1434
  169SAPE   H3R19001   0.842   4.454   2.920 -0.1653  0.3696 -0.7348
  169SAPE   H3S19002   0.676   4.486   3.015  0.1789 -1.7691  0.2203
  169SAPE   C2419003   0.874   4.547   3.105  0.2570 -0.2429 -0.2971
  169SAPE   H4R19004   0.970   4.586   3.065  0.0531 -0.1978 -0.7417
  169SAPE   H4S19005   0.867   4.445   3.150 -0.6414  0.1377  0.4567
  169SAPE   C2519006   0.811   4.639   3.213 -0.6208  0.8317  0.2095
  169SAPE   H5R19007   0.768   4.728   3.163 -0.9688  1.4806  1.6118
  169SAPE   C2619008   0.790   4.610   3.346  0.1293  0.6410  0.1932
  169SAPE   H6R19009   0.758   4.692   3.411 -2.0101 -0.6888  0.9281
  169SAPE   C2719010   0.857   4.495   3.418  0.1085 -0.1393 -0.3297
  169SAPE   H7R19011   0.940   4.531   3.482 -0.6404 -0.5484  0.9068
  169SAPE   H7S19012   0.904   4.427   3.344 -2.0878 -1.8586 -0.2761
  169SAPE   C2819013   0.768   4.416   3.505 -0.5170  0.3432  0.5307
  169SAPE   H8R19014   0.744   4.317   3.464  2.1366 -0.4145  0.6434
  169SAPE   C2919015   0.727   4.441   3.629 -0.4791  0.0033 -0.2652
  169SAPE   H9R19016   0.665   4.367   3.682  2.3614 -0.9082  2.0041
  169SAPE  C21019017   0.775   4.557   3.714 -0.3905  0.3523  0.3407
  169SAPE  H10R19018   0.690   4.612   3.762  1.1636  0.9048  2.6173
  169SAPE  H10S19019   0.838   4.629   3.656  0.6075  2.1865  3.4563
  169SAPE  C21119020   0.863   4.516   3.833 -0.1647  0.2104  0.6810
  169SAPE  H11R19021   0.970   4.497   3.819 -0.6704 -2.4809 -0.1724
  169SAPE  C21219022   0.827   4.505   3.959  0.2910 -0.0995  0.5049
  169SAPE  H12R19023   0.907   4.476   4.029 -2.2020 -0.8731  3.2320
  169SAPE  C21319024   0.685   4.509   4.013  0.5318 -0.3493  0.3767
  169SAPE  H13R19025   0.613   4.524   3.930 -0.0164 -1.2450  0.6751
  169SAPE  H13S19026   0.672   4.596   4.081  0.6850  0.5739 -0.7601
  169SAPE  C21419027   0.668   4.379   4.085 -0.0596  0.3076 -0.5405
  169SAPE  H14R19028   0.646   4.299   4.013  1.6045 -0.5589 -0.1352
  169SAPE  C21519029   0.685   4.343   4.220  0.5584  0.0344 -0.0617
  169SAPE  H15R19030   0.669   4.237   4.247 -1.1669 -0.0309 -1.1598
  169SAPE  C21619031   0.716   4.439   4.336 -0.6329  0.2325 -0.5972
  169SAPE  H16R19032   0.624   4.489   4.374 -0.7528 -0.4384  0.0269
  169SAPE  H16S19033   0.797   4.510   4.311  0.9129  0.2799  3.7160
  169SAPE  C21719034   0.785   4.368   4.459  1.0320 -0.4094 -0.3665
  169SAPE  H17R19035   0.706   4.308   4.509  0.9373  0.0177  0.0075
  169SAPE  H17S19036   0.814   4.454   4.524 -1.8329 -0.1356  0.7456
  169SAPE  C21819037   0.916   4.294   4.429  0.0777  0.0036 -0.1750
  169SAPE  H18R19038   0.973   4.368   4.369 -0.8884  2.0056  1.2467
  169SAPE  H18S19039   0.902   4.208   4.361 -0.0865  0.4502 -0.7188
  169SAPE  C21919040   0.994   4.261   4.557  0.6037 -0.6721  0.4833
  169SAPE  H19R19041   0.930   4.184   4.606 -1.4418 -0.3427 -1.5205
  169SAPE  H19S19042   0.992   4.338   4.637  1.2142 -0.2547  0.1044
  169SAPE  C22019043   1.133   4.215   4.536 -0.0313 -0.1909 -0.8009
  169SAPE  H20R19044   1.126   4.137   4.457  0.0143 -1.2518  0.2159
  169SAPE  H20S19045   1.183   4.151   4.612  0.5268 -0.3771 -1.3171
  169SAPE  H20T19046   1.210   4.286   4.499  2.0204 -1.3247  1.0378
  169SAPE   C3319047   0.754   5.216   2.946  0.2610 -0.3345  0.3156
  169SAPE   H3X19048   0.653   5.173   2.930 -1.2419  2.4004  1.7814
  169SAPE   H3Y19049   0.726   5.318   2.981 -0.7319 -0.6671  0.5265
  169SAPE   C3419050   0.831   5.125   3.037 -0.3119 -0.0422  0.2727
  169SAPE   H4X19051   0.927   5.176   3.060  1.4064 -1.0207 -3.8678
  169SAPE   H4Y19052   0.848   5.022   3.000  1.0442  0.3806 -0.3595
  169SAPE   C3519053   0.758   5.109   3.180  0.1119 -0.4406  0.1814
  169SAPE   H5X19054   0.653   5.081   3.156 -0.1242  1.2421 -0.9207
  169SAPE   H5Y19055   0.762   5.211   3.224 -3.2947  0.9223 -2.2387
  169SAPE   C3619056   0.829   5.008   3.270 -0.7015 -0.7749  0.7728
  169SAPE   H6X19057   0.939   5.027   3.273 -1.0563  1.4417  1.9884
  169SAPE   H6Y19058   0.815   4.908   3.225 -2.0757 -2.0206  3.7225
  169SAPE   C3719059   0.770   5.004   3.411 -0.0999  0.3020 -0.1268
  169SAPE   H7X19060   0.791   4.902   3.450  1.6732  0.3847 -0.8028
  169SAPE   H7Y19061   0.661   5.025   3.399 -0.3082  2.4309  3.6797
  169SAPE   C3819062   0.833   5.100   3.518  0.8877  0.1047  0.5442
  169SAPE   H8X19063   0.856   5.195   3.465  0.1242 -0.7640 -1.4609
  169SAPE   H8Y19064   0.931   5.062   3.554  0.6133 -1.6078 -0.3834
  169SAPE   C3919065   0.735   5.134   3.632 -0.4359  0.0565  0.4389
  169SAPE   H9X19066   0.628   5.130   3.603 -0.4309  0.4209  0.3585
  169SAPE   H9Y19067   0.758   5.235   3.672 -3.4658  1.2238 -0.4518
  169SAPE  C31019068   0.760   5.032   3.744 -0.7226 -0.6427 -0.5930
  169SAPE  H10X19069   0.866   5.019   3.773 -0.7253 -3.5462 -1.5519
  169SAPE  H10Y19070   0.730   4.933   3.704  0.4728 -0.9962 -0.6271
  169SAPE  C31119071   0.678   5.058   3.871 -0.0070 -0.1032  0.1777
  169SAPE  H11X19072   0.569   5.038   3.857 -0.0208 -0.1718  0.3887
  169SAPE  H11Y19073   0.688   5.164   3.903  0.3713 -0.3318  0.8365
  169SAPE  C31219074   0.713   4.970   3.992  0.4184  0.5686  0.1977
  169SAPE  H12X19075   0.824   4.957   4.000  0.5695  2.3068  1.4674
  169SAPE  H12Y19076   0.664   4.871   3.998 -3.0803  1.8946 -2.9163
  169SAPE  C31319077   0.666   5.046   4.128  0.1778 -0.5039  0.3191
  169SAPE  H13X19078   0.558   5.066   4.114  0.3112 -0.4739 -0.7592
  169SAPE  H13Y19079   0.724   5.140   4.144 -0.8998  0.4136 -0.9097
  169SAPE  C31419080   0.695   4.974   4.260  0.1390  1.2583  0.3223
  169SAPE  H14X19081   0.710   5.045   4.344  1.2483  1.5709 -0.1190
  169SAPE  H14Y19082   0.792   4.919   4.260 -0.8528 -0.5902  1.6909
  169SAPE  C31519083   0.588   4.886   4.316  1.0634 -0.2795  0.3058
  169SAPE  H15X19084   0.550   4.818   4.236  1.1387  0.3387 -0.2699
  169SAPE  H15Y19085   0.516   4.965   4.347  1.6477  0.3342  0.1265
  169SAPE  C31619086   0.630   4.806   4.441 -0.0854 -0.0108 -0.0181
  169SAPE  H16X19087   0.679   4.870   4.518 -0.5307  0.5245 -0.1709
  169SAPE  H16Y19088   0.696   4.726   4.402  0.1731  0.6928 -1.0661
  169SAPE  C31719089   0.514   4.740   4.514 -0.3849  0.0734  0.5395
  169SAPE  H17X19090   0.500   4.641   4.465 -1.4159  0.1793  0.5935
  169SAPE  H17Y19091   0.420   4.797   4.500  1.0833  2.4974 -0.0218
  169SAPE  C31819092   0.534   4.702   4.656  0.2915  0.2390 -0.1528
  169SAPE  H18X19093   0.441   4.663   4.701  0.6086 -0.8424 -0.4124
  169SAPE  H18Y19094   0.580   4.778   4.724  0.4592  0.5288 -0.5842
  169SAPE  H18Z19095   0.598   4.611   4.660 -2.1934 -1.5502  2.0937
  170SAPE     N19096   1.623   0.748   2.301  0.2376  0.2285 -0.0861
  170SAPE   HN119097   1.602   0.793   2.210  1.1289  1.8110  0.4399
  170SAPE   HN219098   1.601   0.817   2.376 -1.5615 -0.7726  0.3515
  170SAPE   HN319099   1.725   0.728   2.305 -0.2443 -2.5987  0.1888
  170SAPE   C1219100   1.557   0.613   2.313 -0.0405 -0.1195  0.4428
  170SAPE  H12A19101   1.640   0.540   2.320  0.2242  0.3354  2.5946
  170SAPE  H12B19102   1.502   0.594   2.219  1.2017  1.4599 -0.6564
  170SAPE   C1119103   1.483   0.610   2.439  0.3569 -0.3355 -0.4145
  170SAPE  H11A19104   1.418   0.698   2.458  2.3773  1.1403  0.0640
  170SAPE  H11B19105   1.555   0.620   2.523  0.1687 -2.2496  0.0308
  170SAPE     P19106   1.472   0.351   2.496  0.0986 -0.0204  0.1177
  170SAPE   O1319107   1.438   0.270   2.378  0.4802  0.1211 -0.2889
  170SAPE   O1419108   1.614   0.365   2.526  0.9065  0.2958  0.3688
  170SAPE   O1219109   1.408   0.494   2.459 -0.5562 -0.2185  0.3324
  170SAPE   O1119110   1.397   0.306   2.622  0.2541 -0.1692 -0.4300
  170SAPE    C119111   1.284   0.375   2.681 -0.8150  0.0238 -0.5781
  170SAPE    HA19112   1.224   0.441   2.615 -0.8283  1.1978  0.5830
  170SAPE    HB19113   1.212   0.295   2.706  0.0316 -0.6231 -0.1393
  170SAPE    C219114   1.326   0.442   2.814  0.3129  0.6262  0.7623
  170SAPE    HS19115   1.365   0.540   2.781  0.1135  0.0924 -1.2125
  170SAPE   O2119116   1.424   0.360   2.881 -0.2649  1.0391 -0.6298
  170SAPE   C2119117   1.492   0.429   2.974  0.1806  0.2594 -0.3278
  170SAPE   O2219118   1.491   0.552   2.986  0.2417 -0.1202  0.0622
  170SAPE   C2219119   1.581   0.335   3.055  0.5722 -0.6559 -0.2143
  170SAPE   H2R19120   1.529   0.258   3.117  1.5195 -1.5914 -0.5542
  170SAPE   H2S19121   1.642   0.269   2.990  1.1674  0.0191 -0.3463
  170SAPE    C319122   1.198   0.479   2.903  0.7326 -0.1207  1.4612
  170SAPE    HX19123   1.129   0.529   2.833  1.7177 -1.0844 -0.2845
  170SAPE    HY19124   1.239   0.553   2.975  1.2671 -1.1408  2.2376
  170SAPE   O3119125   1.146   0.359   2.970  0.1572  0.0094  0.7920
  170SAPE   C3119126   1.175   0.342   3.095 -0.0394  0.1260 -0.8587
  170SAPE   O3219127   1.242   0.413   3.169 -0.3242 -0.7178  0.0808
  170SAPE   C3219128   1.115   0.208   3.137 -0.4280  0.7778 -0.3596
  170SAPE   H2X19129   1.144   0.138   3.056 -0.8981  0.7262 -0.4896
  170SAPE   H2Y19130   1.004   0.217   3.137 -0.4567  0.4594  0.5994
  170SAPE   C2319131   1.670   0.419   3.141 -0.5863  0.6446 -0.4172
  170SAPE   H3R19132   1.728   0.492   3.079  0.8309 -0.7326 -0.7833
  170SAPE   H3S19133   1.744   0.343   3.175  1.0138  1.5681 -1.6548
  170SAPE   C2419134   1.608   0.490   3.271  0.2822 -0.0979  0.1881
  170SAPE   H4R19135   1.531   0.565   3.243 -0.5913 -1.8704 -2.5256
  170SAPE   H4S19136   1.699   0.539   3.312  0.7631  0.9036 -1.9676
  170SAPE   C2519137   1.548   0.402   3.372  0.2106 -0.5304 -0.6228
  170SAPE   H5R19138   1.489   0.320   3.328  0.6067 -0.5548 -1.1137
  170SAPE   C2619139   1.551   0.423   3.508  0.1062  0.3333  0.1914
  170SAPE   H6R19140   1.497   0.344   3.564 -1.8343  2.0444  0.8466
  170SAPE   C2719141   1.636   0.525   3.577  0.0814 -0.3289 -0.5242
  170SAPE   H7R19142   1.579   0.598   3.638  1.5750  1.1156 -0.7995
  170SAPE   H7S19143   1.694   0.588   3.506 -0.0868  2.1825  1.4137
  170SAPE   C2819144   1.735   0.462   3.673 -0.0013 -0.5961 -0.1771
  170SAPE   H8R19145   1.815   0.404   3.624  2.1842  0.5848  1.7903
  170SAPE   C2919146   1.742   0.473   3.812 -0.6669 -0.0575  0.7728
  170SAPE   H9R19147   1.817   0.412   3.864 -0.8966 -1.6988 -0.6933
  170SAPE  C21019148   1.652   0.557   3.902 -0.7539 -0.3963  0.9440
  170SAPE  H10R19149   1.588   0.488   3.960  0.4635  0.3431  3.2599
  170SAPE  H10S19150   1.590   0.627   3.841 -0.4151 -0.3250  0.6759
  170SAPE  C21119151   1.728   0.663   3.981  0.3264  0.8593  0.2477
  170SAPE  H11R19152   1.744   0.758   3.929 -0.2586  0.3277 -0.9540
  170SAPE  C21219153   1.775   0.644   4.107 -0.2388  0.0581  0.6390
  170SAPE  H12R19154   1.833   0.727   4.150 -2.9877  1.9353  0.9873
  170SAPE  C21319155   1.754   0.523   4.191 -0.3310  0.6670  0.0890
  170SAPE  H13R19156   1.833   0.521   4.269  0.5589  1.7814 -0.7609
  170SAPE  H13S19157   1.751   0.429   4.133 -1.9971  1.1916 -0.7495
  170SAPE  C21419158   1.622   0.530   4.268 -0.9333  0.0614 -0.0492
  170SAPE  H14R19159   1.550   0.605   4.232  0.3136  0.0428 -2.8210
  170SAPE  C21519160   1.596   0.446   4.371  0.3715 -0.2901  0.7266
  170SAPE  H15R19161   1.499   0.452   4.423  0.9733 -0.2771  1.8919
  170SAPE  C21619162   1.680   0.332   4.422 -0.0990  0.9940 -0.1250
  170SAPE  H16R19163   1.778   0.316   4.372 -0.1828  1.8716 -0.5876
  170SAPE  H16S19164   1.619   0.240   4.416 -1.3370  1.8130 -0.5830
  170SAPE  C21719165   1.713   0.339   4.576 -0.1799 -0.5807  0.5578
  170SAPE  H17R19166   1.777   0.259   4.617 -1.4797 -1.4755  0.9024
  170SAPE  H17S19167   1.617   0.342   4.631 -1.6062  1.1818 -1.8064
  170SAPE  C21819168   1.788   0.475   4.619  1.4205  0.5619  0.2725
  170SAPE  H18R19169   1.722   0.564   4.610 -0.5213 -0.7191  1.2506
  170SAPE  H18S19170   1.875   0.492   4.551  0.7112  1.3660 -0.4581
  170SAPE  C21919171   1.853   0.457   4.760  0.1414 -0.1671  0.9292
  170SAPE  H19R19172   1.945   0.395   4.765  0.7740  0.6957  0.2736
  170SAPE  H19S19173   1.769   0.421   4.824 -1.0378 -0.5788 -0.7808
  170SAPE  C22019174   1.883   0.590   4.826 -0.1735 -0.9075  0.2392
  170SAPE  H20R19175   1.962   0.659   4.789 -2.2716  1.0780 -0.8468
  170SAPE  H20S19176   1.915   0.574   4.931 -0.1538  0.1837  0.4093
  170SAPE  H20T19177   1.792   0.654   4.821 -0.9415 -2.0330 -0.7308
  170SAPE   C3319178   1.160   0.144   3.274  0.6548  0.0241 -0.2290
  170SAPE   H3X19179   1.269   0.125   3.290  0.0609 -1.2535  2.8116
  170SAPE   H3Y19180   1.109   0.046   3.285  1.5467 -0.7102 -2.0709
  170SAPE   C3419181   1.127   0.236   3.388  0.1919  0.6052 -0.2057
  170SAPE   H4X19182   1.018   0.259   3.395  0.3255  0.9022  1.2927
  170SAPE   H4Y19183   1.190   0.327   3.398  2.3764 -0.7169 -1.3183
  170SAPE   C3519184   1.163   0.162   3.526 -0.0798 -0.1645  1.2044
  170SAPE   H5X19185   1.273   0.147   3.520 -0.3715 -3.1499  1.5812
  170SAPE   H5Y19186   1.118   0.061   3.542 -0.4716 -0.1888  0.0203
  170SAPE   C3619187   1.130   0.249   3.643 -0.1193  0.8958 -0.4277
  170SAPE   H6X19188   1.031   0.298   3.633 -1.7873 -2.1212  0.0011
  170SAPE   H6Y19189   1.205   0.331   3.654  0.0253  0.5940  1.1923
  170SAPE   C3719190   1.127   0.172   3.780 -0.1669 -0.7407  0.6980
  170SAPE   H7X19191   1.220   0.113   3.796 -0.0907 -0.6693  0.5160
  170SAPE   H7Y19192   1.050   0.092   3.777  0.3255 -1.2034 -1.7861
  170SAPE   C3819193   1.101   0.277   3.895 -0.2474 -0.9193 -0.5520
  170SAPE   H8X19194   1.002   0.318   3.866 -0.1195  0.2455  0.5781
  170SAPE   H8Y19195   1.186   0.348   3.903  0.3649 -1.3166 -2.9121
  170SAPE   C3919196   1.075   0.197   4.031  0.1116  0.1243 -0.8741
  170SAPE   H9X19197   1.168   0.152   4.072  0.4198 -0.0911 -1.8048
  170SAPE   H9Y19198   1.016   0.110   3.996  2.8753 -1.6912 -1.3612
  170SAPE  C31019199   1.011   0.278   4.153  0.1163  0.1477 -0.1949
  170SAPE  H10X19200   0.913   0.324   4.129  1.4734  3.3264 -0.1630
  170SAPE  H10Y19201   1.082   0.360   4.177 -0.6760  0.6130  0.6442
  170SAPE  C31119202   0.985   0.178   4.272  0.1849  0.5194 -0.1196
  170SAPE  H11X19203   1.082   0.124   4.279 -0.5638 -1.3565 -2.8013
  170SAPE  H11Y19204   0.908   0.108   4.233  3.1790 -2.3837 -1.2800
  170SAPE  C31219205   0.950   0.247   4.404 -0.5541 -0.2944  0.4855
  170SAPE  H12X19206   0.853   0.300   4.390  0.0355  0.5142 -0.7389
  170SAPE  H12Y19207   1.023   0.328   4.426 -2.7252  1.8665  0.2443
  170SAPE  C31319208   0.946   0.155   4.524 -0.3946 -0.3955  0.6897
  170SAPE  H13X19209   0.890   0.062   4.497 -0.4760 -0.4164  0.9276
  170SAPE  H13Y19210   0.882   0.212   4.594 -0.3122 -0.7472  1.0593
  170SAPE  C31419211   1.080   0.130   4.594 -0.0013  0.7721 -0.9676
  170SAPE  H14X19212   1.129   0.230   4.599  2.3085 -0.3612  1.0220
  170SAPE  H14Y19213   1.151   0.086   4.520  0.1489 -0.2692 -0.2301
  170SAPE  C31519214   1.075   0.047   4.726 -0.2970  0.0391 -0.1914
  170SAPE  H15X19215   1.047  -0.057   4.700  0.9532 -0.3801  0.0520
  170SAPE  H15Y19216   1.001   0.102   4.789  1.7231  2.1742  0.4573
  170SAPE  C31619217   1.210   0.035   4.795  0.2528  0.0029 -0.1647
  170SAPE  H16X19218   1.251   0.135   4.817  0.7861 -0.3126  0.3144
  170SAPE  H16Y19219   1.281  -0.007   4.721  0.1860 -0.4351  0.0123
  170SAPE  C31719220   1.196  -0.047   4.925 -0.2834  0.2128 -0.0975
  170SAPE  H17X19221   1.134  -0.136   4.902 -2.5779  1.8810 -0.6857
  170SAPE  H17Y19222   1.144   0.012   5.003  1.5352 -1.0502  2.1745
  170SAPE  C31819223   1.327  -0.083   4.986 -1.1489  0.3002  0.1865
  170SAPE  H18X19224   1.319  -0.108   5.093 -1.1508 -1.7088 -0.2460
  170SAPE  H18Y19225   1.399   0.002   4.976  2.1259 -2.2629  0.3520
  170SAPE  H18Z19226   1.360  -0.172   4.927 -0.8478  0.7356 -0.3221
  171SAPE     N19227   1.963   0.017   2.679 -0.1657  0.0519  0.4725
  171SAPE   HN119228   1.901  -0.053   2.724  1.9671 -2.6550 -0.5472
  171SAPE   HN219229   2.003   0.061   2.765  0.7385 -2.8553  1.6415
  171SAPE   HN319230   1.914   0.091   2.624 -0.7808  0.0958  1.0681
  171SAPE   C1219231   2.068  -0.055   2.611 -0.8095 -0.3404 -0.1611
  171SAPE  H12A19232   2.146   0.023   2.599 -2.3958  1.8694  2.6685
  171SAPE  H12B19233   2.029  -0.083   2.510 -0.7820  1.4604 -0.7151
  171SAPE   C1119234   2.128  -0.175   2.680  0.6443  0.4977 -1.0937
  171SAPE  H11A19235   2.149  -0.137   2.782 -2.6484  2.7713 -1.0904
  171SAPE  H11B19236   2.223  -0.208   2.634  1.5886  0.0304  1.0588
  171SAPE     P19237   2.011  -0.400   2.589 -0.5530 -0.2869  0.2909
  171SAPE   O1319238   1.869  -0.434   2.592  0.0185 -0.2606 -0.3552
  171SAPE   O1419239   2.071  -0.365   2.462  0.1360 -0.0742 -0.4951
  171SAPE   O1219240   2.030  -0.283   2.691  0.1053 -0.0899 -0.4265
  171SAPE   O1119241   2.095  -0.528   2.654  0.2307  0.4935 -0.1596
  171SAPE    C119242   2.202  -0.494   2.746  0.0859 -0.0109  0.9862
  171SAPE    HA19243   2.285  -0.560   2.714 -1.3323 -1.6819  0.5842
  171SAPE    HB19244   2.245  -0.391   2.740  1.3788 -0.5905  0.0374
  171SAPE    C219245   2.174  -0.534   2.893  0.0057 -0.0014  0.6577
  171SAPE    HS19246   2.270  -0.560   2.942  0.4264  1.2679  0.5414
  171SAPE   O2119247   2.086  -0.643   2.903 -0.3997 -0.0645 -0.3941
  171SAPE   C2119248   2.125  -0.756   2.854 -0.2232  0.2207  0.3030
  171SAPE   O2219249   2.238  -0.796   2.827  0.3010  0.4938 -0.6888
  171SAPE   C2219250   1.999  -0.827   2.822  0.1890 -0.1185  0.0357
  171SAPE   H2R19251   1.908  -0.765   2.834 -0.2325 -0.3552 -1.6506
  171SAPE   H2S19252   1.999  -0.858   2.715  1.2913 -0.1614  0.0344
  171SAPE    C319253   2.115  -0.412   2.968  0.0067 -0.1940 -0.0003
  171SAPE    HX19254   2.019  -0.374   2.929 -0.0612  0.9941  1.2389
  171SAPE    HY19255   2.181  -0.324   2.950  0.0881  0.2203  2.0620
  171SAPE   O3119256   2.105  -0.433   3.108 -0.3136  0.1370  0.0772
  171SAPE   C3119257   2.000  -0.504   3.153 -0.1830  0.4849  0.3967
  171SAPE   O3219258   1.897  -0.522   3.086  0.0574 -0.1697 -0.5886
  171SAPE   C3219259   2.017  -0.559   3.287 -0.0712 -0.3585  0.4275
  171SAPE   H2X19260   2.112  -0.616   3.285  0.5000  0.5806  0.3431
  171SAPE   H2Y19261   1.929  -0.624   3.308 -0.0215 -0.5025  0.1809
  171SAPE   C2319262   1.990  -0.957   2.900  0.8673 -0.2507 -0.2732
  171SAPE   H3R19263   2.078  -1.024   2.910  2.3339  1.5442 -0.7804
  171SAPE   H3S19264   1.917  -1.017   2.842  2.0452 -1.5497 -0.4642
  171SAPE   C2419265   1.943  -0.937   3.041  0.1609  0.2478 -0.1869
  171SAPE   H4R19266   1.918  -1.041   3.073  0.0444 -0.3293 -2.0051
  171SAPE   H4S19267   1.845  -0.886   3.048 -0.7556 -1.5759  1.0525
  171SAPE   C2519268   2.062  -0.912   3.133  0.8222  0.8970  0.5344
  171SAPE   H5R19269   2.147  -0.866   3.080  1.8523  0.2810  1.6154
  171SAPE   C2619270   2.072  -0.946   3.264 -0.6609 -0.1826  0.2003
  171SAPE   H6R19271   2.161  -0.916   3.321 -0.6378  2.3538 -1.0599
  171SAPE   C2719272   1.976  -1.017   3.356 -0.0376 -0.1529 -0.3275
  171SAPE   H7R19273   2.024  -1.090   3.424 -0.0791 -1.1803 -1.3741
  171SAPE   H7S19274   1.904  -1.078   3.298  0.5868 -1.3432  0.1157
  171SAPE   C2819275   1.889  -0.915   3.435 -0.1139 -0.3413  0.4410
  171SAPE   H8R19276   1.814  -0.862   3.376 -0.4239  0.2686  1.3569
  171SAPE   C2919277   1.914  -0.873   3.565 -0.5077 -0.7122  0.9349
  171SAPE   H9R19278   1.849  -0.800   3.615  2.0585  1.0301  1.9344
  171SAPE  C21019279   2.006  -0.944   3.666 -0.5986 -0.8129 -0.0111
  171SAPE  H10R19280   2.052  -0.862   3.726 -2.3945  1.8623 -2.0078
  171SAPE  H10S19281   2.096  -0.987   3.619  0.4212  1.0002  0.1821
  171SAPE  C21119282   1.943  -1.045   3.748  0.2053  0.1699  1.1862
  171SAPE  H11R19283   1.896  -1.126   3.691  1.4137  1.1816 -1.4143
  171SAPE  C21219284   1.941  -1.048   3.882 -0.0066  0.4436  0.1982
  171SAPE  H12R19285   1.891  -1.128   3.938 -2.1602  0.5305 -1.4642
  171SAPE  C21319286   2.018  -0.954   3.974 -0.2737  0.2569  0.0111
  171SAPE  H13R19287   1.968  -0.935   4.072  1.1863  1.0806  0.6186
  171SAPE  H13S19288   2.048  -0.856   3.932  0.2000 -0.4069 -1.2238
  171SAPE  C21419289   2.151  -1.016   4.009 -0.4158  0.0386 -0.2898
  171SAPE  H14R19290   2.193  -1.076   3.927 -0.3870 -2.3533  1.3903
  171SAPE  C21519291   2.215  -1.032   4.131  0.1059 -0.2746  0.1531
  171SAPE  H15R19292   2.302  -1.099   4.126  0.2470 -0.0914  0.1226
  171SAPE  C21619293   2.174  -0.977   4.263 -0.1355  0.6586 -0.0617
  171SAPE  H16R19294   2.086  -0.909   4.257 -1.6251 -1.2283 -1.0206
  171SAPE  H16S19295   2.255  -0.922   4.316  1.0324  0.1704 -1.2909
  171SAPE  C21719296   2.141  -1.101   4.354 -0.3997 -0.6459 -0.5546
  171SAPE  H17R19297   2.151  -1.071   4.461 -1.8451  3.3898 -1.3720
  171SAPE  H17S19298   2.223  -1.174   4.336  1.1394  0.8372  0.1335
  171SAPE  C21819299   1.998  -1.157   4.326 -0.3581 -1.2713 -0.1004
  171SAPE  H18R19300   2.003  -1.256   4.376  0.7374 -2.3794 -2.2413
  171SAPE  H18S19301   1.987  -1.178   4.217  1.0488  1.2592 -0.8102
  171SAPE  C21919302   1.884  -1.069   4.377 -0.7130 -0.3493 -0.2754
  171SAPE  H19R19303   1.792  -1.131   4.363  2.0365 -4.8008 -0.6523
  171SAPE  H19S19304   1.869  -0.972   4.326 -2.3858  0.5775  1.8071
  171SAPE  C22019305   1.903  -1.030   4.526  0.3020  0.5475  0.4756
  171SAPE  H20R19306   1.929  -1.120   4.586  1.4136  0.0748 -0.6564
  171SAPE  H20S19307   1.806  -0.986   4.557 -1.2106 -1.8539 -0.5694
  171SAPE  H20T19308   1.983  -0.953   4.528  1.8258 -0.9390  2.6319
  171SAPE   C3319309   2.036  -0.451   3.394  0.3764 -0.1144  0.3204
  171SAPE   H3X19310   1.948  -0.383   3.390  1.3861  1.2968  1.2174
  171SAPE   H3Y19311   2.124  -0.385   3.378 -1.7536  4.0334  3.8144
  171SAPE   C3419312   2.023  -0.504   3.540  0.5941 -0.2567  0.4262
  171SAPE   H4X19313   2.090  -0.593   3.549 -0.5258 -1.5439 -2.6355
  171SAPE   H4Y19314   1.921  -0.546   3.555  0.7083 -0.2129  1.4031
  171SAPE   C3519315   2.051  -0.400   3.644 -0.0385 -0.5991  0.3471
  171SAPE   H5X19316   1.970  -0.329   3.616 -1.3966 -1.2259  2.4410
  171SAPE   H5Y19317   2.146  -0.351   3.612  0.9167 -0.2650  3.3356
  171SAPE   C3619318   2.057  -0.441   3.791  0.7225  0.9356  0.9439
  171SAPE   H6X19319   2.079  -0.346   3.843  2.4418  0.4854  1.1287
  171SAPE   H6Y19320   2.136  -0.515   3.819  0.9511  1.7709  2.6289
  171SAPE   C3719321   1.919  -0.499   3.841  1.1190 -0.0677 -0.0944
  171SAPE   H7X19322   1.907  -0.602   3.804 -2.0171  0.2709 -0.3175
  171SAPE   H7Y19323   1.835  -0.438   3.801  1.1582  0.6516  0.8734
  171SAPE   C3819324   1.913  -0.510   3.995  0.2957  0.4720  0.5059
  171SAPE   H8X19325   1.828  -0.569   4.036 -0.1201 -0.6209 -1.7760
  171SAPE   H8Y19326   1.900  -0.405   4.029 -1.5707  0.7947 -0.9944
  171SAPE   C3919327   2.038  -0.570   4.058 -0.6163 -0.2771 -0.0980
  171SAPE   H9X19328   2.112  -0.489   4.046  0.3953 -1.2316 -0.4403
  171SAPE   H9Y19329   2.064  -0.654   3.991 -1.6908  0.1538 -1.0908
  171SAPE  C31019330   2.003  -0.618   4.204  0.3791 -0.9953  0.5229
  171SAPE  H10X19331   2.096  -0.635   4.262  1.3878  2.2408  0.0593
  171SAPE  H10Y19332   1.939  -0.708   4.190 -0.0686 -0.6806  0.5669
  171SAPE  C31119333   1.914  -0.520   4.277  0.5293  0.6877 -0.6910
  171SAPE  H11X19334   1.804  -0.527   4.260 -0.1368  0.7584  2.8559
  171SAPE  H11Y19335   1.958  -0.421   4.251  2.7980 -0.7747 -2.9288
  171SAPE  C31219336   1.923  -0.539   4.430  0.6839  0.4055  0.2826
  171SAPE  H12X19337   2.031  -0.524   4.450  0.8038  0.7466 -0.5617
  171SAPE  H12Y19338   1.890  -0.638   4.469 -0.2461  0.0020 -1.3953
  171SAPE  C31319339   1.844  -0.425   4.494  0.0092 -0.1624 -0.3740
  171SAPE  H13X19340   1.736  -0.442   4.474 -0.8805  0.8424  2.9731
  171SAPE  H13Y19341   1.874  -0.326   4.454  0.6128 -0.0897  0.2240
  171SAPE  C31419342   1.857  -0.418   4.642  0.2917 -0.4485 -0.4806
  171SAPE  H14X19343   1.854  -0.312   4.672 -0.6914  0.0895 -2.3589
  171SAPE  H14Y19344   1.957  -0.461   4.666  1.4014  0.7555 -2.6039
  171SAPE  C31519345   1.740  -0.494   4.708 -0.1696  0.3470  0.2705
  171SAPE  H15X19346   1.741  -0.604   4.697  0.1991  0.4705 -1.2004
  171SAPE  H15Y19347   1.645  -0.456   4.665 -2.0716 -2.8047  1.3307
  171SAPE  C31619348   1.739  -0.465   4.858  0.1188 -0.4184 -0.2979
  171SAPE  H16X19349   1.746  -0.355   4.875  0.7601 -0.7281  1.6515
  171SAPE  H16Y19350   1.826  -0.516   4.903  0.2656 -0.0403 -0.1480
  171SAPE  C31719351   1.607  -0.516   4.925  0.6162  0.1730 -0.7966
  171SAPE  H17X19352   1.605  -0.626   4.913  3.0625 -0.3280  2.1507
  171SAPE  H17Y19353   1.519  -0.478   4.869 -0.5333  0.2598  0.9677
  171SAPE  C31819354   1.590  -0.470   5.075  0.0433 -0.2234 -0.3834
  171SAPE  H18X19355   1.661  -0.393   5.110  0.3723 -0.4474 -0.5499
  171SAPE  H18Y19356   1.608  -0.558   5.140  1.1206 -0.6775 -1.2615
  171SAPE  H18Z19357   1.486  -0.435   5.090 -0.4465 -1.9102  0.4157
  172SAPE     N19358   3.036   0.167   2.331  0.0570  0.4008  0.1998
  172SAPE   HN119359   3.122   0.221   2.354 -0.0281  1.7256 -2.2323
  172SAPE   HN219360   3.052   0.088   2.266  0.3668 -1.4380  2.3667
  172SAPE   HN319361   2.963   0.235   2.301  0.0175  0.6131  0.7694
  172SAPE   C1219362   2.970   0.099   2.446 -0.6084 -0.0562 -0.4066
  172SAPE  H12A19363   2.930   0.175   2.516  1.0374 -0.7977  1.4313
  172SAPE  H12B19364   3.050   0.044   2.500 -0.4322  0.1591 -0.4427
  172SAPE   C1119365   2.854   0.016   2.393 -0.1112  0.0887 -0.2836
  172SAPE  H11A19366   2.803  -0.036   2.477  0.8214  1.0295  0.8805
  172SAPE  H11B19367   2.874  -0.065   2.319 -2.5860 -0.0120 -0.9566
  172SAPE     P19368   2.635   0.168   2.415 -0.6109 -0.3727 -0.5064
  172SAPE   O1319369   2.598   0.297   2.351 -0.4335  0.3190  0.5560
  172SAPE   O1419370   2.537   0.058   2.430  0.4408 -0.5855 -0.4899
  172SAPE   O1219371   2.756   0.113   2.337 -0.7395 -0.2422 -0.7816
  172SAPE   O1119372   2.689   0.208   2.559  0.5240  0.0585  0.3134
  172SAPE    C119373   2.670   0.134   2.674 -0.4105 -0.0765 -0.7971
  172SAPE    HA19374   2.688   0.025   2.658  1.9747  0.2098 -0.3601
  172SAPE    HB19375   2.750   0.172   2.740  0.8277 -0.5627 -1.9724
  172SAPE    C219376   2.540   0.167   2.742 -0.8881 -0.0214  0.0960
  172SAPE    HS19377   2.468   0.101   2.688 -1.9615  0.8815  0.3929
  172SAPE   O2119378   2.508   0.301   2.728 -0.0016 -0.3439  0.3903
  172SAPE   C2119379   2.382   0.326   2.741 -0.1940 -0.6898 -0.2529
  172SAPE   O2219380   2.301   0.241   2.769  0.7174 -0.3381 -0.4995
  172SAPE   C2219381   2.350   0.473   2.716  0.0368 -0.0011 -0.5502
  172SAPE   H2R19382   2.429   0.541   2.752  0.0173 -0.4417  0.3461
  172SAPE   H2S19383   2.329   0.499   2.610  1.3640  1.8332 -0.4064
  172SAPE    C319384   2.536   0.118   2.898 -1.1025 -0.4887  0.3427
  172SAPE    HX19385   2.570   0.013   2.884 -3.3541 -1.0305 -1.7634
  172SAPE    HY19386   2.431   0.109   2.933 -0.3886 -1.0744  2.4586
  172SAPE   O3119387   2.634   0.191   2.971 -0.1666 -0.2778 -0.1568
  172SAPE   C3119388   2.592   0.276   3.061  0.2656 -1.0171 -0.0583
  172SAPE   O3219389   2.476   0.286   3.090  0.3784  0.0907 -0.5319
  172SAPE   C3219390   2.713   0.350   3.112 -0.5946  0.0483 -0.0088
  172SAPE   H2X19391   2.718   0.452   3.068 -1.8356 -0.6167 -1.8160
  172SAPE   H2Y19392   2.808   0.295   3.093  0.5152  1.3598  1.5318
  172SAPE   C2319393   2.216   0.506   2.782 -0.5529 -0.1117 -0.3557
  172SAPE   H3R19394   2.132   0.434   2.773 -0.5474 -0.5784  2.3239
  172SAPE   H3S19395   2.180   0.599   2.734  0.4818 -0.8175 -2.6133
  172SAPE   C2419396   2.235   0.501   2.940 -0.5172  0.2967  0.0913
  172SAPE   H4R19397   2.314   0.574   2.967  2.3979 -1.7403 -2.2229
  172SAPE   H4S19398   2.270   0.399   2.964  3.0820  1.1991 -0.7068
  172SAPE   C2519399   2.113   0.544   3.002  0.2424 -0.9519 -0.4356
  172SAPE   H5R19400   2.065   0.629   2.951  1.6273 -0.1435 -0.4543
  172SAPE   C2619401   2.054   0.495   3.117 -0.5765  0.1430  0.4394
  172SAPE   H6R19402   1.968   0.551   3.156 -0.6609  0.6192 -0.4070
  172SAPE   C2719403   2.089   0.376   3.205  0.4770 -0.3052  0.4522
  172SAPE   H7R19404   2.110   0.295   3.131 -0.1183 -0.3116  0.2889
  172SAPE   H7S19405   2.003   0.348   3.268 -0.4086  1.1205 -0.0805
  172SAPE   C2819406   2.213   0.408   3.274 -0.0466 -0.2689 -0.1844
  172SAPE   H8R19407   2.299   0.422   3.208 -0.7430  0.4644 -0.9595
  172SAPE   C2919408   2.228   0.407   3.407  0.0688 -0.3864 -0.1982
  172SAPE   H9R19409   2.328   0.437   3.442  0.0468  0.1614 -0.5867
  172SAPE  C21019410   2.128   0.372   3.520  0.1746 -0.5157  0.0632
  172SAPE  H10R19411   2.174   0.280   3.562 -3.9003 -1.9726  1.8825
  172SAPE  H10S19412   2.026   0.342   3.487 -1.1472  1.4721  2.0122
  172SAPE  C21119413   2.138   0.484   3.618  0.1566  0.5107  0.0691
  172SAPE  H11R19414   2.134   0.583   3.571  1.8060  0.4274 -0.3179
  172SAPE  C21219415   2.149   0.468   3.749 -0.0425 -0.2661 -0.2126
  172SAPE  H12R19416   2.170   0.557   3.811  0.7995 -0.2229 -0.5454
  172SAPE  C21319417   2.135   0.336   3.820  0.5935 -0.2902 -0.5873
  172SAPE  H13R19418   2.128   0.249   3.751  0.8858 -0.0518 -0.9163
  172SAPE  H13S19419   2.040   0.337   3.878 -1.7520 -2.5344 -3.9928
  172SAPE  C21419420   2.249   0.311   3.920 -0.1018 -0.1747 -0.1259
  172SAPE  H14R19421   2.347   0.298   3.872 -0.2622  0.2169 -0.5685
  172SAPE  C21519422   2.237   0.310   4.054  0.2365  1.2827 -0.0266
  172SAPE  H15R19423   2.327   0.292   4.115 -1.2100 -0.6572  1.6671
  172SAPE  C21619424   2.116   0.343   4.142  0.6584 -0.4064  0.2909
  172SAPE  H16R19425   2.050   0.416   4.091 -0.5749 -0.5833  1.5793
  172SAPE  H16S19426   2.141   0.394   4.238  1.2589 -1.9357  0.9849
  172SAPE  C21719427   2.032   0.220   4.189 -0.3585 -0.0541  0.3368
  172SAPE  H17R19428   2.000   0.161   4.100 -1.9577 -0.2062  0.9861
  172SAPE  H17S19429   1.939   0.255   4.238 -1.2679 -2.4448  0.4544
  172SAPE  C21819430   2.111   0.121   4.287  0.1126  0.1937  0.1325
  172SAPE  H18R19431   2.146   0.186   4.370  0.9468  0.6571 -0.5579
  172SAPE  H18S19432   2.189   0.085   4.216  0.1806  0.8780 -0.1432
  172SAPE  C21919433   2.020   0.011   4.345  0.0689 -0.4207  0.4250
  172SAPE  H19R19434   1.994  -0.063   4.266 -0.5663 -0.5654  0.7655
  172SAPE  H19S19435   1.923   0.052   4.382  0.4369 -0.5668  1.6019
  172SAPE  C22019436   2.087  -0.072   4.452  0.0339 -0.3580 -0.6199
  172SAPE  H20R19437   2.026  -0.165   4.460 -2.2816  1.0831 -0.4366
  172SAPE  H20S19438   2.105  -0.019   4.548 -0.4457 -1.1109 -0.1017
  172SAPE  H20T19439   2.187  -0.102   4.414 -0.1835 -0.8627 -0.8001
  172SAPE   C3319440   2.704   0.393   3.262  0.0089 -1.0981  0.3810
  172SAPE   H3X19441   2.620   0.463   3.280  0.4700 -0.5710  0.5415
  172SAPE   H3Y19442   2.791   0.458   3.287 -1.4955  0.6719  1.2268
  172SAPE   C3419443   2.702   0.280   3.368 -0.4395 -0.4096 -0.0623
  172SAPE   H4X19444   2.794   0.219   3.362  0.9148  1.4802  0.7171
  172SAPE   H4Y19445   2.607   0.227   3.343 -1.1234  1.2460 -1.0899
  172SAPE   C3519446   2.691   0.340   3.509 -0.1358  0.6751  0.5163
  172SAPE   H5X19447   2.606   0.409   3.524  0.8573  2.1248 -0.2650
  172SAPE   H5Y19448   2.786   0.383   3.547  2.3313 -0.7136 -3.4437
  172SAPE   C3619449   2.658   0.234   3.618 -0.1457  0.0040  0.0505
  172SAPE   H6X19450   2.717   0.141   3.600  2.0449  1.4299 -0.4207
  172SAPE   H6Y19451   2.553   0.197   3.606 -0.6970  1.1820  0.9962
  172SAPE   C3719452   2.682   0.285   3.760  0.2624  0.7174  0.3223
  172SAPE   H7X19453   2.587   0.267   3.815 -0.4874  0.6677 -0.9710
  172SAPE   H7Y19454   2.708   0.393   3.757  1.7383  0.3789 -2.6246
  172SAPE   C3819455   2.795   0.214   3.828 -0.5290  0.0104  0.6744
  172SAPE   H8X19456   2.894   0.211   3.778 -1.5279 -0.3783 -1.3607
  172SAPE   H8Y19457   2.768   0.109   3.853 -0.2408  0.2158  1.9611
  172SAPE   C3919458   2.830   0.273   3.968  0.2688 -0.2827  0.0256
  172SAPE   H9X19459   2.834   0.382   3.950 -3.9570 -0.0712 -0.5450
  172SAPE   H9Y19460   2.925   0.237   4.015 -0.8568 -3.1974  0.2765
  172SAPE  C31019461   2.717   0.250   4.078  0.7209  0.1015 -0.3110
  172SAPE  H10X19462   2.693   0.142   4.081  0.6855  0.1142 -0.0667
  172SAPE  H10Y19463   2.629   0.313   4.053  0.2611 -0.7584 -0.9060
  172SAPE  C31119464   2.769   0.285   4.219 -0.0878  0.0670 -0.2818
  172SAPE  H11X19465   2.796   0.393   4.223  1.3060 -0.2031 -1.6471
  172SAPE  H11Y19466   2.864   0.229   4.226  0.8596  1.7867  1.7061
  172SAPE  C31219467   2.679   0.245   4.333 -0.0739 -0.6099 -0.0110
  172SAPE  H12X19468   2.659   0.136   4.318 -1.9453 -0.3570  0.3849
  172SAPE  H12Y19469   2.582   0.299   4.335  0.9320  1.2586 -0.3798
  172SAPE  C31319470   2.733   0.266   4.476  0.0191 -0.0662  0.4036
  172SAPE  H13X19471   2.761   0.373   4.474 -0.0440 -0.0534  0.2007
  172SAPE  H13Y19472   2.816   0.202   4.512 -0.9274 -1.2110  0.6057
  172SAPE  C31419473   2.620   0.234   4.586  0.4075 -0.0545  0.5316
  172SAPE  H14X19474   2.593   0.131   4.553 -2.4086  0.7947 -0.0536
  172SAPE  H14Y19475   2.535   0.304   4.572  1.6429  1.3050 -0.5810
  172SAPE  C31519476   2.677   0.262   4.731 -0.3900  0.4014  0.6662
  172SAPE  H15X19477   2.595   0.307   4.791 -1.2654 -0.0500 -0.1469
  172SAPE  H15Y19478   2.760   0.335   4.727  2.1592 -2.3627 -0.3958
  172SAPE  C31619479   2.723   0.130   4.801  0.2424  0.0992  0.3611
  172SAPE  H16X19480   2.785   0.071   4.730 -0.5866  1.3641 -1.5247
  172SAPE  H16Y19481   2.633   0.065   4.813 -0.2088  0.3812 -1.2490
  172SAPE  C31719482   2.805   0.141   4.930  0.2324  0.1317  0.4366
  172SAPE  H17X19483   2.837   0.037   4.954  3.7010  0.5013 -1.9137
  172SAPE  H17Y19484   2.734   0.162   5.014 -1.6811  0.4838 -1.2038
  172SAPE  C31819485   2.930   0.224   4.922  0.7073  0.1329  0.0990
  172SAPE  H18X19486   2.991   0.183   4.838 -0.3295 -1.4775  0.0884
  172SAPE  H18Y19487   2.989   0.237   5.015 -0.0211 -2.5729  1.0264
  172SAPE  H18Z19488   2.904   0.325   4.883 -3.4736 -0.7151  0.3024
  173SLPC     N19489   0.547   2.464   7.247  0.1249 -0.1721 -0.2755
  173SLPC   C1319490   0.594   2.605   7.258 -0.5288 -0.2758 -0.2530
  173SLPC  H13A19491   0.699   2.603   7.236 -0.6527 -2.0393 -0.7815
  173SLPC  H13B19492   0.542   2.681   7.201  0.7352 -0.8082 -2.2070
  173SLPC  H13C19493   0.583   2.626   7.363 -1.4027 -0.4061 -0.3127
  173SLPC   C1419494   0.425   2.445   7.335  0.0400 -0.3743 -0.1153
  173SLPC  H14A19495   0.345   2.506   7.295 -0.5859 -1.1959 -0.1353
  173SLPC  H14B19496   0.394   2.343   7.352 -0.6762 -0.0414  0.6472
  173SLPC  H14C19497   0.437   2.467   7.440 -3.1501 -1.7288  0.6480
  173SLPC   C1519498   0.655   2.372   7.284 -0.4148 -0.4354 -0.8104
  173SLPC  H15A19499   0.734   2.384   7.211 -1.0521  1.2527 -1.2599
  173SLPC  H15B19500   0.706   2.398   7.376  0.4297 -0.2536 -1.3123
  173SLPC  H15C19501   0.620   2.270   7.294 -1.0062 -0.1072  0.8238
  173SLPC   C1219502   0.511   2.446   7.096  0.9991  0.6538  0.0610
  173SLPC  H12A19503   0.517   2.339   7.083  0.4143  0.5784  0.3857
  173SLPC  H12B19504   0.591   2.488   7.036 -0.3264  0.8343 -1.6467
  173SLPC   C1119505   0.392   2.529   7.041  0.2876  0.1472 -0.3586
  173SLPC  H11A19506   0.357   2.610   7.109 -0.6694 -1.4138  1.1134
  173SLPC  H11B19507   0.304   2.461   7.040 -0.7108  1.3982 -0.9005
  173SLPC     P19508   0.496   2.716   6.884  0.1885  0.1031  0.0603
  173SLPC   O1319509   0.561   2.776   7.003 -0.1496 -0.1844 -0.5892
  173SLPC   O1419510   0.572   2.729   6.753  1.1142 -0.4543 -0.2621
  173SLPC   O1219511   0.437   2.567   6.912  0.1673 -0.0369 -0.2559
  173SLPC   O1119512   0.359   2.794   6.863  0.7712  0.0567 -0.0009
  173SLPC    C119513   0.233   2.727   6.818 -0.6840  0.1491  0.3274
  173SLPC    HA19514   0.229   2.617   6.832 -0.7729  0.2217  0.9124
  173SLPC    HB19515   0.147   2.755   6.882 -1.4286 -0.4402 -0.4081
  173SLPC    C219516   0.201   2.779   6.685 -1.1198  0.4124 -0.0083
  173SLPC    HS19517   0.107   2.729   6.654 -0.5759 -0.4788 -0.2630
  173SLPC   O2119518   0.308   2.750   6.595  0.2390 -0.3587 -0.3538
  173SLPC   C2119519   0.331   2.618   6.570  0.0970  0.5079 -0.1646
  173SLPC   O2219520   0.269   2.527   6.620  0.3125 -0.0926  0.5412
  173SLPC   C2219521   0.443   2.600   6.458 -0.2201  0.3138  0.2326
  173SLPC   H2R19522   0.510   2.686   6.436  0.5179  0.2329  2.0406
  173SLPC   H2S19523   0.505   2.518   6.501  1.2427  2.5019  2.5841
  173SLPC    C319524   0.158   2.927   6.683  0.2860  0.1504  0.0205
  173SLPC    HX19525   0.228   2.991   6.740  1.6996 -2.2751  1.1621
  173SLPC    HY19526   0.073   2.922   6.755 -0.1474 -3.8485 -0.5317
  173SLPC   O3119527   0.115   2.980   6.554 -0.3049  0.4140  0.0672
  173SLPC   C3119528   0.207   3.051   6.492  0.4121  0.7453  0.1918
  173SLPC   O3219529   0.328   3.055   6.516 -0.3353  0.2368  0.4930
  173SLPC   C3219530   0.137   3.126   6.368 -0.0963  0.3933  0.0596
  173SLPC   H2X19531   0.077   3.204   6.419 -1.8267 -2.6927  3.2046
  173SLPC   H2Y19532   0.061   3.053   6.333  2.2559 -1.8767 -0.6162
  173SLPC   C2319533   0.389   2.543   6.325 -0.2695  0.1879 -0.0954
  173SLPC   H3R19534   0.299   2.481   6.343  0.1076 -0.1780  0.5352
  173SLPC   H3S19535   0.467   2.475   6.284 -1.8813 -1.3925 -0.6542
  173SLPC   C2419536   0.355   2.657   6.228 -0.4589 -0.1072  0.8632
  173SLPC   H4R19537   0.442   2.720   6.200 -1.5936  0.5155 -1.5197
  173SLPC   H4S19538   0.270   2.722   6.258 -1.0654 -0.8503  0.8011
  173SLPC   C2519539   0.313   2.603   6.092 -0.3188 -0.4686  1.1399
  173SLPC   H5R19540   0.215   2.551   6.095 -0.1099 -0.9365  0.2172
  173SLPC   H5S19541   0.388   2.531   6.054  0.4585  0.6784  0.4178
  173SLPC   C2619542   0.303   2.719   5.989 -0.4377 -0.3029 -0.9253
  173SLPC   H6R19543   0.407   2.755   5.971 -0.4452 -0.1855 -0.7358
  173SLPC   H6S19544   0.253   2.800   6.046 -0.8911  0.0713 -1.8254
  173SLPC   C2719545   0.225   2.688   5.861  0.4556 -0.7158  0.1476
  173SLPC   H7R19546   0.126   2.651   5.895  1.1953 -1.6524  1.3494
  173SLPC   H7S19547   0.280   2.607   5.809 -1.1008 -1.2265 -0.7872
  173SLPC   C2819548   0.208   2.806   5.763 -0.1188  0.1626  0.2328
  173SLPC   H8R19549   0.306   2.850   5.737 -0.5524  2.0261  1.5224
  173SLPC   H8S19550   0.158   2.882   5.828  1.1450 -0.6303  2.2343
  173SLPC   C2919551   0.127   2.762   5.641  0.3390 -0.4605 -0.7015
  173SLPC   H9R19552   0.022   2.744   5.669  0.3952  0.3004  0.0597
  173SLPC  C21019553   0.173   2.734   5.520  0.4762 -0.0759  0.4710
  173SLPC  H10R19554   0.102   2.731   5.435  1.6320 -0.4031 -0.5170
  173SLPC  C21119555   0.313   2.736   5.464  0.2051  0.9530  0.3923
  173SLPC  H11R19556   0.361   2.636   5.479  1.3721  1.5329  0.6732
  173SLPC  H11S19557   0.378   2.814   5.509 -0.6804  1.2522  1.1675
  173SLPC  C21219558   0.297   2.763   5.322  0.4273 -0.5307  0.5211
  173SLPC  H12R19559   0.286   2.872   5.310 -1.3117 -0.6951  0.3351
  173SLPC  C21319560   0.303   2.685   5.212  0.6348 -0.2104 -0.1863
  173SLPC  H13R19561   0.265   2.735   5.122 -2.1908 -0.4136  0.7846
  173SLPC  C21419562   0.320   2.536   5.206  0.0028  0.6476  0.2570
  173SLPC  H14R19563   0.260   2.505   5.118 -0.5585  1.8293  0.2064
  173SLPC  H14S19564   0.271   2.492   5.296 -1.5274  0.6609 -0.5365
  173SLPC  C21519565   0.467   2.489   5.196 -0.1062  0.0656 -0.1048
  173SLPC  H15R19566   0.519   2.516   5.291 -0.0973  0.2049 -0.1498
  173SLPC  H15S19567   0.517   2.539   5.111 -0.7451  1.1760  0.1509
  173SLPC  C21619568   0.485   2.338   5.177 -0.5111  0.2011  0.5050
  173SLPC  H16R19569   0.449   2.303   5.276 -0.3445  0.9480  0.8355
  173SLPC  H16S19570   0.590   2.320   5.149 -0.4823  1.0150  0.0428
  173SLPC  C21719571   0.390   2.265   5.077 -0.9397  0.8347  0.7624
  173SLPC  H17R19572   0.397   2.332   4.989  0.4476  0.4995  0.5977
  173SLPC  H17S19573   0.285   2.249   5.111 -0.4964 -3.0809  0.7784
  173SLPC  C21819574   0.440   2.117   5.053 -0.0845  0.4426  0.2552
  173SLPC  H18R19575   0.549   2.123   5.028 -0.1844  0.9343 -0.0906
  173SLPC  H18S19576   0.385   2.069   4.969  0.4734  1.5950 -0.8123
  173SLPC  H18T19577   0.433   2.049   5.140 -0.6231 -0.5802 -0.5627
  173SLPC   C3319578   0.234   3.167   6.255 -0.7745 -0.1969 -0.3672
  173SLPC   H3X19579   0.327   3.107   6.252 -0.6133 -0.0495  0.9033
  173SLPC   H3Y19580   0.254   3.276   6.258 -2.0114  0.0470  1.1799
  173SLPC   C3419581   0.167   3.147   6.118  0.1841 -0.3559  0.2990
  173SLPC   H4X19582   0.070   3.202   6.119  0.1155 -0.4708  0.8489
  173SLPC   H4Y19583   0.140   3.040   6.102 -1.9664  0.1958 -0.0703
  173SLPC   C3519584   0.255   3.195   6.005  0.2000  0.0889 -0.9036
  173SLPC   H5X19585   0.350   3.137   6.001 -0.6747 -1.4293 -0.4878
  173SLPC   H5Y19586   0.288   3.301   6.018 -0.2113  0.0542  0.7328
  173SLPC   C3619587   0.177   3.193   5.877  0.5516  0.7623  0.1737
  173SLPC   H6X19588   0.087   3.258   5.879  0.8108  1.1229 -0.0004
  173SLPC   H6Y19589   0.131   3.093   5.862 -0.5672  1.4877 -1.5679
  173SLPC   C3719590   0.253   3.233   5.749  0.2918  0.1287 -0.1787
  173SLPC   H7X19591   0.351   3.183   5.736 -0.0209 -1.0190  1.4350
  173SLPC   H7Y19592   0.279   3.341   5.756  0.2087  0.1402 -0.0463
  173SLPC   C3819593   0.165   3.227   5.621  0.4332  0.2825  0.2780
  173SLPC   H8X19594   0.069   3.281   5.632 -0.5957 -1.7851  2.4381
  173SLPC   H8Y19595   0.132   3.122   5.604  2.6504 -0.6550  1.4000
  173SLPC   C3919596   0.231   3.286   5.498 -0.3881  0.4897  0.4373
  173SLPC   H9X19597   0.315   3.224   5.463 -1.0422 -0.3098  0.2547
  173SLPC   H9Y19598   0.283   3.378   5.532  2.5440 -0.9531  0.1899
  173SLPC  C31019599   0.133   3.306   5.378 -0.0341  0.5516 -0.0455
  173SLPC  H10X19600   0.060   3.382   5.414  0.5813  1.2906 -0.3276
  173SLPC  H10Y19601   0.081   3.208   5.367  3.9794 -1.6083 -1.9765
  173SLPC  C31119602   0.208   3.342   5.250  0.0064 -0.3694  0.2672
  173SLPC  H11X19603   0.273   3.260   5.213  2.9850  2.2495 -0.8172
  173SLPC  H11Y19604   0.270   3.434   5.263 -1.3630  0.9308 -1.8602
  173SLPC  C31219605   0.109   3.389   5.145  0.6348  0.4502  0.4720
  173SLPC  H12X19606   0.031   3.448   5.197  0.9039 -0.2860  1.7625
  173SLPC  H12Y19607   0.045   3.305   5.111  0.6429  0.7470 -0.2756
  173SLPC  C31319608   0.155   3.468   5.025 -0.2399  0.7581 -0.7179
  173SLPC  H13X19609   0.235   3.410   4.974 -1.0133 -1.3052  0.3066
  173SLPC  H13Y19610   0.199   3.563   5.061 -3.2509  2.2452 -0.6110
  173SLPC  C31419611   0.047   3.503   4.920 -0.8811  1.7837  0.6970
  173SLPC  H14X19612  -0.045   3.552   4.959 -0.5050  0.6068  3.3262
  173SLPC  H14Y19613   0.022   3.413   4.859 -2.4530  0.9723  2.4306
  173SLPC  C31519614   0.105   3.601   4.820 -0.3906 -0.6942 -0.1427
  173SLPC  H15X19615   0.198   3.567   4.769  1.0870  0.6251  1.5537
  173SLPC  H15Y19616   0.128   3.696   4.873  0.1517  0.1533 -1.8298
  173SLPC  C31619617   0.011   3.631   4.698 -0.0537  0.1591  0.2559
  173SLPC  H16X19618  -0.084   3.664   4.744 -2.1536 -1.1501 -2.7426
  173SLPC  H16Y19619   0.002   3.537   4.638  0.0880  0.2971  0.0137
  173SLPC  C31719620   0.077   3.742   4.607 -0.2237 -0.0234  0.3564
  173SLPC  H17X19621   0.171   3.711   4.556  0.3248 -0.3117  1.4984
  173SLPC  H17Y19622   0.097   3.823   4.680  2.4628 -2.0894  2.1135
  173SLPC  C31819623  -0.010   3.786   4.484  0.7878 -0.1223  0.3008
  173SLPC  H18X19624   0.052   3.851   4.419  2.0881 -0.1217  1.4943
  173SLPC  H18Y19625  -0.094   3.849   4.522  0.9246 -0.6256  1.4873
  173SLPC  H18Z19626  -0.047   3.711   4.412  1.4471  0.7904 -1.0400
  174SLPC     N19627   5.154   0.964   7.265  0.4174 -1.0876  0.3397
  174SLPC   C1319628   5.188   1.104   7.232  0.1921 -0.7753 -0.2073
  174SLPC  H13A19629   5.198   1.166   7.320  0.9379 -2.0209  0.6082
  174SLPC  H13B19630   5.291   1.110   7.200  1.1702  0.9877  2.8009
  174SLPC  H13C19631   5.117   1.138   7.158 -0.5435 -1.1605  0.3002
  174SLPC   C1419632   5.025   0.966   7.333  0.4221  0.4980  0.3549
  174SLPC  H14A19633   4.943   0.997   7.271 -3.7798 -3.3138  3.3504
  174SLPC  H14B19634   4.997   0.870   7.374  2.7699  0.4002  1.9747
  174SLPC  H14C19635   5.022   1.032   7.419  3.2503  1.2524 -0.0162
  174SLPC   C1519636   5.260   0.932   7.366 -0.1030  0.3438  0.3805
  174SLPC  H15A19637   5.259   0.828   7.394 -2.3495 -0.1698 -1.4004
  174SLPC  H15B19638   5.362   0.953   7.337 -0.2147 -0.2570 -0.4509
  174SLPC  H15C19639   5.253   0.983   7.461  2.6494 -0.0310  0.8617
  174SLPC   C1219640   5.164   0.886   7.137  0.4152  0.0925 -0.2816
  174SLPC  H12A19641   5.146   0.781   7.155  0.7685  0.1206  0.2870
  174SLPC  H12B19642   5.265   0.895   7.101  0.2083  2.7297 -0.4232
  174SLPC   C1119643   5.071   0.934   7.022  0.6035 -0.1288 -0.1201
  174SLPC  H11A19644   5.085   0.863   6.937 -1.7688  0.4710 -1.1065
  174SLPC  H11B19645   5.115   1.027   6.982 -1.2383  0.5971 -0.5710
  174SLPC     P19646   4.836   0.822   7.029  0.2031 -0.3603 -0.1099
  174SLPC   O1319647   4.896   0.703   7.087 -0.0261 -0.7252 -0.1792
  174SLPC   O1419648   4.696   0.853   7.069  0.5558 -0.3651  0.3963
  174SLPC   O1219649   4.928   0.952   7.051 -0.1366  0.1849 -0.1239
  174SLPC   O1119650   4.834   0.800   6.872 -0.4433 -0.2649  0.1625
  174SLPC    C119651   4.797   0.914   6.787  0.4018 -0.0740 -0.2600
  174SLPC    HA19652   4.798   1.011   6.841  1.0921 -1.4507  2.4028
  174SLPC    HB19653   4.873   0.923   6.707  0.0613 -0.1429 -0.5942
  174SLPC    C219654   4.663   0.885   6.725  0.5209  0.0173 -0.3646
  174SLPC    HS19655   4.589   0.863   6.806 -1.3485  1.2440 -1.6561
  174SLPC   O2119656   4.678   0.769   6.638 -0.2386 -0.1341 -0.6265
  174SLPC   C2119657   4.558   0.708   6.619  0.2161 -0.4536 -0.3533
  174SLPC   O2219658   4.448   0.727   6.676  0.3316 -1.1639  0.5868
  174SLPC   C2219659   4.583   0.610   6.513 -0.5288  0.0369  0.1830
  174SLPC   H2R19660   4.656   0.647   6.437 -0.4939 -0.6985 -0.1541
  174SLPC   H2S19661   4.638   0.526   6.561 -0.1432  0.3511  0.2980
  174SLPC    C319662   4.621   1.011   6.643  0.0942 -0.3548 -0.6151
  174SLPC    HX19663   4.701   1.013   6.565  1.1555 -1.0798  0.4131
  174SLPC    HY19664   4.640   1.100   6.706  0.4381 -1.0522  0.3032
  174SLPC   O3119665   4.488   1.003   6.594 -0.3700 -0.1855  0.3236
  174SLPC   C3119666   4.470   1.092   6.500  0.1111  0.9018  0.5043
  174SLPC   O3219667   4.543   1.180   6.457 -0.2587 -0.1779 -0.3215
  174SLPC   C3219668   4.340   1.052   6.429  0.0829  0.0597 -0.0041
  174SLPC   H2X19669   4.291   1.145   6.392  0.3654  0.4691  0.6166
  174SLPC   H2Y19670   4.273   1.013   6.509 -1.8670 -2.6618 -2.7442
  174SLPC   C2319671   4.459   0.559   6.439 -0.4445 -0.1107 -0.2790
  174SLPC   H3R19672   4.406   0.639   6.383  1.3701  1.4039  0.0413
  174SLPC   H3S19673   4.383   0.524   6.511 -2.2509 -0.2672 -2.1716
  174SLPC   C2419674   4.500   0.441   6.351 -0.0528  0.0409  0.5747
  174SLPC   H4R19675   4.533   0.354   6.411  2.2639 -0.2772 -1.0331
  174SLPC   H4S19676   4.596   0.463   6.300 -0.7430  0.4638 -0.5718
  174SLPC   C2519677   4.397   0.383   6.239  0.5781 -0.2978 -0.2467
  174SLPC   H5R19678   4.311   0.322   6.273  2.1074 -2.7139 -0.4630
  174SLPC   H5S19679   4.448   0.302   6.183 -0.0032  0.5502 -2.0692
  174SLPC   C2619680   4.366   0.499   6.144 -0.7947  0.4189  0.0687
  174SLPC   H6R19681   4.467   0.537   6.118 -0.2223 -0.4053  1.0243
  174SLPC   H6S19682   4.322   0.580   6.206  0.0092 -0.3266  1.6681
  174SLPC   C2719683   4.273   0.466   6.028 -0.1694 -0.1827 -0.1785
  174SLPC   H7R19684   4.171   0.461   6.073  0.1155 -3.0106  0.3299
  174SLPC   H7S19685   4.300   0.368   5.983 -1.0794  0.3618 -2.0425
  174SLPC   C2819686   4.262   0.578   5.922  0.2949 -0.7745 -0.2623
  174SLPC   H8R19687   4.244   0.680   5.963  1.0934 -0.0635 -1.6259
  174SLPC   H8S19688   4.162   0.557   5.877 -0.3191 -1.1263  1.2170
  174SLPC   C2919689   4.368   0.574   5.818 -0.3437  0.9562 -0.5140
  174SLPC   H9R19690   4.463   0.539   5.861 -0.1073 -1.1849 -2.5434
  174SLPC  C21019691   4.358   0.585   5.682  0.4475 -0.0090  0.1179
  174SLPC  H10R19692   4.449   0.583   5.619  0.9158  3.6774  0.4209
  174SLPC  C21119693   4.230   0.616   5.605  0.6336  0.3105 -0.9901
  174SLPC  H11R19694   4.145   0.650   5.668  0.6096 -2.1177  0.4271
  174SLPC  H11S19695   4.178   0.538   5.547  0.1982 -0.3231  0.2144
  174SLPC  C21219696   4.252   0.737   5.524 -0.0168  0.7088  0.6676
  174SLPC  H12R19697   4.193   0.826   5.552 -0.6897  0.5659 -0.2196
  174SLPC  C21319698   4.291   0.734   5.393 -0.0213  0.1090  0.4803
  174SLPC  H13R19699   4.301   0.823   5.329 -0.9655  0.8182  1.2964
  174SLPC  C21419700   4.335   0.608   5.321  0.3875 -0.3866 -0.5765
  174SLPC  H14R19701   4.326   0.518   5.385 -1.8267  0.9552  1.1292
  174SLPC  H14S19702   4.445   0.619   5.306  0.7053 -0.0762  1.5752
  174SLPC  C21519703   4.257   0.582   5.198  1.0842 -0.1537  0.5172
  174SLPC  H15R19704   4.250   0.667   5.126 -1.4309 -0.4597  0.3183
  174SLPC  H15S19705   4.149   0.577   5.223  1.8014 -3.5974  4.0039
  174SLPC  C21619706   4.311   0.470   5.111 -0.2159  0.2732  0.3880
  174SLPC  H16R19707   4.264   0.484   5.012  0.5893  1.0592  0.0997
  174SLPC  H16S19708   4.279   0.373   5.155  1.5162 -0.6612 -0.3283
  174SLPC  C21719709   4.460   0.475   5.078 -0.1274  0.0083 -0.3816
  174SLPC  H17R19710   4.468   0.393   5.003 -2.0734 -0.1515 -0.4874
  174SLPC  H17S19711   4.518   0.447   5.168 -1.4458  0.5418  0.6729
  174SLPC  C21819712   4.528   0.593   5.015  0.0136  0.3809  0.2889
  174SLPC  H18R19713   4.520   0.684   5.078 -4.0827 -0.4609  1.2486
  174SLPC  H18S19714   4.472   0.614   4.921 -0.9721  2.0416  1.2003
  174SLPC  H18T19715   4.633   0.570   4.985  0.2270  0.7009  0.7843
  174SLPC   C3319716   4.352   0.946   6.313  0.3526 -0.3601 -0.5704
  174SLPC   H3X19717   4.439   0.877   6.321  1.8870  1.6214  0.6810
  174SLPC   H3Y19718   4.360   0.997   6.215  1.1060  2.0484  0.6572
  174SLPC   C3419719   4.233   0.852   6.308  0.4300 -0.0588  0.2963
  174SLPC   H4X19720   4.223   0.787   6.398 -2.0436 -1.0469 -0.5794
  174SLPC   H4Y19721   4.254   0.776   6.229  1.5151  1.7610 -1.2334
  174SLPC   C3519722   4.098   0.915   6.289  0.1978  0.4351  0.4325
  174SLPC   H5X19723   4.071   0.997   6.358  0.4075 -0.3521  1.4750
  174SLPC   H5Y19724   4.023   0.833   6.294  0.1150  0.4200 -0.8350
  174SLPC   C3619725   4.090   0.986   6.154 -0.0045  0.0069  0.3453
  174SLPC   H6X19726   4.165   0.950   6.080 -0.7198 -0.7642 -0.0262
  174SLPC   H6Y19727   4.111   1.095   6.153  1.3438 -0.2376  0.1866
  174SLPC   C3719728   3.943   0.965   6.092 -0.3662 -0.0770  0.3329
  174SLPC   H7X19729   3.876   0.982   6.179 -1.5316  1.4717 -0.8005
  174SLPC   H7Y19730   3.929   0.863   6.052 -0.6840  1.2089 -3.1519
  174SLPC   C3819731   3.917   1.060   5.974 -0.3160 -0.5929  0.4596
  174SLPC   H8X19732   3.963   1.158   5.999  1.1734 -0.9927 -0.5570
  174SLPC   H8Y19733   3.808   1.076   5.966  0.1208  2.0190 -1.6307
  174SLPC   C3919734   3.957   1.017   5.832  0.3314 -0.5666  0.2133
  174SLPC   H9X19735   3.906   0.922   5.804 -2.3588  0.4308  1.4098
  174SLPC   H9Y19736   4.066   0.997   5.828  0.2799 -0.7995 -0.0497
  174SLPC  C31019737   3.933   1.133   5.729 -0.1309 -0.2276  0.2100
  174SLPC  H10X19738   3.985   1.225   5.762 -0.5820 -0.2465  1.0124
  174SLPC  H10Y19739   3.826   1.164   5.729 -0.6389 -1.6945  2.6046
  174SLPC  C31119740   3.975   1.102   5.588  0.5803  0.0202  0.7892
  174SLPC  H11X19741   3.908   1.028   5.538  0.4885 -0.4320  1.5719
  174SLPC  H11Y19742   4.081   1.068   5.594  0.6388  0.4519  3.1960
  174SLPC  C31219743   3.973   1.224   5.494  1.4272  1.0437  0.3897
  174SLPC  H12X19744   4.034   1.305   5.541  2.0322  1.7319 -1.4704
  174SLPC  H12Y19745   3.868   1.257   5.478  1.0887 -0.4565 -0.6355
  174SLPC  C31319746   4.045   1.193   5.362 -0.3248  0.9163  0.4390
  174SLPC  H13X19747   4.017   1.088   5.341 -0.4405  1.2931 -1.4921
  174SLPC  H13Y19748   4.153   1.184   5.386 -0.7121  0.1566  2.0623
  174SLPC  C31419749   3.992   1.271   5.249  0.2394  0.4891  0.3599
  174SLPC  H14X19750   4.060   1.358   5.230 -0.3894  0.3363 -3.4079
  174SLPC  H14Y19751   3.892   1.310   5.278 -0.0791 -0.1560  0.1361
  174SLPC  C31519752   3.984   1.190   5.122  0.6922  0.1996 -0.4737
  174SLPC  H15X19753   3.923   1.239   5.043 -0.2634  0.3195  0.3152
  174SLPC  H15Y19754   3.938   1.090   5.138 -0.0304  0.5393 -0.3786
  174SLPC  C31619755   4.131   1.173   5.071  0.3003 -0.7037 -0.1109
  174SLPC  H16X19756   4.188   1.127   5.155 -2.1472 -1.0078  1.4648
  174SLPC  H16Y19757   4.185   1.271   5.062 -1.9573  0.9587  2.7027
  174SLPC  C31719758   4.127   1.087   4.947  0.1424  0.1174  0.2434
  174SLPC  H17X19759   4.083   1.142   4.861  0.5770 -0.8945 -0.6540
  174SLPC  H17Y19760   4.063   0.997   4.957  0.4171 -0.0826  0.2240
  174SLPC  C31819761   4.262   1.030   4.915 -0.1832 -0.2630  0.0711
  174SLPC  H18X19762   4.312   1.108   4.854 -0.3201 -0.1662  0.0826
  174SLPC  H18Y19763   4.258   0.936   4.857 -2.3843  0.5930 -1.3045
  174SLPC  H18Z19764   4.323   1.018   5.007  1.0638  1.3139 -0.4924
  175SLPC     N19765   4.765   4.109   6.949  0.1395 -0.1504  0.2461
  175SLPC   C1319766   4.631   4.130   7.005  0.7533  0.0947  0.0234
  175SLPC  H13A19767   4.594   4.230   7.021 -1.6723 -1.0919  2.7570
  175SLPC  H13B19768   4.553   4.086   6.945 -0.5552  1.3134  0.7769
  175SLPC  H13C19769   4.637   4.074   7.097  2.4771  0.1407 -0.0301
  175SLPC   C1419770   4.780   4.179   6.815  0.2770  0.1432 -0.0376
  175SLPC  H14A19771   4.785   4.285   6.833  1.6054 -0.1563  1.6198
  175SLPC  H14B19772   4.876   4.158   6.770  0.1350  0.6950 -0.6151
  175SLPC  H14C19773   4.705   4.148   6.744  2.5369 -0.4427 -2.3707
  175SLPC   C1519774   4.780   3.959   6.937  0.2967  0.2448  0.2358
  175SLPC  H15A19775   4.792   3.909   7.032 -1.7023  1.2413  1.0823
  175SLPC  H15B19776   4.694   3.920   6.884  0.8628 -2.2709  1.0261
  175SLPC  H15C19777   4.857   3.927   6.868 -1.5737 -3.1554 -0.5344
  175SLPC   C1219778   4.873   4.169   7.035 -0.0856  0.5828  0.8792
  175SLPC  H12A19779   4.870   4.277   7.038  2.7495  0.8296 -1.0788
  175SLPC  H12B19780   4.972   4.156   6.993  1.2264  3.4322  2.7338
  175SLPC   C1119781   4.881   4.120   7.181 -0.3364  0.6560 -0.3483
  175SLPC  H11A19782   4.786   4.118   7.239  0.2814  2.1794  0.7804
  175SLPC  H11B19783   4.953   4.183   7.238 -1.5425  0.4146  1.5407
  175SLPC     P19784   5.092   3.957   7.175 -0.0609  0.1703  0.1366
  175SLPC   O1319785   5.148   3.967   7.309  0.4317 -0.1158 -0.0088
  175SLPC   O1419786   5.116   3.827   7.106 -0.3063 -0.0997 -0.2669
  175SLPC   O1219787   4.929   3.983   7.181  0.3325  0.2261 -0.3385
  175SLPC   O1119788   5.141   4.075   7.075  0.4256 -0.0539  0.2383
  175SLPC    C119789   5.269   4.063   7.010 -0.8603  0.2661  0.3170
  175SLPC    HA19790   5.318   4.162   7.008  0.2445 -0.2873 -0.9155
  175SLPC    HB19791   5.333   3.984   7.053 -2.1438 -1.6703 -1.1242
  175SLPC    C219792   5.245   4.023   6.865 -0.0778 -0.2320 -0.3358
  175SLPC    HS19793   5.176   3.937   6.868 -1.6734  1.0178  1.6255
  175SLPC   O2119794   5.369   4.000   6.798  0.3360  0.1392  0.3494
  175SLPC   C2119795   5.379   3.898   6.713  1.0540  0.8673 -0.0167
  175SLPC   O2219796   5.293   3.813   6.699  0.1438  0.7944 -0.3720
  175SLPC   C2219797   5.504   3.902   6.639 -0.1392 -0.4011  0.7523
  175SLPC   H2R19798   5.538   4.008   6.643 -1.0912 -0.0613  0.0011
  175SLPC   H2S19799   5.575   3.848   6.705 -0.3418 -0.3773  0.9907
  175SLPC    C319800   5.166   4.132   6.785 -0.4020  0.5364 -0.1000
  175SLPC    HX19801   5.222   4.226   6.804 -0.3826  0.7885 -1.3427
  175SLPC    HY19802   5.068   4.166   6.822 -0.1244 -0.5706  1.7560
  175SLPC   O3119803   5.181   4.111   6.641  0.1648  0.4231  0.0997
  175SLPC   C3119804   5.086   4.029   6.594  0.3498  0.1836  0.3090
  175SLPC   O3219805   4.993   3.984   6.667 -0.3663  0.4486  0.2443
  175SLPC   C3219806   5.102   4.011   6.439  0.0720  0.0746 -0.2794
  175SLPC   H2X19807   5.011   3.969   6.391  0.8660 -0.7772 -1.0698
  175SLPC   H2Y19808   5.189   3.947   6.411  1.6394  2.0169 -0.0811
  175SLPC   C2319809   5.517   3.855   6.486 -0.3475  0.4673 -0.6589
  175SLPC   H3R19810   5.430   3.908   6.440  0.2616  2.0670 -0.0102
  175SLPC   H3S19811   5.508   3.745   6.470 -0.3034  0.1948  1.0690
  175SLPC   C2419812   5.641   3.921   6.419  0.4239  0.5967  0.2883
  175SLPC   H4R19813   5.735   3.866   6.443  0.5700  1.1610  1.0280
  175SLPC   H4S19814   5.644   4.023   6.462 -0.7328  1.3428 -1.3126
  175SLPC   C2519815   5.623   3.932   6.264 -0.3300  0.3357  0.6916
  175SLPC   H5R19816   5.717   3.974   6.224  0.2388 -1.8646 -0.4088
  175SLPC   H5S19817   5.545   4.007   6.236  1.2388  0.6650 -3.3083
  175SLPC   C2619818   5.588   3.806   6.190  0.2743  0.7058 -0.8169
  175SLPC   H6R19819   5.492   3.763   6.228  1.1727  0.2986  1.1371
  175SLPC   H6S19820   5.668   3.732   6.215  2.5081  3.8977  2.4637
  175SLPC   C2719821   5.556   3.810   6.039 -0.6910 -0.3299  0.1215
  175SLPC   H7R19822   5.481   3.890   6.022  2.1888  2.3781 -0.8406
  175SLPC   H7S19823   5.503   3.719   6.006  1.7349 -1.6372 -0.3799
  175SLPC   C2819824   5.671   3.822   5.938 -0.5443 -0.0455  0.4688
  175SLPC   H8R19825   5.756   3.754   5.959  0.9212  1.6929  0.4502
  175SLPC   H8S19826   5.726   3.918   5.945  1.5684 -0.5662 -4.4865
  175SLPC   C2919827   5.635   3.801   5.794 -0.1958 -0.2241  0.1268
  175SLPC   H9R19828   5.643   3.699   5.755  2.0263 -0.8503  1.9780
  175SLPC  C21019829   5.598   3.892   5.707  0.3365 -0.0217 -0.2165
  175SLPC  H10R19830   5.582   3.863   5.602 -2.0953  0.5811 -0.0689
  175SLPC  C21119831   5.569   4.039   5.727  0.0244 -0.0124 -0.3422
  175SLPC  H11R19832   5.513   4.049   5.822 -1.3976 -0.8679 -1.0628
  175SLPC  H11S19833   5.503   4.074   5.645  1.0335  2.6296 -0.1413
  175SLPC  C21219834   5.688   4.131   5.716  0.3523 -0.4033  0.0559
  175SLPC  H12R19835   5.715   4.150   5.611  1.5341 -0.7198  0.2891
  175SLPC  C21319836   5.752   4.204   5.809  0.0839  0.1641  0.2002
  175SLPC  H13R19837   5.837   4.270   5.787  0.4675  0.5804  2.5862
  175SLPC  C21419838   5.726   4.196   5.960  1.1849 -0.2252 -0.0266
  175SLPC  H14R19839   5.814   4.155   6.013 -0.5450 -1.7249  1.8321
  175SLPC  H14S19840   5.627   4.149   5.978  0.4133  0.7679 -1.4458
  175SLPC  C21519841   5.687   4.337   6.021 -0.4036 -0.0447  0.6098
  175SLPC  H15R19842   5.584   4.370   5.995 -0.2500 -0.3495 -0.4193
  175SLPC  H15S19843   5.751   4.418   5.980 -1.7574 -0.3875 -2.4191
  175SLPC  C21619844   5.704   4.347   6.173  0.1818 -0.6884 -0.9325
  175SLPC  H16R19845   5.622   4.286   6.217  1.0864 -1.5316 -0.3888
  175SLPC  H16S19846   5.689   4.452   6.207  0.1657 -0.3699 -1.9109
  175SLPC  C21719847   5.840   4.300   6.234 -0.4698 -0.1380 -0.7381
  175SLPC  H17R19848   5.915   4.370   6.192 -1.2198  1.7665  0.9289
  175SLPC  H17S19849   5.868   4.198   6.200 -0.2436 -0.1572 -0.4960
  175SLPC  C21819850   5.839   4.295   6.386  0.5943  0.5535  0.2083
  175SLPC  H18R19851   5.939   4.263   6.424  0.7922 -1.4480 -1.7901
  175SLPC  H18S19852   5.762   4.224   6.421  0.3001  0.6278 -0.2813
  175SLPC  H18T19853   5.816   4.395   6.429 -3.7045 -0.4168  0.5547
  175SLPC   C3319854   5.124   4.149   6.367  0.0617  0.1101  0.1924
  175SLPC   H3X19855   5.199   4.217   6.414 -0.5651  0.4268  0.7584
  175SLPC   H3Y19856   5.026   4.200   6.377 -0.8822 -1.2624 -1.6226
  175SLPC   C3419857   5.147   4.135   6.216  0.2949 -0.1906  0.1412
  175SLPC   H4X19858   5.053   4.102   6.166 -0.8338 -0.5909  2.3823
  175SLPC   H4Y19859   5.223   4.056   6.202 -0.0250 -0.5613  0.4687
  175SLPC   C3519860   5.199   4.261   6.142  0.3752  0.1722 -0.4440
  175SLPC   H5X19861   5.255   4.321   6.218 -0.1093  0.4160 -0.2740
  175SLPC   H5Y19862   5.110   4.324   6.118 -0.2136 -1.4107 -2.6845
  175SLPC   C3619863   5.286   4.243   6.017  0.2433  0.1154  0.5434
  175SLPC   H6X19864   5.251   4.153   5.961  0.4305  0.2685  0.1748
  175SLPC   H6Y19865   5.385   4.213   6.058  0.5160  1.4041  0.8575
  175SLPC   C3719866   5.295   4.370   5.936 -0.6438  0.2110  0.1044
  175SLPC   H7X19867   5.328   4.446   6.010 -2.4282  1.2402 -0.1148
  175SLPC   H7Y19868   5.192   4.402   5.913 -0.2740  2.2331  1.0109
  175SLPC   C3819869   5.379   4.365   5.813 -0.3250  0.5150  0.1066
  175SLPC   H8X19870   5.323   4.332   5.722 -0.8922  2.3691 -0.2700
  175SLPC   H8Y19871   5.458   4.288   5.825  0.5603  1.1177 -1.5578
  175SLPC   C3919872   5.440   4.507   5.779 -0.2762  0.0932  0.2103
  175SLPC   H9X19873   5.505   4.534   5.865  0.8999 -0.2210 -0.5485
  175SLPC   H9Y19874   5.355   4.579   5.776  0.3029  0.7807 -2.4921
  175SLPC  C31019875   5.535   4.510   5.656 -0.0965 -0.2103 -0.3849
  175SLPC  H10X19876   5.630   4.464   5.689 -0.1342 -0.2361 -0.3136
  175SLPC  H10Y19877   5.559   4.614   5.624  0.0519 -0.3347 -0.6836
  175SLPC  C31119878   5.493   4.426   5.531  0.4825 -0.2655 -0.3086
  175SLPC  H11X19879   5.401   4.474   5.493  1.9644  3.2874  0.2248
  175SLPC  H11Y19880   5.475   4.322   5.565  2.4875 -0.6829 -0.3613
  175SLPC  C31219881   5.598   4.431   5.415 -0.3331 -0.2050 -0.2610
  175SLPC  H12X19882   5.573   4.345   5.349 -1.7633 -0.1761  0.1945
  175SLPC  H12Y19883   5.704   4.421   5.446 -0.0557 -1.1851 -1.4439
  175SLPC  C31319884   5.599   4.563   5.330 -0.2022 -0.2660 -0.0020
  175SLPC  H13X19885   5.623   4.649   5.397  1.1356  1.0960 -2.1177
  175SLPC  H13Y19886   5.496   4.582   5.293  0.3220  2.1852 -0.3579
  175SLPC  C31419887   5.704   4.556   5.217  0.6442 -0.5950 -0.6974
  175SLPC  H14X19888   5.668   4.477   5.148  2.6064 -0.2586 -2.1888
  175SLPC  H14Y19889   5.799   4.523   5.265 -1.4226 -1.8988  2.9481
  175SLPC  C31519890   5.712   4.681   5.132 -0.6378  0.2029 -0.8065
  175SLPC  H15X19891   5.763   4.764   5.185  2.2670 -1.4203 -0.8545
  175SLPC  H15Y19892   5.609   4.709   5.101 -2.1070 -3.0365  0.6897
  175SLPC  C31619893   5.785   4.660   5.001 -0.4877 -0.2089 -0.4141
  175SLPC  H16X19894   5.728   4.586   4.941 -0.7556 -0.0382 -0.3705
  175SLPC  H16Y19895   5.889   4.622   5.015 -0.0823  1.3848  1.3203
  175SLPC  C31719896   5.787   4.792   4.918  0.1977 -0.5672 -0.0192
  175SLPC  H17X19897   5.829   4.875   4.980 -0.4058  2.2819 -3.1107
  175SLPC  H17Y19898   5.683   4.824   4.897 -0.4978 -0.0509  3.4964
  175SLPC  C31819899   5.861   4.784   4.786 -0.7962 -0.2762 -0.0566
  175SLPC  H18X19900   5.866   4.882   4.733 -3.2576 -0.4256 -0.6513
  175SLPC  H18Y19901   5.804   4.713   4.723 -2.8232 -1.0618  2.4993
  175SLPC  H18Z19902   5.961   4.740   4.808 -1.5559 -1.6034  0.8107
  176SLPC     N19903   0.629   1.098   7.010 -0.3530  0.1796  0.1194
  176SLPC   C1319904   0.752   1.188   7.030  1.2606 -0.5283 -0.1417
  176SLPC  H13A19905   0.839   1.130   7.056  0.3333 -1.5228  0.8279
  176SLPC  H13B19906   0.764   1.265   6.955  0.0767 -0.2848 -0.1021
  176SLPC  H13C19907   0.739   1.231   7.129  2.2214 -1.8708  0.5944
  176SLPC   C1419908   0.640   0.987   7.119 -0.0667  0.0392 -0.1477
  176SLPC  H14A19909   0.542   0.946   7.141  0.8287 -2.4339 -0.4549
  176SLPC  H14B19910   0.694   0.904   7.077  0.0105 -0.3695  0.7497
  176SLPC  H14C19911   0.696   1.017   7.207  1.3565  1.4201 -1.4588
  176SLPC   C1519912   0.639   1.035   6.871  0.5649 -0.0443  0.1287
  176SLPC  H15A19913   0.679   1.112   6.807 -2.7913  3.3803  1.7232
  176SLPC  H15B19914   0.699   0.946   6.867 -0.3504 -0.7024  0.7855
  176SLPC  H15C19915   0.547   0.996   6.832  0.2293  1.4337 -0.6585
  176SLPC   C1219916   0.503   1.181   7.021  0.3066 -0.0433 -0.0625
  176SLPC  H12A19917   0.429   1.117   6.977  1.1376 -0.7698 -0.4314
  176SLPC  H12B19918   0.503   1.258   6.945  0.2701 -0.3036 -0.3268
  176SLPC   C1119919   0.451   1.230   7.156 -0.7428  0.3011  0.2360
  176SLPC  H11A19920   0.438   1.145   7.226  1.0224 -0.3728 -0.1981
  176SLPC  H11B19921   0.349   1.270   7.136  0.1388  0.6290 -4.8036
  176SLPC     P19922   0.559   1.476   7.150 -0.7363  0.3170  0.0907
  176SLPC   O1319923   0.574   1.571   7.257  0.5648  0.1269  0.3976
  176SLPC   O1419924   0.681   1.477   7.064 -0.4639 -0.0180  0.6378
  176SLPC   O1219925   0.541   1.333   7.213 -0.3000  0.5649 -0.4019
  176SLPC   O1119926   0.432   1.490   7.056 -0.3088  0.1522 -0.3305
  176SLPC    C119927   0.404   1.618   6.981 -0.1071 -0.1223  0.4627
  176SLPC    HA19928   0.319   1.673   7.024  1.4055  1.7893  1.1531
  176SLPC    HB19929   0.491   1.685   7.000 -0.4946  0.4171  0.3473
  176SLPC    C219930   0.392   1.589   6.831 -0.4221  0.0444 -0.4930
  176SLPC    HS19931   0.320   1.507   6.808  1.1835 -1.1359 -1.5268
  176SLPC   O2119932   0.526   1.562   6.783  0.1932 -0.0728 -0.4985
  176SLPC   C2119933   0.546   1.434   6.752  0.4067 -0.4431  0.3647
  176SLPC   O2219934   0.459   1.347   6.758  0.6427  0.4398  0.3958
  176SLPC   C2219935   0.677   1.414   6.675 -0.9713 -0.4827  0.4940
  176SLPC   H2R19936   0.755   1.473   6.728 -0.7239  0.4164 -0.8135
  176SLPC   H2S19937   0.700   1.306   6.683 -2.2650 -0.8446 -0.3264
  176SLPC    C319938   0.340   1.714   6.747 -0.1930 -0.5227 -0.0740
  176SLPC    HX19939   0.407   1.799   6.773  0.3654 -0.9482 -0.1078
  176SLPC    HY19940   0.236   1.744   6.773 -1.0807  0.8322 -4.4260
  176SLPC   O3119941   0.354   1.696   6.602 -0.1589  0.2670 -0.3714
  176SLPC   C3119942   0.240   1.650   6.551  0.0553  0.1677  0.1700
  176SLPC   O3219943   0.156   1.581   6.611  0.0544 -0.1405  0.1439
  176SLPC   C3219944   0.247   1.650   6.403 -0.0230 -0.0627 -0.0132
  176SLPC   H2X19945   0.349   1.659   6.359 -1.1649  1.7995 -2.5999
  176SLPC   H2Y19946   0.191   1.740   6.371 -1.9823 -1.1676  0.1729
  176SLPC   C2319947   0.681   1.450   6.527 -0.3882 -0.0463 -0.8146
  176SLPC   H3R19948   0.788   1.461   6.499 -0.3745 -1.1026 -1.1963
  176SLPC   H3S19949   0.655   1.557   6.512  2.3485  0.5602 -1.7493
  176SLPC   C2419950   0.611   1.344   6.442  0.3415 -0.2079  0.1082
  176SLPC   H4R19951   0.510   1.327   6.483  0.5175  0.7545  0.9882
  176SLPC   H4S19952   0.673   1.251   6.447  1.4326  0.3651 -1.8615
  176SLPC   C2519953   0.603   1.396   6.295  0.1984 -0.3777  0.0680
  176SLPC   H5R19954   0.708   1.401   6.259  0.0614  0.6518 -0.2201
  176SLPC   H5S19955   0.565   1.501   6.298 -0.6654 -0.7055  2.6550
  176SLPC   C2619956   0.522   1.319   6.190 -0.5251 -0.1507 -0.2388
  176SLPC   H6R19957   0.415   1.335   6.218 -0.0620  0.5664  1.1884
  176SLPC   H6S19958   0.546   1.214   6.215  0.4910  0.7018  2.7038
  176SLPC   C2719959   0.546   1.369   6.053 -0.7219 -0.1787 -0.6458
  176SLPC   H7R19960   0.656   1.380   6.044 -0.3457  0.9423  3.4348
  176SLPC   H7S19961   0.503   1.471   6.043 -1.2452 -0.3866 -0.5651
  176SLPC   C2819962   0.488   1.285   5.944  0.2989  0.5346  0.0975
  176SLPC   H8R19963   0.509   1.176   5.952  1.1067  0.5272 -1.6204
  176SLPC   H8S19964   0.540   1.308   5.849 -1.9058  0.6926 -1.1396
  176SLPC   C2919965   0.342   1.313   5.910  0.4884 -0.1757 -0.4800
  176SLPC   H9R19966   0.279   1.345   5.994 -0.4656 -0.3153 -1.1345
  176SLPC  C21019967   0.287   1.337   5.785 -0.1191 -0.5042  0.2185
  176SLPC  H10R19968   0.180   1.354   5.765 -0.5547 -0.7272  2.1899
  176SLPC  C21119969   0.362   1.317   5.652 -0.0943  0.8500  0.0127
  176SLPC  H11R19970   0.310   1.228   5.610  0.3329  0.4663  0.2848
  176SLPC  H11S19971   0.471   1.296   5.657 -0.1398  0.5844 -0.0807
  176SLPC  C21219972   0.330   1.427   5.557 -0.2051  0.3837  0.0230
  176SLPC  H12R19973   0.226   1.429   5.521  0.3932  1.1576 -1.8113
  176SLPC  C21319974   0.417   1.515   5.503  0.7694  0.0005 -0.4357
  176SLPC  H13R19975   0.368   1.584   5.432  0.6459  2.2764  1.7271
  176SLPC  C21419976   0.561   1.538   5.522  1.0087 -0.3415  0.1808
  176SLPC  H14R19977   0.612   1.443   5.550  0.9538 -0.3231  0.3457
  176SLPC  H14S19978   0.578   1.606   5.608 -1.4832  1.9554 -1.0019
  176SLPC  C21519979   0.632   1.609   5.398 -0.2817  0.7169 -0.6004
  176SLPC  H15R19980   0.737   1.631   5.424  0.8142 -0.7612 -3.3598
  176SLPC  H15S19981   0.573   1.700   5.373 -1.6420  0.3665  1.1011
  176SLPC  C21619982   0.646   1.523   5.263 -0.0217  0.3223 -0.6253
  176SLPC  H16R19983   0.545   1.483   5.238  0.4160 -0.3858 -1.3039
  176SLPC  H16S19984   0.720   1.441   5.268  0.3851  0.7249  4.5560
  176SLPC  C21719985   0.692   1.614   5.146  0.3990 -0.1827 -0.3200
  176SLPC  H17R19986   0.670   1.721   5.167  0.7607 -0.5964  2.5520
  176SLPC  H17S19987   0.633   1.581   5.057 -0.1059 -1.4930  0.4753
  176SLPC  C21819988   0.836   1.599   5.123  0.3794 -0.2700 -0.2641
  176SLPC  H18R19989   0.886   1.637   5.215 -0.8138  0.8623 -0.0614
  176SLPC  H18S19990   0.884   1.667   5.050  1.0437  0.1243  0.5230
  176SLPC  H18T19991   0.861   1.495   5.092 -2.0876 -1.3459  1.0881
  176SLPC   C3319992   0.157   1.547   6.333  0.7538  0.3295 -0.4404
  176SLPC   H3X19993   0.049   1.556   6.359  1.0241  0.7760  0.5954
  176SLPC   H3Y19994   0.193   1.445   6.358  0.7615  0.0285 -1.6211
  176SLPC   C3419995   0.150   1.564   6.184 -0.4170 -0.5675  0.4298
  176SLPC   H4X19996   0.239   1.506   6.153  1.3476  2.7190 -1.1237
  176SLPC   H4Y19997   0.167   1.669   6.154 -1.9316  0.0362  1.5272
  176SLPC   C3519998   0.032   1.515   6.103  0.4769  0.6293 -0.2678
  176SLPC   H5X19999  -0.063   1.535   6.156  0.0104 -0.5741 -0.6061
  176SLPC   H5Y20000   0.034   1.404   6.103  1.0308  0.5707  2.5285
  176SLPC   C3620001   0.043   1.568   5.965  0.3143  1.0066 -0.5049
  176SLPC   H6X20002   0.142   1.539   5.924 -0.1190 -1.6580  0.1625
  176SLPC   H6Y20003   0.037   1.679   5.956  0.7771  1.1716  1.0565
  176SLPC   C3720004  -0.063   1.496   5.880 -0.3539 -0.2521  0.4414
  176SLPC   H7X20005  -0.163   1.527   5.919 -0.8872 -0.8581 -0.4032
  176SLPC   H7Y20006  -0.055   1.387   5.900 -1.5089 -0.2332  1.0749
  176SLPC   C3820007  -0.053   1.521   5.727 -0.1813  0.0807 -0.1733
  176SLPC   H8X20008  -0.105   1.440   5.671 -0.2856 -1.1155  1.5624
  176SLPC   H8Y20009   0.052   1.518   5.692 -0.3458  1.0541 -0.8088
  176SLPC   C3920010  -0.117   1.651   5.681 -0.1129 -0.0625  0.1287
  176SLPC   H9X20011  -0.059   1.730   5.735  1.0549 -1.2540  0.6786
  176SLPC   H9Y20012  -0.224   1.661   5.708 -0.3013 -0.2818 -0.5227
  176SLPC  C31020013  -0.111   1.679   5.533 -0.0602  0.6349  0.4355
  176SLPC  H10X20014  -0.016   1.641   5.490 -1.2126 -0.6243 -1.1420
  176SLPC  H10Y20015  -0.109   1.789   5.520 -1.1603  0.6557  0.2764
  176SLPC  C31120016  -0.222   1.612   5.446 -0.0252  0.6417  0.4202
  176SLPC  H11X20017  -0.320   1.652   5.479 -1.0166 -0.7240 -0.7664
  176SLPC  H11Y20018  -0.220   1.501   5.454 -1.9386  0.4245 -1.2662
  176SLPC  C31220019  -0.200   1.648   5.298  1.0011  0.6625  0.1277
  176SLPC  H12X20020  -0.094   1.618   5.280  0.7202  1.0685 -2.6689
  176SLPC  H12Y20021  -0.207   1.755   5.268 -0.2125  0.8173  0.8946
  176SLPC  C31320022  -0.276   1.550   5.199 -0.5189 -0.8188 -0.1547
  176SLPC  H13X20023  -0.377   1.592   5.176  0.1968  2.0125  1.5015
  176SLPC  H13Y20024  -0.292   1.448   5.241 -1.5886 -1.5219 -2.1179
  176SLPC  C31420025  -0.196   1.524   5.067 -0.4055  0.4933  0.1396
  176SLPC  H14X20026  -0.091   1.505   5.096 -0.4518 -1.5675 -0.9195
  176SLPC  H14Y20027  -0.195   1.619   5.009  0.6006  1.2038  1.2778
  176SLPC  C31520028  -0.240   1.404   4.986 -0.3752 -0.6147 -0.0687
  176SLPC  H15X20029  -0.350   1.392   4.976 -0.5038  0.1338  0.3561
  176SLPC  H15Y20030  -0.228   1.316   5.054 -1.4835 -1.2034 -0.6092
  176SLPC  C31620031  -0.163   1.393   4.851  0.4907  0.2976  0.2877
  176SLPC  H16X20032  -0.054   1.402   4.870  0.5972  0.7782 -0.4981
  176SLPC  H16Y20033  -0.195   1.478   4.787 -1.7099 -0.8768 -0.2793
  176SLPC  C31720034  -0.203   1.262   4.774  0.1335 -0.7726 -0.1208
  176SLPC  H17X20035  -0.189   1.177   4.843  0.9391 -0.5173  0.0344
  176SLPC  H17Y20036  -0.137   1.247   4.686  2.2062  0.8162  1.0923
  176SLPC  C31820037  -0.349   1.262   4.725  0.0850 -0.8246  0.5875
  176SLPC  H18X20038  -0.381   1.159   4.700 -0.8165 -0.8737  1.8893
  176SLPC  H18Y20039  -0.339   1.333   4.640  0.4516  1.1660  2.2129
  176SLPC  H18Z20040  -0.429   1.305   4.789 -0.4915  1.2962 -1.4175
  177SLPC     N20041   6.516   3.668   7.513 -0.6063  0.4631  0.3312
  177SLPC   C1320042   6.656   3.646   7.488 -0.9059 -0.2445 -0.2460
  177SLPC  H13A20043   6.692   3.562   7.544  1.4351  0.7361 -0.1921
  177SLPC  H13B20044   6.670   3.612   7.386 -2.0837  1.3287 -0.9913
  177SLPC  H13C20045   6.718   3.731   7.513 -1.4047  0.4134 -1.1736
  177SLPC   C1420046   6.485   3.719   7.653  0.4587 -0.7813  0.0228
  177SLPC  H14A20047   6.514   3.647   7.728  0.2081 -0.6133  0.2793
  177SLPC  H14B20048   6.546   3.806   7.671 -0.0081 -0.3652 -0.3623
  177SLPC  H14C20049   6.378   3.728   7.667  0.5995  1.1987  0.1041
  177SLPC   C1520050   6.442   3.540   7.494  1.0565 -0.2791 -0.2199
  177SLPC  H15A20051   6.441   3.505   7.392  0.7223  0.8699 -0.6186
  177SLPC  H15B20052   6.477   3.462   7.561 -0.3715 -0.8723 -0.1413
  177SLPC  H15C20053   6.342   3.557   7.531  1.4182 -0.0850  0.7124
  177SLPC   C1220054   6.483   3.777   7.411 -0.2075 -0.5206  0.5145
  177SLPC  H12A20055   6.541   3.868   7.416 -0.9262 -0.0269  0.0663
  177SLPC  H12B20056   6.385   3.809   7.441  0.3311  0.9131  0.8372
  177SLPC   C1120057   6.465   3.739   7.258 -0.1475  0.5696 -0.3712
  177SLPC  H11A20058   6.554   3.685   7.220 -0.1094  0.0998  0.3661
  177SLPC  H11B20059   6.451   3.839   7.212 -2.4007  0.9434  0.9860
  177SLPC     P20060   6.205   3.735   7.251  0.0904  0.2027 -0.1385
  177SLPC   O1320061   6.139   3.629   7.319  0.1147  0.2312  0.4490
  177SLPC   O1420062   6.221   3.859   7.320 -0.0847 -0.5752 -0.1438
  177SLPC   O1220063   6.344   3.670   7.228 -0.1295  0.3379 -0.1514
  177SLPC   O1120064   6.139   3.755   7.114  0.0064 -0.7808  0.1576
  177SLPC    C120065   6.207   3.803   7.001  0.4209 -0.2704  0.1539
  177SLPC    HA20066   6.173   3.907   6.983 -1.0487 -0.4523  1.5429
  177SLPC    HB20067   6.317   3.788   7.001  0.8499  1.9584 -2.6952
  177SLPC    C220068   6.154   3.725   6.882  0.2018 -0.0198  1.4727
  177SLPC    HS20069   6.044   3.739   6.886  0.0014 -1.5848  2.0454
  177SLPC   O2120070   6.206   3.589   6.883  0.2737  0.0965  0.6458
  177SLPC   C2120071   6.109   3.495   6.856 -0.1520  0.6713 -1.1338
  177SLPC   O2220072   5.993   3.508   6.846  0.5652  0.4187 -0.5983
  177SLPC   C2220073   6.187   3.368   6.828 -0.2675  0.6659  0.1160
  177SLPC   H2R20074   6.297   3.383   6.816 -0.3956  0.9314 -0.7999
  177SLPC   H2S20075   6.168   3.302   6.916 -0.1806 -0.4686 -0.6879
  177SLPC    C320076   6.205   3.801   6.756 -0.3130 -0.7095 -0.2472
  177SLPC    HX20077   6.313   3.775   6.750  0.1321  0.1070  2.6550
  177SLPC    HY20078   6.191   3.911   6.765 -3.2291 -0.8873 -1.5666
  177SLPC   O3120079   6.134   3.754   6.643 -0.2826  0.0209 -0.0785
  177SLPC   C3120080   6.149   3.830   6.534  0.3978 -0.1478  0.1837
  177SLPC   O3220081   6.204   3.940   6.533  0.7250  0.4745  0.4273
  177SLPC   C3220082   6.082   3.760   6.414  0.5747  0.2422  0.2254
  177SLPC   H2X20083   5.973   3.752   6.433  0.3449 -1.0751 -1.3317
  177SLPC   H2Y20084   6.118   3.656   6.398  0.9924  0.7295 -2.6289
  177SLPC   C2320085   6.126   3.298   6.704  0.0128  0.6065  0.1354
  177SLPC   H3R20086   6.015   3.287   6.710  0.2875 -1.7633  4.0692
  177SLPC   H3S20087   6.169   3.197   6.688 -1.0085  0.0725  0.6484
  177SLPC   C2420088   6.176   3.370   6.580  0.9938 -0.4628 -0.1574
  177SLPC   H4R20089   6.287   3.366   6.571  1.0306  0.4782 -0.2344
  177SLPC   H4S20090   6.132   3.471   6.568  0.0594 -1.0894 -2.4816
  177SLPC   C2520091   6.127   3.292   6.454 -0.3846  0.3828  1.2102
  177SLPC   H5R20092   6.027   3.248   6.476 -0.9665 -0.7024 -2.8171
  177SLPC   H5S20093   6.194   3.204   6.443  0.5471  1.1311  0.8465
  177SLPC   C2620094   6.128   3.374   6.323  0.5098 -0.3150  0.6130
  177SLPC   H6R20095   6.232   3.410   6.318  0.3092  0.1195 -0.8611
  177SLPC   H6S20096   6.051   3.454   6.324 -0.0724 -0.8574  1.7076
  177SLPC   C2720097   6.116   3.274   6.200  0.3328  0.0298  0.3263
  177SLPC   H7R20098   6.038   3.199   6.223  0.3979  0.5657  2.5500
  177SLPC   H7S20099   6.205   3.208   6.195 -0.0040 -0.3766 -0.3448
  177SLPC   C2820100   6.089   3.324   6.057 -0.1541  0.3431 -0.9321
  177SLPC   H8R20101   6.167   3.394   6.019 -0.8979  0.9064 -1.4641
  177SLPC   H8S20102   6.000   3.389   6.075  1.5897  1.8732  3.6401
  177SLPC   C2920103   6.058   3.207   5.964 -0.1434  0.4389  0.9538
  177SLPC   H9R20104   6.007   3.120   6.007 -1.5684 -1.2447 -3.6022
  177SLPC  C21020105   6.087   3.203   5.829 -0.0571 -0.1015 -0.6451
  177SLPC  H10R20106   6.037   3.122   5.774 -0.3840 -0.0060 -0.4891
  177SLPC  C21120107   6.148   3.307   5.748 -0.2332  0.1022 -0.0169
  177SLPC  H11R20108   6.171   3.394   5.813  1.6863 -1.0279  0.9138
  177SLPC  H11S20109   6.077   3.360   5.681  1.0085  3.1451  0.9114
  177SLPC  C21220110   6.260   3.242   5.670  0.2286 -0.0806  0.0341
  177SLPC  H12R20111   6.338   3.187   5.724  0.1444 -0.8765 -0.6407
  177SLPC  C21320112   6.261   3.240   5.533  0.0293 -0.1915 -0.1576
  177SLPC  H13R20113   6.347   3.187   5.490 -0.2532 -0.8638  0.0941
  177SLPC  C21420114   6.148   3.286   5.439 -0.2868  0.5082 -0.7363
  177SLPC  H14R20115   6.166   3.389   5.403 -0.5651  0.8813  0.1579
  177SLPC  H14S20116   6.045   3.285   5.481 -0.5671  2.3571 -1.3228
  177SLPC  C21520117   6.165   3.212   5.305 -0.5997  0.5820 -0.0810
  177SLPC  H15R20118   6.265   3.240   5.265 -1.5233  1.1355 -2.1686
  177SLPC  H15S20119   6.096   3.260   5.232 -1.6784 -1.7115 -0.6514
  177SLPC  C21620120   6.119   3.065   5.304 -0.6025  0.3837 -0.4817
  177SLPC  H16R20121   6.016   3.063   5.344 -0.2619  0.3459  0.4014
  177SLPC  H16S20122   6.182   3.002   5.370  1.0225  1.3784 -1.0132
  177SLPC  C21720123   6.125   3.002   5.162  0.1144 -0.1762 -0.1584
  177SLPC  H17R20124   6.233   2.981   5.152  0.1171 -0.8774  1.1213
  177SLPC  H17S20125   6.100   3.072   5.079  1.6213  0.7731  0.1338
  177SLPC  C21820126   6.048   2.872   5.138  0.2437  0.2697 -0.7046
  177SLPC  H18R20127   6.072   2.839   5.035 -0.4097  0.3818 -0.8983
  177SLPC  H18S20128   5.942   2.905   5.137 -0.1217 -0.7265  1.0907
  177SLPC  H18T20129   6.061   2.801   5.223  2.6742  1.6666  0.1997
  177SLPC   C3320130   6.110   3.834   6.281  0.4066 -0.4785 -0.1060
  177SLPC   H3X20131   6.209   3.884   6.274  0.2892 -0.0224  1.1867
  177SLPC   H3Y20132   6.035   3.916   6.276 -1.1762 -1.8020  0.8512
  177SLPC   C3420133   6.080   3.748   6.163 -0.2068 -0.0091 -0.1536
  177SLPC   H4X20134   5.987   3.688   6.173  0.5581 -1.0778  0.9705
  177SLPC   H4Y20135   6.164   3.677   6.144 -0.0369  0.9905 -4.0436
  177SLPC   C3520136   6.079   3.819   6.028  0.3240  0.0460  0.4380
  177SLPC   H5X20137   6.182   3.859   6.015  0.0808  1.0247  1.3455
  177SLPC   H5Y20138   5.999   3.897   6.030  0.9042  0.6418  0.9062
  177SLPC   C3620139   6.059   3.713   5.918 -0.2945  0.5304 -0.5536
  177SLPC   H6X20140   5.964   3.662   5.945  1.1817 -2.4854 -0.6880
  177SLPC   H6Y20141   6.141   3.638   5.922 -1.7229 -1.1418 -1.0763
  177SLPC   C3720142   6.056   3.760   5.775 -0.1762 -0.7582  0.4332
  177SLPC   H7X20143   6.138   3.834   5.764  0.1044 -1.1059  0.1377
  177SLPC   H7Y20144   5.960   3.811   5.752 -1.7390 -1.4470  4.6405
  177SLPC   C3820145   6.088   3.658   5.672  0.3517 -0.4890  0.4640
  177SLPC   H8X20146   6.010   3.578   5.671 -1.6022  1.2356  2.7857
  177SLPC   H8Y20147   6.192   3.622   5.687  0.1717 -2.4595 -2.1815
  177SLPC   C3920148   6.098   3.708   5.531 -0.0748  0.1828 -0.0087
  177SLPC   H9X20149   6.162   3.639   5.472 -1.0584  0.1587 -1.0760
  177SLPC   H9Y20150   6.136   3.813   5.523  0.8189 -0.2762 -2.8329
  177SLPC  C31020151   5.957   3.718   5.465 -0.1390 -0.1368 -0.3806
  177SLPC  H10X20152   5.880   3.721   5.545 -0.0612  1.7907 -0.3305
  177SLPC  H10Y20153   5.953   3.622   5.409 -0.1148 -1.3817  1.6538
  177SLPC  C31120154   5.951   3.843   5.376 -0.3485  0.5172  0.0040
  177SLPC  H11X20155   6.031   3.846   5.298  0.1758  2.8353  0.5553
  177SLPC  H11Y20156   5.974   3.928   5.442  0.0604  0.9269 -0.6527
  177SLPC  C31220157   5.815   3.858   5.305 -0.3375  0.3824  0.3402
  177SLPC  H12X20158   5.737   3.852   5.384 -1.8484  1.7871 -0.9785
  177SLPC  H12Y20159   5.797   3.784   5.224  0.1199  1.8311 -1.1336
  177SLPC  C31320160   5.794   4.006   5.249  0.4244  0.3333 -0.0453
  177SLPC  H13X20161   5.806   4.077   5.334 -0.6710  0.6295 -0.1158
  177SLPC  H13Y20162   5.695   4.000   5.199  1.0970 -0.4153 -1.3427
  177SLPC  C31420163   5.891   4.028   5.128  0.6376  0.0928  0.4212
  177SLPC  H14X20164   5.867   3.951   5.051 -1.7252  0.6183  0.5340
  177SLPC  H14Y20165   5.999   4.020   5.149  0.3984 -1.9621  1.0980
  177SLPC  C31520166   5.864   4.158   5.047 -0.1315 -0.2472  0.3509
  177SLPC  H15X20167   5.881   4.246   5.113 -0.4688  0.6559 -0.7239
  177SLPC  H15Y20168   5.759   4.157   5.010 -0.6573  0.1950  1.7785
  177SLPC  C31620169   5.938   4.173   4.917 -0.1531  0.0949 -0.0060
  177SLPC  H16X20170   5.873   4.139   4.833 -0.9645  1.9618 -0.1623
  177SLPC  H16Y20171   6.045   4.141   4.922 -0.6181 -1.5019  0.2506
  177SLPC  C31720172   5.943   4.321   4.877  0.6403 -0.0667 -0.0543
  177SLPC  H17X20173   6.029   4.368   4.929  0.8033 -0.2642 -0.1402
  177SLPC  H17Y20174   5.862   4.377   4.926 -0.1438 -1.8228  0.7569
  177SLPC  C31820175   5.949   4.345   4.722  0.1996  0.0505 -0.4893
  177SLPC  H18X20176   5.859   4.316   4.664 -1.9922  1.8842  1.8253
  177SLPC  H18Y20177   6.038   4.296   4.677 -0.1564 -1.0719 -0.0151
  177SLPC  H18Z20178   5.955   4.453   4.699  0.2293  0.6591  2.1000
  178SLPC     N20179   4.355   6.579   7.543 -0.3857  0.3075  0.2282
  178SLPC   C1320180   4.267   6.460   7.563 -0.1803  0.1868  0.2497
  178SLPC  H13A20181   4.201   6.477   7.646 -0.4240  2.9560 -0.4311
  178SLPC  H13B20182   4.193   6.436   7.487  0.4793  1.3953 -0.8163
  178SLPC  H13C20183   4.329   6.373   7.576 -0.9142 -0.4013 -0.0549
  178SLPC   C1420184   4.460   6.586   7.645  0.3178  0.3891 -0.0974
  178SLPC  H14A20185   4.529   6.505   7.631 -1.3631 -0.7759 -2.0639
  178SLPC  H14B20186   4.515   6.679   7.645 -3.4702  2.8789  0.8476
  178SLPC  H14C20187   4.412   6.580   7.742  0.6600 -1.2962 -0.0034
  178SLPC   C1520188   4.264   6.695   7.557 -0.1632 -0.1437  0.0415
  178SLPC  H15A20189   4.195   6.702   7.473  0.3403  0.0546 -0.3592
  178SLPC  H15B20190   4.209   6.689   7.650  1.7200 -2.8881  1.1023
  178SLPC  H15C20191   4.315   6.790   7.551 -0.4085 -0.0593 -0.9259
  178SLPC   C1220192   4.417   6.565   7.400  0.2964 -0.4049 -0.5444
  178SLPC  H12A20193   4.460   6.659   7.367  1.8947 -0.8444  0.1807
  178SLPC  H12B20194   4.339   6.534   7.333  1.2219 -2.3837 -0.7790
  178SLPC   C1120195   4.527   6.462   7.369  0.1284  0.0705 -0.2821
  178SLPC  H11A20196   4.496   6.361   7.405  0.0420  0.2690  0.2058
  178SLPC  H11B20197   4.620   6.494   7.421  0.4310  0.2583 -0.9270
  178SLPC     P20198   4.453   6.361   7.140  0.2129  0.2300 -0.1327
  178SLPC   O1320199   4.511   6.227   7.156 -0.7318  0.4060  0.3565
  178SLPC   O1420200   4.311   6.382   7.181  0.2146 -0.0480  0.1984
  178SLPC   O1220201   4.549   6.460   7.226  0.2457  0.2994  0.7745
  178SLPC   O1120202   4.472   6.420   6.996 -0.3454 -0.3180 -0.2643
  178SLPC    C120203   4.594   6.492   6.956  0.0663 -0.6758 -0.2572
  178SLPC    HA20204   4.676   6.470   7.028  0.5982 -1.1342 -0.9904
  178SLPC    HB20205   4.630   6.455   6.857  3.1856 -1.5033  1.0571
  178SLPC    C220206   4.585   6.647   6.976 -0.1645  0.0583 -0.4934
  178SLPC    HS20207   4.564   6.665   7.084 -0.5423  0.8197 -0.6889
  178SLPC   O2120208   4.488   6.704   6.895  0.4140 -0.2497 -0.1088
  178SLPC   C2120209   4.447   6.830   6.934  0.6051  0.3690 -0.1853
  178SLPC   O2220210   4.480   6.885   7.035  0.0233  0.0607 -0.4039
  178SLPC   C2220211   4.350   6.887   6.824 -0.1206  0.4770 -0.2269
  178SLPC   H2R20212   4.250   6.841   6.836 -0.0480  0.0365 -1.2149
  178SLPC   H2S20213   4.342   6.997   6.842 -2.8777  0.4308 -0.8183
  178SLPC    C320214   4.732   6.707   6.955  0.0432  0.5907  0.0884
  178SLPC    HX20215   4.800   6.656   7.026 -1.2883 -0.5398  0.5992
  178SLPC    HY20216   4.730   6.815   6.980  0.7360  1.1806 -2.1849
  178SLPC   O3120217   4.782   6.688   6.821 -0.2360  0.5549 -0.1040
  178SLPC   C3120218   4.771   6.784   6.737  0.1526 -0.3445  0.6406
  178SLPC   O3220219   4.759   6.903   6.764 -1.0037  0.1085 -0.0947
  178SLPC   C3220220   4.774   6.732   6.595  0.3432 -0.4748 -0.1006
  178SLPC   H2X20221   4.684   6.669   6.575 -0.6421  0.8842 -0.0696
  178SLPC   H2Y20222   4.867   6.673   6.578 -0.1434 -1.3007  0.0061
  178SLPC   C2320223   4.407   6.861   6.682 -0.0869 -0.1083  0.5197
  178SLPC   H3R20224   4.517   6.872   6.668 -0.3838  0.1459 -2.2430
  178SLPC   H3S20225   4.358   6.935   6.615  0.2894 -1.4337 -1.3032
  178SLPC   C2420226   4.354   6.734   6.621  0.0287  0.2380  0.1081
  178SLPC   H4R20227   4.245   6.724   6.639 -0.2615  3.4034  0.6214
  178SLPC   H4S20228   4.411   6.645   6.657 -0.8795 -0.3206  0.1898
  178SLPC   C2520229   4.384   6.725   6.471  0.2179  0.3826  0.1129
  178SLPC   H5R20230   4.340   6.629   6.435  2.6748 -0.9580  0.4990
  178SLPC   H5S20231   4.494   6.720   6.455 -0.0675  0.7191 -2.4859
  178SLPC   C2620232   4.326   6.844   6.387 -0.1563 -0.2064 -0.1148
  178SLPC   H6R20233   4.396   6.927   6.412  1.7883 -0.9197 -2.8415
  178SLPC   H6S20234   4.230   6.880   6.430 -0.4017  0.8165 -1.4688
  178SLPC   C2720235   4.327   6.820   6.234  0.8139 -0.0378  0.7459
  178SLPC   H7R20236   4.409   6.748   6.214  0.0115 -1.0989  1.1139
  178SLPC   H7S20237   4.347   6.915   6.181  0.2310  1.3126  2.8051
  178SLPC   C2820238   4.191   6.762   6.192 -0.5362  0.0381  0.0785
  178SLPC   H8R20239   4.158   6.677   6.256 -0.0572 -1.4822 -1.5969
  178SLPC   H8S20240   4.222   6.715   6.096 -0.3538  1.2769 -0.4851
  178SLPC   C2920241   4.080   6.864   6.178 -0.2744 -0.6446 -0.3650
  178SLPC   H9R20242   4.046   6.909   6.273 -1.7041 -0.9549 -0.7061
  178SLPC  C21020243   4.024   6.920   6.066 -0.9951  0.4768  0.8719
  178SLPC  H10R20244   3.949   7.001   6.063 -2.3584 -0.7464 -1.9314
  178SLPC  C21120245   4.069   6.891   5.921  0.5377  0.1425 -0.7023
  178SLPC  H11R20246   4.134   6.802   5.914  0.4677  0.0591 -0.3442
  178SLPC  H11S20247   4.134   6.975   5.890  0.8727 -0.1216 -0.7239
  178SLPC  C21220248   3.951   6.883   5.834  0.4791  0.7163 -0.1335
  178SLPC  H12R20249   3.856   6.887   5.890  0.4185 -0.4886 -0.1281
  178SLPC  C21320250   3.954   6.880   5.703  0.3247 -0.0711  0.0716
  178SLPC  H13R20251   3.855   6.886   5.657  1.3837  0.0991 -2.3319
  178SLPC  C21420252   4.077   6.890   5.618  0.5623 -0.1919  0.1645
  178SLPC  H14R20253   4.071   6.805   5.547  1.6393 -0.0421 -0.1178
  178SLPC  H14S20254   4.165   6.874   5.685  0.8398  1.7648  0.3291
  178SLPC  C21520255   4.091   7.017   5.533 -0.3867 -0.0182  0.3741
  178SLPC  H15R20256   4.190   7.020   5.484  0.8829  1.2795  2.7989
  178SLPC  H15S20257   4.082   7.109   5.595  1.3563  0.8807 -0.6417
  178SLPC  C21620258   3.985   7.016   5.423 -0.0161  0.5849  0.1643
  178SLPC  H16R20259   3.883   7.016   5.465  1.3031  0.0185  3.7070
  178SLPC  H16S20260   4.009   6.921   5.370 -1.6992 -0.5782  1.4143
  178SLPC  C21720261   4.000   7.130   5.325 -1.1072  0.1698 -0.2897
  178SLPC  H17R20262   4.108   7.141   5.300 -0.2190 -0.8221  2.7083
  178SLPC  H17S20263   3.973   7.228   5.371 -0.3549  1.5715 -2.6608
  178SLPC  C21820264   3.917   7.114   5.194 -0.7354  0.0206  0.1294
  178SLPC  H18R20265   3.971   7.027   5.150  2.7195  1.7277  0.6258
  178SLPC  H18S20266   3.934   7.199   5.126  0.8766 -1.7152 -1.7838
  178SLPC  H18T20267   3.811   7.092   5.220 -0.7172  0.2940  0.4444
  178SLPC   C3320268   4.763   6.850   6.494  0.6139 -0.1430 -0.7422
  178SLPC   H3X20269   4.839   6.930   6.512 -1.7748  2.4361 -1.4499
  178SLPC   H3Y20270   4.663   6.897   6.506  0.3633 -0.4917 -1.4078
  178SLPC   C3420271   4.781   6.797   6.353  0.5382 -1.0018 -0.5121
  178SLPC   H4X20272   4.691   6.735   6.332 -0.5219  0.3062  0.0393
  178SLPC   H4Y20273   4.871   6.732   6.352  1.2464 -0.0885 -2.4543
  178SLPC   C3520274   4.775   6.909   6.243  0.6229 -0.4267  0.1272
  178SLPC   H5X20275   4.855   6.981   6.270  0.3553  0.7398 -1.9921
  178SLPC   H5Y20276   4.674   6.955   6.253 -0.1243 -1.2273 -2.7866
  178SLPC   C3620277   4.809   6.860   6.105 -0.1254 -0.3720 -0.1501
  178SLPC   H6X20278   4.786   6.751   6.094 -0.5197 -0.3765  0.6748
  178SLPC   H6Y20279   4.920   6.870   6.096 -0.1430 -0.3272 -0.3212
  178SLPC   C3720280   4.741   6.954   6.000 -0.1424  0.2442 -0.1314
  178SLPC   H7X20281   4.803   6.938   5.910  1.1658 -0.5837  0.8898
  178SLPC   H7Y20282   4.757   7.059   6.034  0.8526 -0.2816  1.0554
  178SLPC   C3820283   4.595   6.911   5.981 -0.5832 -1.0687  0.5399
  178SLPC   H8X20284   4.548   6.890   6.080 -3.1720  0.6138 -0.2462
  178SLPC   H8Y20285   4.601   6.813   5.929 -1.2184  0.8137 -3.3807
  178SLPC   C3920286   4.512   7.016   5.913 -0.2833 -0.5434 -0.1913
  178SLPC   H9X20287   4.538   7.114   5.959  0.5931 -0.9444  0.2060
  178SLPC   H9Y20288   4.406   6.988   5.930 -0.2966 -0.6766 -0.4862
  178SLPC  C31020289   4.546   7.024   5.766 -1.0140 -0.0884  0.2437
  178SLPC  H10X20290   4.649   7.061   5.749 -0.2988 -2.0450  0.0198
  178SLPC  H10Y20291   4.486   7.109   5.727 -1.9930 -0.0862  1.6757
  178SLPC  C31120292   4.516   6.895   5.686 -0.5743 -0.0234  0.1524
  178SLPC  H11X20293   4.408   6.871   5.686 -0.6189 -0.7286  4.8153
  178SLPC  H11Y20294   4.577   6.811   5.726  2.4481  1.1339 -1.6959
  178SLPC  C31220295   4.561   6.905   5.542 -0.8897 -0.1143 -0.2210
  178SLPC  H12X20296   4.565   6.803   5.499 -3.0117 -0.5802  0.5453
  178SLPC  H12Y20297   4.661   6.951   5.533 -0.8861 -0.3910 -1.7980
  178SLPC  C31320298   4.470   6.986   5.443  0.3664  0.1963  0.0744
  178SLPC  H13X20299   4.439   7.087   5.475 -1.5983 -0.0523 -0.9031
  178SLPC  H13Y20300   4.371   6.936   5.436  0.7895 -0.7122  0.3950
  178SLPC  C31420301   4.540   7.010   5.302  0.2991  0.5650  0.4907
  178SLPC  H14X20302   4.620   7.087   5.308  1.0199 -0.1891  0.6771
  178SLPC  H14Y20303   4.462   7.066   5.246 -0.2259  2.2866  2.7857
  178SLPC  C31520304   4.601   6.887   5.223 -0.2270  0.4621  0.0845
  178SLPC  H15X20305   4.685   6.853   5.287 -0.6469  0.3160  0.5648
  178SLPC  H15Y20306   4.639   6.910   5.121  0.3071 -1.5281 -0.2018
  178SLPC  C31620307   4.496   6.781   5.193  0.5185  0.0228 -0.3578
  178SLPC  H16X20308   4.419   6.830   5.130 -1.1264  1.0393  2.3031
  178SLPC  H16Y20309   4.463   6.742   5.292  4.0148  0.3776  1.1072
  178SLPC  C31720310   4.550   6.664   5.112  0.2085 -0.2462  0.3710
  178SLPC  H17X20311   4.643   6.620   5.155  0.8777 -1.3184 -1.9616
  178SLPC  H17Y20312   4.556   6.696   5.006 -1.7660  1.9684  0.8620
  178SLPC  C31820313   4.448   6.549   5.112 -0.3520  0.2214  0.0772
  178SLPC  H18X20314   4.359   6.577   5.051  1.0572  0.0062 -2.2161
  178SLPC  H18Y20315   4.414   6.524   5.214  1.4775 -1.4181  0.3516
  178SLPC  H18Z20316   4.493   6.457   5.069  0.2502  0.3103  0.5071
  179SLPC     N20317   3.291   1.715   2.713 -0.0150 -0.2845 -0.3928
  179SLPC   C1320318   3.391   1.687   2.821  0.1867  0.6300 -0.7272
  179SLPC  H13A20319   3.388   1.776   2.882 -0.3382  1.9019 -2.5382
  179SLPC  H13B20320   3.375   1.593   2.872 -1.9781  1.3543  0.0269
  179SLPC  H13C20321   3.489   1.689   2.774 -0.1967  3.9574 -1.6470
  179SLPC   C1420322   3.298   1.614   2.606 -0.4510 -0.9776  0.4103
  179SLPC  H14A20323   3.400   1.611   2.569  0.0586  1.2112  1.5055
  179SLPC  H14B20324   3.275   1.513   2.636 -1.4561 -0.4920  1.3376
  179SLPC  H14C20325   3.234   1.635   2.521 -0.1793 -1.9336 -0.0450
  179SLPC   C1520326   3.327   1.849   2.653 -0.2652  0.2605  0.5590
  179SLPC  H15A20327   3.327   1.927   2.727 -0.3792  1.1909 -0.4000
  179SLPC  H15B20328   3.429   1.846   2.618 -0.1981 -0.5306  0.7991
  179SLPC  H15C20329   3.255   1.883   2.579 -0.1621  1.0320  0.8071
  179SLPC   C1220330   3.147   1.714   2.769  0.2802  0.9588  0.1489
  179SLPC  H12A20331   3.120   1.613   2.794  0.9568  1.2398  2.1312
  179SLPC  H12B20332   3.076   1.738   2.690 -0.4474  1.2041  0.8640
  179SLPC   C1120333   3.132   1.809   2.889 -0.1366 -0.0927 -0.9938
  179SLPC  H11A20334   3.184   1.764   2.976  0.0136 -1.1247 -1.6070
  179SLPC  H11B20335   3.028   1.809   2.929  0.0668  0.6723 -0.4309
  179SLPC     P20336   3.263   2.023   2.968 -0.2267  0.2227  0.1307
  179SLPC   O1320337   3.399   1.972   2.944  0.0817 -0.3993  0.0567
  179SLPC   O1420338   3.247   2.171   2.956  0.6388  0.5590  0.3216
  179SLPC   O1220339   3.163   1.946   2.871  0.4021  0.0849 -0.0442
  179SLPC   O1120340   3.206   1.974   3.108 -0.0109 -0.2184  0.2795
  179SLPC    C120341   3.099   2.050   3.157 -0.1486  0.0989 -0.0144
  179SLPC    HA20342   3.035   2.089   3.075  0.1828 -1.8869 -1.2820
  179SLPC    HB20343   3.027   1.979   3.201 -0.7257  1.3378  1.1229
  179SLPC    C220344   3.151   2.161   3.251 -0.4026  0.0566  0.9554
  179SLPC    HS20345   3.220   2.219   3.187 -0.1595 -1.3956 -0.1524
  179SLPC   O2120346   3.214   2.099   3.362  0.2701  0.1688  0.1489
  179SLPC   C2120347   3.345   2.083   3.374  0.9433 -0.2766  0.2733
  179SLPC   O2220348   3.428   2.131   3.301  0.0943 -0.5738 -0.2459
  179SLPC   C2220349   3.368   2.025   3.516 -0.5177  0.5367 -1.0112
  179SLPC   H2R20350   3.329   2.104   3.584 -0.2413  0.3909 -0.6820
  179SLPC   H2S20351   3.298   1.941   3.537 -0.6593  1.1146  1.0262
  179SLPC    C320352   3.034   2.260   3.290 -0.0274 -0.2121 -0.0305
  179SLPC    HX20353   2.975   2.210   3.370 -0.9622  0.9206  0.0126
  179SLPC    HY20354   2.970   2.284   3.203  1.4278 -0.5734 -1.2376
  179SLPC   O3120355   3.104   2.381   3.335 -0.1265 -0.0373 -0.4563
  179SLPC   C3120356   3.121   2.475   3.244  1.1533 -0.1587  0.2839
  179SLPC   O3220357   3.090   2.465   3.127 -0.2646  0.5459  0.4939
  179SLPC   C3220358   3.185   2.592   3.308 -0.6550  0.1192  0.7806
  179SLPC   H2X20359   3.108   2.632   3.377  0.3718  1.4083  1.2156
  179SLPC   H2Y20360   3.214   2.667   3.231  0.4654  1.0214  2.0257
  179SLPC   C2320361   3.511   1.984   3.561  0.2421  0.4503  0.8268
  179SLPC   H3R20362   3.581   2.062   3.524  0.4274 -0.3657 -0.5690
  179SLPC   H3S20363   3.540   1.888   3.513  0.8420 -0.8098  3.5057
  179SLPC   C2420364   3.532   1.965   3.706  0.1209 -0.3718  0.0518
  179SLPC   H4R20365   3.636   1.930   3.723  0.4160 -0.2540 -1.3956
  179SLPC   H4S20366   3.463   1.886   3.745 -0.1504  0.0206  0.3728
  179SLPC   C2520367   3.518   2.090   3.795  0.1594  0.1213 -1.4831
  179SLPC   H5R20368   3.419   2.139   3.786  0.3499  0.4006 -2.1733
  179SLPC   H5S20369   3.595   2.165   3.765  2.1173 -1.6128 -0.9950
  179SLPC   C2620370   3.533   2.068   3.952 -0.0944  0.7406 -0.1458
  179SLPC   H6R20371   3.565   2.165   3.995  0.7333 -0.8116  2.9601
  179SLPC   H6S20372   3.617   1.996   3.956  0.1132  1.0462  2.7011
  179SLPC   C2720373   3.406   2.006   4.014  0.1459  0.4148  0.1880
  179SLPC   H7R20374   3.381   1.917   3.953  1.3097  1.9240 -2.6908
  179SLPC   H7S20375   3.319   2.074   4.011 -1.2093 -1.2669 -0.0990
  179SLPC   C2820376   3.414   1.975   4.168 -0.3109  0.1120  0.9872
  179SLPC   H8R20377   3.421   2.078   4.210  0.7102  1.6298 -2.5666
  179SLPC   H8S20378   3.511   1.922   4.179  0.8585  2.1009  0.6233
  179SLPC   C2920379   3.302   1.901   4.225 -0.4288 -0.8527 -0.8107
  179SLPC   H9R20380   3.204   1.935   4.186 -1.3173  0.4356  2.2510
  179SLPC  C21020381   3.310   1.807   4.322  0.0974  0.3477  0.3770
  179SLPC  H10R20382   3.217   1.750   4.337  0.7780 -0.4811  1.7104
  179SLPC  C21120383   3.435   1.751   4.385  0.3422  0.0290  0.5480
  179SLPC  H11R20384   3.463   1.814   4.472  0.5827 -2.4390  2.3498
  179SLPC  H11S20385   3.523   1.758   4.317 -1.2468  4.8404 -1.4187
  179SLPC  C21220386   3.426   1.605   4.428  0.5202 -0.0968  0.1940
  179SLPC  H12R20387   3.451   1.535   4.346 -1.4836 -0.4358 -0.1713
  179SLPC  C21320388   3.390   1.553   4.550 -0.0042  0.1940 -0.3593
  179SLPC  H13R20389   3.372   1.444   4.553  1.4468 -0.1093  3.7536
  179SLPC  C21420390   3.353   1.622   4.680  0.5084  0.0565 -0.0476
  179SLPC  H14R20391   3.384   1.729   4.673  2.9611 -0.6268 -0.7049
  179SLPC  H14S20392   3.411   1.565   4.755  1.1592 -2.5953 -2.3996
  179SLPC  C21520393   3.208   1.605   4.695  0.0258  0.5295  0.4567
  179SLPC  H15R20394   3.166   1.504   4.676  2.1210 -0.3175 -0.0086
  179SLPC  H15S20395   3.160   1.657   4.609  0.1849  1.1436  0.7338
  179SLPC  C21620396   3.148   1.661   4.824 -0.1865 -0.1531  0.5791
  179SLPC  H16R20397   3.037   1.669   4.819 -0.1117  1.6608  1.0223
  179SLPC  H16S20398   3.188   1.764   4.835  0.6867 -0.6148  2.0046
  179SLPC  C21720399   3.192   1.602   4.965  0.1239 -0.1933  0.7999
  179SLPC  H17R20400   3.303   1.603   4.972  0.0860  0.4341  1.5164
  179SLPC  H17S20401   3.159   1.496   4.964  1.5722 -0.6798 -0.9060
  179SLPC  C21820402   3.134   1.675   5.088  0.0713  0.0294  0.2041
  179SLPC  H18R20403   3.198   1.761   5.114  1.4165 -0.3030 -1.7429
  179SLPC  H18S20404   3.133   1.606   5.175 -2.7619  0.7183  0.8454
  179SLPC  H18T20405   3.028   1.703   5.067 -0.8144 -1.7877  1.8821
  179SLPC   C3320406   3.303   2.554   3.398 -0.7178 -0.1662 -0.3531
  179SLPC   H3X20407   3.371   2.486   3.343  1.3644  1.9712 -0.5559
  179SLPC   H3Y20408   3.268   2.503   3.491 -0.7819  0.7287  0.1216
  179SLPC   C3420409   3.391   2.675   3.441  0.1816 -0.2317  0.7300
  179SLPC   H4X20410   3.329   2.763   3.467  0.8198  0.8926 -1.3195
  179SLPC   H4Y20411   3.448   2.700   3.349  2.4722  2.8558  2.7576
  179SLPC   C3520412   3.491   2.636   3.550  0.0895  0.3992  0.1713
  179SLPC   H5X20413   3.578   2.704   3.566 -0.6466  1.3032  0.4518
  179SLPC   H5Y20414   3.436   2.617   3.645  1.7925 -1.4382  0.8666
  179SLPC   C3620415   3.573   2.502   3.534 -0.3432 -0.1797 -0.2878
  179SLPC   H6X20416   3.631   2.499   3.439  0.2870  0.7270  0.0451
  179SLPC   H6Y20417   3.519   2.406   3.539 -0.8321  0.0932 -0.2540
  179SLPC   C3720418   3.671   2.463   3.645 -0.1649  0.1412  0.5645
  179SLPC   H7X20419   3.758   2.531   3.652  0.9971 -0.9941 -1.7766
  179SLPC   H7Y20420   3.717   2.364   3.622  2.3823  1.4763 -0.5362
  179SLPC   C3820421   3.605   2.468   3.786  0.2026  0.3719  0.6487
  179SLPC   H8X20422   3.560   2.370   3.814  0.6884  0.5165  1.9932
  179SLPC   H8Y20423   3.520   2.540   3.794 -0.6008 -0.4749 -0.0138
  179SLPC   C3920424   3.704   2.498   3.890  0.5010  0.4770 -0.4679
  179SLPC   H9X20425   3.706   2.609   3.896  3.7272  0.4968 -0.1657
  179SLPC   H9Y20426   3.812   2.475   3.880  0.3414 -2.1679  2.4289
  179SLPC  C31020427   3.667   2.449   4.032 -0.2067 -0.6316  0.5383
  179SLPC  H10X20428   3.751   2.490   4.091  1.1620  0.2625 -1.8706
  179SLPC  H10Y20429   3.688   2.340   4.022 -0.3939 -0.6628  0.4788
  179SLPC  C31120430   3.524   2.477   4.085 -0.0594 -0.1913 -0.1580
  179SLPC  H11X20431   3.450   2.444   4.009 -1.0026  0.2955  0.5210
  179SLPC  H11Y20432   3.505   2.586   4.094 -0.1375 -0.1592 -0.6623
  179SLPC  C31220433   3.488   2.417   4.223 -0.8221 -0.4613 -1.1519
  179SLPC  H12X20434   3.557   2.462   4.297 -1.7566 -1.9052  0.7188
  179SLPC  H12Y20435   3.502   2.307   4.213 -2.8128 -0.7254 -1.4469
  179SLPC  C31320436   3.343   2.444   4.248 -0.2774 -0.7607 -0.5243
  179SLPC  H13X20437   3.280   2.385   4.178 -1.0559 -1.5310  0.7729
  179SLPC  H13Y20438   3.333   2.552   4.226  2.0370 -0.4552 -0.3694
  179SLPC  C31420439   3.282   2.413   4.380 -0.6090  0.1260 -0.4962
  179SLPC  H14X20440   3.180   2.454   4.393 -0.2948  0.8830 -0.3489
  179SLPC  H14Y20441   3.347   2.457   4.459 -1.2922 -1.3813  0.9651
  179SLPC  C31520442   3.285   2.262   4.408  0.1150 -0.0756 -0.3730
  179SLPC  H15X20443   3.379   2.210   4.381  0.0706  0.2550 -1.1671
  179SLPC  H15Y20444   3.206   2.211   4.350  1.5904 -3.2897  0.2092
  179SLPC  C31620445   3.266   2.239   4.555  0.1161 -0.6438 -0.2465
  179SLPC  H16X20446   3.166   2.263   4.597  0.0501 -0.1162 -0.6962
  179SLPC  H16Y20447   3.343   2.293   4.613 -1.6887  0.2137  1.4561
  179SLPC  C31720448   3.289   2.089   4.582 -0.6034  0.0563  0.3898
  179SLPC  H17X20449   3.334   2.079   4.683  0.4335 -0.7159 -0.1227
  179SLPC  H17Y20450   3.366   2.045   4.514  1.0688  0.2910  2.0628
  179SLPC  C31820451   3.152   2.023   4.580  0.4881  0.0821  0.7397
  179SLPC  H18X20452   3.114   2.030   4.476 -0.9939 -0.8132  1.1952
  179SLPC  H18Y20453   3.081   2.074   4.649 -0.5704  0.1444 -0.3696
  179SLPC  H18Z20454   3.157   1.916   4.610 -0.1317  0.0579  0.7738
  180SLPC     N20455   3.009   3.000   2.253  1.1301  0.4057  0.2757
  180SLPC   C1320456   3.114   3.053   2.345 -0.6720  0.0844  0.3468
  180SLPC  H13A20457   3.094   3.155   2.376  0.1854  0.6856 -0.9470
  180SLPC  H13B20458   3.123   2.988   2.430 -1.1666 -0.3185  0.0978
  180SLPC  H13C20459   3.210   3.054   2.297 -1.1222 -4.2495 -1.0692
  180SLPC   C1420460   3.044   2.859   2.222  0.0409  0.2348  0.0009
  180SLPC  H14A20461   3.047   2.799   2.312 -1.1896  1.1463  0.6870
  180SLPC  H14B20462   2.972   2.825   2.149  0.3445 -0.4835  0.0274
  180SLPC  H14C20463   3.143   2.845   2.183  0.1264  0.5099  0.1182
  180SLPC   C1520464   3.008   3.074   2.121  0.0858 -0.8287  1.0282
  180SLPC  H15A20465   2.951   3.035   2.038  1.5701  2.0047 -1.5430
  180SLPC  H15B20466   2.960   3.169   2.139 -0.3001 -0.6678 -0.7048
  180SLPC  H15C20467   3.103   3.100   2.076 -1.0291  0.2833 -0.8108
  180SLPC   C1220468   2.874   3.012   2.320 -0.4208 -0.4013 -0.5333
  180SLPC  H12A20469   2.801   2.972   2.250 -1.6788  0.2616  0.3545
  180SLPC  H12B20470   2.842   3.115   2.313  1.3024  0.0760 -2.0282
  180SLPC   C1120471   2.858   2.937   2.456  0.4805 -0.5890 -0.0948
  180SLPC  H11A20472   2.756   2.959   2.494  1.1477  1.1694  0.8042
  180SLPC  H11B20473   2.922   2.998   2.523 -0.2885  2.2080 -1.7174
  180SLPC     P20474   2.779   2.690   2.395  0.3083 -0.5522  0.2135
  180SLPC   O1320475   2.646   2.762   2.381 -0.5638  0.1330 -0.5091
  180SLPC   O1420476   2.835   2.615   2.276 -0.0485 -0.0821  0.1146
  180SLPC   O1220477   2.886   2.791   2.452  0.2021 -0.2624  0.3408
  180SLPC   O1120478   2.761   2.591   2.517 -0.2508  0.2745 -0.2493
  180SLPC    C120479   2.832   2.612   2.645 -0.1709  0.5217 -0.1418
  180SLPC    HA20480   2.830   2.514   2.698 -1.5214 -0.3668 -1.7199
  180SLPC    HB20481   2.942   2.624   2.635 -0.4693  2.0736 -2.5455
  180SLPC    C220482   2.776   2.715   2.736  0.2341 -0.0711  0.0666
  180SLPC    HS20483   2.771   2.817   2.692 -2.6011  0.5109  1.4711
  180SLPC   O2120484   2.855   2.710   2.849  0.4049  0.1777 -0.6644
  180SLPC   C2120485   2.847   2.812   2.932  0.9026  0.8799 -0.9594
  180SLPC   O2220486   2.814   2.925   2.907  0.2981 -0.0627 -0.3713
  180SLPC   C2220487   2.881   2.763   3.074  0.1814  1.0840  0.2551
  180SLPC   H2R20488   2.813   2.685   3.114  1.6681 -0.7156 -0.5707
  180SLPC   H2S20489   2.971   2.704   3.045 -0.2685  0.9953 -1.0006
  180SLPC    C320490   2.627   2.680   2.772  0.7843  0.1874  0.4248
  180SLPC    HX20491   2.618   2.590   2.837  0.3317  0.4571  0.7477
  180SLPC    HY20492   2.578   2.649   2.677 -0.5179 -0.5957  1.3119
  180SLPC   O3120493   2.568   2.788   2.844  0.3969 -0.4035 -0.2107
  180SLPC   C3120494   2.441   2.810   2.836 -0.5223 -0.7568  0.0592
  180SLPC   O3220495   2.363   2.748   2.763 -0.0182 -0.0361  0.1357
  180SLPC   C3220496   2.405   2.929   2.920  0.0468 -0.0087 -1.0371
  180SLPC   H2X20497   2.294   2.935   2.923  0.0462  0.2768  2.2391
  180SLPC   H2Y20498   2.435   3.017   2.860  1.3933 -1.6285 -2.8973
  180SLPC   C2320499   2.904   2.864   3.186  0.0400 -0.2442  0.1382
  180SLPC   H3R20500   2.961   2.954   3.155  0.3685 -0.5921 -0.2887
  180SLPC   H3S20501   2.984   2.821   3.250  0.3017  1.3684  0.9548
  180SLPC   C2420502   2.779   2.902   3.262 -0.2220  0.3751  0.7568
  180SLPC   H4R20503   2.727   2.808   3.290  1.7876 -2.1828 -3.1165
  180SLPC   H4S20504   2.707   2.964   3.205  0.6688 -0.1996 -1.1132
  180SLPC   C2520505   2.811   2.975   3.389  0.2310  0.5603  0.5776
  180SLPC   H5R20506   2.831   3.081   3.364 -1.3411  0.8730  0.5311
  180SLPC   H5S20507   2.895   2.934   3.448 -0.5274 -1.9247  0.0461
  180SLPC   C2620508   2.696   2.973   3.489 -0.1276  0.1316 -0.8257
  180SLPC   H6R20509   2.658   2.870   3.501 -0.8233  0.3376 -1.1833
  180SLPC   H6S20510   2.609   3.023   3.441 -0.0263  1.7213  0.5522
  180SLPC   C2720511   2.738   3.048   3.618 -0.0832  0.2823  0.5561
  180SLPC   H7R20512   2.761   3.147   3.574  0.2404 -0.9161 -2.1721
  180SLPC   H7S20513   2.837   3.006   3.646 -0.2034  0.1165  0.7376
  180SLPC   C2820514   2.640   3.050   3.729  0.3917 -0.1305  0.6079
  180SLPC   H8R20515   2.580   2.957   3.728 -0.1065  0.1869  0.2046
  180SLPC   H8S20516   2.557   3.124   3.717  0.6372  0.0741  0.1390
  180SLPC   C2920517   2.702   3.081   3.870 -0.6098  0.2216 -0.3218
  180SLPC   H9R20518   2.730   3.188   3.872 -1.4446  0.4587 -0.6489
  180SLPC  C21020519   2.721   3.003   3.978  0.4062  0.1591 -0.2861
  180SLPC  H10R20520   2.749   3.066   4.064 -2.6439  1.5340 -0.1593
  180SLPC  C21120521   2.681   2.859   3.997 -0.3923 -0.0597 -0.4842
  180SLPC  H11R20522   2.769   2.803   3.959 -0.1832  1.0851 -1.8010
  180SLPC  H11S20523   2.596   2.831   3.931 -0.8688  1.7198 -0.6700
  180SLPC  C21220524   2.648   2.827   4.145 -0.0240  0.1721 -0.2886
  180SLPC  H12R20525   2.551   2.853   4.188  0.1782 -0.6815  0.7314
  180SLPC  C21320526   2.735   2.749   4.222  0.8639  0.0566  0.5848
  180SLPC  H13R20527   2.689   2.733   4.321 -1.5796 -0.2320 -0.5367
  180SLPC  C21420528   2.878   2.710   4.194 -0.5543  0.4606  0.4697
  180SLPC  H14R20529   2.937   2.735   4.285 -0.9658  0.1553  0.8207
  180SLPC  H14S20530   2.926   2.755   4.105  1.8449 -0.2616  1.3190
  180SLPC  C21520531   2.886   2.556   4.172  0.0836 -1.1000 -0.1946
  180SLPC  H15R20532   2.991   2.546   4.137  0.2209 -0.7017  0.1007
  180SLPC  H15S20533   2.822   2.530   4.085  0.4753 -2.4766 -0.0986
  180SLPC  C21620534   2.856   2.468   4.290 -0.4765 -0.2926  0.2132
  180SLPC  H16R20535   2.746   2.476   4.302 -0.6606 -2.4681  0.4768
  180SLPC  H16S20536   2.912   2.500   4.381  0.3716  0.9386 -0.7116
  180SLPC  C21720537   2.864   2.317   4.252 -0.4906 -0.6360  0.1854
  180SLPC  H17R20538   2.965   2.292   4.214 -0.4982  1.6780 -1.5506
  180SLPC  H17S20539   2.795   2.308   4.165  2.3728  2.2126 -2.6277
  180SLPC  C21820540   2.825   2.219   4.365 -0.7948  0.2262  0.0716
  180SLPC  H18R20541   2.789   2.129   4.310  2.0112  0.5226 -2.5443
  180SLPC  H18S20542   2.738   2.250   4.427 -0.3566  2.5432 -0.3555
  180SLPC  H18T20543   2.909   2.197   4.435 -0.8680 -0.1013  0.0565
  180SLPC   C3320544   2.467   2.923   3.063 -0.6014  0.5760  0.1700
  180SLPC   H3X20545   2.575   2.934   3.040 -0.7475  0.0464 -0.8633
  180SLPC   H3Y20546   2.451   2.826   3.115 -1.5467  1.3869  1.4559
  180SLPC   C3420547   2.412   3.022   3.161 -0.5879  0.0285 -0.7521
  180SLPC   H4X20548   2.418   3.123   3.114  1.2093 -0.0862 -0.8378
  180SLPC   H4Y20549   2.480   3.014   3.249  0.7310 -0.3519 -1.7711
  180SLPC   C3520550   2.263   3.014   3.203  0.5663  0.4780 -0.3807
  180SLPC   H5X20551   2.235   2.909   3.224 -1.2472  1.2326  1.2649
  180SLPC   H5Y20552   2.195   3.036   3.119  2.0028  0.1762 -1.6760
  180SLPC   C3620553   2.224   3.095   3.324 -0.0509  0.8826  0.1443
  180SLPC   H6X20554   2.242   3.203   3.309  0.3063  1.1349  2.1256
  180SLPC   H6Y20555   2.298   3.056   3.398  0.4632 -3.6288 -2.3869
  180SLPC   C3720556   2.084   3.068   3.375 -0.1798 -0.0199 -0.5658
  180SLPC   H7X20557   2.067   2.959   3.387  0.2743 -0.0537 -0.2231
  180SLPC   H7Y20558   2.012   3.090   3.292 -0.2845  0.2358 -0.4094
  180SLPC   C3820559   2.049   3.145   3.505  0.3944  0.6897 -0.2686
  180SLPC   H8X20560   2.037   3.253   3.482 -0.6517  1.0860  1.9396
  180SLPC   H8Y20561   2.134   3.142   3.577 -0.2145 -1.4341  0.4337
  180SLPC   C3920562   1.922   3.098   3.574  0.1974  0.5632 -0.4053
  180SLPC   H9X20563   1.943   2.990   3.591 -0.9180  0.1227 -1.6734
  180SLPC   H9Y20564   1.828   3.097   3.515  0.5134 -1.3145 -0.9496
  180SLPC  C31020565   1.899   3.177   3.709  0.4474 -0.2380 -0.1172
  180SLPC  H10X20566   1.882   3.285   3.691  1.8383 -0.3558 -2.5600
  180SLPC  H10Y20567   1.989   3.179   3.774  1.0482  1.2670 -0.9579
  180SLPC  C31120568   1.775   3.136   3.794 -0.5964 -0.0130  0.0080
  180SLPC  H11X20569   1.772   3.028   3.819 -0.1155 -0.0882 -0.2605
  180SLPC  H11Y20570   1.682   3.157   3.736  0.5510 -2.5386 -3.0162
  180SLPC  C31220571   1.774   3.221   3.922  0.0125 -0.3917  0.2401
  180SLPC  H12X20572   1.681   3.188   3.973  0.1555 -2.0620 -0.5004
  180SLPC  H12Y20573   1.766   3.329   3.900 -0.3996 -1.1568 -4.3271
  180SLPC  C31320574   1.883   3.175   4.019 -0.4103 -0.3880  0.0557
  180SLPC  H13X20575   1.985   3.172   3.975 -0.8428 -0.9432 -0.9400
  180SLPC  H13Y20576   1.871   3.065   4.035  2.3424 -0.8113 -0.3495
  180SLPC  C31420577   1.870   3.250   4.153 -0.7097 -0.6776 -0.3850
  180SLPC  H14X20578   1.766   3.245   4.191 -0.0119 -2.2121  1.5239
  180SLPC  H14Y20579   1.897   3.355   4.129  1.2530 -1.5524 -2.3653
  180SLPC  C31520580   1.964   3.219   4.276  0.0532  0.5590 -0.4674
  180SLPC  H15X20581   2.069   3.234   4.242  0.0459  0.9024 -0.3437
  180SLPC  H15Y20582   1.949   3.111   4.298  1.0118 -0.0207 -2.4029
  180SLPC  C31620583   1.937   3.305   4.399 -0.2467  0.2341 -0.0016
  180SLPC  H16X20584   1.836   3.304   4.444 -0.6621 -0.8077 -0.9270
  180SLPC  H16Y20585   1.939   3.413   4.371 -1.9914  0.5213  0.8209
  180SLPC  C31720586   2.049   3.284   4.503  0.7844  0.4407 -0.2420
  180SLPC  H17X20587   2.148   3.289   4.453 -0.1588 -1.1813 -2.4278
  180SLPC  H17Y20588   2.034   3.178   4.532 -1.1499  0.3100 -1.5004
  180SLPC  C31820589   2.041   3.381   4.613 -0.0255  0.2780 -0.7027
  180SLPC  H18X20590   1.935   3.384   4.644 -0.0009  1.0251 -0.6794
  180SLPC  H18Y20591   2.067   3.485   4.582  0.4016  0.8160  1.3260
  180SLPC  H18Z20592   2.104   3.359   4.702 -0.8458 -1.7485 -0.5704
  181SLPC     N20593   1.982   1.290   2.201 -0.3532  0.1236  0.1869
  181SLPC   C1320594   1.985   1.174   2.118  0.2411  0.1805  0.2294
  181SLPC  H13A20595   2.074   1.115   2.134 -0.3234 -0.1511  2.5079
  181SLPC  H13B20596   1.902   1.109   2.141 -1.4903  1.6220 -1.5795
  181SLPC  H13C20597   1.988   1.202   2.014 -1.3213 -1.4850 -0.3076
  181SLPC   C1420598   1.865   1.374   2.165  0.4773 -0.6853  0.0796
  181SLPC  H14A20599   1.769   1.327   2.181  0.1620 -0.4157 -0.9252
  181SLPC  H14B20600   1.862   1.464   2.224  0.2771  0.3461 -1.4563
  181SLPC  H14C20601   1.864   1.406   2.061  2.3542  4.2220  1.2890
  181SLPC   C1520602   2.117   1.354   2.166  0.0725 -0.8759  0.6108
  181SLPC  H15A20603   2.133   1.452   2.209 -1.3645 -1.1544  1.8675
  181SLPC  H15B20604   2.201   1.299   2.205  0.9447  0.3340  0.4980
  181SLPC  H15C20605   2.115   1.361   2.058 -1.2649  0.8314  0.6885
  181SLPC   C1220606   1.997   1.247   2.340  0.7475 -0.5271 -0.3062
  181SLPC  H12A20607   1.899   1.210   2.366  0.8150 -0.6452 -0.2157
  181SLPC  H12B20608   2.012   1.332   2.405  0.4674  0.6161 -1.7145
  181SLPC   C1120609   2.089   1.130   2.374 -0.4773  0.3017  0.1018
  181SLPC  H11A20610   2.072   1.044   2.306 -0.7492 -1.0855  1.8554
  181SLPC  H11B20611   2.067   1.109   2.481 -0.5362  1.1943  0.2738
  181SLPC     P20612   2.339   1.090   2.415 -0.1277  0.4047  0.4340
  181SLPC   O1320613   2.343   0.956   2.354  0.2448 -0.1065  0.1967
  181SLPC   O1420614   2.466   1.167   2.407  0.5610  0.0118  0.0067
  181SLPC   O1220615   2.227   1.185   2.362 -0.1159  0.6169  0.4585
  181SLPC   O1120616   2.306   1.056   2.565 -0.0091  0.0203  0.3269
  181SLPC    C120617   2.232   0.938   2.604  0.8393 -0.6125  0.0241
  181SLPC    HA20618   2.130   0.979   2.620  1.7836  1.5786  0.8584
  181SLPC    HB20619   2.232   0.847   2.540 -2.2953 -1.1069  0.5721
  181SLPC    C220620   2.287   0.890   2.734 -0.1441  0.1975 -0.3253
  181SLPC    HS20621   2.264   0.781   2.733  3.9081 -0.8540 -2.5557
  181SLPC   O2120622   2.220   0.959   2.836 -0.7882  0.0535 -0.1734
  181SLPC   C2120623   2.105   0.917   2.873  0.1076  0.5507  0.2288
  181SLPC   O2220624   2.053   0.817   2.831 -0.2614  0.4882  0.4467
  181SLPC   C2220625   2.040   1.012   2.971 -0.1373  1.0799  0.0162
  181SLPC   H2R20626   2.101   1.102   2.994  0.8838  0.4381 -0.1116
  181SLPC   H2S20627   1.942   1.047   2.934  0.1977  3.2560  0.9940
  181SLPC    C320628   2.443   0.897   2.735  0.2314  0.0409  0.2871
  181SLPC    HX20629   2.468   1.002   2.761  1.0355 -0.2503  0.7568
  181SLPC    HY20630   2.477   0.882   2.630 -0.8060  2.9357 -0.5455
  181SLPC   O3120631   2.507   0.805   2.822 -0.0223  0.9957 -0.3898
  181SLPC   C3120632   2.553   0.848   2.941 -0.5651 -0.0983  0.8332
  181SLPC   O3220633   2.561   0.968   2.972  0.6389  0.6092 -0.5095
  181SLPC   C3220634   2.612   0.727   3.018  0.2024  0.6748 -0.6821
  181SLPC   H2X20635   2.708   0.707   2.966  0.7576 -0.8425  0.8542
  181SLPC   H2Y20636   2.547   0.638   3.014 -3.3359  2.8520  2.0103
  181SLPC   C2320637   2.009   0.946   3.109  0.3012  0.7128  0.0946
  181SLPC   H3R20638   1.931   0.867   3.101  0.8374  0.3164 -1.5622
  181SLPC   H3S20639   1.961   1.026   3.169 -1.3155 -1.1477  1.3967
  181SLPC   C2420640   2.134   0.905   3.199  0.8017 -0.0717  1.3988
  181SLPC   H4R20641   2.177   1.006   3.219 -0.3399  0.9846 -1.0652
  181SLPC   H4S20642   2.197   0.850   3.126 -1.1588 -0.5140 -0.0237
  181SLPC   C2520643   2.096   0.822   3.315  0.0789  0.2509  0.0614
  181SLPC   H5R20644   2.195   0.780   3.342 -1.2385 -1.3383  2.8560
  181SLPC   H5S20645   2.032   0.733   3.302 -0.6662  0.4593  1.9795
  181SLPC   C2620646   2.035   0.908   3.425  0.0615 -0.0514 -0.2658
  181SLPC   H6R20647   1.935   0.945   3.397 -0.8236 -2.7179 -0.9210
  181SLPC   H6S20648   2.108   0.991   3.436 -0.2360  0.6958 -3.1375
  181SLPC   C2720649   2.029   0.831   3.560 -0.8667 -0.2902  0.2328
  181SLPC   H7R20650   2.133   0.801   3.585  0.2558  1.4715 -1.9558
  181SLPC   H7S20651   1.977   0.733   3.548 -0.0389 -0.5377 -1.8134
  181SLPC   C2820652   1.987   0.917   3.685  0.3229  0.0021  0.5894
  181SLPC   H8R20653   1.889   0.968   3.671  0.4757  0.6668  1.7909
  181SLPC   H8S20654   2.059   1.001   3.685  0.7252 -0.3358  0.7011
  181SLPC   C2920655   1.992   0.845   3.812  0.3096 -0.0288  0.2695
  181SLPC   H9R20656   1.999   0.737   3.795  1.3640 -0.2968  2.0613
  181SLPC  C21020657   1.991   0.903   3.933 -0.5748 -0.2716 -0.6985
  181SLPC  H10R20658   1.983   0.835   4.019 -0.1315 -0.0710 -0.4945
  181SLPC  C21120659   1.973   1.047   3.953 -0.1588  0.5654 -0.2045
  181SLPC  H11R20660   1.866   1.061   3.928  0.1021 -1.1888 -2.6401
  181SLPC  H11S20661   2.036   1.101   3.878  0.8617 -1.3864 -0.8154
  181SLPC  C21220662   2.005   1.103   4.090  0.7153  0.8916  0.1957
  181SLPC  H12R20663   1.920   1.161   4.128 -0.1153 -0.2881  0.2034
  181SLPC  C21320664   2.118   1.107   4.159  0.2463 -0.0764  0.6451
  181SLPC  H13R20665   2.107   1.151   4.260 -0.6000  1.8600 -0.2351
  181SLPC  C21420666   2.255   1.056   4.121  0.1659  0.1001  0.0831
  181SLPC  H14R20667   2.249   1.004   4.023 -1.4534 -1.9354  1.1891
  181SLPC  H14S20668   2.292   0.984   4.197 -1.1829 -2.1826 -1.3090
  181SLPC  C21520669   2.365   1.168   4.099 -0.3092  0.4105  0.1182
  181SLPC  H15R20670   2.332   1.230   4.013 -0.7134  1.6199  1.1172
  181SLPC  H15S20671   2.459   1.122   4.059 -0.3327  0.3100  0.1782
  181SLPC  C21620672   2.378   1.259   4.221  0.0614 -0.6531 -0.0185
  181SLPC  H16R20673   2.391   1.203   4.316 -1.3446 -0.9306  0.0390
  181SLPC  H16S20674   2.288   1.325   4.229 -0.0781 -0.6717 -1.2464
  181SLPC  C21720675   2.495   1.349   4.203  0.3385  0.3534  0.1531
  181SLPC  H17R20676   2.509   1.419   4.288 -2.1922  0.9852  0.1246
  181SLPC  H17S20677   2.477   1.406   4.109 -2.1668  0.9101  0.9054
  181SLPC  C21820678   2.629   1.276   4.168  0.8918  0.3472 -0.3318
  181SLPC  H18R20679   2.716   1.345   4.158  1.2376 -0.1954 -1.2457
  181SLPC  H18S20680   2.618   1.226   4.069 -1.2060  3.2633 -1.7446
  181SLPC  H18T20681   2.669   1.205   4.243  1.4626 -0.7532 -1.6222
  181SLPC   C3320682   2.640   0.760   3.162  0.0441  0.8090  0.1787
  181SLPC   H3X20683   2.702   0.852   3.163  3.4032 -1.2687 -1.4471
  181SLPC   H3Y20684   2.716   0.691   3.204 -1.1783 -0.2265  0.7805
  181SLPC   C3420685   2.513   0.762   3.253  0.0000 -0.6694  0.6538
  181SLPC   H4X20686   2.449   0.679   3.218  0.9433 -0.4130 -1.8727
  181SLPC   H4Y20687   2.464   0.859   3.229  1.2919  0.7198  3.0758
  181SLPC   C3520688   2.543   0.738   3.405  0.1519  0.2752  0.2976
  181SLPC   H5X20689   2.630   0.801   3.436 -0.7327  2.7338 -1.8298
  181SLPC   H5Y20690   2.568   0.631   3.418  1.3938  0.1192 -2.6944
  181SLPC   C3620691   2.424   0.773   3.496 -0.3740 -0.5103  0.2108
  181SLPC   H6X20692   2.358   0.684   3.506  0.1186 -0.7294  1.8161
  181SLPC   H6Y20693   2.363   0.854   3.451 -0.4645  0.7044  2.3660
  181SLPC   C3720694   2.470   0.816   3.636  0.5639 -0.2931 -0.2456
  181SLPC   H7X20695   2.524   0.913   3.630 -0.0998  0.1293  0.4304
  181SLPC   H7Y20696   2.542   0.741   3.673 -1.0423 -1.9209 -0.2944
  181SLPC   C3820697   2.368   0.803   3.748  0.5232 -0.1951  0.9285
  181SLPC   H8X20698   2.298   0.717   3.736 -3.0467  2.2217  2.7458
  181SLPC   H8Y20699   2.297   0.888   3.743 -1.6063 -1.9651 -1.5664
  181SLPC   C3920700   2.423   0.802   3.891 -0.3263  0.4492 -0.4324
  181SLPC   H9X20701   2.340   0.817   3.962  0.9354 -1.0412  1.4459
  181SLPC   H9Y20702   2.498   0.883   3.904  0.5050 -0.1907 -1.0486
  181SLPC  C31020703   2.479   0.661   3.921 -0.4611 -0.1106 -0.5657
  181SLPC  H10X20704   2.564   0.638   3.852  1.1771  0.6325  1.1143
  181SLPC  H10Y20705   2.401   0.583   3.909  0.7381 -1.2706 -1.0504
  181SLPC  C31120706   2.540   0.656   4.066  0.3498  0.3832  0.1490
  181SLPC  H11X20707   2.632   0.719   4.062  0.2533  0.5959  1.0260
  181SLPC  H11Y20708   2.577   0.554   4.087  0.2969 -0.6623 -3.9596
  181SLPC  C31220709   2.452   0.699   4.186  0.0057  0.2298  0.0348
  181SLPC  H12X20710   2.450   0.810   4.185 -0.2862  0.2339  0.6444
  181SLPC  H12Y20711   2.497   0.655   4.278 -0.3722  0.3239  0.2675
  181SLPC  C31320712   2.306   0.643   4.197  0.5138  0.8157 -0.3142
  181SLPC  H13X20713   2.316   0.533   4.207  2.3206  0.8398 -1.3153
  181SLPC  H13Y20714   2.247   0.673   4.108  3.5427  2.7642 -1.8471
  181SLPC  C31420715   2.228   0.701   4.320 -0.5145 -0.2283 -0.2696
  181SLPC  H14X20716   2.250   0.807   4.343  0.5870 -0.6410  0.7192
  181SLPC  H14Y20717   2.266   0.647   4.410  3.1289 -0.4010 -1.7424
  181SLPC  C31520718   2.075   0.661   4.321 -0.1477  0.6009 -0.2203
  181SLPC  H15X20719   2.072   0.550   4.325  0.8159  0.5380 -0.8748
  181SLPC  H15Y20720   2.019   0.683   4.228  0.8148 -0.1164 -0.9979
  181SLPC  C31620721   1.991   0.717   4.437  0.1328 -0.0032 -0.8097
  181SLPC  H16X20722   2.027   0.665   4.528  0.4314 -1.8157 -1.8999
  181SLPC  H16Y20723   1.884   0.690   4.423  0.5843 -1.2678 -2.0883
  181SLPC  C31720724   1.998   0.867   4.462 -0.3990 -0.5661  0.0590
  181SLPC  H17X20725   1.948   0.925   4.382 -1.0659  0.1016  0.9318
  181SLPC  H17Y20726   2.103   0.903   4.473 -1.3678  2.1163  1.5146
  181SLPC  C31820727   1.928   0.910   4.598 -0.4772  0.5547 -0.4947
  181SLPC  H18X20728   1.981   0.866   4.685  0.1009 -1.6392 -1.8606
  181SLPC  H18Y20729   1.823   0.876   4.587 -0.4712 -0.3213  1.6540
  181SLPC  H18Z20730   1.927   1.020   4.613 -0.7934  0.4476  0.3104
  182SLPC     N20731   6.488   1.699   2.378  0.1341  0.3074  0.0410
  182SLPC   C1320732   6.497   1.552   2.341 -0.0075  0.4755  0.5221
  182SLPC  H13A20733   6.579   1.534   2.273  0.8901  0.5748  1.5550
  182SLPC  H13B20734   6.498   1.477   2.419  2.4373 -0.6751 -0.4914
  182SLPC  H13C20735   6.410   1.524   2.284  0.1272  1.3221 -0.1142
  182SLPC   C1420736   6.448   1.778   2.261 -0.2811 -0.1325 -0.0576
  182SLPC  H14A20737   6.517   1.784   2.178 -1.7478  2.4465 -1.2269
  182SLPC  H14B20738   6.353   1.748   2.218 -1.3638  2.9139 -0.0568
  182SLPC  H14C20739   6.428   1.881   2.289  0.8421  0.3136 -0.8202
  182SLPC   C1520740   6.622   1.744   2.425  0.1785 -0.6006  0.1426
  182SLPC  H15A20741   6.635   1.851   2.417 -1.9395 -0.3494 -0.6602
  182SLPC  H15B20742   6.645   1.700   2.521  1.5869  1.1229  0.6607
  182SLPC  H15C20743   6.700   1.711   2.359  0.2121 -0.0185 -0.1205
  182SLPC   C1220744   6.391   1.727   2.495 -0.4016  0.5209 -0.3049
  182SLPC  H12A20745   6.407   1.829   2.527  0.8962  0.4787 -0.7902
  182SLPC  H12B20746   6.429   1.656   2.566 -0.3212 -0.2444 -1.0980
  182SLPC   C1120747   6.239   1.704   2.464 -0.1546 -0.0538 -0.7708
  182SLPC  H11A20748   6.189   1.710   2.563  2.1450  2.8345  0.3435
  182SLPC  H11B20749   6.222   1.607   2.412  2.1942 -0.4109 -1.0206
  182SLPC     P20750   6.144   1.947   2.444  0.1655 -0.0343  0.1573
  182SLPC   O1320751   6.140   2.048   2.339 -0.8529  0.3125 -0.5086
  182SLPC   O1420752   6.020   1.910   2.512  0.4011 -0.2327  0.2671
  182SLPC   O1220753   6.198   1.815   2.382 -0.0089 -0.0891 -0.2413
  182SLPC   O1120754   6.247   1.980   2.550 -0.6352 -0.1127  0.0583
  182SLPC    C120755   6.218   2.062   2.661 -0.9987  0.2682  0.6240
  182SLPC    HA20756   6.234   2.169   2.633  0.8575  0.0792  0.7852
  182SLPC    HB20757   6.114   2.050   2.698 -1.9457  0.0545 -1.9132
  182SLPC    C220758   6.314   2.024   2.772 -0.6082  0.0934  0.1929
  182SLPC    HS20759   6.419   2.043   2.741 -0.1864 -1.5976  0.4507
  182SLPC   O2120760   6.281   1.890   2.815 -0.5673 -0.0627  0.3509
  182SLPC   C2120761   6.377   1.827   2.878 -0.6414  0.1607 -0.3113
  182SLPC   O2220762   6.496   1.847   2.883 -0.1404 -0.1015 -0.5708
  182SLPC   C2220763   6.309   1.701   2.944 -0.0603  0.3457 -0.1808
  182SLPC   H2R20764   6.261   1.644   2.862 -0.2530 -2.5791  1.8376
  182SLPC   H2S20765   6.396   1.644   2.984  1.4782  1.7287 -1.3858
  182SLPC    C320766   6.304   2.127   2.894  0.1425 -0.3680 -0.6463
  182SLPC    HX20767   6.331   2.221   2.840 -2.8091  1.0176  0.0766
  182SLPC    HY20768   6.372   2.091   2.974 -0.7167 -0.9751 -0.1736
  182SLPC   O3120769   6.171   2.127   2.950 -0.2378  0.4526  0.3446
  182SLPC   C3120770   6.145   2.237   3.020 -0.0980 -0.8576 -0.2982
  182SLPC   O3220771   6.227   2.328   3.027 -0.6158 -0.0341  0.2920
  182SLPC   C3220772   6.006   2.226   3.096  0.9064 -0.4361 -0.8036
  182SLPC   H2X20773   5.923   2.191   3.030  0.2538  2.5494 -1.7009
  182SLPC   H2Y20774   5.963   2.325   3.122 -0.5544 -1.1866 -0.2530
  182SLPC   C2320775   6.204   1.736   3.052 -0.5039 -0.2976  0.0791
  182SLPC   H3R20776   6.167   1.644   3.101 -0.0257 -1.9834 -2.5478
  182SLPC   H3S20777   6.124   1.793   3.000 -0.7139 -0.9159 -0.2778
  182SLPC   C2420778   6.274   1.829   3.162  0.7107  0.3212 -0.2739
  182SLPC   H4R20779   6.191   1.868   3.225  0.3803  1.1750 -1.2208
  182SLPC   H4S20780   6.332   1.909   3.112 -1.6507  2.0005 -0.5067
  182SLPC   C2520781   6.362   1.749   3.259 -0.1455 -0.1142 -0.1067
  182SLPC   H5R20782   6.465   1.742   3.219 -0.7379 -1.4755 -1.4786
  182SLPC   H5S20783   6.318   1.650   3.282  0.7165 -0.6216 -0.5913
  182SLPC   C2620784   6.357   1.819   3.395 -0.8495 -0.0957 -0.8699
  182SLPC   H6R20785   6.255   1.843   3.432 -0.0561  1.1178  0.6826
  182SLPC   H6S20786   6.400   1.920   3.381  0.0416 -0.7600 -3.5850
  182SLPC   C2720787   6.443   1.756   3.509  0.0437 -0.2204 -0.0497
  182SLPC   H7R20788   6.543   1.724   3.472  0.3259  1.1714 -0.5792
  182SLPC   H7S20789   6.399   1.661   3.546  0.5175  0.0086  1.1395
  182SLPC   C2820790   6.467   1.848   3.629 -0.0535  0.4251 -0.3055
  182SLPC   H8R20791   6.522   1.942   3.605 -2.2035  1.4574 -1.5230
  182SLPC   H8S20792   6.541   1.794   3.691 -1.2762 -1.7909 -0.6901
  182SLPC   C2920793   6.336   1.891   3.696 -0.3000  0.5161  0.0899
  182SLPC   H9R20794   6.280   1.964   3.635 -0.6614 -0.6725 -1.0594
  182SLPC  C21020795   6.291   1.842   3.813 -0.5581 -0.2422  0.3436
  182SLPC  H10R20796   6.202   1.891   3.856  0.3447 -1.4342  3.9409
  182SLPC  C21120797   6.358   1.737   3.900 -0.4622  0.1474 -0.4379
  182SLPC  H11R20798   6.391   1.659   3.828 -0.0654 -0.1879  0.1024
  182SLPC  H11S20799   6.274   1.698   3.962 -0.2940  3.2801  1.9774
  182SLPC  C21220800   6.469   1.786   3.992 -0.0035 -0.4881  0.6800
  182SLPC  H12R20801   6.560   1.807   3.934 -0.4528 -0.0022  0.1417
  182SLPC  C21320802   6.459   1.801   4.124 -0.0097 -0.1089  0.2869
  182SLPC  H13R20803   6.548   1.838   4.177 -1.0690  2.3715  0.4828
  182SLPC  C21420804   6.347   1.769   4.214  0.6768 -0.2037 -0.3583
  182SLPC  H14R20805   6.247   1.769   4.165  0.1067 -1.8312  0.7038
  182SLPC  H14S20806   6.338   1.848   4.291  2.2038 -0.1884 -0.1660
  182SLPC  C21520807   6.376   1.631   4.273  1.2909  0.0464 -0.2618
  182SLPC  H15R20808   6.466   1.624   4.337  0.8398  2.4066  0.7471
  182SLPC  H15S20809   6.401   1.573   4.181  0.5117  2.3765 -2.0636
  182SLPC  C21620810   6.255   1.579   4.347  0.1944  0.1243  0.8448
  182SLPC  H16R20811   6.159   1.573   4.291  0.6682 -1.5432  0.1577
  182SLPC  H16S20812   6.227   1.644   4.433 -0.7933  2.3245 -1.0262
  182SLPC  C21720813   6.278   1.432   4.399 -0.3655  1.0691  0.5106
  182SLPC  H17R20814   6.370   1.423   4.462 -1.2674 -0.4603  1.7016
  182SLPC  H17S20815   6.288   1.358   4.316 -1.8903  1.8433 -0.4113
  182SLPC  C21820816   6.165   1.392   4.487 -0.2974 -0.1459  0.2428
  182SLPC  H18R20817   6.081   1.390   4.414  1.2633  0.4104 -1.6568
  182SLPC  H18S20818   6.140   1.459   4.572 -2.1923 -0.6016  0.0923
  182SLPC  H18T20819   6.187   1.289   4.519 -0.8806 -0.8356 -1.4276
  182SLPC   C3320820   6.015   2.131   3.217 -0.1604  0.1192 -0.0964
  182SLPC   H3X20821   6.077   2.043   3.189  1.0267  0.5162  1.1885
  182SLPC   H3Y20822   5.916   2.087   3.240 -0.3004 -0.8777 -2.3450
  182SLPC   C3420823   6.067   2.201   3.342  0.0833 -0.8105  0.1919
  182SLPC   H4X20824   6.030   2.304   3.323  3.2130  0.1368 -1.5335
  182SLPC   H4Y20825   6.178   2.201   3.345  0.0791 -0.9981  0.3544
  182SLPC   C3520826   6.018   2.138   3.468  0.0946  0.2530 -0.7239
  182SLPC   H5X20827   6.037   2.029   3.475 -3.1993 -0.3282  0.8465
  182SLPC   H5Y20828   5.910   2.146   3.444  0.2837 -0.3420 -1.8130
  182SLPC   C3620829   6.062   2.206   3.594  0.9524 -0.3937  0.3314
  182SLPC   H6X20830   6.035   2.314   3.582 -1.0126 -0.8369  0.3293
  182SLPC   H6Y20831   6.172   2.199   3.591  0.9332 -1.3742  1.2533
  182SLPC   C3720832   6.000   2.139   3.717 -0.0466  0.0732  0.1878
  182SLPC   H7X20833   6.002   2.029   3.700  1.9550  0.4726 -3.0759
  182SLPC   H7Y20834   5.895   2.172   3.734 -0.1440 -0.0622 -0.1397
  182SLPC   C3820835   6.082   2.176   3.843 -0.3989  0.3879 -1.3475
  182SLPC   H8X20836   6.052   2.283   3.850 -0.0236  0.3759  0.9469
  182SLPC   H8Y20837   6.192   2.179   3.826  0.0015 -0.2767  0.8026
  182SLPC   C3920838   6.043   2.097   3.970  0.1488  0.2179 -0.6361
  182SLPC   H9X20839   6.029   1.987   3.965  0.3319  0.0001  2.3735
  182SLPC   H9Y20840   5.954   2.144   4.017 -0.0504  0.4948 -1.2763
  182SLPC  C31020841   6.155   2.113   4.075  0.0822  0.6471  0.1526
  182SLPC  H10X20842   6.178   2.221   4.079  1.4188  0.3701  0.2947
  182SLPC  H10Y20843   6.243   2.052   4.045 -1.3441 -0.2000 -2.7327
  182SLPC  C31120844   6.106   2.068   4.217 -0.2430 -0.0882 -0.8329
  182SLPC  H11X20845   6.106   1.957   4.219  0.6287 -0.0928 -0.3736
  182SLPC  H11Y20846   6.003   2.105   4.233  0.0576  0.3953  0.1004
  182SLPC  C31220847   6.187   2.123   4.331 -1.1477  0.6485 -0.1350
  182SLPC  H12X20848   6.181   2.232   4.350  2.0184  0.8254  0.2933
  182SLPC  H12Y20849   6.286   2.108   4.284 -1.0555  1.8883 -0.3616
  182SLPC  C31320850   6.165   2.050   4.466  0.9990 -0.1055 -0.4110
  182SLPC  H13X20851   6.109   1.958   4.438 -0.2148  0.7772 -0.9899
  182SLPC  H13Y20852   6.096   2.110   4.529  1.4756  0.8478 -0.7835
  182SLPC  C31420853   6.295   2.027   4.544  0.2856  0.2338  0.4235
  182SLPC  H14X20854   6.329   2.127   4.579 -1.6541  2.0306 -2.4347
  182SLPC  H14Y20855   6.375   1.977   4.485  1.6098  1.0913  1.4418
  182SLPC  C31520856   6.267   1.925   4.653  0.6452  0.5871 -0.3128
  182SLPC  H15X20857   6.229   1.831   4.606  1.2053  0.1397  0.1158
  182SLPC  H15Y20858   6.190   1.967   4.721  0.5428  0.5578 -0.4093
  182SLPC  C31620859   6.392   1.886   4.727 -0.0032 -0.1910 -0.0634
  182SLPC  H16X20860   6.434   1.966   4.791  1.0634  0.2577 -1.2837
  182SLPC  H16Y20861   6.473   1.855   4.659 -0.5586  0.6156 -1.1146
  182SLPC  C31720862   6.369   1.764   4.814  0.1175 -0.4712  0.2288
  182SLPC  H17X20863   6.275   1.775   4.872  0.8566  0.5106  1.2745
  182SLPC  H17Y20864   6.460   1.761   4.877 -1.5933 -3.8727  2.8874
  182SLPC  C31820865   6.372   1.628   4.743  0.4678  0.4118 -0.7452
  182SLPC  H18X20866   6.292   1.623   4.667 -2.1639  1.4442  1.7793
  182SLPC  H18Y20867   6.350   1.549   4.818 -1.5623  2.0334  0.4816
  182SLPC  H18Z20868   6.472   1.603   4.701  2.0709  0.9759  2.3610
  183SLPC     N20869   1.675   2.096   2.438 -0.3456  0.0691 -0.1874
  183SLPC   C1320870   1.722   1.996   2.343  0.1363  0.4351 -0.0913
  183SLPC  H13A20871   1.686   2.010   2.243  3.5191 -0.4018 -1.5651
  183SLPC  H13B20872   1.829   1.995   2.329  0.0346 -0.7801 -0.9710
  183SLPC  H13C20873   1.702   1.897   2.384  1.4125  0.2186  0.0570
  183SLPC   C1420874   1.734   2.056   2.570  0.4527  0.4574 -0.3321
  183SLPC  H14A20875   1.677   1.975   2.613  0.5722  0.5675  0.0394
  183SLPC  H14B20876   1.835   2.017   2.563 -0.4629 -3.0646  2.6403
  183SLPC  H14C20877   1.725   2.143   2.634 -2.0803 -0.9375  1.3882
  183SLPC   C1520878   1.528   2.100   2.450  0.2545  0.0255  1.1705
  183SLPC  H15A20879   1.483   2.138   2.359  0.0672  1.8205  1.9606
  183SLPC  H15B20880   1.488   2.002   2.469  1.0566 -0.7172 -0.7160
  183SLPC  H15C20881   1.484   2.163   2.525 -0.7307 -0.6265  1.1521
  183SLPC   C1220882   1.728   2.230   2.397  0.0087  0.4272 -0.0605
  183SLPC  H12A20883   1.694   2.248   2.296  0.5911 -2.4163 -0.8475
  183SLPC  H12B20884   1.834   2.217   2.383  0.2532  1.9202  0.3197
  183SLPC   C1120885   1.703   2.344   2.494 -0.2726  0.3525  0.4198
  183SLPC  H11A20886   1.594   2.338   2.513 -0.1985 -0.2111  0.6843
  183SLPC  H11B20887   1.719   2.438   2.437  0.6230  0.1632  0.3334
  183SLPC     P20888   1.873   2.443   2.665 -0.3414  0.4405 -0.2409
  183SLPC   O1320889   2.015   2.405   2.670 -0.4117  0.6110  0.3015
  183SLPC   O1420890   1.848   2.568   2.597 -0.0530  0.1210  0.4733
  183SLPC   O1220891   1.789   2.330   2.607 -0.2941  1.2637 -0.3904
  183SLPC   O1120892   1.824   2.462   2.810 -0.3753 -0.3123 -0.0772
  183SLPC    C120893   1.881   2.398   2.923  0.0168 -0.0933  0.3751
  183SLPC    HA20894   1.888   2.288   2.907  0.3445 -0.1785  1.0504
  183SLPC    HB20895   1.989   2.424   2.926  0.6436 -1.7252 -3.0390
  183SLPC    C220896   1.813   2.420   3.061  0.7605 -0.0816  0.3329
  183SLPC    HS20897   1.798   2.529   3.077  0.4941 -0.1689  0.6888
  183SLPC   O2120898   1.882   2.362   3.178  0.3381 -0.4760  0.1190
  183SLPC   C2120899   1.981   2.437   3.220 -0.2761 -0.0475  0.4405
  183SLPC   O2220900   2.015   2.549   3.179 -0.2980 -0.4049  0.3689
  183SLPC   C2220901   2.042   2.375   3.344  0.0321  0.2067  0.0588
  183SLPC   H2R20902   2.061   2.267   3.325  1.2725  0.1211  1.5683
  183SLPC   H2S20903   2.141   2.424   3.345  0.0191  0.2968 -1.6128
  183SLPC    C320904   1.668   2.361   3.056  0.1750  0.5983 -0.6308
  183SLPC    HX20905   1.672   2.252   3.035 -1.6341  0.5024 -0.6540
  183SLPC    HY20906   1.609   2.411   2.977  1.5367  0.8099 -1.5284
  183SLPC   O3120907   1.604   2.405   3.180 -0.1211  0.4251 -0.5936
  183SLPC   C3120908   1.574   2.299   3.261 -0.0102  0.5106 -0.1497
  183SLPC   O3220909   1.569   2.183   3.232  0.0143  0.1572  0.0524
  183SLPC   C3220910   1.530   2.344   3.403 -0.0640 -0.2162  0.0137
  183SLPC   H2X20911   1.425   2.381   3.407  0.3077  0.8047  0.8345
  183SLPC   H2Y20912   1.601   2.423   3.434  0.1298 -1.1893  2.2597
  183SLPC   C2320913   1.954   2.412   3.464 -0.5617 -0.6545 -0.1908
  183SLPC   H3R20914   1.860   2.353   3.455 -1.1103 -0.0294  1.1883
  183SLPC   H3S20915   1.932   2.521   3.462 -0.8622 -0.7111 -0.0460
  183SLPC   C2420916   2.033   2.394   3.593 -0.4336  0.2647  1.0710
  183SLPC   H4R20917   2.126   2.453   3.580  0.8303 -1.5341  1.5718
  183SLPC   H4S20918   2.050   2.286   3.612  2.1155  0.9247  3.0189
  183SLPC   C2520919   1.958   2.443   3.722  0.2039  0.2552  0.5514
  183SLPC   H5R20920   1.856   2.400   3.710  0.7238 -1.6946  2.4820
  183SLPC   H5S20921   1.958   2.553   3.704  0.6074 -0.0394 -1.5766
  183SLPC   C2620922   2.027   2.411   3.852  0.4400  0.4814 -0.9995
  183SLPC   H6R20923   2.112   2.482   3.851  0.2349  0.7472 -0.3111
  183SLPC   H6S20924   2.065   2.306   3.844 -1.2155 -0.5641  2.7094
  183SLPC   C2720925   1.941   2.443   3.973  1.1322  0.4865 -0.0366
  183SLPC   H7R20926   1.870   2.358   3.985  0.2589  1.4319  1.9283
  183SLPC   H7S20927   1.874   2.530   3.955  0.8267  0.0550 -1.0659
  183SLPC   C2820928   2.020   2.457   4.101  0.1645  0.4866  0.9982
  183SLPC   H8R20929   2.104   2.523   4.072  0.2589 -0.4916 -1.1318
  183SLPC   H8S20930   2.068   2.360   4.126  0.8063  0.6017  0.2433
  183SLPC   C2920931   1.951   2.510   4.224 -0.2144  0.5321  0.1587
  183SLPC   H9R20932   1.929   2.430   4.296 -0.3148  1.5829  1.3327
  183SLPC  C21020933   1.935   2.639   4.258  0.6633  0.1983  0.4634
  183SLPC  H10R20934   1.860   2.653   4.337 -3.1639  0.8551 -2.9354
  183SLPC  C21120935   1.952   2.756   4.162  0.2331 -0.2300  0.0157
  183SLPC  H11R20936   1.863   2.821   4.177 -0.9769 -1.9549  0.6359
  183SLPC  H11S20937   1.960   2.735   4.054 -0.8271 -0.0057 -0.1173
  183SLPC  C21220938   2.082   2.832   4.196  0.8167  0.2479  0.5467
  183SLPC  H12R20939   2.116   2.813   4.299  0.3532  2.8962  1.2544
  183SLPC  C21320940   2.167   2.902   4.119  0.0272  0.2819  0.0479
  183SLPC  H13R20941   2.252   2.959   4.161 -0.5555  2.4533 -1.5623
  183SLPC  C21420942   2.149   2.917   3.973 -0.2254 -0.5811  0.4269
  183SLPC  H14R20943   2.147   3.024   3.944  0.9950 -0.5733  0.3234
  183SLPC  H14S20944   2.057   2.870   3.933 -1.0406 -0.3511  1.9759
  183SLPC  C21520945   2.264   2.847   3.906  0.3014  0.4157  0.7523
  183SLPC  H15R20946   2.250   2.739   3.927 -1.0135  0.2636 -0.6838
  183SLPC  H15S20947   2.368   2.881   3.923  0.4435  0.3853 -0.0183
  183SLPC  C21620948   2.242   2.845   3.754  0.3149 -0.5589 -0.1211
  183SLPC  H16R20949   2.288   2.933   3.705  0.7656  0.0705  1.3816
  183SLPC  H16S20950   2.135   2.828   3.728  0.5072 -0.8154 -0.7660
  183SLPC  C21720951   2.309   2.728   3.674  0.0089 -0.1625  0.1253
  183SLPC  H17R20952   2.257   2.634   3.700  0.6415 -0.3502  0.7497
  183SLPC  H17S20953   2.411   2.716   3.717  0.0361  2.7026  1.0868
  183SLPC  C21820954   2.308   2.763   3.523  0.2309 -0.1060  0.4372
  183SLPC  H18R20955   2.331   2.675   3.460 -1.0362  0.4426 -0.8361
  183SLPC  H18S20956   2.373   2.850   3.502 -1.2109  1.0572  0.5983
  183SLPC  H18T20957   2.203   2.794   3.503  0.6752  3.0445  2.2570
  183SLPC   C3320958   1.573   2.237   3.500  0.2479  0.1895  1.1081
  183SLPC   H3X20959   1.680   2.212   3.484 -0.3834 -1.3901 -1.2623
  183SLPC   H3Y20960   1.515   2.145   3.475 -0.3923  1.4944 -3.0067
  183SLPC   C3420961   1.541   2.280   3.644 -0.1092  0.2850  0.6626
  183SLPC   H4X20962   1.444   2.333   3.656  0.4568  1.6636 -0.5038
  183SLPC   H4Y20963   1.618   2.359   3.658  1.9232 -0.3155 -4.8694
  183SLPC   C3520964   1.564   2.167   3.746 -0.0605 -0.2325 -0.5352
  183SLPC   H5X20965   1.660   2.119   3.717 -1.0656 -1.5885 -1.7773
  183SLPC   H5Y20966   1.483   2.093   3.732  0.7691 -1.3867  0.5883
  183SLPC   C3620967   1.570   2.213   3.889  0.0122  0.2082 -0.0915
  183SLPC   H6X20968   1.484   2.281   3.910 -0.0750 -0.4157  1.7988
  183SLPC   H6Y20969   1.669   2.259   3.908  0.8798 -1.9288  0.9856
  183SLPC   C3720970   1.562   2.105   3.989  0.1352  0.2177 -0.2513
  183SLPC   H7X20971   1.641   2.032   3.961 -0.0977  0.4277 -1.5052
  183SLPC   H7Y20972   1.468   2.047   3.985  0.6579 -0.6412 -0.5201
  183SLPC   C3820973   1.579   2.162   4.132 -0.3235  0.0651  0.2559
  183SLPC   H8X20974   1.487   2.223   4.144  0.7687  1.8247  0.0208
  183SLPC   H8Y20975   1.662   2.235   4.134 -1.2832  1.3047 -1.4979
  183SLPC   C3920976   1.575   2.049   4.235  0.6672  0.0842  0.0341
  183SLPC   H9X20977   1.666   1.985   4.228 -1.0638 -2.5590  0.2989
  183SLPC   H9Y20978   1.488   1.982   4.217  0.3139  0.6486 -0.3741
  183SLPC  C31020979   1.557   2.097   4.381 -0.3219  0.2356  0.1299
  183SLPC  H10X20980   1.562   2.004   4.442  0.9603  0.5781  0.5788
  183SLPC  H10Y20981   1.455   2.140   4.389 -0.6890 -0.4300 -0.7635
  183SLPC  C31120982   1.665   2.195   4.427  0.3657  0.3088  0.1245
  183SLPC  H11X20983   1.655   2.295   4.381 -2.2361 -0.4307 -1.1221
  183SLPC  H11Y20984   1.757   2.158   4.378  0.2114  0.9777 -0.6795
  183SLPC  C31220985   1.668   2.215   4.584 -0.4604 -0.1951 -0.2571
  183SLPC  H12X20986   1.681   2.117   4.634  1.5240  0.6923  1.1249
  183SLPC  H12Y20987   1.574   2.253   4.630 -0.6967 -0.1891 -0.7440
  183SLPC  C31320988   1.792   2.311   4.617  0.7862 -0.3555  0.6355
  183SLPC  H13X20989   1.773   2.416   4.586  1.4991  1.0160  4.2968
  183SLPC  H13Y20990   1.875   2.269   4.556  0.6794  1.4264 -0.8103
  183SLPC  C31420991   1.832   2.312   4.760 -0.9859  0.7563  0.2786
  183SLPC  H14X20992   1.863   2.208   4.785 -0.1935  1.2502  1.4577
  183SLPC  H14Y20993   1.740   2.320   4.821 -1.5396  0.1001 -0.4606
  183SLPC  C31520994   1.946   2.408   4.788  0.7775 -0.0175 -0.1105
  183SLPC  H15X20995   1.907   2.511   4.780 -1.5363 -0.9254 -1.3306
  183SLPC  H15Y20996   2.024   2.382   4.712  0.2107  0.3740 -0.8357
  183SLPC  C31620997   2.022   2.375   4.928  0.9433 -0.4521  0.2925
  183SLPC  H16X20998   2.058   2.270   4.921 -0.2261 -0.8340 -0.3044
  183SLPC  H16Y20999   1.946   2.391   5.007  0.7489 -0.5214  0.1213
  183SLPC  C31721000   2.141   2.466   4.944  0.7899  0.3733 -0.4388
  183SLPC  H17X21001   2.109   2.572   4.939  1.2093  0.5479  0.3908
  183SLPC  H17Y21002   2.208   2.442   4.859  2.2557 -0.2557  0.8418
  183SLPC  C31821003   2.217   2.437   5.071  0.3934  0.7639 -0.1596
  183SLPC  H18X21004   2.261   2.335   5.064  1.5711  1.3245 -1.5208
  183SLPC  H18Y21005   2.149   2.431   5.159  1.3671 -0.1045  0.5734
  183SLPC  H18Z21006   2.300   2.507   5.095  2.4154 -1.0177 -1.5119
  184SLPC     N21007   0.278   3.149   2.284 -0.1876 -0.1546  0.4713
  184SLPC   C1321008   0.188   3.246   2.220  0.3505 -1.0068  0.1757
  184SLPC  H13A21009   0.214   3.350   2.234  0.5484 -0.7889 -1.6056
  184SLPC  H13B21010   0.181   3.230   2.113  1.1547  0.3457 -0.1016
  184SLPC  H13C21011   0.085   3.235   2.251 -1.1846  2.7846 -2.8013
  184SLPC   C1421012   0.416   3.175   2.233  0.2515  0.2535  0.0389
  184SLPC  H14A21013   0.420   3.156   2.127  1.2972 -2.9111  0.5385
  184SLPC  H14B21014   0.446   3.278   2.246 -0.6294  0.3601  1.4359
  184SLPC  H14C21015   0.486   3.109   2.283 -0.7549 -0.3165  0.7228
  184SLPC   C1521016   0.236   3.010   2.243  0.3268 -0.3700 -0.2588
  184SLPC  H15A21017   0.297   2.929   2.281  1.6623  0.1700 -1.1541
  184SLPC  H15B21018   0.135   2.997   2.278  1.0455 -1.0491  1.7192
  184SLPC  H15C21019   0.238   2.989   2.137 -1.9080 -1.0325 -0.2194
  184SLPC   C1221020   0.269   3.164   2.437  0.1311  0.7368  0.5347
  184SLPC  H12A21021   0.276   3.269   2.459  1.3112  0.9045 -0.5194
  184SLPC  H12B21022   0.351   3.117   2.489  0.6110 -0.8863 -1.5274
  184SLPC   C1121023   0.135   3.127   2.506 -0.6496 -0.7309  0.2668
  184SLPC  H11A21024   0.143   3.154   2.613 -1.5923  1.9566 -0.2600
  184SLPC  H11B21025   0.118   3.017   2.510 -1.8914 -0.6383 -1.2851
  184SLPC     P21026  -0.105   3.225   2.540 -0.1369 -0.2605 -0.1168
  184SLPC   O1321027  -0.073   3.236   2.685  0.5019  0.3315 -0.0911
  184SLPC   O1421028  -0.184   3.337   2.483  0.0575  0.6935  0.4360
  184SLPC   O1221029   0.017   3.191   2.452 -0.2739  0.3612  0.0467
  184SLPC   O1121030  -0.187   3.091   2.508 -0.5250 -0.0738  0.4131
  184SLPC    C121031  -0.327   3.083   2.526 -0.1802  0.0777 -0.1466
  184SLPC    HA21032  -0.373   3.185   2.525  2.6554  1.5246 -2.8999
  184SLPC    HB21033  -0.356   3.015   2.443  2.2623 -2.2435  0.7938
  184SLPC    C221034  -0.352   3.015   2.657 -0.1802 -0.5335  0.0750
  184SLPC    HS21035  -0.461   2.998   2.663 -0.4039 -0.9282 -3.2108
  184SLPC   O2121036  -0.300   3.094   2.767 -0.2933 -0.2187  0.5242
  184SLPC   C2121037  -0.386   3.189   2.811 -0.3628  0.0175 -0.8495
  184SLPC   O2221038  -0.501   3.194   2.781  0.3394 -0.0324  1.1645
  184SLPC   C2221039  -0.304   3.285   2.907 -0.0913 -0.0795 -0.3011
  184SLPC   H2R21040  -0.197   3.257   2.913  0.5806  1.0106 -4.3559
  184SLPC   H2S21041  -0.309   3.388   2.865  3.2473  0.3836  0.1910
  184SLPC    C321042  -0.291   2.876   2.656 -0.2523  0.8732  0.5662
  184SLPC    HX21043  -0.181   2.878   2.647 -0.3762 -0.1388 -1.7210
  184SLPC    HY21044  -0.332   2.830   2.563 -0.3068  1.3375  0.3602
  184SLPC   O3121045  -0.349   2.804   2.762 -0.4494 -0.0130 -0.0515
  184SLPC   C3121046  -0.280   2.777   2.875 -0.8089 -0.4464  0.1842
  184SLPC   O3221047  -0.173   2.823   2.903 -0.3357 -0.6700  0.7482
  184SLPC   C3221048  -0.369   2.682   2.961 -1.0256  0.1709  0.4270
  184SLPC   H2X21049  -0.388   2.593   2.897 -2.6721  0.5805  0.3115
  184SLPC   H2Y21050  -0.455   2.745   2.991 -1.5479  0.1176 -0.9034
  184SLPC   C2321051  -0.365   3.290   3.047  0.3659  0.2487 -0.9056
  184SLPC   H3R21052  -0.474   3.311   3.042  0.3219  0.8921  1.5619
  184SLPC   H3S21053  -0.318   3.371   3.106  2.6168 -0.8962 -1.0223
  184SLPC   C2421054  -0.356   3.146   3.110  0.0791 -0.2662 -0.3912
  184SLPC   H4R21055  -0.263   3.089   3.086  1.0193  0.5487  1.1864
  184SLPC   H4S21056  -0.435   3.086   3.060  0.2077 -0.5123 -0.3036
  184SLPC   C2521057  -0.385   3.162   3.261  0.1934 -0.4502  0.5124
  184SLPC   H5R21058  -0.478   3.220   3.275 -0.1255 -0.2655 -1.9587
  184SLPC   H5S21059  -0.301   3.218   3.308  1.6009 -0.9498 -1.3240
  184SLPC   C2621060  -0.390   3.029   3.319 -0.4064 -0.7862  0.1465
  184SLPC   H6R21061  -0.293   2.976   3.307 -0.6491 -1.3600  0.6445
  184SLPC   H6S21062  -0.464   2.970   3.261 -1.5904  0.5162  0.2803
  184SLPC   C2721063  -0.438   3.031   3.464 -0.4696  0.1552 -0.1461
  184SLPC   H7R21064  -0.481   2.932   3.489  0.0363  0.2388  1.1379
  184SLPC   H7S21065  -0.517   3.109   3.470 -2.1308 -1.2912 -1.8677
  184SLPC   C2821066  -0.318   3.057   3.558 -0.1558 -0.3422  0.7721
  184SLPC   H8R21067  -0.272   3.153   3.528 -2.2625 -0.0612 -1.9680
  184SLPC   H8S21068  -0.236   2.984   3.541  1.0052  1.2577 -0.8360
  184SLPC   C2921069  -0.358   3.041   3.699  0.4214  0.1957 -0.1422
  184SLPC   H9R21070  -0.363   2.937   3.735  1.9366  0.5043  1.0845
  184SLPC  C21021071  -0.382   3.139   3.784  0.5380 -0.5229  0.4277
  184SLPC  H10R21072  -0.407   3.108   3.887 -4.3950  0.7460 -0.1375
  184SLPC  C21121073  -0.374   3.290   3.759 -0.2000  1.1018 -0.1085
  184SLPC  H11R21074  -0.482   3.317   3.768 -0.5780 -0.5316  0.6732
  184SLPC  H11S21075  -0.347   3.316   3.655 -0.6926 -0.1611 -0.5696
  184SLPC  C21221076  -0.295   3.372   3.862 -0.4049  0.6709 -0.1786
  184SLPC  H12R21077  -0.202   3.417   3.826  0.2645 -1.2631 -0.9895
  184SLPC  C21321078  -0.332   3.402   3.990 -1.1546  0.3832 -0.4328
  184SLPC  H13R21079  -0.280   3.472   4.057 -2.2478  1.4237 -0.6348
  184SLPC  C21421080  -0.459   3.345   4.052  0.2733 -0.0703  0.6298
  184SLPC  H14R21081  -0.537   3.309   3.981  0.5949  1.9457 -0.8414
  184SLPC  H14S21082  -0.517   3.426   4.101 -0.6976 -0.2420 -0.1965
  184SLPC  C21521083  -0.421   3.242   4.165 -0.3300 -0.1103  0.0236
  184SLPC  H15R21084  -0.357   3.302   4.232 -1.6321  0.8762  0.4119
  184SLPC  H15S21085  -0.363   3.157   4.121  1.6897  0.2757  1.7807
  184SLPC  C21621086  -0.544   3.183   4.235 -0.2457  0.7146 -0.0965
  184SLPC  H16R21087  -0.597   3.120   4.160 -0.7747 -0.8103  1.5073
  184SLPC  H16S21088  -0.607   3.271   4.263  1.7179  2.3576 -0.5523
  184SLPC  C21721089  -0.500   3.103   4.364 -0.2692  0.6597  0.1312
  184SLPC  H17R21090  -0.592   3.046   4.390 -0.0053 -0.9201 -2.0324
  184SLPC  H17S21091  -0.459   3.166   4.445 -0.3372 -0.7921  1.3435
  184SLPC  C21821092  -0.389   3.006   4.328 -0.1500  0.4018 -0.0742
  184SLPC  H18R21093  -0.292   3.061   4.326  0.9092 -1.2428  1.8693
  184SLPC  H18S21094  -0.393   2.963   4.226  0.8097  1.8991 -0.7745
  184SLPC  H18T21095  -0.391   2.927   4.406 -0.5204  0.9914  0.5205
  184SLPC   C3321096  -0.284   2.634   3.085 -0.5943  0.3629 -0.5307
  184SLPC   H3X21097  -0.256   2.728   3.138  0.7534 -0.5985  0.5172
  184SLPC   H3Y21098  -0.191   2.587   3.048 -1.5607 -0.5655 -1.8677
  184SLPC   C3421099  -0.366   2.547   3.188  0.7821  0.0197 -0.0029
  184SLPC   H4X21100  -0.388   2.456   3.127  1.3418  1.6844 -2.8958
  184SLPC   H4Y21101  -0.463   2.592   3.215  0.2128  0.2606 -2.2464
  184SLPC   C3521102  -0.286   2.501   3.310 -0.1178 -0.8984  0.4922
  184SLPC   H5X21103  -0.237   2.590   3.354 -1.9623  0.1998  0.4344
  184SLPC   H5Y21104  -0.201   2.438   3.275  0.6611 -0.0242  0.7676
  184SLPC   C3621105  -0.370   2.433   3.420  0.7925 -0.2349  0.5200
  184SLPC   H6X21106  -0.414   2.337   3.388 -2.1624  0.6673  1.5877
  184SLPC   H6Y21107  -0.460   2.498   3.422  1.2440  0.4696 -0.5989
  184SLPC   C3721108  -0.311   2.414   3.558  0.3534 -0.5135  0.3007
  184SLPC   H7X21109  -0.270   2.511   3.594 -0.4813  1.4987 -3.5609
  184SLPC   H7Y21110  -0.226   2.344   3.543  0.3465 -0.5292  0.3360
  184SLPC   C3821111  -0.409   2.345   3.658 -0.5170 -0.2006  0.3510
  184SLPC   H8X21112  -0.466   2.259   3.615 -2.8859  0.6295  1.6004
  184SLPC   H8Y21113  -0.477   2.421   3.703  0.7124  1.8382 -1.0722
  184SLPC   C3921114  -0.330   2.270   3.767 -0.0877 -0.2718  0.6850
  184SLPC   H9X21115  -0.244   2.219   3.720 -0.1269  0.2523  0.0252
  184SLPC   H9Y21116  -0.398   2.208   3.830  0.7420  1.0159  2.9594
  184SLPC  C31021117  -0.272   2.365   3.873 -0.4139  0.0641  0.1160
  184SLPC  H10X21118  -0.354   2.416   3.927 -1.1283 -1.6750  0.7587
  184SLPC  H10Y21119  -0.215   2.440   3.815 -1.0402  0.5991  0.1882
  184SLPC  C31121120  -0.182   2.304   3.982 -0.2186  0.3369 -0.1139
  184SLPC  H11X21121  -0.174   2.384   4.058  1.5647 -0.5382  0.6804
  184SLPC  H11Y21122  -0.083   2.294   3.933 -0.3222  1.0153 -0.4695
  184SLPC  C31221123  -0.219   2.161   4.042 -0.6150  0.4921 -0.3837
  184SLPC  H12X21124  -0.193   2.081   3.969  1.1993  1.7431 -1.1848
  184SLPC  H12Y21125  -0.328   2.159   4.063  0.0154 -0.7462  3.7056
  184SLPC  C31321126  -0.143   2.142   4.181  0.1112  0.3622  0.1438
  184SLPC  H13X21127  -0.041   2.182   4.168 -0.3487  1.7141  0.4840
  184SLPC  H13Y21128  -0.133   2.032   4.191 -2.8695 -0.1288 -0.9727
  184SLPC  C31421129  -0.218   2.216   4.284  0.8563 -0.2276 -0.1681
  184SLPC  H14X21130  -0.327   2.191   4.287  0.9144 -0.3978  2.2542
  184SLPC  H14Y21131  -0.224   2.322   4.253 -1.5363 -0.1958  0.1526
  184SLPC  C31521132  -0.169   2.202   4.427  0.3384 -0.0496  0.7079
  184SLPC  H15X21133  -0.251   2.241   4.490  0.0071 -1.4454  1.1780
  184SLPC  H15Y21134  -0.079   2.267   4.433  0.0527  0.3419  0.7562
  184SLPC  C31621135  -0.136   2.056   4.466 -0.4186 -1.4143 -0.2407
  184SLPC  H16X21136  -0.043   2.037   4.408  1.6210 -0.5371  2.5036
  184SLPC  H16Y21137  -0.226   1.995   4.446 -0.6593 -1.1399 -0.0006
  184SLPC  C31721138  -0.097   2.061   4.615 -0.5387  0.0224 -0.0612
  184SLPC  H17X21139  -0.189   2.096   4.666 -1.4009 -1.1217 -0.7906
  184SLPC  H17Y21140  -0.015   2.134   4.634 -0.5773 -0.2579  1.2544
  184SLPC  C31821141  -0.078   1.920   4.677 -0.8512 -0.2129 -0.5452
  184SLPC  H18X21142  -0.147   1.853   4.621 -2.3304  0.8775 -0.0680
  184SLPC  H18Y21143  -0.105   1.922   4.785  0.3533 -0.2779 -0.2314
  184SLPC  H18Z21144   0.027   1.888   4.657  1.1405  3.2279  2.9126
  185POPC     N21145   0.934   5.488   7.047 -0.5595 -0.0019  0.1740
  185POPC   C1221146   0.810   5.528   6.962 -0.6477  0.3570 -0.3667
  185POPC  H12A21147   0.723   5.525   7.025 -0.3231  0.6552  0.0959
  185POPC  H12B21148   0.798   5.454   6.884  1.0681 -0.3954  0.0375
  185POPC   C1321149   1.058   5.485   6.966  0.4995 -0.0567  0.3393
  185POPC  H13A21150   1.054   5.405   6.893 -1.4696  0.5304 -0.2701
  185POPC  H13B21151   1.081   5.584   6.929  1.0596  0.6357  2.4040
  185POPC  H13C21152   1.137   5.458   7.034 -1.6422  0.1868  3.0882
  185POPC   C1421153   0.953   5.597   7.156  0.2153  0.0837 -0.4588
  185POPC  H14A21154   0.948   5.692   7.106 -0.5539 -0.3514 -1.2621
  185POPC  H14B21155   0.886   5.575   7.239  0.1912 -1.8740 -0.9463
  185POPC  H14C21156   1.051   5.575   7.195  0.2837 -1.5186 -1.4391
  185POPC   C1521157   0.918   5.355   7.099 -0.2573  0.4774 -0.0589
  185POPC  H15A21158   0.932   5.286   7.017  0.4678  1.4816 -0.8061
  185POPC  H15B21159   0.823   5.332   7.144  0.1793  1.0681  1.2005
  185POPC  H15C21160   0.991   5.326   7.173 -1.5448 -1.9749  0.3507
  185POPC   C1121161   0.820   5.665   6.879  0.1004 -0.2613  0.6508
  185POPC  H11A21162   0.855   5.742   6.952 -0.2322 -0.0456  0.5802
  185POPC  H11B21163   0.720   5.693   6.842  0.7643  0.3604 -0.7695
  185POPC     P21164   0.893   5.571   6.651  0.2480 -0.2629  0.1126
  185POPC   O1321165   0.796   5.460   6.675 -0.4173 -0.1872  0.3011
  185POPC   O1421166   1.034   5.545   6.604  0.6441  0.4334  0.0018
  185POPC   O1221167   0.912   5.661   6.778  0.2128  0.6591  0.1026
  185POPC   O1121168   0.830   5.660   6.539  0.1438 -0.1611 -0.0929
  185POPC    C121169   0.817   5.593   6.412  0.5450 -0.7980 -0.2247
  185POPC    HA21170   0.739   5.515   6.417  0.3841 -0.5914  0.6496
  185POPC    HB21171   0.912   5.543   6.381  0.6073 -0.4929 -0.5413
  185POPC    C221172   0.780   5.708   6.306 -0.1630 -0.2205 -0.1522
  185POPC    HS21173   0.802   5.664   6.206  0.8709  0.7263 -0.3631
  185POPC   O2121174   0.841   5.832   6.322  0.2123 -0.7788 -0.6614
  185POPC   C2121175   0.970   5.837   6.308  0.2534 -0.5885 -0.9305
  185POPC   O2221176   1.041   5.749   6.263 -0.3274 -0.4478 -0.6172
  185POPC   C2221177   1.019   5.967   6.362  0.1788 -0.6062 -0.6574
  185POPC   H2R21178   1.113   5.941   6.415 -0.3745 -2.2805 -0.4356
  185POPC   H2S21179   0.950   6.005   6.440  1.1557  1.7805 -0.8585
  185POPC    C321180   0.627   5.736   6.316 -0.5871  0.1360  0.1854
  185POPC    HX21181   0.603   5.798   6.405  0.9119  1.8824 -0.5523
  185POPC    HY21182   0.574   5.639   6.321  1.7068 -1.2058 -0.2886
  185POPC   O3121183   0.577   5.800   6.198  0.0180 -0.2414 -0.1265
  185POPC   C3121184   0.589   5.933   6.200  0.4450  0.2576 -0.7401
  185POPC   O3221185   0.628   6.007   6.292  0.1724  0.8033  0.5931
  185POPC   C3221186   0.545   5.976   6.057  0.3358  0.1863 -0.0375
  185POPC   H2X21187   0.477   6.063   6.064  2.6711  2.0122  1.6505
  185POPC   H2Y21188   0.498   5.883   6.018 -1.2883  0.7852  0.4510
  185POPC   C2321189   1.034   6.078   6.249 -0.4088  0.1218  0.0258
  185POPC   H3R21190   1.056   6.175   6.299  0.9183  0.6957 -1.5756
  185POPC   H3S21191   0.935   6.085   6.199 -1.0096 -0.0403  1.1477
  185POPC   C2421192   1.151   6.061   6.153 -0.6234  0.2929 -0.2610
  185POPC   H4R21193   1.141   5.959   6.112  1.4173  0.9128 -2.6033
  185POPC   H4S21194   1.249   6.055   6.204 -0.1732 -0.1085 -1.1653
  185POPC   C2521195   1.144   6.173   6.050  0.1129  0.0864 -0.3152
  185POPC   H5R21196   1.156   6.277   6.086 -1.6238  1.0695 -2.3286
  185POPC   H5S21197   1.041   6.174   6.009 -0.7728 -2.1859  1.6789
  185POPC   C2621198   1.237   6.140   5.932  0.0624 -0.2484  0.9707
  185POPC   H6R21199   1.217   6.199   5.840  2.9375 -0.6784 -0.0709
  185POPC   H6S21200   1.218   6.034   5.902 -1.0473 -0.5103  2.5119
  185POPC   C2721201   1.386   6.168   5.965 -0.4972 -0.3350 -0.3041
  185POPC   H7R21202   1.405   6.096   6.048 -3.0490 -0.1387  0.5589
  185POPC   H7S21203   1.392   6.275   5.994 -1.2078  0.0122 -1.3690
  185POPC   C2821204   1.475   6.137   5.847 -1.3843  0.6860 -0.2359
  185POPC   H8R21205   1.465   6.218   5.771 -1.6563  0.6397 -0.2523
  185POPC   H8S21206   1.434   6.040   5.813 -0.5540 -0.4766  1.8871
  185POPC   C2921207   1.627   6.134   5.883  0.6999 -0.5851 -0.3716
  185POPC   H9121208   1.644   6.076   5.975 -1.1643 -3.3345 -1.6231
  185POPC  C21021209   1.736   6.165   5.818  0.1102 -0.0055  0.0995
  185POPC  H10121210   1.830   6.134   5.865 -0.6850  1.5263  2.9021
  185POPC  C21121211   1.741   6.237   5.693  0.1127  0.0867  0.6676
  185POPC  H11R21212   1.804   6.329   5.696  1.3070 -0.7168  1.3733
  185POPC  H11S21213   1.639   6.264   5.659  0.1712  0.6962  0.9638
  185POPC  C21221214   1.796   6.148   5.580 -0.1946 -0.9834  0.1646
  185POPC  H12R21215   1.717   6.079   5.542  0.8819 -1.7675 -0.7007
  185POPC  H12S21216   1.881   6.086   5.618  0.8060  0.4421  0.3110
  185POPC  C21321217   1.835   6.229   5.456  0.7012 -0.4556 -0.4974
  185POPC  H13R21218   1.899   6.312   5.492  1.2233 -0.1561 -2.0238
  185POPC  H13S21219   1.740   6.278   5.426 -0.4147 -0.7856  2.2574
  185POPC  C21421220   1.914   6.153   5.355 -0.5875  0.0834  0.6971
  185POPC  H14R21221   1.886   6.046   5.346  2.0103 -0.5279 -2.0101
  185POPC  H14S21222   2.019   6.141   5.389 -0.2709  0.3049 -0.1683
  185POPC  C21521223   1.917   6.215   5.213  0.0213  0.2615  0.6240
  185POPC  H15R21224   1.975   6.309   5.220  0.3671  0.1619 -0.6202
  185POPC  H15S21225   1.814   6.227   5.174  0.4732  0.3053 -0.5979
  185POPC  C21621226   1.982   6.131   5.100  0.0274  0.3760 -0.7364
  185POPC  H16R21227   2.086   6.111   5.132 -0.2387  0.5658  0.3171
  185POPC  H16S21228   1.975   6.190   5.007 -1.9795  0.9115 -0.3009
  185POPC  C21721229   1.910   6.001   5.083 -0.3496 -0.0532  0.0920
  185POPC  H17R21230   1.814   6.019   5.030 -0.7137 -1.5102  0.2324
  185POPC  H17S21231   1.881   5.948   5.176 -0.5506 -0.9266 -0.4645
  185POPC  C21821232   1.989   5.906   4.993 -0.2257 -0.2069 -0.0454
  185POPC  H18R21233   1.936   5.809   5.006  0.1467 -0.2818  0.9701
  185POPC  H18S21234   2.096   5.896   5.021  0.0940  2.3414 -0.1057
  185POPC  H18T21235   1.994   5.933   4.886  2.1268 -1.7095 -0.4033
  185POPC   C3321236   0.670   6.005   5.966  0.1535  0.0100  0.1868
  185POPC   H3X21237   0.743   6.068   6.020  0.3629 -1.3786  1.5967
  185POPC   H3Y21238   0.647   6.058   5.872 -0.0388 -0.7306 -0.1919
  185POPC   C3421239   0.749   5.877   5.933  0.6112 -0.5538  0.2093
  185POPC   H4X21240   0.691   5.815   5.861 -0.0331  1.1575 -0.8235
  185POPC   H4Y21241   0.774   5.810   6.018  2.8827 -1.4915 -1.0937
  185POPC   C3521242   0.893   5.916   5.872  0.0221 -0.7847 -0.0918
  185POPC   H5X21243   0.939   5.816   5.856  0.3833 -1.1687  2.7965
  185POPC   H5Y21244   0.953   5.974   5.946 -1.0203  0.5135 -0.2292
  185POPC   C3621245   0.884   5.993   5.743  0.7843  0.0422 -0.5767
  185POPC   H6X21246   0.990   6.005   5.712  0.7232 -2.9960 -2.2919
  185POPC   H6Y21247   0.838   6.094   5.755  1.5964  0.3078  0.4682
  185POPC   C3721248   0.815   5.910   5.625 -0.2182 -0.5324  0.1159
  185POPC   H7X21249   0.706   5.897   5.641 -0.4582  2.8384  2.0543
  185POPC   H7Y21250   0.858   5.808   5.638 -1.3152 -1.0036  0.1334
  185POPC   C3821251   0.860   5.960   5.488  0.5537  0.1697 -0.2017
  185POPC   H8X21252   0.970   5.948   5.494  0.3748 -1.3245  0.5820
  185POPC   H8Y21253   0.834   6.069   5.486 -1.1882 -0.2138 -1.5879
  185POPC   C3921254   0.800   5.898   5.360  0.8050 -0.2130 -0.3994
  185POPC   H9X21255   0.692   5.880   5.374  0.6886  0.6671 -0.0744
  185POPC   H9Y21256   0.855   5.801   5.357  2.2004  0.4914  0.6722
  185POPC  C31021257   0.838   5.975   5.237  0.8859  0.4854 -0.6349
  185POPC  H10X21258   0.948   5.976   5.222  0.8785 -0.1529 -0.7772
  185POPC  H10Y21259   0.802   6.079   5.245  1.4528  0.6221  0.3839
  185POPC  C31121260   0.781   5.925   5.107 -0.2727 -0.2489  0.3201
  185POPC  H11X21261   0.673   5.943   5.090  0.2391  3.1661  0.0466
  185POPC  H11Y21262   0.796   5.815   5.093  0.9414 -0.3203  1.9331
  185POPC  C31221263   0.860   6.000   4.993 -0.3352  0.8587 -0.4329
  185POPC  H12X21264   0.962   5.968   5.024 -0.7356 -1.1307 -0.9871
  185POPC  H12Y21265   0.844   6.109   5.000 -4.3957  0.2950  3.2849
  185POPC  C31321266   0.846   5.950   4.854 -0.0306  0.2345  0.0332
  185POPC  H13X21267   0.739   5.975   4.842 -0.2849 -0.1059  1.4063
  185POPC  H13Y21268   0.859   5.840   4.847  1.6718  0.4930 -1.5805
  185POPC  C31421269   0.925   6.022   4.749 -0.7654 -0.0608  0.0158
  185POPC  H14X21270   1.035   6.008   4.754 -0.5466  1.7122  4.2888
  185POPC  H14Y21271   0.914   6.132   4.762 -0.1861 -0.3167  3.4789
  185POPC  C31521272   0.876   5.985   4.611  0.1821  0.4000  0.1709
  185POPC  H15X21273   0.770   6.013   4.594  0.2756  0.9083  0.3919
  185POPC  H15Y21274   0.884   5.875   4.613  0.7292  0.4311  3.0256
  185POPC  C31621275   0.956   6.039   4.491 -0.4076 -0.0839 -0.3805
  185POPC  H16X21276   0.927   6.144   4.467 -1.0554  0.5372  2.7264
  185POPC  H16Y21277   0.928   5.978   4.402 -0.8334 -0.9547  0.3396
  185POPC  H16Z21278   1.067   6.037   4.500 -0.3464 -0.1400 -1.0907
  186POPC     N21279   3.334   1.558   7.258 -0.5780 -0.6836 -0.2259
  186POPC   C1221280   3.318   1.505   7.113 -0.5887 -0.2448  0.1631
  186POPC  H12A21281   3.414   1.508   7.064  0.0286  0.3676  1.3712
  186POPC  H12B21282   3.255   1.578   7.063 -0.9695 -0.2248  0.6601
  186POPC   C1321283   3.195   1.561   7.335 -0.6498 -0.0351  0.1272
  186POPC  H13A21284   3.219   1.590   7.436  1.5013  1.8085 -0.8322
  186POPC  H13B21285   3.118   1.620   7.288 -0.1990  2.1997  1.9766
  186POPC  H13C21286   3.172   1.455   7.339  1.1212 -0.4158  3.2661
  186POPC   C1421287   3.428   1.474   7.340 -0.2978  0.0531 -0.0384
  186POPC  H14A21288   3.399   1.371   7.329 -0.4726  0.0454  0.4489
  186POPC  H14B21289   3.531   1.484   7.310  0.1496 -0.9407  1.1112
  186POPC  H14C21290   3.425   1.498   7.445  1.8023 -3.6158  1.0524
  186POPC   C1521291   3.392   1.697   7.249 -0.3253 -0.7420  0.3243
  186POPC  H15A21292   3.471   1.696   7.176 -1.3278 -0.0109 -0.8230
  186POPC  H15B21293   3.414   1.724   7.351  2.5116 -1.4761 -0.0087
  186POPC  H15C21294   3.313   1.767   7.227  0.4698 -0.1414 -0.6867
  186POPC   C1121295   3.245   1.368   7.098  0.1782 -0.8793  0.0073
  186POPC  H11A21296   3.255   1.354   6.988 -3.3510  1.9347 -0.8541
  186POPC  H11B21297   3.139   1.375   7.130  0.8116 -0.4034  2.1980
  186POPC     P21298   3.258   1.118   7.147  0.0167 -0.5235  0.1708
  186POPC   O1321299   3.113   1.115   7.181 -0.1388  0.1882  0.1669
  186POPC   O1421300   3.338   1.019   7.226  0.4412  0.2122  0.1439
  186POPC   O1221301   3.316   1.270   7.173  1.0876  0.0938 -0.4303
  186POPC   O1121302   3.259   1.081   6.994  0.0564 -0.4201 -0.2957
  186POPC    C121303   3.186   0.971   6.945  0.1530 -0.6811  0.2448
  186POPC    HA21304   3.102   1.008   6.882  1.3238 -1.1659 -1.6946
  186POPC    HB21305   3.141   0.914   7.030  2.4505 -0.6182  1.5770
  186POPC    C221306   3.278   0.876   6.868  0.5431  0.7354 -0.6840
  186POPC    HS21307   3.360   0.837   6.932  0.2852 -1.3325 -1.5104
  186POPC   O2121308   3.331   0.952   6.756  0.1135 -0.2949  0.5171
  186POPC   C2121309   3.425   0.882   6.684 -0.4598 -0.7265  0.7440
  186POPC   O2221310   3.474   0.779   6.715  0.2742 -0.0474 -0.1182
  186POPC   C2221311   3.466   0.963   6.559 -0.2842  0.2566 -0.0741
  186POPC   H2R21312   3.524   1.056   6.581 -0.2063  0.4010 -0.8526
  186POPC   H2S21313   3.372   0.997   6.512 -1.0803 -0.3651  1.0066
  186POPC    C321314   3.191   0.759   6.823 -0.7374 -0.1610 -0.2013
  186POPC    HX21315   3.141   0.708   6.907 -1.3619 -0.3629 -0.6845
  186POPC    HY21316   3.265   0.689   6.778  2.1509  2.9693 -0.7389
  186POPC   O3121317   3.085   0.800   6.735 -0.1498  0.6027  0.2682
  186POPC   C3121318   3.084   0.760   6.608 -0.4098 -0.0492  0.6158
  186POPC   O3221319   3.164   0.680   6.558 -0.4518  0.0777 -0.4572
  186POPC   C3221320   2.965   0.810   6.528  0.6986  0.4204  0.2496
  186POPC   H2X21321   2.939   0.915   6.553  0.9412  0.4553  0.3569
  186POPC   H2Y21322   2.881   0.740   6.545 -0.6728  2.0495  0.3605
  186POPC   C2321323   3.539   0.865   6.466  0.3895  0.8651  0.6114
  186POPC   H3R21324   3.608   0.796   6.520  0.0109 -1.1625 -1.3493
  186POPC   H3S21325   3.614   0.918   6.403 -0.0623 -0.7839 -1.4347
  186POPC   C2421326   3.445   0.785   6.371  0.1393 -0.1189 -0.0127
  186POPC   H4R21327   3.389   0.859   6.310  1.3834  0.5784 -0.3397
  186POPC   H4S21328   3.377   0.744   6.450  1.8817 -0.0786  1.5869
  186POPC   C2521329   3.510   0.673   6.289 -0.2396 -0.0330 -0.2121
  186POPC   H5R21330   3.549   0.608   6.370 -0.5474  2.2346  1.8905
  186POPC   H5S21331   3.587   0.712   6.219  0.3632  0.7062  0.8359
  186POPC   C2621332   3.416   0.588   6.202 -0.4058 -0.5887 -0.3757
  186POPC   H6R21333   3.313   0.593   6.242 -0.4903 -1.6416 -0.4516
  186POPC   H6S21334   3.434   0.479   6.196  0.2736 -0.4626 -0.7718
  186POPC   C2721335   3.395   0.638   6.056 -0.4279  0.5738  0.1856
  186POPC   H7R21336   3.357   0.554   5.993  1.5878  0.8759 -1.5302
  186POPC   H7S21337   3.498   0.663   6.025 -0.1210  1.8819  2.1311
  186POPC   C2821338   3.304   0.763   6.034  0.2140  0.2886  0.1035
  186POPC   H8R21339   3.363   0.836   6.094  0.2578 -0.9481  1.6516
  186POPC   H8S21340   3.208   0.728   6.077  0.1607 -1.9621 -1.6897
  186POPC   C2921341   3.281   0.792   5.887 -0.4887 -0.3793  0.6821
  186POPC   H9121342   3.186   0.756   5.846  0.1532 -2.2558  0.7235
  186POPC  C21021343   3.383   0.829   5.804 -0.3772  0.2087  0.4971
  186POPC  H10121344   3.360   0.854   5.699  2.8060 -0.8876 -0.5919
  186POPC  C21121345   3.524   0.874   5.823  0.5405  0.3604 -0.2252
  186POPC  H11R21346   3.579   0.801   5.761 -4.1263 -0.4972 -3.9674
  186POPC  H11S21347   3.551   0.874   5.931 -1.5709  1.8543  0.3758
  186POPC  C21221348   3.535   1.019   5.774  0.4396  0.3549  0.1574
  186POPC  H12R21349   3.617   1.072   5.826  2.2804 -1.1982 -1.0269
  186POPC  H12S21350   3.443   1.075   5.801 -0.8212 -0.8901 -1.3491
  186POPC  C21321351   3.571   1.025   5.616 -0.0300  0.0628  0.6987
  186POPC  H13R21352   3.502   0.949   5.573 -1.1476  0.0965  2.3122
  186POPC  H13S21353   3.676   0.993   5.600 -0.6920 -1.2045 -1.6746
  186POPC  C21421354   3.552   1.168   5.557  0.4709 -0.3934 -0.1706
  186POPC  H14R21355   3.626   1.241   5.597 -2.9383  2.2438  1.8882
  186POPC  H14S21356   3.447   1.201   5.574 -0.2174 -2.6553  0.3204
  186POPC  C21521357   3.574   1.161   5.409 -0.6144 -0.5722 -0.1122
  186POPC  H15R21358   3.491   1.100   5.371  0.1249 -0.3913 -2.1217
  186POPC  H15S21359   3.662   1.103   5.374 -1.0552 -0.4318 -1.5070
  186POPC  C21621360   3.591   1.296   5.335 -0.1771 -0.2617 -0.4221
  186POPC  H16R21361   3.621   1.281   5.229 -0.9731 -0.1759 -0.6662
  186POPC  H16S21362   3.672   1.354   5.384 -1.6126  0.7123  0.8550
  186POPC  C21721363   3.462   1.389   5.350  0.0214  0.0851 -0.1755
  186POPC  H17R21364   3.505   1.491   5.348 -1.0925  0.5790  0.4004
  186POPC  H17S21365   3.421   1.379   5.453 -0.5823 -0.9267 -0.5024
  186POPC  C21821366   3.355   1.367   5.245  0.5225  0.5583 -0.1888
  186POPC  H18R21367   3.262   1.425   5.263 -0.8221 -1.9488  1.6447
  186POPC  H18S21368   3.329   1.259   5.249  0.7708  0.5108  0.2159
  186POPC  H18T21369   3.397   1.382   5.144  1.2163  0.6380  0.1113
  186POPC   C3321370   2.999   0.799   6.378  0.7404  0.2963 -0.2974
  186POPC   H3X21371   3.067   0.716   6.351  0.4270  0.4306 -1.5480
  186POPC   H3Y21372   3.057   0.889   6.347  0.6777  0.3280 -0.3238
  186POPC   C3421373   2.874   0.795   6.288  0.6595 -0.4757 -0.8174
  186POPC   H4X21374   2.792   0.850   6.338  0.4631 -1.0376 -0.5132
  186POPC   H4Y21375   2.846   0.689   6.270 -0.4732 -0.2901 -0.2072
  186POPC   C3521376   2.915   0.861   6.153  0.5785 -0.1064 -0.6605
  186POPC   H5X21377   2.969   0.788   6.089 -1.2461 -1.9075 -0.2357
  186POPC   H5Y21378   2.983   0.947   6.173  0.8911 -0.3191 -0.7852
  186POPC   C3621379   2.788   0.925   6.081  0.4357  0.0101 -0.5520
  186POPC   H6X21380   2.734   0.985   6.157  0.0976  1.9177 -2.2144
  186POPC   H6Y21381   2.711   0.853   6.045 -0.1110  1.1674 -1.7833
  186POPC   C3721382   2.828   1.016   5.963  0.3000  0.7942 -0.1166
  186POPC   H7X21383   2.919   1.075   5.988  0.0584  0.2738  2.2028
  186POPC   H7Y21384   2.735   1.075   5.948 -0.0650  0.5345  0.9860
  186POPC   C3821385   2.861   0.943   5.836  0.1496 -0.3236  0.1097
  186POPC   H8X21386   2.777   0.878   5.804  1.6246 -2.7379  0.7821
  186POPC   H8Y21387   2.943   0.870   5.857 -0.7710 -0.8742  2.1237
  186POPC   C3921388   2.880   1.047   5.722  0.7822  0.1946 -0.0612
  186POPC   H9X21389   2.970   1.107   5.746  1.0575 -0.2483  0.0289
  186POPC   H9Y21390   2.784   1.101   5.735 -0.1890 -1.6851  1.1837
  186POPC  C31021391   2.897   0.994   5.589  0.3422 -0.2918 -0.3502
  186POPC  H10X21392   2.874   1.067   5.508  1.7893  0.2837 -0.2823
  186POPC  H10Y21393   2.837   0.905   5.562  0.4205 -0.0935 -1.2236
  186POPC  C31121394   3.046   0.960   5.579  1.0246 -0.0315  0.1626
  186POPC  H11X21395   3.079   0.907   5.671  0.2782  1.3541  1.2753
  186POPC  H11Y21396   3.107   1.053   5.567  2.1908 -0.8881 -0.6908
  186POPC  C31221397   3.075   0.863   5.465  0.1586 -0.1191  0.4325
  186POPC  H12X21398   3.007   0.891   5.381 -1.1553 -1.0971  1.1222
  186POPC  H12Y21399   3.055   0.758   5.496  2.0226 -0.0264  2.1152
  186POPC  C31321400   3.215   0.875   5.410  0.0755 -1.0659 -0.3957
  186POPC  H13X21401   3.297   0.851   5.481 -1.1170  1.1067  1.8486
  186POPC  H13Y21402   3.233   0.982   5.385  1.1019 -1.3428 -0.8626
  186POPC  C31421403   3.234   0.789   5.287  0.1698  0.0058  0.3126
  186POPC  H14X21404   3.148   0.791   5.217  0.6840 -0.5769 -0.3469
  186POPC  H14Y21405   3.241   0.683   5.321  3.3812 -0.1490 -0.4873
  186POPC  C31521406   3.360   0.828   5.202  0.0057  0.2628 -0.7153
  186POPC  H15X21407   3.369   0.754   5.120  0.0734 -1.0144  0.3996
  186POPC  H15Y21408   3.458   0.823   5.253 -0.1038 -2.4942 -0.6292
  186POPC  C31621409   3.335   0.965   5.131 -0.4654  0.1581  0.4836
  186POPC  H16X21410   3.429   1.010   5.091 -1.0785 -1.3136 -3.0018
  186POPC  H16Y21411   3.295   1.041   5.201  1.7557  1.0665  0.8445
  186POPC  H16Z21412   3.270   0.939   5.044 -1.2611 -1.7133  1.5923
  187POPC     N21413   0.117   6.272   2.429 -0.1839  0.0813 -0.2154
  187POPC   C1221414   0.167   6.249   2.566  0.3415  0.0538 -0.4284
  187POPC  H12A21415   0.108   6.170   2.612  0.5269  0.0101 -0.2602
  187POPC  H12B21416   0.133   6.331   2.627 -2.5577 -2.3781  1.5111
  187POPC   C1321417   0.178   6.393   2.368  0.8056 -0.1027 -0.3522
  187POPC  H13A21418   0.124   6.427   2.281 -0.8304 -1.1308  0.2216
  187POPC  H13B21419   0.173   6.479   2.433 -0.1070  0.5417 -1.2383
  187POPC  H13C21420   0.283   6.389   2.341  0.3890 -1.2351 -1.9493
  187POPC   C1421421   0.146   6.156   2.339 -0.1903  0.1448 -0.0207
  187POPC  H14A21422   0.254   6.152   2.341 -0.1860  0.3731  1.2354
  187POPC  H14B21423   0.108   6.059   2.368 -2.1841  0.8167 -0.2460
  187POPC  H14C21424   0.106   6.181   2.242 -2.8406 -1.2146  0.6168
  187POPC   C1521425  -0.029   6.293   2.434  0.4517 -0.7722  0.1473
  187POPC  H15A21426  -0.081   6.310   2.340 -1.5277  0.7952  1.4398
  187POPC  H15B21427  -0.050   6.378   2.497  0.5673  0.2685 -1.1609
  187POPC  H15C21428  -0.080   6.211   2.482  1.2360 -0.7988  0.9527
  187POPC   C1121429   0.323   6.228   2.580  0.0796  0.0594 -0.0601
  187POPC  H11A21430   0.340   6.242   2.689  0.6594 -0.2903 -0.1015
  187POPC  H11B21431   0.377   6.314   2.533  1.1953 -1.1224 -1.0099
  187POPC     P21432   0.320   5.974   2.618  0.4967  0.1085 -0.0679
  187POPC   O1321433   0.364   5.858   2.538 -0.2415 -0.1239  0.2691
  187POPC   O1421434   0.178   5.977   2.660 -0.3974 -0.0225 -0.0349
  187POPC   O1221435   0.358   6.108   2.534 -0.4618 -0.1948 -0.2257
  187POPC   O1121436   0.406   5.984   2.743 -0.4396  0.8482 -0.1823
  187POPC    C121437   0.552   5.998   2.733  0.1059 -0.6817 -0.0459
  187POPC    HA21438   0.587   6.062   2.650 -0.3869 -0.4302 -0.0628
  187POPC    HB21439   0.601   5.900   2.714 -1.7229 -1.2969 -1.9825
  187POPC    C221440   0.606   6.052   2.868 -0.4113 -0.1620  0.5978
  187POPC    HS21441   0.583   6.161   2.874 -3.0542 -0.5289 -1.0960
  187POPC   O2121442   0.750   6.023   2.870 -0.4196  0.2672  0.3172
  187POPC   C2121443   0.823   6.114   2.941  0.2617 -0.4552  0.8028
  187POPC   O2221444   0.777   6.206   3.005  0.0792 -0.1094  0.0799
  187POPC   C2221445   0.967   6.080   2.933 -0.5497  0.4962  0.9377
  187POPC   H2R21446   1.026   6.174   2.935 -0.2863  0.3299  1.0711
  187POPC   H2S21447   0.988   6.029   2.837  1.5427  2.0939  0.4733
  187POPC    C321448   0.537   5.969   2.991 -0.1275 -0.1342  0.2861
  187POPC    HX21449   0.518   5.861   2.972  2.0844 -0.2495 -1.7926
  187POPC    HY21450   0.440   6.016   3.016  0.6479  0.5484  2.1687
  187POPC   O3121451   0.605   5.965   3.117 -0.5648  0.2601 -0.3072
  187POPC   C3121452   0.586   5.871   3.205  0.3431  0.8614  0.2718
  187POPC   O3221453   0.502   5.782   3.198 -0.5337 -0.2199 -0.4533
  187POPC   C3221454   0.676   5.889   3.322 -0.6365 -0.2373 -0.2255
  187POPC   H2X21455   0.663   5.993   3.358  0.0726  0.2625 -1.3614
  187POPC   H2Y21456   0.778   5.882   3.280 -0.4813  2.6983 -0.5240
  187POPC   C2321457   1.020   5.988   3.043  0.2909  0.0564 -0.0609
  187POPC   H3R21458   1.121   5.945   3.024 -0.8208 -2.4236 -0.7551
  187POPC   H3S21459   0.956   5.898   3.053 -1.1364  1.0417  0.0170
  187POPC   C2421460   1.021   6.066   3.174 -0.3000 -0.0216 -0.4327
  187POPC   H4R21461   0.915   6.091   3.195  0.0395  0.2091  1.1559
  187POPC   H4S21462   1.089   6.154   3.171 -0.3464 -0.0183 -1.7849
  187POPC   C2521463   1.059   5.979   3.296  0.2319  0.5089 -0.2329
  187POPC   H5R21464   1.166   5.948   3.285  1.2275  3.5041  0.2712
  187POPC   H5S21465   1.008   5.880   3.299  1.4769 -0.1492  0.1105
  187POPC   C2621466   1.041   6.050   3.427 -0.4478  0.0398 -0.9731
  187POPC   H6R21467   0.941   6.036   3.471 -0.3780  1.4983 -0.2866
  187POPC   H6S21468   1.058   6.160   3.418 -1.0373 -0.0165 -4.5712
  187POPC   C2721469   1.147   5.994   3.527 -0.1040 -0.3462  0.5273
  187POPC   H7R21470   1.247   5.987   3.479 -1.4695 -0.3888 -2.5539
  187POPC   H7S21471   1.123   5.889   3.557  0.3509 -0.5722  0.1208
  187POPC   C2821472   1.169   6.073   3.657  0.2341  0.7105  0.1294
  187POPC   H8R21473   1.200   6.178   3.640 -2.9380  1.6889 -0.3790
  187POPC   H8S21474   1.240   6.017   3.721  0.9773 -1.2050 -2.2238
  187POPC   C2921475   1.038   6.095   3.726  0.3034 -0.2503 -0.6025
  187POPC   H9121476   0.954   6.123   3.661 -0.2787 -3.0826 -1.1668
  187POPC  C21021477   1.015   6.091   3.858 -0.6825  0.3773 -0.7848
  187POPC  H10121478   0.913   6.088   3.897 -0.1933 -0.8760  0.4860
  187POPC  C21121479   1.120   6.057   3.964  0.0875  0.0934 -0.3434
  187POPC  H11R21480   1.112   6.126   4.051 -0.0425 -1.0120  0.5393
  187POPC  H11S21481   1.223   6.075   3.925  1.1354 -0.5297  1.9618
  187POPC  C21221482   1.114   5.906   3.994  0.2409  0.7639  0.2586
  187POPC  H12R21483   1.217   5.891   4.034  0.7594  2.6456 -0.2830
  187POPC  H12S21484   1.095   5.852   3.899 -0.6208  2.3302 -0.4960
  187POPC  C21321485   0.998   5.861   4.088  0.8032  0.2740  0.2563
  187POPC  H13R21486   0.899   5.872   4.040 -0.0160 -1.9002  1.3059
  187POPC  H13S21487   1.007   5.940   4.166 -0.9314  1.1309 -0.3743
  187POPC  C21421488   1.008   5.716   4.147  0.2402  0.5405 -0.0714
  187POPC  H14R21489   0.977   5.647   4.065  0.5738 -0.7755  0.8727
  187POPC  H14S21490   0.926   5.706   4.221 -0.1127 -1.9174 -0.6861
  187POPC  C21521491   1.143   5.676   4.206 -0.3991  0.5184 -0.2598
  187POPC  H15R21492   1.217   5.702   4.128  0.0191 -1.6017 -0.6480
  187POPC  H15S21493   1.144   5.566   4.226  0.2127  0.5777  0.0584
  187POPC  C21621494   1.181   5.723   4.351  0.0548  0.2913  0.5066
  187POPC  H16R21495   1.245   5.641   4.389 -1.6889 -1.8830 -0.9664
  187POPC  H16S21496   1.082   5.709   4.401 -2.1446 -0.0640 -3.5185
  187POPC  C21721497   1.252   5.855   4.357  0.0049  0.4349  0.6694
  187POPC  H17R21498   1.201   5.941   4.309 -0.6972  0.1630  0.9122
  187POPC  H17S21499   1.346   5.837   4.301  0.7834  0.2829  1.9942
  187POPC  C21821500   1.296   5.890   4.500  0.6766  0.2145 -0.7580
  187POPC  H18R21501   1.204   5.886   4.562 -0.1675  3.1481 -1.6304
  187POPC  H18S21502   1.316   5.999   4.512 -2.7789  0.6608  3.5611
  187POPC  H18T21503   1.369   5.818   4.542  1.2561 -0.0066 -2.1077
  187POPC   C3321504   0.647   5.796   3.435  0.2116  0.0889 -0.9057
  187POPC   H3X21505   0.663   5.689   3.411 -0.7066 -0.0968 -0.7310
  187POPC   H3Y21506   0.541   5.801   3.469  0.1471  0.0508 -1.1018
  187POPC   C3421507   0.732   5.811   3.559  0.1020  0.2782 -0.6379
  187POPC   H4X21508   0.721   5.916   3.595  0.8269  0.4760 -0.9885
  187POPC   H4Y21509   0.837   5.786   3.537  0.7587  0.9279  1.4913
  187POPC   C3521510   0.684   5.727   3.677  0.6860  0.4566  0.1537
  187POPC   H5X21511   0.658   5.624   3.641 -1.8168  1.9949 -2.9709
  187POPC   H5Y21512   0.588   5.779   3.696 -0.9132 -2.2831  0.1564
  187POPC   C3621513   0.781   5.712   3.792  0.0798 -0.4725  0.4722
  187POPC   H6X21514   0.841   5.802   3.816 -1.8253  0.4964  1.8954
  187POPC   H6Y21515   0.836   5.622   3.757 -0.0347  0.4122 -2.2346
  187POPC   C3721516   0.700   5.678   3.925  0.0125  0.2837 -0.1033
  187POPC   H7X21517   0.641   5.770   3.946  1.7702  0.9461  2.4565
  187POPC   H7Y21518   0.776   5.677   4.006 -0.9330  1.8006  0.8613
  187POPC   C3821519   0.617   5.552   3.929  0.0397 -0.2546  0.2791
  187POPC   H8X21520   0.690   5.469   3.915  0.4806  0.1493  0.1362
  187POPC   H8Y21521   0.553   5.554   3.838  1.2376 -1.9734 -0.6561
  187POPC   C3921522   0.562   5.528   4.070  0.0288 -0.3494 -0.3320
  187POPC   H9X21523   0.468   5.471   4.059 -0.4409  0.5581 -1.2883
  187POPC   H9Y21524   0.529   5.625   4.112 -0.2922 -0.2956 -0.7013
  187POPC  C31021525   0.654   5.456   4.167 -0.9865 -0.3499  0.8469
  187POPC  H10X21526   0.748   5.516   4.172 -1.9953  1.8214 -2.5273
  187POPC  H10Y21527   0.686   5.358   4.124  0.7705  0.5472 -0.0494
  187POPC  C31121528   0.594   5.449   4.305 -0.7169  0.6946  0.4946
  187POPC  H11X21529   0.492   5.406   4.307  0.4104 -2.1518  1.4224
  187POPC  H11Y21530   0.597   5.555   4.337 -0.6555  0.8076  0.1277
  187POPC  C31221531   0.689   5.378   4.405  0.0423  0.7611 -0.1239
  187POPC  H12X21532   0.773   5.447   4.430  1.2202 -0.4474 -0.6263
  187POPC  H12Y21533   0.736   5.287   4.361  1.8284  2.9945 -3.2157
  187POPC  C31321534   0.613   5.324   4.529  0.2452 -0.1789  0.0502
  187POPC  H13X21535   0.548   5.239   4.500 -0.6915 -0.2809  2.2528
  187POPC  H13Y21536   0.554   5.399   4.586  1.1744 -0.1776  1.0287
  187POPC  C31421537   0.722   5.281   4.638  0.1103 -0.7031 -0.1417
  187POPC  H14X21538   0.687   5.316   4.738 -0.8425 -1.8303 -0.0503
  187POPC  H14Y21539   0.817   5.337   4.623  0.2712 -0.9307  0.0174
  187POPC  C31521540   0.742   5.131   4.646  0.1940 -0.7978  0.4666
  187POPC  H15X21541   0.790   5.093   4.553  0.8655  0.8767  0.0882
  187POPC  H15Y21542   0.640   5.090   4.663 -0.4523  0.7658  0.5131
  187POPC  C31621543   0.830   5.087   4.761 -0.2848  0.4021 -0.1111
  187POPC  H16X21544   0.936   5.119   4.752 -0.7780  2.1106 -0.0142
  187POPC  H16Y21545   0.823   4.976   4.749  0.2238  0.4209 -0.6252
  187POPC  H16Z21546   0.795   5.111   4.863 -1.1625 -0.7867 -0.1076
  188POPC     N21547   0.329   4.918   2.415 -0.2614 -0.2791  0.1524
  188POPC   C1221548   0.254   4.854   2.528  0.3802  0.0039  0.2193
  188POPC  H12A21549   0.210   4.934   2.586  1.0593  0.0244  0.7139
  188POPC  H12B21550   0.319   4.799   2.595 -0.2027 -1.2047 -0.1754
  188POPC   C1321551   0.401   4.814   2.329 -0.6769 -0.1905  0.1842
  188POPC  H13A21552   0.417   4.846   2.227 -0.8727  0.0890  0.2410
  188POPC  H13B21553   0.494   4.776   2.369 -0.1864  2.1710  1.4604
  188POPC  H13C21554   0.341   4.725   2.321 -1.7779  0.4620  0.9827
  188POPC   C1421555   0.233   4.987   2.320 -0.0141 -0.0156  0.2136
  188POPC  H14A21556   0.178   5.063   2.374  0.9077  1.4923 -0.9044
  188POPC  H14B21557   0.292   5.033   2.242  2.7000  0.8179  2.5577
  188POPC  H14C21558   0.173   4.915   2.268  0.7401 -0.3779 -0.1731
  188POPC   C1521559   0.428   5.016   2.463  0.4844 -0.1055  0.6531
  188POPC  H15A21560   0.382   5.097   2.517 -0.0394  0.2147 -0.2578
  188POPC  H15B21561   0.478   5.063   2.380  0.5622  1.0180  1.3140
  188POPC  H15C21562   0.497   4.980   2.539 -0.2484 -2.5687  0.2526
  188POPC   C1121563   0.141   4.756   2.491 -0.0577  0.1040  0.8859
  188POPC  H11A21564   0.066   4.804   2.425  1.4471  1.5232  0.1508
  188POPC  H11B21565   0.096   4.735   2.590 -0.9175 -0.7296  0.3402
  188POPC     P21566   0.097   4.522   2.379  0.3545 -0.1176  0.0565
  188POPC   O1321567   0.178   4.424   2.301  0.1251  0.4414  0.4495
  188POPC   O1421568  -0.014   4.576   2.303  0.0837 -0.2957 -0.2800
  188POPC   O1221569   0.189   4.638   2.422 -0.4483  0.2485  0.0046
  188POPC   O1121570   0.057   4.443   2.514  0.3639  0.0052 -0.1085
  188POPC    C121571  -0.078   4.458   2.569  0.6621  0.6656  0.1042
  188POPC    HA21572  -0.125   4.358   2.572  3.3149 -0.7337 -0.9990
  188POPC    HB21573  -0.153   4.509   2.505 -0.4626  0.0129  0.8924
  188POPC    C221574  -0.067   4.508   2.721 -0.7121  0.0144 -0.3347
  188POPC    HS21575  -0.038   4.615   2.714 -2.7724  0.5471 -1.7963
  188POPC   O2121576   0.023   4.419   2.780 -0.2650  0.0577 -0.6775
  188POPC   C2121577   0.119   4.478   2.847 -0.5179 -0.1894  0.1207
  188POPC   O2221578   0.131   4.599   2.875  0.4584 -1.0564 -0.2161
  188POPC   C2221579   0.226   4.374   2.878 -0.3182 -0.6990 -0.0639
  188POPC   H2R21580   0.285   4.338   2.791 -0.4332 -1.0406 -0.0001
  188POPC   H2S21581   0.171   4.285   2.916 -0.5868 -0.6643 -0.3630
  188POPC    C321582  -0.205   4.501   2.793  0.4405  0.5967 -0.6595
  188POPC    HX21583  -0.245   4.399   2.780 -0.5589  0.8794  0.1140
  188POPC    HY21584  -0.281   4.569   2.748 -0.2593 -0.8479 -1.7132
  188POPC   O3121585  -0.199   4.527   2.930 -0.2209 -0.1820 -0.3211
  188POPC   C3121586  -0.187   4.657   2.968 -0.4922 -0.4738  0.3636
  188POPC   O3221587  -0.190   4.746   2.882  0.1429 -0.1425  0.1989
  188POPC   C3221588  -0.168   4.681   3.122 -0.6487  0.0947  0.1687
  188POPC   H2X21589  -0.073   4.734   3.142 -0.5563  0.1818 -0.4834
  188POPC   H2Y21590  -0.158   4.577   3.161  2.2328  0.0287 -0.5039
  188POPC   C2321591   0.327   4.430   2.980 -1.1216  0.2879  0.0057
  188POPC   H3R21592   0.362   4.527   2.938 -1.4420  0.1328 -0.6315
  188POPC   H3S21593   0.412   4.359   2.982  1.4678  3.1124  2.2041
  188POPC   C2421594   0.299   4.457   3.132  0.4436 -0.0855 -0.1281
  188POPC   H4R21595   0.212   4.392   3.155 -0.3204  1.1935  0.7439
  188POPC   H4S21596   0.279   4.563   3.158  2.2039  0.1481  0.4056
  188POPC   C2521597   0.418   4.404   3.214 -0.6105 -0.0289 -1.1357
  188POPC   H5R21598   0.494   4.481   3.188  0.2427 -0.3524  0.3185
  188POPC   H5S21599   0.445   4.303   3.176  0.2493 -0.1807 -0.1509
  188POPC   C2621600   0.392   4.394   3.363  0.3520 -0.0296  0.0800
  188POPC   H6R21601   0.368   4.498   3.393  2.6796  0.6158 -0.1323
  188POPC   H6S21602   0.486   4.361   3.411  0.2583  2.7374  2.3963
  188POPC   C2721603   0.266   4.317   3.415 -0.1183  1.0372 -0.3761
  188POPC   H7R21604   0.300   4.211   3.417  0.6997  1.2935  1.3327
  188POPC   H7S21605   0.180   4.337   3.347  1.0390  1.7481 -1.6697
  188POPC   C2821606   0.211   4.369   3.551  0.0231  0.3187 -0.0633
  188POPC   H8R21607   0.139   4.294   3.590  1.1409 -0.6732  0.1364
  188POPC   H8S21608   0.146   4.456   3.526 -0.5759 -0.4008 -1.0768
  188POPC   C2921609   0.325   4.408   3.650  0.3251 -0.0996  0.2483
  188POPC   H9121610   0.357   4.513   3.642 -0.8882  0.2416 -0.4020
  188POPC  C21021611   0.388   4.327   3.734  0.0325 -0.7734  0.5927
  188POPC  H10121612   0.472   4.360   3.796  1.4412 -1.5020 -0.8528
  188POPC  C21121613   0.356   4.183   3.760 -0.4660 -0.3958 -0.7429
  188POPC  H11R21614   0.441   4.122   3.722  2.0104  1.4350  1.5327
  188POPC  H11S21615   0.261   4.156   3.709 -0.4531  0.5330 -1.2627
  188POPC  C21221616   0.346   4.167   3.917  0.3299  0.4847  0.2361
  188POPC  H12R21617   0.437   4.206   3.967  1.0789 -2.5172  1.4507
  188POPC  H12S21618   0.354   4.061   3.947  0.7784  0.7619  1.1188
  188POPC  C21321619   0.216   4.226   3.977 -0.4523  0.6554 -0.0687
  188POPC  H13R21620   0.133   4.190   3.913  0.8112  0.2300 -1.5381
  188POPC  H13S21621   0.221   4.337   3.979  1.1056  0.5964  0.7725
  188POPC  C21421622   0.195   4.180   4.121 -0.1756  0.2920 -0.0895
  188POPC  H14R21623   0.158   4.075   4.117 -3.0181  1.1979 -0.4407
  188POPC  H14S21624   0.101   4.223   4.163 -0.6664 -0.1950 -0.6609
  188POPC  C21521625   0.315   4.191   4.216  0.3040 -1.0894  1.1808
  188POPC  H15R21626   0.351   4.296   4.219 -2.6780  0.0549  0.0895
  188POPC  H15S21627   0.401   4.124   4.191 -0.1993 -1.0931 -0.6602
  188POPC  C21621628   0.273   4.160   4.356  0.2282 -0.3461  0.2984
  188POPC  H16R21629   0.234   4.057   4.363 -1.9678  0.5537  3.2060
  188POPC  H16S21630   0.188   4.226   4.382  0.3033  0.5046 -1.4548
  188POPC  C21721631   0.384   4.186   4.463 -0.1871  0.8949  0.8951
  188POPC  H17R21632   0.335   4.195   4.562 -1.7450 -2.4599  0.5646
  188POPC  H17S21633   0.435   4.283   4.449  0.7581  0.3995  0.8226
  188POPC  C21821634   0.498   4.081   4.471 -0.7761 -0.5835 -0.3643
  188POPC  H18R21635   0.469   3.974   4.471 -1.0493 -0.5100 -0.3550
  188POPC  H18S21636   0.543   4.099   4.571 -1.1690  0.5983 -0.3784
  188POPC  H18T21637   0.565   4.108   4.387  1.7764  0.7804  1.9451
  188POPC   C3321638  -0.280   4.761   3.194 -0.0890  0.1815  0.3546
  188POPC   H3X21639  -0.378   4.711   3.187 -1.1485  1.8471  2.2896
  188POPC   H3Y21640  -0.282   4.860   3.144  1.0400 -0.4685 -1.0545
  188POPC   C3421641  -0.258   4.780   3.346  0.0394  0.0832 -0.0257
  188POPC   H4X21642  -0.360   4.804   3.382 -0.3341  0.9090 -1.5541
  188POPC   H4Y21643  -0.201   4.872   3.372 -0.6108  0.8719 -1.3520
  188POPC   C3521644  -0.210   4.657   3.418 -0.1018 -0.0948  0.3390
  188POPC   H5X21645  -0.101   4.636   3.410 -0.2276 -1.7898  2.1157
  188POPC   H5Y21646  -0.261   4.565   3.381 -2.7319  0.8595  1.3710
  188POPC   C3621647  -0.230   4.667   3.570 -0.0636 -0.9213 -0.0487
  188POPC   H6X21648  -0.338   4.680   3.593 -0.3296 -2.0656 -0.5805
  188POPC   H6Y21649  -0.172   4.755   3.606 -1.0802  0.4534 -1.5785
  188POPC   C3721650  -0.191   4.540   3.641 -0.6130 -0.1687 -0.1062
  188POPC   H7X21651  -0.080   4.540   3.643 -0.5982 -0.2442 -0.7169
  188POPC   H7Y21652  -0.221   4.459   3.572  0.8076 -1.5704  0.8354
  188POPC   C3821653  -0.252   4.510   3.770  0.5517  0.1946  0.1385
  188POPC   H8X21654  -0.361   4.518   3.750  0.1907  1.1509  2.2095
  188POPC   H8Y21655  -0.232   4.589   3.846  3.4567 -0.3095  0.0165
  188POPC   C3921656  -0.208   4.374   3.827 -0.3492 -0.2566  0.0639
  188POPC   H9X21657  -0.098   4.375   3.840 -0.5154  0.0205  1.6357
  188POPC   H9Y21658  -0.245   4.292   3.762 -0.0331 -0.0656 -0.3602
  188POPC  C31021659  -0.267   4.359   3.968 -0.0663  0.6294  0.6999
  188POPC  H10X21660  -0.251   4.252   3.996 -1.3543  0.3512  0.4111
  188POPC  H10Y21661  -0.378   4.362   3.966 -0.2087 -2.1821  0.1632
  188POPC  C31121662  -0.215   4.456   4.071  0.4663 -0.0016 -0.2159
  188POPC  H11X21663  -0.251   4.559   4.046 -1.9684 -1.2616 -2.3373
  188POPC  H11Y21664  -0.105   4.447   4.076  0.2438 -3.1694  0.6871
  188POPC  C31221665  -0.258   4.428   4.225 -0.6257  1.0162 -1.0981
  188POPC  H12X21666  -0.369   4.429   4.232 -0.5589  0.2503  0.7016
  188POPC  H12Y21667  -0.220   4.518   4.278  1.7400 -0.1707 -0.6729
  188POPC  C31321668  -0.196   4.301   4.290  0.1682  0.7327  0.3596
  188POPC  H13X21669  -0.086   4.298   4.301  0.1985  0.9542  0.1325
  188POPC  H13Y21670  -0.230   4.215   4.228 -1.0141  0.9057  0.7400
  188POPC  C31421671  -0.244   4.261   4.428  0.1596  0.1534 -0.5445
  188POPC  H14X21672  -0.335   4.199   4.418 -0.2168  0.7195 -0.6455
  188POPC  H14Y21673  -0.265   4.354   4.484  1.8605  0.6144 -0.6022
  188POPC  C31521674  -0.153   4.168   4.503  0.4007  0.2375 -0.9314
  188POPC  H15X21675  -0.058   4.219   4.528  2.1727 -2.2999 -2.0606
  188POPC  H15Y21676  -0.122   4.089   4.430 -1.2414 -1.4806  0.1266
  188POPC  C31621677  -0.211   4.097   4.624  0.4899  0.5916 -0.3853
  188POPC  H16X21678  -0.138   4.026   4.670  1.3809  1.4212 -0.4817
  188POPC  H16Y21679  -0.302   4.038   4.603  1.2981 -0.3551 -1.3523
  188POPC  H16Z21680  -0.244   4.166   4.704  0.6517 -0.2024  0.3825
  189SAPI   C1221681   1.531   4.789   7.115 -0.4636  0.0350 -0.4573
  189SAPI    H221682   1.513   4.791   7.006 -2.0237 -1.2764 -0.2564
  189SAPI    O221683   1.644   4.869   7.153 -0.3266  0.1404  0.5683
  189SAPI   HO221684   1.659   4.943   7.093  6.3170 -0.9652  0.0824
  189SAPI   C1321685   1.399   4.840   7.175 -0.1612 -0.2075  0.0230
  189SAPI    H321686   1.324   4.768   7.136 -0.9994  1.3808 -1.4359
  189SAPI    O321687   1.365   4.970   7.139 -0.2588 -0.2233 -0.3856
  189SAPI   HO321688   1.367   4.991   7.045 -1.0318  0.7973 -0.1963
  189SAPI   C1421689   1.406   4.825   7.323  0.4728 -0.7119  0.2236
  189SAPI    H421690   1.478   4.902   7.356  0.1602 -0.9769  1.5973
  189SAPI    O421691   1.280   4.854   7.379  0.9301  0.4408  0.0414
  189SAPI   HO421692   1.281   4.926   7.443 -0.2589 -0.6699  1.3616
  189SAPI   C1521693   1.456   4.693   7.376 -0.1231 -0.2745  0.2740
  189SAPI    H521694   1.369   4.625   7.368  0.0498 -0.6801  1.5487
  189SAPI    O521695   1.484   4.697   7.515 -0.0149 -0.0813 -0.2668
  189SAPI   HO521696   1.423   4.643   7.565 -1.4618  2.3967  0.8376
  189SAPI   C1621697   1.570   4.625   7.300  0.1179 -0.3543  0.2348
  189SAPI    H621698   1.667   4.670   7.330  0.4265 -2.0667  2.0356
  189SAPI    O621699   1.581   4.478   7.310 -0.2108  0.4150 -0.5379
  189SAPI   HO621700   1.657   4.469   7.252 -1.2482  0.5013 -1.9588
  189SAPI   C1121701   1.551   4.644   7.152  0.6097  0.0181 -0.0093
  189SAPI    H121702   1.456   4.589   7.136  0.3113 -0.2245  2.3074
  189SAPI     P21703   1.637   4.531   6.924 -0.3566  0.2692  0.7302
  189SAPI   O1321704   1.507   4.458   6.925  0.1415  0.0275  0.4082
  189SAPI   O1421705   1.755   4.453   6.882 -0.0416 -0.2490 -0.1283
  189SAPI   O1221706   1.660   4.590   7.072  0.2882  0.1064  0.5026
  189SAPI   O1121707   1.612   4.666   6.838  0.7097  0.1972  0.4746
  189SAPI    C121708   1.721   4.704   6.750 -0.1635  0.1068  1.1523
  189SAPI    HA21709   1.817   4.671   6.796  0.9602  0.3610 -0.9054
  189SAPI    HB21710   1.702   4.646   6.657 -1.2240 -0.3562  1.6468
  189SAPI    C221711   1.705   4.853   6.716 -0.3695 -0.2460 -0.1534
  189SAPI    HS21712   1.672   4.893   6.814 -2.6814 -0.4291 -0.8038
  189SAPI   O2121713   1.593   4.862   6.628  0.5886 -0.1907 -0.0895
  189SAPI   C2121714   1.539   4.983   6.612  0.1997 -0.4839 -0.3979
  189SAPI   O2221715   1.568   5.084   6.678  0.1809 -0.3189  0.2552
  189SAPI   C2221716   1.438   4.976   6.503 -0.0467  0.2707 -0.0087
  189SAPI   H2R21717   1.478   4.905   6.427 -0.0111  0.3355 -0.0503
  189SAPI   H2S21718   1.337   4.949   6.539 -0.2585  1.3749  0.2686
  189SAPI    C321719   1.846   4.916   6.664  0.1224 -0.5184  0.3875
  189SAPI    HX21720   1.921   4.888   6.741 -1.4046 -1.5069  1.5961
  189SAPI    HY21721   1.851   5.027   6.668  0.0652 -0.4778 -0.4917
  189SAPI   O3121722   1.886   4.866   6.532  0.2936 -0.3264 -0.2931
  189SAPI   C3121723   1.859   4.942   6.432  1.3271  0.9306 -0.0796
  189SAPI   O3221724   1.792   5.040   6.426  0.1918 -0.2303 -0.1064
  189SAPI   C3221725   1.924   4.882   6.310 -0.6213  0.0903  0.9278
  189SAPI   H2X21726   1.859   4.799   6.275 -1.6788  1.1463  0.2779
  189SAPI   H2Y21727   2.023   4.841   6.339 -0.3957  0.1708  0.2853
  189SAPI   C2321728   1.428   5.106   6.425 -0.5320 -0.3328 -0.3583
  189SAPI   H3R21729   1.527   5.120   6.378 -0.8933  0.5576 -0.8710
  189SAPI   H3S21730   1.415   5.190   6.497 -1.7579 -0.5417 -0.3067
  189SAPI   C2421731   1.312   5.099   6.329 -0.2503 -0.2412 -0.1010
  189SAPI   H4R21732   1.225   5.078   6.395  1.0715  1.8092  2.4442
  189SAPI   H4S21733   1.332   5.019   6.254  2.2781 -1.5773  1.8530
  189SAPI   C2521734   1.297   5.231   6.253  0.5782 -0.1291  0.0739
  189SAPI   H5R21735   1.225   5.305   6.289 -3.0714 -1.2363 -4.0315
  189SAPI   C2621736   1.336   5.260   6.124 -0.9104 -0.2905 -0.0098
  189SAPI   H6R21737   1.344   5.364   6.088 -1.4497  0.5651  2.1396
  189SAPI   C2721738   1.418   5.164   6.035  0.3679  0.2368 -0.2227
  189SAPI   H7R21739   1.379   5.165   5.931  2.2535 -2.0355 -1.0402
  189SAPI   H7S21740   1.402   5.055   6.051  3.5198 -0.3631 -0.6236
  189SAPI   C2821741   1.566   5.189   6.040  0.1274 -0.3572  0.3718
  189SAPI   H8R21742   1.608   5.163   6.138  1.7961 -1.0223 -0.4886
  189SAPI   C2921743   1.639   5.231   5.937 -0.1421  0.2687 -0.6188
  189SAPI   H9R21744   1.748   5.241   5.940 -0.1739  0.4676  1.3724
  189SAPI  C21021745   1.574   5.274   5.807 -0.4609  1.3479  0.3966
  189SAPI  H10R21746   1.636   5.364   5.785 -2.7723  3.1559  0.8938
  189SAPI  H10S21747   1.473   5.319   5.812 -0.5556  1.4156 -1.4965
  189SAPI  C21121748   1.586   5.170   5.699  0.2919 -0.6692 -0.5543
  189SAPI  H11R21749   1.619   5.073   5.737  1.4200  0.7069  2.2808
  189SAPI  C21221750   1.533   5.182   5.569  0.3882 -0.4987 -0.1705
  189SAPI  H12R21751   1.527   5.095   5.502 -0.8154 -0.3435 -0.2815
  189SAPI  C21321752   1.453   5.301   5.510 -0.1530 -0.7006 -0.0937
  189SAPI  H13R21753   1.384   5.347   5.584 -1.4691 -1.2615 -0.9448
  189SAPI  H13S21754   1.377   5.260   5.440 -1.5566 -0.1184  1.0294
  189SAPI  C21421755   1.551   5.402   5.454 -0.1781  0.5865  0.4292
  189SAPI  H14R21756   1.610   5.458   5.528  3.1855 -2.3554  0.2663
  189SAPI  C21521757   1.566   5.422   5.323  0.2348  0.1150  0.0158
  189SAPI  H15R21758   1.633   5.500   5.284  0.9366 -1.1000 -1.3141
  189SAPI  C21621759   1.490   5.353   5.213  0.2086  0.2069  0.0453
  189SAPI  H16R21760   1.386   5.332   5.248 -0.2045  0.6622 -0.8662
  189SAPI  H16S21761   1.524   5.253   5.180  1.0623  0.4244  0.2656
  189SAPI  C21721762   1.487   5.450   5.088  0.0754 -0.3109  0.5961
  189SAPI  H17R21763   1.442   5.548   5.114 -0.3439  0.2192 -1.8644
  189SAPI  H17S21764   1.418   5.408   5.011 -1.3487  1.5781  0.7827
  189SAPI  C21821765   1.624   5.457   5.026 -0.7314  0.5613  0.3867
  189SAPI  H18R21766   1.620   5.386   4.941  0.7700 -1.0642  1.6142
  189SAPI  H18S21767   1.714   5.438   5.088 -0.2213 -0.8069 -0.7402
  189SAPI  C21921768   1.644   5.590   4.945  0.8658 -0.1853 -0.1577
  189SAPI  H19R21769   1.635   5.679   5.010  2.7122  0.0693 -0.2042
  189SAPI  H19S21770   1.567   5.610   4.867  0.2273  0.0404  0.5174
  189SAPI  C22021771   1.767   5.618   4.863 -0.0923 -0.0286  1.0435
  189SAPI  H20R21772   1.755   5.565   4.766 -0.8137  0.2874  0.9560
  189SAPI  H20S21773   1.863   5.592   4.913  1.4447 -0.3449 -1.8564
  189SAPI  H20T21774   1.768   5.723   4.828 -0.8036 -0.3510  0.0049
  189SAPI   C3321775   1.951   4.993   6.208  0.4360  1.0306  0.5976
  189SAPI   H3X21776   1.997   5.083   6.254  2.9213  0.2374 -0.1735
  189SAPI   H3Y21777   1.854   5.029   6.169  0.8991 -1.2677 -3.2012
  189SAPI   C3421778   2.043   4.949   6.096  0.2354  0.1326 -0.1253
  189SAPI   H4X21779   1.985   4.882   6.028  2.5699 -0.5778 -1.5461
  189SAPI   H4Y21780   2.132   4.887   6.120 -0.9763 -1.2899  0.9340
  189SAPI   C3521781   2.078   5.063   6.003 -0.5820 -0.7648 -0.5849
  189SAPI   H5X21782   2.130   5.144   6.059 -1.1160 -2.0859  1.9970
  189SAPI   H5Y21783   1.980   5.105   5.973 -0.4611 -0.6190 -0.7694
  189SAPI   C3621784   2.158   5.015   5.885  0.0496  0.4640  0.3110
  189SAPI   H6X21785   2.102   4.928   5.845 -2.0084  0.7908  2.2938
  189SAPI   H6Y21786   2.258   4.977   5.915  1.5510  2.9051 -1.2797
  189SAPI   C3721787   2.183   5.106   5.772  0.0465 -0.6903 -0.0842
  189SAPI   H7X21788   2.250   5.048   5.707 -1.0234 -0.0001 -1.8738
  189SAPI   H7Y21789   2.229   5.200   5.810  0.1319 -2.0826  3.7030
  189SAPI   C3821790   2.061   5.143   5.683 -0.0631  0.0811 -0.9322
  189SAPI   H8X21791   1.993   5.214   5.735 -1.3504 -1.0982 -0.9601
  189SAPI   H8Y21792   2.005   5.048   5.670  0.5269 -0.3955 -0.0546
  189SAPI   C3921793   2.101   5.194   5.542 -0.2012  0.0329  0.4332
  189SAPI   H9X21794   2.182   5.128   5.504  0.1121 -0.1354  1.3587
  189SAPI   H9Y21795   2.152   5.293   5.542  0.1637 -0.1242 -1.1338
  189SAPI  C31021796   1.993   5.212   5.431 -0.2050  0.3166  0.7583
  189SAPI  H10X21797   1.915   5.281   5.471 -0.1881  2.1545 -2.0767
  189SAPI  H10Y21798   1.958   5.107   5.425 -1.3212  0.7637 -1.8043
  189SAPI  C31121799   2.056   5.255   5.297  0.7059 -0.1272 -1.1504
  189SAPI  H11X21800   2.122   5.169   5.271 -0.1815 -0.3952 -2.6239
  189SAPI  H11Y21801   2.109   5.351   5.310  1.6370 -0.6207 -1.1732
  189SAPI  C31221802   1.948   5.257   5.188 -0.2679  0.4294 -0.2600
  189SAPI  H12X21803   1.865   5.311   5.238  0.3242 -0.5793  1.9286
  189SAPI  H12Y21804   1.922   5.155   5.153 -0.6158  1.0053 -1.7738
  189SAPI  C31321805   1.982   5.347   5.063  0.0806 -0.7320 -0.4847
  189SAPI  H13X21806   1.989   5.448   5.108  1.2609 -0.9528 -0.1396
  189SAPI  H13Y21807   1.897   5.342   4.991 -0.4431 -3.6435  0.2107
  189SAPI  C31421808   2.122   5.323   5.011 -0.6251 -0.2651  0.7149
  189SAPI  H14X21809   2.116   5.239   4.939  1.1637 -0.9311  1.2900
  189SAPI  H14Y21810   2.196   5.285   5.084  0.7565 -0.3212 -0.6478
  189SAPI  C31521811   2.189   5.439   4.928  0.3163  0.3933 -0.4587
  189SAPI  H15X21812   2.293   5.404   4.912  0.2069 -0.4741  0.6113
  189SAPI  H15Y21813   2.187   5.537   4.980 -2.6122  1.6436 -2.6216
  189SAPI  C31621814   2.137   5.463   4.785 -0.0739  0.0879  0.0508
  189SAPI  H16X21815   2.037   5.512   4.787 -0.1954  0.2451 -3.3504
  189SAPI  H16Y21816   2.123   5.365   4.735  1.5796 -0.3947  0.4966
  189SAPI  C31721817   2.234   5.553   4.702 -0.2924 -0.6189  0.0394
  189SAPI  H17X21818   2.232   5.536   4.592  0.8385  0.3859 -0.1620
  189SAPI  H17Y21819   2.337   5.525   4.732  0.5562  0.6390 -1.5325
  189SAPI  C31821820   2.228   5.706   4.725  0.5033  0.6489  0.0416
  189SAPI  H18X21821   2.234   5.720   4.836 -0.8000  1.4669  0.0269
  189SAPI  H18Y21822   2.125   5.740   4.703 -0.4453 -2.0543 -0.0248
  189SAPI  H18Z21823   2.311   5.765   4.681 -0.4740  1.3426 -0.9102
  190SAPI   C1221824   1.970   2.467   7.468 -0.0531  0.3319  0.4482
  190SAPI    H221825   2.022   2.534   7.395 -0.4102 -0.8499 -0.9400
  190SAPI    O221826   1.982   2.328   7.440  0.0323 -0.0558  0.0818
  190SAPI   HO221827   2.062   2.311   7.390  1.6429 -2.6048  3.1050
  190SAPI   C1321828   2.026   2.495   7.605  0.5042  1.0035 -0.0164
  190SAPI    H321829   1.993   2.598   7.633 -1.0057  0.6605 -0.4382
  190SAPI    O321830   2.163   2.494   7.609 -0.8162  0.0923 -0.6413
  190SAPI   HO321831   2.183   2.583   7.638  0.5410 -1.1933  2.9726
  190SAPI   C1421832   1.962   2.408   7.711  0.0415 -0.8751 -0.0820
  190SAPI    H421833   1.995   2.304   7.689 -2.0545 -1.8414  1.1254
  190SAPI    O421834   2.009   2.427   7.848 -0.3910 -0.2305 -0.0281
  190SAPI   HO421835   2.104   2.441   7.857 -0.4366 -0.0558  0.2072
  190SAPI   C1521836   1.808   2.389   7.703  0.1648 -0.5424  0.1801
  190SAPI    H521837   1.767   2.459   7.779 -0.4902 -0.2065 -0.4710
  190SAPI    O521838   1.762   2.266   7.755 -0.0738  0.2744  0.3743
  190SAPI   HO521839   1.751   2.287   7.848 -2.3088  0.0048  0.2371
  190SAPI   C1621840   1.731   2.436   7.574  0.4385 -0.9601 -0.1794
  190SAPI    H621841   1.702   2.335   7.539 -1.0745 -0.5205 -0.2899
  190SAPI    O621842   1.601   2.499   7.604 -0.1947 -0.2830  0.4661
  190SAPI   HO621843   1.539   2.443   7.557  1.0012 -1.5710  0.3846
  190SAPI   C1121844   1.813   2.506   7.459 -0.8068  0.1790  0.0453
  190SAPI    H121845   1.799   2.613   7.485  1.2240  0.9662 -1.7729
  190SAPI     P21846   1.745   2.591   7.219  0.5222  0.0259  0.3803
  190SAPI   O1321847   1.692   2.721   7.274  0.0487  0.6756 -0.2830
  190SAPI   O1421848   1.661   2.532   7.113  0.1875  0.1130 -0.1696
  190SAPI   O1221849   1.752   2.481   7.336 -0.1722  0.2767  0.5666
  190SAPI   O1121850   1.888   2.615   7.167 -0.5863 -0.3232  0.8091
  190SAPI    C121851   1.974   2.514   7.119  0.2342 -0.3614  0.7077
  190SAPI    HA21852   2.075   2.539   7.157 -0.4685  3.8905  0.1897
  190SAPI    HB21853   1.933   2.414   7.146  1.2390 -0.5130  1.7140
  190SAPI    C221854   1.993   2.513   6.961  0.3561 -0.1101  0.8474
  190SAPI    HS21855   2.057   2.604   6.956  1.5152 -0.7813  2.7145
  190SAPI   O2121856   1.866   2.532   6.895 -0.0542 -1.1430  0.2257
  190SAPI   C2121857   1.857   2.626   6.802 -0.3290 -0.0724  0.0132
  190SAPI   O2221858   1.939   2.711   6.779 -0.6519 -0.1186 -0.7076
  190SAPI   C2221859   1.733   2.618   6.723  0.7555 -1.0337  0.2395
  190SAPI   H2R21860   1.644   2.618   6.789  0.4039 -1.7199 -0.2220
  190SAPI   H2S21861   1.726   2.707   6.657  2.0298 -1.9248 -1.1903
  190SAPI    C321862   2.063   2.387   6.913  0.0164  0.1023  0.3564
  190SAPI    HX21863   1.977   2.322   6.888 -0.5383  1.1481 -0.5210
  190SAPI    HY21864   2.128   2.348   6.995 -1.3641  0.7860  1.8311
  190SAPI   O3121865   2.134   2.400   6.787  0.7582 -0.6028 -0.2569
  190SAPI   C3121866   2.249   2.456   6.789 -0.4124  0.5470 -0.7422
  190SAPI   O3221867   2.305   2.502   6.890 -0.4380  0.1542  1.1268
  190SAPI   C3221868   2.307   2.465   6.652  0.4268  0.2099  0.5024
  190SAPI   H2X21869   2.274   2.377   6.594 -0.5444  1.4656 -0.9075
  190SAPI   H2Y21870   2.416   2.487   6.649  0.3091  0.6596 -1.0861
  190SAPI   C2321871   1.707   2.496   6.629 -0.0183  0.1112 -0.0780
  190SAPI   H3R21872   1.597   2.494   6.613 -0.0261 -0.7378  0.0545
  190SAPI   H3S21873   1.744   2.408   6.686 -2.7904 -0.3305  1.1774
  190SAPI   C2421874   1.774   2.525   6.492  0.2019  0.1309 -0.6406
  190SAPI   H4R21875   1.883   2.522   6.514  0.1705  0.4705 -0.4343
  190SAPI   H4S21876   1.753   2.626   6.451  1.9819  0.6576 -0.3237
  190SAPI   C2521877   1.744   2.412   6.397  0.2315  0.1260 -0.0898
  190SAPI   H5R21878   1.717   2.317   6.445 -2.5918 -0.3258 -2.2841
  190SAPI   C2621879   1.774   2.409   6.265 -0.0484 -0.1510 -0.1882
  190SAPI   H6R21880   1.761   2.318   6.206  1.9548  0.4379 -1.6486
  190SAPI   C2721881   1.837   2.523   6.191 -0.0050 -0.6532 -0.0761
  190SAPI   H7R21882   1.826   2.622   6.240 -1.1247 -1.4136  1.2471
  190SAPI   H7S21883   1.773   2.521   6.101 -1.0723  0.3469  0.6378
  190SAPI   C2821884   1.982   2.506   6.160 -0.8902  0.0221  0.5788
  190SAPI   H8R21885   2.047   2.466   6.240 -0.9487  0.4144  0.8262
  190SAPI   C2921886   2.048   2.535   6.042  0.4769  0.2682 -0.2165
  190SAPI   H9R21887   2.152   2.498   6.032  0.1093 -1.1279  0.7542
  190SAPI  C21021888   1.989   2.603   5.923  0.0277 -0.2410 -0.2728
  190SAPI  H10R21889   1.890   2.651   5.942  0.0401  0.4392 -1.7686
  190SAPI  H10S21890   1.980   2.528   5.842  0.7973 -0.1111 -0.4796
  190SAPI  C21121891   2.064   2.726   5.880  0.2646  0.2228 -0.4903
  190SAPI  H11R21892   2.123   2.776   5.958 -0.0808  0.3470 -0.3056
  190SAPI  C21221893   2.079   2.772   5.755 -0.8370  0.0144  0.4726
  190SAPI  H12R21894   2.139   2.863   5.741 -0.1742 -0.5900 -0.7095
  190SAPI  C21321895   2.008   2.714   5.636  0.1644  0.4707 -0.0612
  190SAPI  H13R21896   1.936   2.790   5.598  0.3579  0.5790 -0.2121
  190SAPI  H13S21897   1.964   2.613   5.651 -0.1023  0.3778 -1.3599
  190SAPI  C21421898   2.127   2.698   5.548  0.0621 -0.3023  0.4088
  190SAPI  H14R21899   2.214   2.642   5.584  0.2042 -0.3868 -0.0552
  190SAPI  C21521900   2.125   2.726   5.414 -0.6154 -0.4318 -1.2668
  190SAPI  H15R21901   2.216   2.703   5.357 -0.4771 -0.2465 -1.1230
  190SAPI  C21621902   2.006   2.777   5.344 -0.0447  0.2113  0.5097
  190SAPI  H16R21903   2.044   2.837   5.258  0.8782 -1.2837 -0.1777
  190SAPI  H16S21904   1.941   2.842   5.406 -2.9984 -0.4242 -1.7088
  190SAPI  C21721905   1.917   2.673   5.284  0.1415 -0.1860 -0.5267
  190SAPI  H17R21906   1.894   2.588   5.352  1.1028 -1.6324 -1.9446
  190SAPI  H17S21907   1.954   2.634   5.188 -0.2837  2.4608 -1.8739
  190SAPI  C21821908   1.784   2.745   5.252  0.2494  0.5770  0.0023
  190SAPI  H18R21909   1.806   2.853   5.237 -0.8340  0.9374  0.8615
  190SAPI  H18S21910   1.713   2.733   5.337  0.6048  0.6394  0.3135
  190SAPI  C21921911   1.711   2.681   5.127 -0.2490 -0.8409 -0.2899
  190SAPI  H19R21912   1.773   2.696   5.036 -0.0991  2.0494  0.1771
  190SAPI  H19S21913   1.615   2.736   5.120 -1.7212 -3.0683  1.1237
  190SAPI  C22021914   1.687   2.529   5.136 -0.4909  0.8952  0.7879
  190SAPI  H20R21915   1.649   2.484   5.042 -0.2534 -2.2298  2.0451
  190SAPI  H20S21916   1.607   2.512   5.211  0.6480  1.3904  2.1639
  190SAPI  H20T21917   1.782   2.476   5.159 -0.5328  0.3008 -0.3505
  190SAPI   C3321918   2.252   2.578   6.563  0.1194  0.0925 -0.1868
  190SAPI   H3X21919   2.290   2.671   6.609 -0.8961  0.0016  0.8966
  190SAPI   H3Y21920   2.141   2.582   6.569 -0.1871 -2.6713 -2.1976
  190SAPI   C3421921   2.305   2.570   6.417  0.4836 -0.5502 -0.6950
  190SAPI   H4X21922   2.224   2.617   6.357  0.8923  0.4923 -0.4583
  190SAPI   H4Y21923   2.342   2.470   6.386 -0.5382 -0.8943 -0.8065
  190SAPI   C3521924   2.438   2.654   6.402  0.1411 -0.2943 -0.5489
  190SAPI   H5X21925   2.507   2.638   6.487 -0.8603  0.0815  0.3509
  190SAPI   H5Y21926   2.417   2.762   6.416  0.9434 -0.3481  1.2861
  190SAPI   C3621927   2.498   2.636   6.259 -0.7484 -0.0843 -0.3299
  190SAPI   H6X21928   2.502   2.528   6.230 -1.5895 -0.5051  1.0246
  190SAPI   H6Y21929   2.605   2.661   6.276 -0.6830 -0.9292  0.5805
  190SAPI   C3721930   2.431   2.708   6.148  0.0484 -0.0633  0.5099
  190SAPI   H7X21931   2.420   2.815   6.178 -1.4636  0.6334 -2.1341
  190SAPI   H7Y21932   2.333   2.667   6.115  0.2556 -0.3018  0.1880
  190SAPI   C3821933   2.516   2.706   6.019  0.2023 -0.2209  0.8108
  190SAPI   H8X21934   2.545   2.599   6.019 -0.4401 -0.4039  1.0980
  190SAPI   H8Y21935   2.602   2.775   6.027 -0.2569  0.5192 -0.2659
  190SAPI   C3921936   2.444   2.742   5.887 -0.0580 -0.2207  0.4581
  190SAPI   H9X21937   2.339   2.705   5.881 -0.6916  1.5895 -0.6437
  190SAPI   H9Y21938   2.483   2.685   5.799 -1.0142 -0.9611  0.4955
  190SAPI  C31021939   2.450   2.892   5.844  0.0325  0.7627 -0.3054
  190SAPI  H10X21940   2.554   2.927   5.861  0.4071 -1.2575  2.1496
  190SAPI  H10Y21941   2.389   2.953   5.913  1.6560  0.4255  1.4939
  190SAPI  C31121942   2.424   2.918   5.697  0.3769 -0.7788  0.0689
  190SAPI  H11X21943   2.473   3.015   5.671 -0.7436 -0.7378 -2.1189
  190SAPI  H11Y21944   2.315   2.923   5.675  0.2884 -0.3457  0.5804
  190SAPI  C31221945   2.485   2.815   5.595 -0.0318 -0.0246 -0.7263
  190SAPI  H12X21946   2.430   2.719   5.608 -0.8842  0.4475 -0.7631
  190SAPI  H12Y21947   2.589   2.803   5.631  0.7312 -0.7431 -2.9760
  190SAPI  C31321948   2.473   2.855   5.448 -0.2536 -0.0918  0.5726
  190SAPI  H13X21949   2.540   2.941   5.429  0.3254 -0.4816  0.8016
  190SAPI  H13Y21950   2.364   2.873   5.436 -0.1774 -1.1682 -2.9020
  190SAPI  C31421951   2.511   2.748   5.346  0.8547  0.1456 -0.2748
  190SAPI  H14X21952   2.467   2.652   5.378 -0.6979  0.1232 -2.3155
  190SAPI  H14Y21953   2.621   2.753   5.330  0.6396  2.8973 -1.6644
  190SAPI  C31521954   2.448   2.768   5.210  0.4184 -0.0386  0.1792
  190SAPI  H15X21955   2.349   2.817   5.218  0.0680 -0.4837 -1.2761
  190SAPI  H15Y21956   2.418   2.667   5.175  0.4344  0.6053 -1.7904
  190SAPI  C31621957   2.548   2.817   5.110 -0.1079 -0.2825 -0.5065
  190SAPI  H16X21958   2.654   2.784   5.120 -0.3260 -0.8953 -0.1150
  190SAPI  H16Y21959   2.547   2.927   5.123 -0.1762 -0.6186  4.0059
  190SAPI  C31721960   2.515   2.778   4.971  0.5079 -0.1343 -0.1569
  190SAPI  H17X21961   2.407   2.802   4.961  0.6239 -0.1629 -1.8774
  190SAPI  H17Y21962   2.543   2.671   4.963  0.3984 -0.2920  1.2920
  190SAPI  C31821963   2.585   2.869   4.867 -0.1757  0.5241  0.8097
  190SAPI  H18X21964   2.696   2.860   4.868 -0.3055 -1.6646  0.2456
  190SAPI  H18Y21965   2.564   2.977   4.879  0.1390  0.7109 -0.2473
  190SAPI  H18Z21966   2.560   2.849   4.760 -0.3702 -1.6602  1.2212
  191SAPI   C1221967   6.070   4.882   2.506 -0.6109  0.3233 -0.1232
  191SAPI    H221968   6.091   4.832   2.410 -0.7836 -1.4650  0.7237
  191SAPI    O221969   6.182   4.840   2.585 -0.1011 -0.2722 -0.0247
  191SAPI   HO221970   6.256   4.820   2.526 -0.6007 -3.6483  0.3207
  191SAPI   C1321971   6.062   5.032   2.469 -0.8472  0.3805 -0.6342
  191SAPI    H321972   5.972   5.048   2.405 -0.8407  2.3415 -0.2207
  191SAPI    O321973   6.174   5.080   2.387  0.8366  0.1219  0.2935
  191SAPI   HO321974   6.164   5.027   2.307 -1.9666  1.1227 -0.1385
  191SAPI   C1421975   6.059   5.110   2.597 -0.1841  0.0239 -0.1342
  191SAPI    H421976   6.159   5.111   2.645 -0.3952  1.6415  0.3245
  191SAPI    O421977   6.039   5.243   2.568  0.2467 -0.0965  0.0322
  191SAPI   HO421978   6.070   5.296   2.642 -1.1563  1.4982 -0.4722
  191SAPI   C1521979   5.955   5.061   2.698  0.0087  0.2169 -0.1389
  191SAPI    H521980   5.855   5.103   2.677  0.3913 -0.1899 -3.1864
  191SAPI    O521981   5.990   5.113   2.832  0.6503 -0.6322  0.7848
  191SAPI   HO521982   6.069   5.071   2.868  0.7735 -1.4319 -0.3631
  191SAPI   C1621983   5.931   4.910   2.702 -0.4143 -0.4662 -0.3602
  191SAPI    H621984   6.001   4.862   2.774  0.5054  2.1812  0.6167
  191SAPI    O621985   5.803   4.885   2.752  0.0798 -0.3827  0.2289
  191SAPI   HO621986   5.795   4.790   2.755 -0.5830 -0.3193  0.4152
  191SAPI   C1121987   5.940   4.833   2.572 -0.8044 -0.6485 -0.3232
  191SAPI    H121988   5.857   4.865   2.505  1.4154  0.3046 -2.7784
  191SAPI     P21989   5.815   4.595   2.601  0.0682  0.3450  0.1092
  191SAPI   O1321990   5.846   4.456   2.575 -0.9581  0.0047 -0.3144
  191SAPI   O1421991   5.701   4.656   2.529 -0.7475 -0.1886  0.0581
  191SAPI   O1221992   5.949   4.690   2.574 -0.1833  0.4559  0.5388
  191SAPI   O1121993   5.789   4.610   2.757  0.0916 -0.0356 -0.2764
  191SAPI    C121994   5.867   4.518   2.836  0.1457 -0.3229  0.0481
  191SAPI    HA21995   5.832   4.413   2.825 -0.9876  0.0544 -0.0851
  191SAPI    HB21996   5.974   4.520   2.808  0.0179 -2.6822 -0.8150
  191SAPI    C221997   5.863   4.548   2.992 -0.3744  0.6446 -0.2196
  191SAPI    HS21998   5.951   4.505   3.045 -2.1079 -0.7377  1.7029
  191SAPI   O2121999   5.748   4.484   3.053 -0.2884 -0.2628  0.5126
  191SAPI   C2122000   5.760   4.359   3.073  0.2415  0.6087  0.0241
  191SAPI   O2222001   5.850   4.287   3.036 -0.0959 -0.1383  0.4094
  191SAPI   C2222002   5.648   4.304   3.168  0.1385  0.0709  0.1865
  191SAPI   H2R22003   5.564   4.295   3.095  0.1436 -1.2154  0.3286
  191SAPI   H2S22004   5.677   4.201   3.194 -0.1657  0.3365  1.6485
  191SAPI    C322005   5.872   4.701   3.025 -0.3564  0.1951 -0.2016
  191SAPI    HX22006   5.768   4.737   3.016 -0.2153  0.8778  0.7524
  191SAPI    HY22007   5.939   4.742   2.946  1.2009 -2.0450 -0.1602
  191SAPI   O3122008   5.934   4.725   3.153 -0.7403 -0.1657 -0.7850
  191SAPI   C3122009   5.917   4.847   3.196 -0.3378  0.2965  0.1137
  191SAPI   O3222010   5.869   4.940   3.129 -0.9845 -0.0291 -0.4578
  191SAPI   C3222011   5.972   4.849   3.340 -0.0266  0.3536  0.4397
  191SAPI   H2X22012   6.025   4.945   3.354 -0.1838  0.5236 -0.0999
  191SAPI   H2Y22013   6.049   4.771   3.356  0.2369  0.5921  0.3333
  191SAPI   C2322014   5.624   4.400   3.287  0.1613  0.0848  0.3729
  191SAPI   H3R22015   5.587   4.497   3.246 -1.5073 -0.6020  0.1911
  191SAPI   H3S22016   5.726   4.416   3.330  0.0435 -1.4102  1.2631
  191SAPI   C2422017   5.523   4.342   3.394  0.0943 -0.3240 -0.0004
  191SAPI   H4R22018   5.426   4.309   3.350  1.1926 -3.9511 -0.0271
  191SAPI   H4S22019   5.505   4.424   3.467  0.7484 -1.5164  1.5423
  191SAPI   C2522020   5.595   4.230   3.466 -0.1168  0.2068 -0.7439
  191SAPI   H5R22021   5.603   4.134   3.414  3.2334  0.4225 -0.8760
  191SAPI   C2622022   5.652   4.244   3.590 -0.1575  0.2197 -0.7316
  191SAPI   H6R22023   5.707   4.156   3.627 -1.5171  0.0902  1.1352
  191SAPI   C2722024   5.649   4.364   3.681 -0.3330 -0.2080  0.3383
  191SAPI   H7R22025   5.555   4.359   3.740 -2.6304  0.1374 -2.9855
  191SAPI   H7S22026   5.631   4.461   3.630 -0.9259 -0.7415 -0.4928
  191SAPI   C2822027   5.777   4.370   3.777  0.2658  0.1641  0.2949
  191SAPI   H8R22028   5.873   4.385   3.724 -0.7160  0.6624 -1.4087
  191SAPI   C2922029   5.790   4.338   3.904  0.0810 -0.1637  0.1034
  191SAPI   H9R22030   5.892   4.350   3.942 -0.5231  2.6279  1.0920
  191SAPI  C21022031   5.683   4.287   3.997  0.0142 -0.3916 -0.8215
  191SAPI  H10R22032   5.586   4.270   3.947  0.3021 -3.3433 -0.5393
  191SAPI  H10S22033   5.657   4.356   4.080  0.1483 -0.2246 -0.9176
  191SAPI  C21122034   5.729   4.159   4.066 -0.7343 -0.1290  0.0514
  191SAPI  H11R22035   5.752   4.083   3.990 -2.3785 -0.6327  0.0204
  191SAPI  C21222036   5.726   4.112   4.193  0.1953  0.3627 -0.0725
  191SAPI  H12R22037   5.762   4.011   4.215  1.2052  0.4281 -1.3304
  191SAPI  C21322038   5.700   4.203   4.314 -0.2689 -0.0788 -0.1536
  191SAPI  H13R22039   5.708   4.312   4.293 -2.4006  0.4716  1.4530
  191SAPI  H13S22040   5.786   4.182   4.380 -0.2045  1.5093  0.3093
  191SAPI  C21422041   5.574   4.161   4.379  0.8578 -0.4224 -0.3754
  191SAPI  H14R22042   5.486   4.209   4.335  1.8522 -0.4908 -2.5691
  191SAPI  C21522043   5.553   4.068   4.475 -0.0272 -0.0226  0.2728
  191SAPI  H15R22044   5.448   4.052   4.502  0.2137  0.9504  1.9923
  191SAPI  C21622045   5.657   3.982   4.540 -0.3988  0.2782 -0.0267
  191SAPI  H16R22046   5.752   4.038   4.556 -0.0890  0.1480 -1.3188
  191SAPI  H16S22047   5.681   3.889   4.483  2.3861 -0.2700  1.8243
  191SAPI  C21722048   5.600   3.935   4.681  0.2674 -0.2410  0.6574
  191SAPI  H17R22049   5.532   3.849   4.660  2.0602 -1.4745 -0.2940
  191SAPI  H17S22050   5.538   4.016   4.726  3.0344  0.7648  2.9656
  191SAPI  C21822051   5.697   3.879   4.784 -0.4742  0.4974  0.4666
  191SAPI  H18R22052   5.632   3.829   4.859 -1.0783 -0.5318 -0.7038
  191SAPI  H18S22053   5.741   3.964   4.840 -1.5059  0.7088  0.9732
  191SAPI  C21922054   5.804   3.782   4.744  0.2075 -0.6848 -0.3477
  191SAPI  H19R22055   5.763   3.713   4.667  1.3269  0.2916 -1.8689
  191SAPI  H19S22056   5.820   3.720   4.835 -0.2993 -0.8608 -0.3757
  191SAPI  C22022057   5.932   3.847   4.683 -0.0772 -0.2052 -0.5058
  191SAPI  H20R22058   5.981   3.919   4.751  0.8029 -2.4301  1.3566
  191SAPI  H20S22059   5.908   3.903   4.590 -1.5694  1.0883  0.6083
  191SAPI  H20T22060   6.014   3.772   4.671  1.2051  1.0205  0.3099
  191SAPI   C3322061   5.849   4.831   3.439 -0.2205  0.0751 -0.2062
  191SAPI   H3X22062   5.780   4.760   3.390  0.9944 -0.9454 -0.4762
  191SAPI   H3Y22063   5.805   4.933   3.446  0.0255  0.1117  1.2465
  191SAPI   C3422064   5.872   4.795   3.585 -0.3826  0.7467 -0.4146
  191SAPI   H4X22065   5.955   4.855   3.628 -2.4143  3.1731  0.3663
  191SAPI   H4Y22066   5.901   4.688   3.588 -0.9924  0.4450 -3.0294
  191SAPI   C3522067   5.744   4.799   3.676 -0.3166 -1.3182 -0.3051
  191SAPI   H5X22068   5.670   4.726   3.637 -0.2551 -1.7319  0.3324
  191SAPI   H5Y22069   5.705   4.903   3.682 -0.7128 -1.4013 -1.3391
  191SAPI   C3622070   5.786   4.753   3.816  0.6392 -0.2348  0.1371
  191SAPI   H6X22071   5.858   4.823   3.863 -0.4023 -0.0115  1.4514
  191SAPI   H6Y22072   5.834   4.654   3.801  1.2475  0.0999 -0.1785
  191SAPI   C3722073   5.656   4.743   3.910 -0.6588 -0.1371  0.8938
  191SAPI   H7X22074   5.581   4.677   3.861 -0.4646 -0.0503  0.4774
  191SAPI   H7Y22075   5.618   4.847   3.909 -1.1035 -0.2904  1.4627
  191SAPI   C3822076   5.699   4.701   4.047  0.5101 -0.8817 -0.1232
  191SAPI   H8X22077   5.773   4.774   4.087  1.5627 -1.5720 -0.7652
  191SAPI   H8Y22078   5.731   4.595   4.039  1.4701 -0.6324  0.2526
  191SAPI   C3922079   5.586   4.700   4.152  0.3363  0.5012 -1.0092
  191SAPI   H9X22080   5.496   4.641   4.121  0.6515 -0.7652  0.3495
  191SAPI   H9Y22081   5.551   4.802   4.179  1.9773  0.7600  0.2564
  191SAPI  C31022082   5.627   4.641   4.286 -0.0791 -0.8385  0.2910
  191SAPI  H10X22083   5.705   4.712   4.321 -1.0971  0.1941  0.5364
  191SAPI  H10Y22084   5.672   4.539   4.280  0.2659 -0.6889  0.3222
  191SAPI  C31122085   5.509   4.640   4.397 -0.8413 -0.1662  0.3788
  191SAPI  H11X22086   5.426   4.582   4.351 -1.6981  1.6129 -0.4422
  191SAPI  H11Y22087   5.471   4.742   4.422 -0.0616  0.7135 -1.7288
  191SAPI  C31222088   5.566   4.580   4.521  0.0191  0.1286  0.1535
  191SAPI  H12X22089   5.667   4.624   4.539 -0.5772  1.2881  0.7392
  191SAPI  H12Y22090   5.578   4.475   4.485  1.3013  0.9271 -1.9319
  191SAPI  C31322091   5.484   4.587   4.655  0.0563 -0.4346  0.1821
  191SAPI  H13X22092   5.472   4.696   4.673  0.5469 -0.2567 -0.5079
  191SAPI  H13Y22093   5.535   4.539   4.740 -1.1567 -0.0465  1.1678
  191SAPI  C31422094   5.347   4.515   4.648 -0.1903  0.0805 -0.0954
  191SAPI  H14X22095   5.314   4.539   4.545 -0.9484 -0.0536  0.1144
  191SAPI  H14Y22096   5.274   4.555   4.722  0.2250  0.0485  0.3392
  191SAPI  C31522097   5.353   4.363   4.676  0.6822 -0.1434  0.1077
  191SAPI  H15X22098   5.382   4.342   4.781  2.9789 -1.8274 -0.7900
  191SAPI  H15Y22099   5.445   4.327   4.626  1.3728 -0.8761  1.8269
  191SAPI  C31622100   5.239   4.281   4.616  0.1249  0.5555 -0.3947
  191SAPI  H16X22101   5.264   4.240   4.516  2.7873 -0.3782  0.5436
  191SAPI  H16Y22102   5.154   4.351   4.602  0.2590  0.5957 -1.0115
  191SAPI  C31722103   5.196   4.170   4.714 -0.1774  0.5377 -0.2223
  191SAPI  H17X22104   5.206   4.205   4.819 -2.8443  0.2572  0.1847
  191SAPI  H17Y22105   5.254   4.076   4.696  0.0481  0.5891  0.2014
  191SAPI  C31822106   5.047   4.139   4.709  0.4002 -0.5024 -0.6421
  191SAPI  H18X22107   5.005   4.089   4.619  0.4749  1.4770 -1.8433
  191SAPI  H18Y22108   4.986   4.232   4.720 -1.3456 -1.6727  0.0012
  191SAPI  H18Z22109   5.021   4.068   4.790  0.5001  2.4118  2.1501
  192SAPI   C1222110   1.837   1.570   2.498  0.4268 -0.4919 -0.0851
  192SAPI    H222111   1.832   1.541   2.391 -0.7785  1.4164 -0.6025
  192SAPI    O222112   1.862   1.715   2.493 -0.4515  0.2041 -0.1096
  192SAPI   HO222113   1.947   1.725   2.537 -0.9774 -0.8116  1.2285
  192SAPI   C1322114   1.697   1.551   2.552 -0.0171 -0.4719  0.5741
  192SAPI    H322115   1.672   1.446   2.525 -0.7245  0.5268 -3.3359
  192SAPI    O322116   1.594   1.620   2.477 -0.2999 -0.1854 -0.0044
  192SAPI   HO322117   1.582   1.709   2.509 -1.4518 -0.0643 -0.7205
  192SAPI   C1422118   1.693   1.583   2.700 -0.1216 -0.2392 -0.0097
  192SAPI    H422119   1.722   1.690   2.710  1.5180 -0.4240 -2.0976
  192SAPI    O422120   1.565   1.567   2.754  0.0745  0.2330  0.0383
  192SAPI   HO422121   1.493   1.574   2.691  0.1704 -2.2026 -0.4420
  192SAPI   C1522122   1.801   1.504   2.784  0.2455 -0.2810  1.1283
  192SAPI    H522123   1.775   1.397   2.778  0.3643 -0.2961  0.8510
  192SAPI    O522124   1.791   1.557   2.918 -0.2050  0.1343 -0.7309
  192SAPI   HO522125   1.747   1.488   2.968 -0.1875  0.7104  0.0891
  192SAPI   C1622126   1.937   1.519   2.718  0.4012  0.0907 -0.1501
  192SAPI    H622127   1.971   1.623   2.736  0.6061  0.0221 -0.1356
  192SAPI    O622128   2.031   1.430   2.779 -0.0094  0.6129  0.2314
  192SAPI   HO622129   2.118   1.449   2.742  0.9403 -2.4582  0.5757
  192SAPI   C1122130   1.937   1.486   2.570  0.4399  0.0191  1.0124
  192SAPI    H122131   1.905   1.380   2.559 -2.6958  1.0032 -0.7650
  192SAPI     P22132   2.187   1.594   2.521  0.6480  0.0794 -0.0662
  192SAPI   O1322133   2.129   1.725   2.546  0.0801 -0.5123 -0.4218
  192SAPI   O1422134   2.282   1.577   2.407  0.7122  0.2047  0.3985
  192SAPI   O1222135   2.063   1.486   2.502  0.7445 -0.7668 -0.1062
  192SAPI   O1122136   2.257   1.539   2.658  0.0540 -0.5039  0.3251
  192SAPI    C122137   2.322   1.417   2.671  0.1330 -0.0898 -0.5923
  192SAPI    HA22138   2.244   1.338   2.669 -0.0407  0.0326  0.7921
  192SAPI    HB22139   2.385   1.405   2.580 -1.5058 -0.7959 -1.6868
  192SAPI    C222140   2.386   1.399   2.814 -0.0877  0.1142  0.5292
  192SAPI    HS22141   2.306   1.430   2.885  0.3769 -2.3697  2.2825
  192SAPI   O2122142   2.505   1.480   2.826  0.3539  0.2303  0.6930
  192SAPI   C2122143   2.536   1.515   2.944  0.5226  0.1728  0.0890
  192SAPI   O2222144   2.473   1.499   3.051 -0.0446  0.7997  0.2469
  192SAPI   C2222145   2.664   1.599   2.941 -0.2949 -0.3051 -0.9011
  192SAPI   H2R22146   2.707   1.582   3.042 -3.8018 -5.1560  0.1400
  192SAPI   H2S22147   2.736   1.556   2.868 -0.0313  0.3325 -1.0229
  192SAPI    C322148   2.411   1.249   2.846 -0.5096  0.3495  0.5594
  192SAPI    HX22149   2.483   1.218   2.767  0.0603 -1.7757  1.8492
  192SAPI    HY22150   2.323   1.189   2.815 -2.0872  1.9576  1.7021
  192SAPI   O3122151   2.455   1.230   2.975 -0.5646 -0.7680  0.3002
  192SAPI   C3122152   2.372   1.233   3.069  0.0049 -0.6463 -0.7855
  192SAPI   O3222153   2.253   1.258   3.074 -0.3939  0.3936  0.2690
  192SAPI   C3222154   2.438   1.178   3.202  0.4111  0.6140  0.2555
  192SAPI   H2X22155   2.543   1.145   3.189  0.1123  0.3797 -1.9246
  192SAPI   H2Y22156   2.385   1.082   3.222 -2.9634  2.5132  1.1701
  192SAPI   C2322157   2.631   1.746   2.914 -0.0352  0.1029  0.2820
  192SAPI   H3R22158   2.541   1.777   2.971  0.2425 -0.5598  1.0859
  192SAPI   H3S22159   2.618   1.764   2.805  0.1870  0.8613  0.3688
  192SAPI   C2422160   2.745   1.844   2.941  0.2883 -0.5153  0.7352
  192SAPI   H4R22161   2.728   1.933   2.877 -3.1089 -0.8861  0.9321
  192SAPI   H4S22162   2.836   1.800   2.894 -0.1744  0.8761 -1.6147
  192SAPI   C2522163   2.769   1.878   3.086  0.3816 -0.4015 -0.0855
  192SAPI   H5R22164   2.812   1.796   3.146 -1.1937 -0.3628  1.1803
  192SAPI   C2622165   2.736   1.989   3.151 -0.0231 -0.2763 -0.1305
  192SAPI   H6R22166   2.738   1.992   3.261 -0.3385  0.0558 -0.1292
  192SAPI   C2722167   2.646   2.099   3.089  0.3481 -0.3546 -0.4728
  192SAPI   H7R22168   2.571   2.128   3.166  0.9110 -0.7132  0.2268
  192SAPI   H7S22169   2.587   2.055   3.006  0.4867 -0.2500 -0.6266
  192SAPI   C2822170   2.715   2.218   3.027  0.1422 -0.9109 -0.3445
  192SAPI   H8R22171   2.816   2.196   2.989  1.1655 -0.4082  1.9689
  192SAPI   C2922172   2.674   2.348   3.030 -0.0320 -0.1459  0.3148
  192SAPI   H9R22173   2.738   2.427   2.986  1.6929 -0.9620  1.2573
  192SAPI  C21022174   2.547   2.393   3.096  0.2650 -0.6044  0.5864
  192SAPI  H10R22175   2.521   2.337   3.189  1.0090  1.6276  2.2144
  192SAPI  H10S22176   2.463   2.389   3.022 -1.7864 -0.1043  2.7607
  192SAPI  C21122177   2.539   2.532   3.141 -0.8576 -0.3708  0.3200
  192SAPI  H11R22178   2.502   2.594   3.058 -0.3542 -0.3223  0.1257
  192SAPI  C21222179   2.566   2.587   3.263 -0.1151  0.4060 -0.6038
  192SAPI  H12R22180   2.565   2.696   3.277 -0.1177  0.5103 -1.3809
  192SAPI  C21322181   2.617   2.504   3.380 -0.1951  0.2010  0.7356
  192SAPI  H13R22182   2.575   2.402   3.390  2.2517 -0.7775  2.1601
  192SAPI  H13S22183   2.576   2.544   3.475  1.1917  2.6681  0.3756
  192SAPI  C21422184   2.770   2.496   3.383 -0.1412 -0.0981 -0.4094
  192SAPI  H14R22185   2.822   2.478   3.288  0.7844  1.7794 -0.2993
  192SAPI  C21522186   2.847   2.524   3.493 -0.6003  0.6693  0.4623
  192SAPI  H15R22187   2.951   2.495   3.470 -1.3794 -1.2568 -0.8609
  192SAPI  C21622188   2.800   2.554   3.637  0.0037 -0.2097 -0.2012
  192SAPI  H16R22189   2.691   2.537   3.651 -0.4499  1.2622 -1.6682
  192SAPI  H16S22190   2.809   2.664   3.650 -0.4819 -0.2308  0.3634
  192SAPI  C21722191   2.871   2.467   3.740 -0.2948 -0.4185  0.0593
  192SAPI  H17R22192   2.851   2.363   3.708 -3.0518 -0.5024  1.7358
  192SAPI  H17S22193   2.809   2.474   3.832  0.3069 -0.6865  0.4914
  192SAPI  C21822194   3.019   2.499   3.774 -0.3950 -0.7552 -0.2068
  192SAPI  H18R22195   3.021   2.533   3.879 -1.6029 -2.7687  0.5212
  192SAPI  H18S22196   3.043   2.587   3.710  0.4795 -1.4409 -0.8555
  192SAPI  C21922197   3.119   2.385   3.743  0.3192 -0.3622 -0.6337
  192SAPI  H19R22198   3.192   2.431   3.672  0.5570 -2.3735 -1.7564
  192SAPI  H19S22199   3.071   2.300   3.691  1.4413 -1.7337  0.5008
  192SAPI  C22022200   3.182   2.331   3.866 -0.3538 -0.2197  0.6001
  192SAPI  H20R22201   3.109   2.303   3.945  0.4011  1.7262  2.0667
  192SAPI  H20S22202   3.260   2.401   3.904  1.1749 -0.1451 -2.4027
  192SAPI  H20T22203   3.218   2.232   3.831 -4.2633 -0.8861 -2.1197
  192SAPI   C3322204   2.421   1.265   3.330  0.6870  0.0659  0.1613
  192SAPI   H3X22205   2.314   1.295   3.335  0.5905 -0.2128 -0.2422
  192SAPI   H3Y22206   2.486   1.354   3.315 -0.0630  0.6283  0.2137
  192SAPI   C3422207   2.454   1.180   3.451  0.8771  0.0955  0.3914
  192SAPI   H4X22208   2.546   1.211   3.504 -0.1036  2.7556  0.7097
  192SAPI   H4Y22209   2.455   1.073   3.424 -1.0811 -0.2976  1.6471
  192SAPI   C3522210   2.338   1.188   3.561  0.0406  0.3529 -0.1610
  192SAPI   H5X22211   2.345   1.097   3.624 -1.5032  0.6229  0.4502
  192SAPI   H5Y22212   2.240   1.177   3.510 -0.1449  0.6334  0.1288
  192SAPI   C3622213   2.323   1.316   3.644  0.5934 -0.4639 -0.1283
  192SAPI   H6X22214   2.307   1.397   3.570 -0.4948 -1.0460 -0.5460
  192SAPI   H6Y22215   2.423   1.330   3.690 -0.5154  0.1633  2.2205
  192SAPI   C3722216   2.219   1.305   3.746 -0.1765 -0.2673  1.0007
  192SAPI   H7X22217   2.251   1.221   3.812  1.9935 -2.6062 -2.6650
  192SAPI   H7Y22218   2.119   1.286   3.703 -0.1968 -0.7422  1.2509
  192SAPI   C3822219   2.205   1.433   3.832  0.1877  0.1744 -0.0552
  192SAPI   H8X22220   2.153   1.410   3.928 -1.7744  3.3207 -0.2077
  192SAPI   H8Y22221   2.143   1.506   3.776 -1.3871  1.7920  3.4830
  192SAPI   C3922222   2.334   1.510   3.871 -0.0324  0.1254 -0.3382
  192SAPI   H9X22223   2.381   1.552   3.780 -0.0513  0.7931 -0.0462
  192SAPI   H9Y22224   2.406   1.439   3.917  1.2071  1.5217 -0.0581
  192SAPI  C31022225   2.293   1.631   3.965 -0.5567  0.3072  1.0390
  192SAPI  H10X22226   2.235   1.703   3.904  0.3414 -1.0996 -1.6479
  192SAPI  H10Y22227   2.391   1.672   3.997  0.7306 -0.8776 -1.1718
  192SAPI  C31122228   2.204   1.604   4.093 -0.8736 -0.4580 -0.0815
  192SAPI  H11X22229   2.246   1.514   4.143 -1.3514 -0.1957  0.8307
  192SAPI  H11Y22230   2.100   1.578   4.064 -1.3380  0.2847  0.8765
  192SAPI  C31222231   2.201   1.725   4.199 -0.2526  0.8470 -0.1105
  192SAPI  H12X22232   2.126   1.801   4.170 -1.3573 -0.5658 -1.1034
  192SAPI  H12Y22233   2.298   1.777   4.188  1.4741 -2.1112  0.0079
  192SAPI  C31322234   2.192   1.678   4.349 -0.1864  0.0215 -0.2945
  192SAPI  H13X22235   2.209   1.763   4.418  0.5011  1.6389 -2.3495
  192SAPI  H13Y22236   2.284   1.617   4.364 -0.2278 -0.6737 -2.4252
  192SAPI  C31422237   2.077   1.582   4.379  0.5117  0.6120 -0.4289
  192SAPI  H14X22238   2.057   1.526   4.285  1.3428 -0.1237 -0.1857
  192SAPI  H14Y22239   1.995   1.651   4.409  1.5857  1.4607  0.6898
  192SAPI  C31522240   2.103   1.494   4.499  0.5136  0.3172 -0.5392
  192SAPI  H15X22241   2.112   1.561   4.587  1.5371 -0.6617  0.1333
  192SAPI  H15Y22242   2.193   1.431   4.481  1.0992  0.7220  0.8989
  192SAPI  C31622243   1.983   1.400   4.526 -0.1086 -0.2193 -0.0384
  192SAPI  H16X22244   1.957   1.347   4.432  1.3854 -1.0859  0.0193
  192SAPI  H16Y22245   1.892   1.463   4.543  0.3914  0.2712  0.9292
  192SAPI  C31722246   2.008   1.297   4.637  0.0904 -0.1344 -0.1827
  192SAPI  H17X22247   2.088   1.223   4.617 -1.9489 -2.0531 -1.7233
  192SAPI  H17Y22248   1.921   1.229   4.643  0.4086 -0.6608 -1.2032
  192SAPI  C31822249   2.032   1.361   4.770 -0.8646  0.1394 -0.1551
  192SAPI  H18X22250   2.068   1.284   4.842 -1.5793  1.0176  1.1660
  192SAPI  H18Y22251   1.944   1.417   4.808 -0.5391  1.4522 -1.2746
  192SAPI  H18Z22252   2.110   1.440   4.762 -1.7188  0.9549 -0.6071
  193SOD    SOD22253   2.926   6.665   0.997 -0.0603  0.4118  0.2538
  194SOD    SOD22254   3.829   4.229   8.591  0.1376  0.6295 -0.8302
  195SOD    SOD22255   5.338   4.860   2.452  0.7078  0.1805 -0.1400
  196SOD    SOD22256   4.888   4.846   2.070  0.0701 -0.0850  0.1672
  197SOD    SOD22257   1.415   3.503   7.127 -0.5639 -0.1018  0.2556
  198SOD    SOD22258   5.795   4.252   2.533 -0.7531  0.6490 -0.5421
  199SOD    SOD22259   6.797   3.608   0.455 -0.7673  0.2002 -0.1268
  200SOD    SOD22260   6.258   1.560   7.128 -0.2561  0.3402  0.2805
  201SOD    SOD22261   4.264   6.339   0.101 -0.4120 -0.4786  0.0784
  202SOD    SOD22262   3.143   5.120   0.229  0.1861  0.4981  0.3120
  203SOD    SOD22263   6.408   3.725   2.490 -0.3608  0.2156  0.2876
  204SOD    SOD22264   0.046   5.031   7.375  0.0862 -0.1520 -0.0728
  205SOD    SOD22265   0.105   0.769   0.969  0.6255 -0.4574 -0.0518
  206SOD    SOD22266   1.395   6.237   7.879 -0.2733  0.0156 -0.1865
  207SOD    SOD22267   4.018   3.769   2.817  0.3125 -0.4033  0.1639
  208SOD    SOD22268   1.521   1.825   0.269  0.1614 -0.3007 -0.0480
  209SOD    SOD22269   3.018   0.041   1.319 -0.0391  0.3333 -0.1630
  210SOD    SOD22270   5.611   0.801   7.333 -0.1079  0.1105 -0.1124
  211SOD    SOD22271   4.503   0.234   7.200  0.1894  0.5213 -0.0132
  212SOD    SOD22272   6.288   5.385   7.805 -0.2760  0.2294  0.1673
  213SOD    SOD22273   6.748   3.466   1.829 -0.0752 -0.1839 -0.2718
  214SOD    SOD22274   6.266   5.326   6.971 -0.2332  0.1689  1.1442
  215SOD    SOD22275   6.120   5.324   2.343 -0.5025  0.4987  0.4129
  216SOD    SOD22276   4.103   1.109   7.866 -0.5317  0.4227 -0.2463
  217SOD    SOD22277   2.955   4.696   1.817  0.0881  0.3866 -0.1016
  218SOD    SOD22278   0.429   6.806   0.956 -0.0613 -0.1122  0.3846
  219SOD    SOD22279   5.066   2.634   8.440  0.0808  0.0567 -0.8993
  220SOD    SOD22280   2.223   0.107   2.005 -0.1653  0.1316  0.3299
  221SOD    SOD22281   1.196   5.369   0.556 -0.3314 -0.0323  0.5712
  222SOD    SOD22282   1.692   6.756   0.924  0.1411  0.4174  0.0274
  223SOD    SOD22283   3.519   2.905   8.187 -0.3837  0.1048 -0.2545
  224SOD    SOD22284   0.577   3.793   8.585 -0.3250  0.5896  0.4950
  225SOD    SOD22285   4.212   3.135   2.367  0.0128 -0.2513 -0.0194
  226SOD    SOD22286   2.912   4.568   2.683  0.2927 -0.0196 -0.0712
  227SOD    SOD22287   5.572   1.551   0.686 -0.0002  0.8336 -0.3065
  228SOD    SOD22288   4.184   2.614   2.055 -0.1814  0.3578  0.6196
  229SOD    SOD22289   2.157   6.319   7.334  0.3584 -0.2098  0.2956
  230SOD    SOD22290   3.234   0.530   2.735 -0.1712  1.0200  0.1534
  231SOD    SOD22291   4.827   5.486   1.931 -0.0646  0.0377  0.3865
  232SOD    SOD22292   1.242   4.117   2.509 -0.0839 -0.1799  0.1659
  233SOD    SOD22293   1.495   4.935   1.642 -0.2189  0.1150 -0.4246
  234CLA    CLA22294   6.271   2.298   8.530 -0.5361  0.5276 -0.1597
  235CLA    CLA22295   2.947   0.394   2.133  0.0985 -0.3014 -0.0022
  236CLA    CLA22296   3.719   2.841   0.459  0.1345  0.0355  0.3560
  237CLA    CLA22297   0.832   5.654   1.301  0.2993 -0.3730  0.5703
  238CLA    CLA22298   3.754   0.828   0.618 -0.1030 -0.2781  0.1021
  239CLA    CLA22299   2.505   4.842   0.908  0.0599  0.3943 -0.5055
  240CLA    CLA22300   2.806   6.690   1.231 -0.3209  0.0386 -0.2400
  241CLA    CLA22301   0.451   6.647   1.445 -0.3196  0.0791 -0.2406
  242CLA    CLA22302   4.028   0.341   8.000 -0.5415  0.0623  0.2361
  243CLA    CLA22303   0.043   0.775   8.461  0.0064  0.0114 -0.4388
  244CLA    CLA22304   4.061   4.239   0.222  0.2086  0.1128  0.1758
  245CLA    CLA22305   6.289   6.195   2.013  0.4437  0.0937 -0.4247
  246CLA    CLA22306   0.258   6.062   0.986  0.3031  0.0462 -0.0938
  247CLA    CLA22307   1.689   5.600   0.483 -0.0343 -0.1696  0.0337
  248CLA    CLA22308   3.558   6.121   0.985 -0.1566 -0.1737  0.2973
  249CLA    CLA22309   5.442   4.206   0.859 -0.0027 -0.2176  0.4791
  250CLA    CLA22310   1.167   3.392   1.608  0.1649  0.0613 -0.1688
  251TIP3   OH222311   6.595   4.258   8.765 -0.4551 -1.0277 -0.2863
  251TIP3    H122312   6.666   4.224   8.710  0.6175  0.5970  0.0025
  251TIP3    H222313   6.559   4.331   8.714 -1.1791 -1.1483  0.0541
  252TIP3   OH222314   4.454   0.437   7.287 -0.6480 -0.0913  0.0316
  252TIP3    H122315   4.471   0.464   7.377 -0.5932 -0.1198  0.0295
  252TIP3    H222316   4.462   0.517   7.236 -2.4057  0.2913  0.2820
  253TIP3   OH222317   4.343   5.376   7.648  0.6146 -0.0946 -0.4774
  253TIP3    H122318   4.300   5.326   7.579  0.3655 -1.6663  0.7466
  253TIP3    H222319   4.271   5.423   7.691  0.7584  0.8167 -1.2235
  254TIP3   OH222320   5.007   5.733   1.723  0.1409  0.4942 -0.0381
  254TIP3    H122321   5.073   5.712   1.789  0.8635  0.8622 -0.6421
  254TIP3    H222322   4.971   5.817   1.751 -0.9383 -0.2559  0.9492
  255TIP3   OH222323   4.323   0.805   7.636  0.1051 -0.0289  0.1259
  255TIP3    H122324   4.366   0.803   7.550  0.6947  0.9548  0.3805
  255TIP3    H222325   4.345   0.721   7.675 -0.5623 -0.6806 -0.8693
  256TIP3   OH222326   4.003   3.109   7.206 -0.2297 -0.0146  0.3471
  256TIP3    H122327   3.936   3.042   7.222 -0.9317  0.2641 -1.2148
  256TIP3    H222328   4.083   3.073   7.243 -1.2778 -0.2266  2.5492
  257TIP3   OH222329   1.901   3.040   0.553  0.5532  0.2813 -0.8121
  257TIP3    H122330   1.970   3.050   0.487  0.3850  1.9152 -0.7862
  257TIP3    H222331   1.903   3.122   0.602 -0.9389  0.0616 -0.3441
  258TIP3   OH222332   4.515   5.339   1.726 -0.1742 -0.1201 -0.1289
  258TIP3    H122333   4.519   5.317   1.633  2.1809 -1.1455  0.1559
  258TIP3    H222334   4.439   5.291   1.759 -2.1560  1.6562 -1.7884
  259TIP3   OH222335   0.025   0.427   1.665 -0.2018 -0.4176  0.2394
  259TIP3    H122336  -0.007   0.516   1.650  0.0798 -0.3942 -0.2510
  259TIP3    H222337   0.059   0.428   1.755  0.6032  0.2191 -0.0584
  260TIP3   OH222338   1.134   1.736   1.595  0.3312  0.2913  0.7673
  260TIP3    H122339   1.135   1.652   1.549  0.4223  0.3199  0.7171
  260TIP3    H222340   1.175   1.797   1.534  1.4107  0.1149  1.2923
  261TIP3   OH222341   2.605   3.330   1.982 -0.0913  0.1344 -0.6564
  261TIP3    H122342   2.616   3.334   2.077  0.7945  0.3108 -0.7576
  261TIP3    H222343   2.578   3.240   1.965 -2.1387  0.5727 -0.0785
  262TIP3   OH222344   6.421   5.750   0.556  0.0502 -0.0088  0.0664
  262TIP3    H122345   6.354   5.805   0.596 -0.7073 -0.9585  0.1361
  262TIP3    H222346   6.503   5.777   0.599 -0.7353 -1.0269  2.3682
  263TIP3   OH222347   5.302   1.065   8.041  0.0757 -0.1662 -0.2188
  263TIP3    H122348   5.370   0.997   8.046 -0.2227 -0.4605 -0.1735
  263TIP3    H222349   5.351   1.146   8.034  0.5010 -0.1404  2.2663
  264TIP3   OH222350   2.498   2.454   8.222 -0.4201  0.1502 -0.2715
  264TIP3    H122351   2.579   2.440   8.173 -0.0848  0.0754  0.2990
  264TIP3    H222352   2.508   2.542   8.260  0.1252 -0.4902  1.1552
  265TIP3   OH222353   4.986   4.872   7.653  0.8881 -0.4572  0.0410
  265TIP3    H122354   4.947   4.898   7.570  2.7360 -0.2660 -0.8033
  265TIP3    H222355   4.947   4.933   7.717  1.5827  1.3340 -1.1476
  266TIP3   OH222356   1.569   4.827   1.076  0.3091  0.0941 -0.9681
  266TIP3    H122357   1.647   4.774   1.059 -0.9759 -1.6797 -1.6577
  266TIP3    H222358   1.540   4.799   1.163  1.4412  2.1460  0.1592
  267TIP3   OH222359   5.407   2.075   1.250  0.3006  0.1439 -0.5994
  267TIP3    H122360   5.344   2.066   1.323  0.2006 -3.9230 -0.9085
  267TIP3    H222361   5.358   2.043   1.174  2.0027 -0.9164 -1.2939
  268TIP3   OH222362   2.298   1.275   0.778  0.4122  0.2518  0.4468
  268TIP3    H122363   2.336   1.267   0.865  1.9314  0.3923 -0.1809
  268TIP3    H222364   2.285   1.369   0.766  1.3973  0.3395  0.0349
  269TIP3   OH222365   5.514   4.300   1.856  0.0962 -0.4689  0.8216
  269TIP3    H122366   5.436   4.252   1.828  0.6616 -0.7514 -0.3254
  269TIP3    H222367   5.482   4.388   1.876  0.0646  1.1629 -4.6330
  270TIP3   OH222368   0.513   1.825   8.080  0.4586  0.4866  0.5219
  270TIP3    H122369   0.545   1.870   8.158 -1.6231  0.7113  1.3235
  270TIP3    H222370   0.591   1.786   8.040  1.7849  1.7181  1.8241
  271TIP3   OH222371   5.647   6.333   1.263 -0.6478  0.5645 -0.7785
  271TIP3    H122372   5.728   6.368   1.300 -1.6531  2.7167 -0.5133
  271TIP3    H222373   5.675   6.255   1.215  1.2873  0.1400  0.9088
  272TIP3   OH222374   6.790   1.461   2.996 -0.5711  0.2380  0.3483
  272TIP3    H122375   6.707   1.413   2.997 -1.3065  1.4586  0.1732
  272TIP3    H222376   6.766   1.551   3.019  0.9366  0.2994  1.9186
  273TIP3   OH222377   0.517   5.945   1.663  0.6708  0.8789  0.4872
  273TIP3    H122378   0.477   5.960   1.578  0.4703  1.0186  0.6046
  273TIP3    H222379   0.490   5.856   1.686  1.1049  0.6736  0.1996
  274TIP3   OH222380   0.611   0.332   2.524  0.7333  0.0618  0.3572
  274TIP3    H122381   0.705   0.314   2.529  0.9248  0.3068 -1.4828
  274TIP3    H222382   0.606   0.425   2.502  0.0069  0.3358  1.6194
  275TIP3   OH222383   0.931   1.420   7.297  0.6185  0.0658  0.6162
  275TIP3    H122384   0.994   1.410   7.225  0.9990  0.5955  0.8664
  275TIP3    H222385   0.860   1.471   7.259 -0.2191 -1.5059  0.0055
  276TIP3   OH222386   0.532   5.417   0.589  0.0236  0.3196  0.0232
  276TIP3    H122387   0.487   5.501   0.591  3.7243  2.5438  1.9992
  276TIP3    H222388   0.504   5.373   0.669  0.3129  1.0722  0.5514
  277TIP3   OH222389   3.929   0.295   0.551 -0.5217  0.3290 -0.0121
  277TIP3    H122390   3.866   0.266   0.485 -1.4348  0.0944  0.9426
  277TIP3    H222391   3.974   0.214   0.578 -0.3344  0.3875 -0.1424
  278TIP3   OH222392   5.824   3.642   7.110 -0.1914 -0.3237  0.4258
  278TIP3    H122393   5.914   3.648   7.140  0.2331 -0.2586 -0.8089
  278TIP3    H222394   5.788   3.566   7.155  0.9650 -1.2982 -0.2646
  279TIP3   OH222395   5.755   4.159   1.865  0.3088 -0.6896  0.2689
  279TIP3    H122396   5.823   4.226   1.871 -1.8367  1.5868  0.9966
  279TIP3    H222397   5.674   4.209   1.852 -1.0127 -3.3430 -3.2145
  280TIP3   OH222398   4.906   4.398   2.539  0.5487 -0.7550 -0.1884
  280TIP3    H122399   4.923   4.404   2.633 -0.5696 -2.8456  0.2127
  280TIP3    H222400   4.845   4.470   2.522 -1.6584 -2.1162  1.3872
  281TIP3   OH222401   2.241   6.707   2.048  1.0736  1.2374  0.0014
  281TIP3    H122402   2.322   6.671   2.012 -0.2950 -0.7582 -1.2569
  281TIP3    H222403   2.216   6.646   2.117 -0.4634  0.5541 -1.0972
  282TIP3   OH222404   5.297   3.529   1.250  0.1919 -0.6917  0.1262
  282TIP3    H122405   5.361   3.537   1.321  0.5948  0.7763 -0.3556
  282TIP3    H222406   5.241   3.606   1.260 -0.5156 -1.1330 -0.4028
  283TIP3   OH222407   1.532   0.869   2.041 -0.1791  0.1450 -0.3043
  283TIP3    H122408   1.446   0.828   2.034 -0.1481 -0.4947  2.1627
  283TIP3    H222409   1.514   0.961   2.061 -0.3538 -0.2424  1.4648
  284TIP3   OH222410   3.547   2.921   2.591  0.4758  0.1353  0.0237
  284TIP3    H122411   3.498   2.973   2.527 -0.9030 -0.3764  0.6083
  284TIP3    H222412   3.604   2.983   2.635 -1.4608  1.3067  1.0320
  285TIP3   OH222413   0.724   1.723   7.940 -0.6815  0.0194 -0.1063
  285TIP3    H122414   0.754   1.673   7.864  0.0460 -1.5557  1.1516
  285TIP3    H222415   0.797   1.782   7.961  0.3644 -1.6125  1.0768
  286TIP3   OH222416   1.307   2.116   7.991  0.0183  0.1242 -0.1023
  286TIP3    H122417   1.343   2.198   7.958 -2.1016  1.0159 -0.3225
  286TIP3    H222418   1.272   2.071   7.914  0.3344 -0.5694  0.1435
  287TIP3   OH222419   5.057   3.965   8.126  0.8665 -0.0917  0.2772
  287TIP3    H122420   5.133   3.953   8.069 -0.1489  0.1672 -1.1749
  287TIP3    H222421   5.025   3.877   8.144  0.2403 -0.1259 -0.9132
  288TIP3   OH222422   3.595   5.786   0.740 -0.0736  0.0516  0.0818
  288TIP3    H122423   3.586   5.807   0.833  0.2546  0.1573  0.0928
  288TIP3    H222424   3.506   5.780   0.707 -0.1999 -0.7162  0.5652
  289TIP3   OH222425   6.496   5.663   2.728 -0.6906  0.2476  0.2683
  289TIP3    H122426   6.417   5.610   2.724  0.4012 -1.7006  2.1769
  289TIP3    H222427   6.567   5.602   2.708  0.4813  1.4652  0.5368
  290TIP3   OH222428   4.026   4.095   7.000 -0.0325 -0.2508  0.1902
  290TIP3    H122429   3.995   4.027   6.939 -0.9550  0.1808  0.1493
  290TIP3    H222430   3.998   4.177   6.959  3.0285  0.3569 -0.9155
  291TIP3   OH222431   3.692   4.101   2.485  0.3958 -0.4376 -0.0141
  291TIP3    H122432   3.668   4.012   2.461 -0.4735  0.0750 -1.0864
  291TIP3    H222433   3.702   4.097   2.581 -1.1667 -1.3335  0.1503
  292TIP3   OH222434   5.518   1.632   7.664 -0.1009  0.1745 -0.3300
  292TIP3    H122435   5.577   1.645   7.589  0.3230  1.5817  0.2331
  292TIP3    H222436   5.435   1.606   7.624  0.3944 -0.1038 -1.2233
  293TIP3   OH222437   0.850   4.180   8.532  0.3472 -0.3420 -0.1810
  293TIP3    H122438   0.776   4.144   8.484 -1.2217  1.7843  0.4563
  293TIP3    H222439   0.903   4.224   8.466  0.6532 -1.2315 -0.5376
  294TIP3   OH222440   0.247   5.800   7.114 -0.1507 -0.0504 -0.0102
  294TIP3    H122441   0.174   5.843   7.070 -0.5216  0.8452  1.4191
  294TIP3    H222442   0.325   5.829   7.065 -0.3756  2.3517  0.9187
  295TIP3   OH222443   0.037   3.140   0.023 -0.6976  0.3703  0.1236
  295TIP3    H122444   0.047   3.232   0.001 -0.5771  0.6865  1.4338
  295TIP3    H222445   0.099   3.125   0.094 -2.0125 -0.2473  1.1931
  296TIP3   OH222446   5.617   1.178   8.179  0.6830 -0.1658 -0.3347
  296TIP3    H122447   5.549   1.225   8.130 -0.8288 -1.0025  0.8538
  296TIP3    H222448   5.687   1.242   8.192 -1.0591  1.6322  0.7495
  297TIP3   OH222449   0.288   4.713   1.632 -0.2907  0.4213 -0.1029
  297TIP3    H122450   0.259   4.719   1.723 -0.9560 -1.8518 -0.1064
  297TIP3    H222451   0.272   4.800   1.596 -2.1029  0.7517  1.3568
  298TIP3   OH222452   5.212   2.336   7.257 -0.4598  0.5200  0.1347
  298TIP3    H122453   5.118   2.344   7.238 -0.3384  3.4806  0.2784
  298TIP3    H222454   5.230   2.410   7.315  1.7833 -0.6190  0.9720
  299TIP3   OH222455   1.474   6.071   7.587  0.5395  0.9572  0.3399
  299TIP3    H122456   1.498   6.049   7.497  1.4124  0.4480  0.6864
  299TIP3    H222457   1.558   6.091   7.629  0.2561  0.0720  1.3424
  300TIP3   OH222458   3.004   2.147   7.770 -0.0006 -0.6460 -0.1714
  300TIP3    H122459   3.046   2.073   7.725  1.0827  0.1487 -0.5348
  300TIP3    H222460   2.944   2.182   7.705  0.9302 -0.0286 -0.7297
  301TIP3   OH222461   0.828   0.520   7.199 -0.2369  0.0031  0.1451
  301TIP3    H122462   0.824   0.459   7.126 -1.0730  0.7524 -0.4639
  301TIP3    H222463   0.741   0.516   7.239  0.1794 -0.3191  1.0426
  302TIP3   OH222464   5.001   6.205   0.583  0.1710  0.0027 -0.6806
  302TIP3    H122465   5.068   6.272   0.593  0.6717 -0.3982 -1.2978
  302TIP3    H222466   5.041   6.138   0.527 -0.4994 -0.5675 -0.5013
  303TIP3   OH222467   4.632   0.976   1.251  0.6291 -0.2319 -0.0809
  303TIP3    H122468   4.574   1.008   1.182  1.8447  0.2471 -0.8916
  303TIP3    H222469   4.717   1.016   1.233  0.7597  0.7312  2.2707
  304TIP3   OH222470   3.125   5.217   8.788 -0.4959 -0.0370 -0.3879
  304TIP3    H122471   3.118   5.145   8.725 -0.3517 -0.8822  0.5325
  304TIP3    H222472   3.186   5.278   8.748 -0.6850 -0.3803 -1.2300
  305TIP3   OH222473   5.426   3.581   2.741  0.5835  0.2910 -0.7777
  305TIP3    H122474   5.373   3.661   2.734  0.5425  0.3581  0.1660
  305TIP3    H222475   5.379   3.516   2.689  0.6373  0.8899 -1.5878
  306TIP3   OH222476   1.575   0.868   1.237  0.3430 -0.6564  0.2048
  306TIP3    H122477   1.636   0.906   1.175 -0.6517 -1.4510 -1.3277
  306TIP3    H222478   1.601   0.776   1.243 -1.6564 -1.4552 -1.8373
  307TIP3   OH222479   4.772   2.000   8.283 -0.3119  0.0555  0.0489
  307TIP3    H122480   4.788   2.088   8.249 -3.2064  1.0442  0.9076
  307TIP3    H222481   4.812   2.000   8.370  1.6065 -0.3074 -0.7796
  308TIP3   OH222482   2.720   1.487   0.658  0.4719 -0.0349 -0.2415
  308TIP3    H122483   2.685   1.574   0.677 -1.5189 -0.8846  0.1162
  308TIP3    H222484   2.667   1.455   0.585  0.0554 -1.6115  0.7148
  309TIP3   OH222485   1.849   3.766   0.951 -0.2391  0.2726 -0.3538
  309TIP3    H122486   1.773   3.710   0.966  0.0219  0.4979  2.2597
  309TIP3    H222487   1.812   3.852   0.930 -0.9728  1.2511  4.0195
  310TIP3   OH222488   6.549   3.531   0.516  0.0496 -0.5343  0.1728
  310TIP3    H122489   6.508   3.475   0.450 -0.4047  1.0801 -0.9815
  310TIP3    H222490   6.475   3.577   0.556  0.5822  1.5878 -1.1489
  311TIP3   OH222491   1.571   5.457   1.628 -0.5599 -0.2363  0.0848
  311TIP3    H122492   1.502   5.493   1.573  0.3217  0.4390 -0.6093
  311TIP3    H222493   1.541   5.473   1.718 -1.2428  0.1452 -0.2030
  312TIP3   OH222494   4.340   4.198   2.849 -0.0160 -0.2702  0.4894
  312TIP3    H122495   4.402   4.267   2.873 -0.1511 -0.8289  2.5772
  312TIP3    H222496   4.270   4.244   2.802  1.7112  0.4263 -1.6068
  313TIP3   OH222497   0.310   3.167   7.270  0.0494  0.1859  0.2601
  313TIP3    H122498   0.344   3.228   7.204  0.0714  1.0608  1.0634
  313TIP3    H222499   0.226   3.204   7.295 -1.0906 -1.4117 -0.9606
  314TIP3   OH222500   3.611   1.333   6.774 -0.0424 -0.2191 -0.0887
  314TIP3    H122501   3.624   1.398   6.843  1.3987  0.4574 -0.9399
  314TIP3    H222502   3.530   1.289   6.797  0.0693  0.4332  1.6731
  315TIP3   OH222503   4.976   2.843   1.695  0.0464 -0.8001 -0.7676
  315TIP3    H122504   5.040   2.862   1.765  1.1542 -0.5166 -1.8215
  315TIP3    H222505   5.018   2.776   1.642  0.3636  0.7851 -2.6148
  316TIP3   OH222506   0.027   2.592   7.211  0.6421 -0.2338  0.2438
  316TIP3    H122507  -0.009   2.504   7.202 -1.3960  0.4039  1.4662
  316TIP3    H222508  -0.015   2.642   7.141  2.5801 -0.3821 -1.1178
  317TIP3   OH222509   1.160   2.807   2.893  0.0334 -0.1538 -0.2015
  317TIP3    H122510   1.085   2.800   2.834  0.6282  0.8144 -1.1087
  317TIP3    H222511   1.228   2.849   2.840  1.2302 -1.0206  0.5861
  318TIP3   OH222512   4.692   3.446   1.397 -0.2318  0.1922 -0.6087
  318TIP3    H122513   4.738   3.518   1.440 -0.0609  0.6918 -1.5998
  318TIP3    H222514   4.730   3.367   1.436  0.1104  0.6277 -0.0473
  319TIP3   OH222515   0.376   5.892   1.215 -0.4268 -0.0516  0.2963
  319TIP3    H122516   0.352   5.964   1.156  0.5917  0.4279  0.4455
  319TIP3    H222517   0.393   5.935   1.299  1.4130 -0.2704  0.0819
  320TIP3   OH222518   5.782   4.734   2.273 -0.9257 -0.0966 -0.1526
  320TIP3    H122519   5.770   4.705   2.364  1.5493 -0.3899  0.1498
  320TIP3    H222520   5.737   4.667   2.221 -2.1399 -0.0726  0.8240
  321TIP3   OH222521   5.076   4.657   0.205 -0.3651 -0.3591 -0.1544
  321TIP3    H122522   5.031   4.737   0.178  0.2652 -0.5424 -1.8783
  321TIP3    H222523   5.151   4.688   0.257 -1.4184  0.0299  1.1740
  322TIP3   OH222524   5.296   3.553   2.447 -0.1723  0.3748 -0.7963
  322TIP3    H122525   5.329   3.552   2.358 -1.3286 -0.9529 -1.2418
  322TIP3    H222526   5.310   3.464   2.479 -1.3512  0.3596 -0.2716
  323TIP3   OH222527   0.827   3.078   0.258 -0.8364  0.0187  0.1658
  323TIP3    H122528   0.923   3.069   0.264 -0.7687  0.7936  0.2957
  323TIP3    H222529   0.809   3.164   0.296 -1.7028 -0.6039  1.1949
  324TIP3   OH222530   1.794   6.315   1.583  0.4225 -0.3595  0.4620
  324TIP3    H122531   1.753   6.379   1.642  1.7935  0.7028  0.3403
  324TIP3    H222532   1.886   6.342   1.580  1.0300 -2.2943  0.2948
  325TIP3   OH222533   4.779   0.950   0.533  0.6161 -0.0852 -0.0395
  325TIP3    H122534   4.827   0.894   0.471  0.1833 -0.8450  0.2894
  325TIP3    H222535   4.751   0.890   0.602  0.1712  0.5547  0.3479
  326TIP3   OH222536   1.725   0.661   2.059 -0.3168 -0.2056 -0.3608
  326TIP3    H122537   1.667   0.590   2.032 -0.1265 -0.3135 -0.4849
  326TIP3    H222538   1.687   0.739   2.018 -1.5588  0.0648  1.2133
  327TIP3   OH222539   3.489   0.626   7.773  0.3069 -0.1468 -0.0907
  327TIP3    H122540   3.513   0.545   7.819 -0.2034 -0.0457  0.3647
  327TIP3    H222541   3.395   0.620   7.761 -0.3002  1.6933  2.6539
  328TIP3   OH222542   2.624   3.608   8.122  0.4837  0.0970  0.5450
  328TIP3    H122543   2.631   3.697   8.159  0.1138  0.3479  0.0233
  328TIP3    H222544   2.681   3.611   8.044  1.1036 -0.3687  0.9716
  329TIP3   OH222545   3.339   0.122   1.994  0.4576  0.1126 -0.0677
  329TIP3    H122546   3.292   0.099   1.914  0.9730 -2.9277  0.3811
  329TIP3    H222547   3.272   0.119   2.063  0.3797  0.8461 -0.1016
  330TIP3   OH222548   5.032   4.104   0.308  0.2188  0.5648 -0.7249
  330TIP3    H122549   5.104   4.078   0.365 -1.5768  1.8254  2.3306
  330TIP3    H222550   5.046   4.197   0.292 -1.1292  1.0347  0.6336
  331TIP3   OH222551   1.353   4.973   8.367 -0.0860 -0.0586  0.2408
  331TIP3    H122552   1.349   5.025   8.447 -1.5100  0.4297 -0.1155
  331TIP3    H222553   1.444   4.943   8.362  0.9146  2.6528  0.3231
  332TIP3   OH222554   3.284   1.456   1.030  0.4339  0.0682  0.5286
  332TIP3    H122555   3.317   1.541   1.001 -0.8846  0.5707  0.4363
  332TIP3    H222556   3.268   1.407   0.949 -0.1179  0.2603  0.5122
  333TIP3   OH222557   6.564   1.585   7.859 -0.2743  0.6771 -0.2539
  333TIP3    H122558   6.518   1.527   7.919 -1.5798  0.9490 -0.9584
  333TIP3    H222559   6.557   1.543   7.773 -0.8105  1.6200 -0.6837
  334TIP3   OH222560   5.510   3.748   0.686 -0.0068 -0.0032 -0.2427
  334TIP3    H122561   5.491   3.805   0.761 -1.9004 -0.7947 -0.0655
  334TIP3    H222562   5.604   3.761   0.670  0.0737  1.5415  1.1154
  335TIP3   OH222563   2.679   3.540   7.292  0.6363  0.0705 -0.5677
  335TIP3    H122564   2.606   3.555   7.231 -1.0074  0.9409  1.4897
  335TIP3    H222565   2.757   3.558   7.240 -0.6541  0.2504 -2.5577
  336TIP3   OH222566   0.689   0.411   1.416  0.0958  0.5970  0.1535
  336TIP3    H122567   0.673   0.500   1.449 -1.5219 -0.2248  1.7339
  336TIP3    H222568   0.608   0.388   1.371  0.3152 -0.2554  0.1855
  337TIP3   OH222569   6.595   4.489   8.366 -0.4247  0.0807 -0.0401
  337TIP3    H122570   6.539   4.566   8.376  0.2347  0.5914 -0.2093
  337TIP3    H222571   6.543   4.428   8.314 -1.3573 -0.0131  0.9529
  338TIP3   OH222572   2.566   5.232   8.550 -0.1190 -0.6426  0.0295
  338TIP3    H122573   2.484   5.195   8.518  0.2516 -1.8474  0.4334
  338TIP3    H222574   2.562   5.221   8.645 -0.9590  2.3808  0.4448
  339TIP3   OH222575   4.955   2.056   1.703  0.0274 -0.5952  0.1101
  339TIP3    H122576   4.972   2.014   1.618  0.5117 -1.3584  0.5777
  339TIP3    H222577   4.906   1.991   1.752  1.3678 -0.9068  1.0887
  340TIP3   OH222578   4.494   6.673   0.194 -0.1991  0.4259  0.7529
  340TIP3    H122579   4.570   6.619   0.174 -1.1585 -0.4607 -0.6841
  340TIP3    H222580   4.530   6.758   0.218  1.2516 -0.0967  0.5107
  341TIP3   OH222581   2.803   6.256   8.582  0.6428 -0.1077  0.6328
  341TIP3    H122582   2.861   6.245   8.506 -1.2892 -2.0452 -0.7131
  341TIP3    H222583   2.760   6.340   8.567  0.3954 -0.3973 -0.3920
  342TIP3   OH222584   5.671   5.333   0.284 -0.3607 -0.6428  0.6560
  342TIP3    H122585   5.695   5.298   0.198 -0.6382 -0.3802  0.4711
  342TIP3    H222586   5.581   5.303   0.298 -0.3607 -0.5759  0.7979
  343TIP3   OH222587   6.031   5.480   2.982  0.1727 -0.2826  0.2819
  343TIP3    H122588   5.986   5.548   3.032 -1.2557 -0.3757 -0.8288
  343TIP3    H222589   6.049   5.411   3.046  1.7634  1.1168  1.4664
  344TIP3   OH222590   3.523   0.857   0.379 -0.1039 -0.5590  0.1591
  344TIP3    H122591   3.595   0.868   0.442  0.5375 -2.4466 -0.1775
  344TIP3    H222592   3.517   0.763   0.367 -1.5797 -0.3323 -1.0818
  345TIP3   OH222593   6.704   4.498   8.615  0.6092 -0.4005 -0.2881
  345TIP3    H122594   6.703   4.472   8.523  1.5219 -0.7930 -0.1987
  345TIP3    H222595   6.654   4.579   8.618 -0.9440 -1.2951 -0.8291
  346TIP3   OH222596   2.824   1.805   8.574 -0.2016 -0.3898 -0.0143
  346TIP3    H122597   2.872   1.865   8.517  0.1247 -0.8105 -0.1879
  346TIP3    H222598   2.777   1.862   8.635 -0.1831  0.0507 -0.4056
  347TIP3   OH222599   5.638   5.765   2.468  0.0254 -0.4547 -0.8766
  347TIP3    H122600   5.599   5.793   2.385  0.4765  0.0553 -0.9199
  347TIP3    H222601   5.564   5.751   2.526 -0.2320  0.2918 -1.0204
  348TIP3   OH222602   1.478   4.320   8.093  0.2001 -0.6520 -0.3945
  348TIP3    H122603   1.498   4.368   8.013 -1.5984 -1.2601 -1.2621
  348TIP3    H222604   1.479   4.228   8.067  1.7705 -1.0295  0.8275
  349TIP3   OH222605   6.221   3.170   1.324  0.3289  0.4531 -0.8599
  349TIP3    H122606   6.149   3.227   1.298  1.2163  0.8814 -2.5001
  349TIP3    H222607   6.201   3.087   1.281 -1.0683 -0.6689  1.6796
  350TIP3   OH222608   0.688   1.170   7.846  0.4554  0.1038 -1.1053
  350TIP3    H122609   0.722   1.248   7.890 -0.3393 -0.3950  0.4673
  350TIP3    H222610   0.766   1.120   7.823  0.9795 -1.0185  2.4309
  351TIP3   OH222611   0.503   0.223   1.027 -0.1397 -0.0317 -0.4346
  351TIP3    H122612   0.588   0.252   1.060 -0.2464  1.5076 -1.3901
  351TIP3    H222613   0.485   0.282   0.954 -0.8399 -1.9842 -1.9200
  352TIP3   OH222614   1.492   1.568   7.425 -0.7111  0.1110 -0.1429
  352TIP3    H122615   1.509   1.589   7.333 -0.6301  0.8708  0.0362
  352TIP3    H222616   1.524   1.479   7.436  3.1712  1.3686  0.1605
  353TIP3   OH222617   5.465   0.786   6.691  0.2073 -0.1008  0.8522
  353TIP3    H122618   5.395   0.740   6.738 -0.6541 -2.0915 -2.0956
  353TIP3    H222619   5.544   0.735   6.709 -0.1235 -0.8630  0.2291
  354TIP3   OH222620   4.844   4.045   1.170 -0.0179  0.5008  0.4644
  354TIP3    H122621   4.921   4.023   1.117 -0.4767 -0.1479  0.0651
  354TIP3    H222622   4.847   4.141   1.177  0.7400  0.4936  0.3224
  355TIP3   OH222623   5.528   0.961   0.569  0.1185  0.4086  0.5388
  355TIP3    H122624   5.484   0.904   0.506  2.1605 -0.9466  0.2277
  355TIP3    H222625   5.499   0.930   0.655  0.3363 -0.3990  0.3362
  356TIP3   OH222626   5.640   2.753   8.788  0.3874 -0.4517 -0.7895
  356TIP3    H122627   5.609   2.778   8.875  1.9067 -0.7070 -0.1523
  356TIP3    H222628   5.614   2.825   8.731 -0.4383 -0.1837 -0.0922
  357TIP3   OH222629   2.312   5.398   7.974 -0.4563  0.4221  1.0256
  357TIP3    H122630   2.301   5.305   7.993  0.4908 -0.2048 -1.1644
  357TIP3    H222631   2.273   5.409   7.887  1.9660  1.4030 -0.0210
  358TIP3   OH222632   6.043   0.235   1.461 -0.9097  0.1304  0.4907
  358TIP3    H122633   6.037   0.245   1.556 -0.9992  0.6740  0.4320
  358TIP3    H222634   6.115   0.293   1.435 -0.9964  0.1154  0.2101
  359TIP3   OH222635   1.542   3.325   7.055 -0.2979 -0.0852 -0.3275
  359TIP3    H122636   1.559   3.245   7.105 -0.5065 -0.4651 -0.8500
  359TIP3    H222637   1.615   3.331   6.994 -1.9548 -1.7638 -2.6282
  360TIP3   OH222638   4.919   1.367   7.812 -0.1568 -0.4402  0.1474
  360TIP3    H122639   4.955   1.279   7.817  0.0326 -0.3345  0.8398
  360TIP3    H222640   4.995   1.424   7.829 -0.2486 -0.1407 -0.4285
  361TIP3   OH222641   2.574   5.837   1.476 -0.5995 -0.1831  0.3081
  361TIP3    H122642   2.537   5.884   1.551  1.1015  0.5231  0.7529
  361TIP3    H222643   2.654   5.797   1.511 -0.1934 -0.4945 -0.9473
  362TIP3   OH222644   6.675   4.742   0.347 -0.0372  0.2889  0.2345
  362TIP3    H122645   6.628   4.661   0.328 -0.8181  0.7010  0.3337
  362TIP3    H222646   6.755   4.738   0.294  0.5138 -1.0699  1.1222
  363TIP3   OH222647   0.334   4.459   7.635 -0.4214 -0.3295 -0.8621
  363TIP3    H122648   0.345   4.404   7.557  0.5692  0.2121 -1.1191
  363TIP3    H222649   0.409   4.518   7.634 -1.0649  0.5283 -0.1734
  364TIP3   OH222650   3.497   0.371   7.555  0.0053 -0.5332  0.0323
  364TIP3    H122651   3.504   0.411   7.468 -0.1099 -1.3448 -0.3643
  364TIP3    H222652   3.580   0.392   7.598  0.5204 -1.0430 -0.6828
  365TIP3   OH222653   2.246   1.350   8.374  0.0996 -1.0192  0.5757
  365TIP3    H122654   2.315   1.414   8.357  0.6054 -1.1696  1.9448
  365TIP3    H222655   2.237   1.302   8.291  0.5718 -0.0160 -0.0819
  366TIP3   OH222656   0.831   1.608   0.317 -0.4950  0.4323 -0.0293
  366TIP3    H122657   0.847   1.617   0.223 -2.1867  0.7649 -0.3118
  366TIP3    H222658   0.757   1.666   0.335 -1.5317 -1.1477  1.1243
  367TIP3   OH222659   0.873   0.823   8.013 -0.1433 -0.1514 -0.1916
  367TIP3    H122660   0.960   0.828   8.052  0.0188 -0.5192 -0.5058
  367TIP3    H222661   0.814   0.817   8.088  0.0577  0.6605  0.0402
  368TIP3   OH222662   3.960   4.874   0.724 -0.5157  0.8908  0.4909
  368TIP3    H122663   3.910   4.803   0.684  0.7743 -0.4755  1.2205
  368TIP3    H222664   3.897   4.946   0.731 -1.6955  0.0386 -0.8016
  369TIP3   OH222665   3.895   6.127   8.368  0.0529 -0.1840 -0.4324
  369TIP3    H122666   3.973   6.076   8.348 -1.0638 -1.6506 -1.2424
  369TIP3    H222667   3.894   6.197   8.303  1.3454  0.6214  0.3868
  370TIP3   OH222668   0.897   1.620   0.035  0.2757  0.1058  0.7449
  370TIP3    H122669   0.816   1.568   0.036 -0.3372  1.0183  2.1724
  370TIP3    H222670   0.938   1.599  -0.049 -0.4382 -1.8872  0.8402
  371TIP3   OH222671   2.286   5.540   0.828  0.2039 -0.3204  0.4325
  371TIP3    H122672   2.315   5.631   0.834  0.5305 -0.4706  1.2625
  371TIP3    H222673   2.276   5.525   0.734  0.9463  0.3214  0.2381
  372TIP3   OH222674   4.852   3.001   8.133 -0.0336 -0.1693 -0.2588
  372TIP3    H122675   4.770   3.034   8.098 -0.4166 -0.6000  0.2231
  372TIP3    H222676   4.831   2.972   8.221  0.9125  0.8936  0.3442
  373TIP3   OH222677   0.604   0.432   7.688 -0.0888  0.4521 -0.8178
  373TIP3    H122678   0.655   0.440   7.768 -0.8156  0.4237 -0.3380
  373TIP3    H222679   0.633   0.504   7.633 -0.0747  0.8915 -0.2439
  374TIP3   OH222680   6.096   3.007   7.868  0.8345 -0.3204 -0.8023
  374TIP3    H122681   6.082   3.092   7.910  0.4727 -0.3242 -0.9148
  374TIP3    H222682   6.108   2.946   7.941  0.8616 -0.2135 -0.7170
  375TIP3   OH222683   0.773   2.684   0.454 -0.5722  0.8449 -0.4492
  375TIP3    H122684   0.786   2.606   0.508 -0.9112  0.1542 -1.3331
  375TIP3    H222685   0.861   2.712   0.431 -0.4347  0.9757  0.2150
  376TIP3   OH222686   3.595   5.742   2.208  0.0929 -0.3045 -0.0370
  376TIP3    H122687   3.622   5.783   2.126  1.8810 -1.5073 -0.0965
  376TIP3    H222688   3.667   5.684   2.232 -0.6538 -0.4830  2.0627
  377TIP3   OH222689   4.497   6.511   2.730  0.1897 -0.3978  0.1141
  377TIP3    H122690   4.552   6.434   2.743 -0.1192 -0.6066  0.1798
  377TIP3    H222691   4.530   6.575   2.793 -0.3915 -0.9169  0.9502
  378TIP3   OH222692   3.895   3.341   3.184 -0.1558 -0.6533 -0.8610
  378TIP3    H122693   3.932   3.257   3.214 -0.5315 -0.1173  1.2672
  378TIP3    H222694   3.803   3.322   3.169 -0.6637 -0.2948  1.3878
  379TIP3   OH222695   0.414   2.125   2.930  0.7562 -0.1011  0.0415
  379TIP3    H122696   0.328   2.167   2.928  0.2770 -0.9680  1.2749
  379TIP3    H222697   0.399   2.038   2.893  0.9531 -0.4559  0.7598
  380TIP3   OH222698   6.760   5.107   8.194  0.1829  0.2812 -0.0914
  380TIP3    H122699   6.721   5.065   8.271  0.2812  1.3445  0.5643
  380TIP3    H222700   6.716   5.192   8.188 -1.2053 -0.5365 -2.3849
  381TIP3   OH222701   6.462   5.823   1.943 -0.3958 -0.2821 -0.3828
  381TIP3    H122702   6.493   5.819   2.034  1.6083 -4.8741 -1.0052
  381TIP3    H222703   6.366   5.827   1.951 -0.2400  1.5865  1.7881
  382TIP3   OH222704   5.056   5.683   0.039 -0.3117  0.3074 -0.1771
  382TIP3    H122705   5.064   5.613  -0.026  2.4413  1.9693 -1.8079
  382TIP3    H222706   5.020   5.757  -0.010 -1.2504  0.6644  1.0185
  383TIP3   OH222707   3.601   3.960   8.390  0.2187  0.9488  0.2013
  383TIP3    H122708   3.636   4.002   8.470  1.7530 -1.0882  0.6738
  383TIP3    H222709   3.679   3.937   8.340 -0.5690 -0.9480 -0.2094
  384TIP3   OH222710   0.934   6.713   8.099  0.0583 -0.2934 -0.1992
  384TIP3    H122711   0.864   6.682   8.157  0.5066  0.4279  0.7663
  384TIP3    H222712   0.894   6.717   8.013 -1.3819  0.9448  0.4718
  385TIP3   OH222713   4.804   6.757   1.107  0.2419 -0.1363  0.1678
  385TIP3    H122714   4.753   6.820   1.057  1.6288  1.1116  0.2486
  385TIP3    H222715   4.791   6.674   1.061 -0.4371  0.4978 -0.8331
  386TIP3   OH222716   2.835   5.463   1.701  0.2827 -0.3099  0.2526
  386TIP3    H122717   2.879   5.421   1.627 -0.6803 -0.1140 -0.4408
  386TIP3    H222718   2.891   5.442   1.776  1.6715  0.1257 -0.6286
  387TIP3   OH222719   1.958   6.539   0.157 -0.6020 -0.0886 -0.0831
  387TIP3    H122720   1.964   6.478   0.083  0.5819  0.1967 -0.2291
  387TIP3    H222721   2.047   6.572   0.170 -1.4842  3.2720 -1.4074
  388TIP3   OH222722   6.357   3.197   7.863 -0.0060 -0.1562  0.3486
  388TIP3    H122723   6.399   3.126   7.813 -0.9109 -0.2539 -0.2997
  388TIP3    H222724   6.428   3.236   7.913  0.9428 -0.0825 -1.0037
  389TIP3   OH222725   3.604   6.401   0.872 -0.3763  0.5135  0.0102
  389TIP3    H122726   3.588   6.330   0.934 -1.5562 -0.9699 -1.8745
  389TIP3    H222727   3.517   6.424   0.840  0.1274  1.8457 -0.4614
  390TIP3   OH222728   1.963   0.615   0.920  0.2078 -0.3095  0.4883
  390TIP3    H122729   1.944   0.648   1.008 -0.1539  2.4122 -0.5052
  390TIP3    H222730   1.958   0.692   0.865  2.4526 -1.5780 -1.6528
  391TIP3   OH222731   5.053   0.661   0.810  0.3578  0.6552 -0.8835
  391TIP3    H122732   5.041   0.598   0.739  0.7287  0.1404 -0.4977
  391TIP3    H222733   5.113   0.617   0.871 -2.9302 -0.6033  1.7382
  392TIP3   OH222734   5.087   5.199   0.342 -0.3307 -0.1258 -0.0420
  392TIP3    H122735   5.080   5.278   0.394  1.1529  0.9340 -1.3472
  392TIP3    H222736   5.013   5.202   0.282 -0.2060  0.3599 -0.1761
  393TIP3   OH222737   2.916   5.801   0.732 -0.5639  0.0691 -0.3756
  393TIP3    H122738   3.010   5.786   0.733 -0.3537  1.2236 -0.9078
  393TIP3    H222739   2.886   5.762   0.650 -0.6754 -0.9110  0.1178
  394TIP3   OH222740   4.166   5.528   1.869 -0.0619 -0.1760  0.8390
  394TIP3    H122741   4.237   5.583   1.902  0.5490 -0.1035 -0.5509
  394TIP3    H222742   4.100   5.590   1.838 -0.2490 -0.2423  1.0996
  395TIP3   OH222743   2.566   5.510   8.009  0.3341 -0.0942  0.3795
  395TIP3    H122744   2.496   5.445   8.018 -0.9763  1.2202 -0.0270
  395TIP3    H222745   2.602   5.518   8.098 -0.5619 -0.2124  0.7598
  396TIP3   OH222746   1.752   4.177   1.932 -0.0374 -0.1728 -0.0999
  396TIP3    H122747   1.700   4.235   1.988  0.9422 -1.0521  1.8003
  396TIP3    H222748   1.693   4.104   1.912  0.0660 -0.6082  1.1031
  397TIP3   OH222749   1.071   2.253   3.357 -0.6518  0.4105 -0.5118
  397TIP3    H122750   1.013   2.310   3.305 -1.0294 -0.5674 -1.1933
  397TIP3    H222751   1.093   2.181   3.298 -0.5705 -0.4084  0.4863
  398TIP3   OH222752   1.462   3.044   1.402  0.5507 -0.3425 -0.5141
  398TIP3    H122753   1.447   3.103   1.329 -3.7424 -0.1993  0.2236
  398TIP3    H222754   1.449   3.098   1.480 -0.8044 -1.6290  0.2035
  399TIP3   OH222755   5.619   1.314   1.721  0.0849 -0.4628  0.0289
  399TIP3    H122756   5.535   1.359   1.727 -0.2621 -1.1921  0.9744
  399TIP3    H222757   5.596   1.222   1.706  0.7023 -0.6865  0.4044
  400TIP3   OH222758   0.196   4.392   0.806  0.1786  0.0127  0.1342
  400TIP3    H122759   0.216   4.330   0.737  1.7839 -0.4233  0.9384
  400TIP3    H222760   0.174   4.473   0.761  1.5368 -0.1667 -0.8924
  401TIP3   OH222761   6.056   0.205   1.945 -0.4985 -0.4441  0.3299
  401TIP3    H122762   5.993   0.241   1.881 -0.2743  1.4372  1.1089
  401TIP3    H222763   6.081   0.121   1.908 -1.5461 -0.0985 -1.2967
  402TIP3   OH222764   2.004   1.979   2.840  0.1061  0.5926 -0.2518
  402TIP3    H122765   1.914   2.003   2.865  0.7201  1.3949  1.3555
  402TIP3    H222766   2.014   1.890   2.875 -0.4330  0.0184 -1.5042
  403TIP3   OH222767   1.896   5.459   7.722 -0.0007 -0.0472  0.2951
  403TIP3    H122768   1.926   5.550   7.711 -1.3216  0.4382  0.5110
  403TIP3    H222769   1.800   5.465   7.720 -0.1042 -1.4793  0.0432
  404TIP3   OH222770   0.452   2.988   1.896  0.7951 -0.5718  0.5135
  404TIP3    H122771   0.364   3.026   1.902 -0.0759 -2.5982  1.7472
  404TIP3    H222772   0.483   3.013   1.809 -1.9957 -1.7196 -0.9599
  405TIP3   OH222773   3.084   3.443   7.619 -0.2659 -0.0021  0.0752
  405TIP3    H122774   3.162   3.388   7.610  0.6333  1.0928  0.9396
  405TIP3    H222775   3.088   3.504   7.546  0.2423  0.6927  0.6657
  406TIP3   OH222776   3.753   1.832   1.502  0.3032  0.2700  0.2385
  406TIP3    H122777   3.680   1.771   1.507 -1.4336  1.4489 -4.5694
  406TIP3    H222778   3.727   1.906   1.557 -1.4522  0.0218 -0.2148
  407TIP3   OH222779   2.050   1.642   0.494 -0.2515 -0.1270  0.1957
  407TIP3    H122780   2.092   1.592   0.564  0.1968  0.0951  0.0916
  407TIP3    H222781   2.056   1.733   0.523 -2.1718 -0.2057  0.9722
  408TIP3   OH222782   2.357   4.075   7.758 -0.0966  0.0789  1.1003
  408TIP3    H122783   2.332   4.095   7.668 -3.8497  2.7161  2.4727
  408TIP3    H222784   2.405   3.992   7.752 -0.4299 -0.0124 -3.2344
  409TIP3   OH222785   2.082   4.720   2.898 -0.0537  0.4171 -0.6829
  409TIP3    H122786   2.050   4.630   2.889  0.4768  0.1980 -0.4313
  409TIP3    H222787   2.091   4.752   2.808  0.9202 -0.2010 -0.8124
  410TIP3   OH222788   0.921   4.376   0.897 -0.7248  0.2167 -0.2223
  410TIP3    H122789   1.009   4.404   0.869 -1.1232  0.0993 -1.7184
  410TIP3    H222790   0.900   4.432   0.971  1.8516 -1.8113  2.2753
  411TIP3   OH222791   5.538   6.490   2.818 -0.3406 -0.1987 -0.2470
  411TIP3    H122792   5.548   6.395   2.824  1.0420 -0.1567 -1.2023
  411TIP3    H222793   5.610   6.517   2.760 -0.4090  1.4877  0.4145
  412TIP3   OH222794   0.818   6.191   0.977 -0.2825 -0.7459 -0.1606
  412TIP3    H122795   0.759   6.265   0.990 -0.4200 -1.1580  1.9162
  412TIP3    H222796   0.760   6.118   0.952 -0.6666 -1.0902  1.6390
  413TIP3   OH222797   3.670   2.036   0.363  0.3141  0.0861 -0.0741
  413TIP3    H122798   3.700   1.964   0.418 -2.7527 -0.7544  0.6826
  413TIP3    H222799   3.652   1.996   0.278  0.8597  0.4874 -0.3879
  414TIP3   OH222800   0.048   5.344   8.670  0.5441  0.1374  0.0656
  414TIP3    H122801  -0.007   5.377   8.741  0.9469  0.4629  0.2368
  414TIP3    H222802   0.117   5.295   8.714  1.1137  0.8116 -0.0581
  415TIP3   OH222803   4.165   5.640   2.674 -0.6031 -0.0618 -0.6659
  415TIP3    H122804   4.209   5.717   2.709 -1.7964  0.6341 -0.6196
  415TIP3    H222805   4.216   5.566   2.707  2.6521  0.6707 -3.4868
  416TIP3   OH222806   0.037   2.419   7.632 -0.1944 -0.5229  0.1945
  416TIP3    H122807   0.115   2.378   7.596 -0.3382  0.0355 -0.7959
  416TIP3    H222808   0.057   2.512   7.632  0.2183 -0.5544  2.6273
  417TIP3   OH222809   0.055   1.684   0.924  0.2748 -0.6046  0.1377
  417TIP3    H122810   0.022   1.774   0.926 -0.8153 -0.9255 -1.5558
  417TIP3    H222811   0.123   1.685   0.857  0.2641 -1.0338  0.1157
  418TIP3   OH222812   6.690   5.934   8.031 -0.7992  0.2906 -0.1637
  418TIP3    H122813   6.772   5.944   8.080 -0.0402  0.3455 -1.4015
  418TIP3    H222814   6.649   6.020   8.036 -0.4241  0.4735 -0.1453
  419TIP3   OH222815   2.150   0.514   7.166  0.1830  0.3300  0.0434
  419TIP3    H122816   2.117   0.514   7.256  0.2768  0.8858  0.0790
  419TIP3    H222817   2.219   0.447   7.166  0.8531  1.0004  0.6418
  420TIP3   OH222818   3.946   0.631   1.904 -0.0093  0.4507  0.2576
  420TIP3    H122819   3.915   0.709   1.857  0.3168  0.2143 -0.3490
  420TIP3    H222820   3.926   0.650   1.996 -0.2950  1.0809  0.0735
  421TIP3   OH222821   0.466   0.434   8.083 -0.5149  0.1258 -0.6547
  421TIP3    H122822   0.555   0.409   8.108 -0.8459  0.7893  1.3631
  421TIP3    H222823   0.433   0.483   8.158 -1.1404  3.5608 -2.9177
  422TIP3   OH222824   2.691   0.022   7.287  0.0681 -0.3314 -0.4206
  422TIP3    H122825   2.691   0.051   7.196  1.4347  2.7204  0.4435
  422TIP3    H222826   2.623   0.075   7.330 -0.3184 -1.4724  0.4337
  423TIP3   OH222827   6.424   0.639   7.868  0.4173 -0.5702  0.0275
  423TIP3    H122828   6.443   0.720   7.915  2.2684 -0.5264 -0.7272
  423TIP3    H222829   6.503   0.586   7.879 -0.8337 -2.3805  0.6869
  424TIP3   OH222830   3.366   1.803   8.575  0.5185 -0.1091 -0.5739
  424TIP3    H122831   3.459   1.781   8.573  0.5767 -0.0227  0.5122
  424TIP3    H222832   3.328   1.741   8.637  0.1372  0.8283  0.1586
  425TIP3   OH222833   3.088   4.803   7.901 -0.1052  0.0509  0.0095
  425TIP3    H122834   3.048   4.779   7.817  1.1147  0.0337 -0.5828
  425TIP3    H222835   3.049   4.743   7.964  0.9776 -1.8036 -1.0122
  426TIP3   OH222836   2.721   5.020   8.484 -0.4323  0.3609  0.2775
  426TIP3    H122837   2.734   5.053   8.395 -1.2039 -0.9518 -0.3464
  426TIP3    H222838   2.666   5.087   8.526 -1.9452 -0.0474 -0.9515
  427TIP3   OH222839   6.156   4.212   8.003 -0.2936 -0.6339  0.5067
  427TIP3    H122840   6.216   4.153   8.050 -1.0510 -1.1519  0.8478
  427TIP3    H222841   6.104   4.153   7.948 -0.5535 -0.2026  0.2882
  428TIP3   OH222842   3.637   2.473   7.025 -0.1163  0.0408  0.2840
  428TIP3    H122843   3.681   2.406   7.078 -3.2227  0.4310  3.7544
  428TIP3    H222844   3.550   2.438   7.008 -0.3188  1.3703 -1.8538
  429TIP3   OH222845   1.558   2.687   1.942  0.1878 -0.5576 -0.1342
  429TIP3    H122846   1.580   2.754   1.877  0.3938 -0.5317 -0.0376
  429TIP3    H222847   1.476   2.716   1.980  0.0371 -0.5990 -0.4215
  430TIP3   OH222848   0.067   4.432   0.446 -0.6680  0.1917 -0.1175
  430TIP3    H122849   0.059   4.493   0.372 -2.4325  1.2578  0.8833
  430TIP3    H222850  -0.013   4.379   0.442 -1.3566  1.0130  1.6227
  431TIP3   OH222851   4.846   6.168   2.026 -0.4479 -0.0300 -0.0296
  431TIP3    H122852   4.768   6.217   1.998 -1.3932 -0.4051  1.7926
  431TIP3    H222853   4.920   6.220   1.993 -1.4485  1.6618  0.2442
  432TIP3   OH222854   2.845   5.722   7.384 -0.0346 -0.5407  0.5511
  432TIP3    H122855   2.869   5.631   7.365 -0.5187 -0.5047 -0.2647
  432TIP3    H222856   2.785   5.715   7.459  0.4298 -0.8350  0.9033
  433TIP3   OH222857   5.283   5.665   0.617  0.0008 -0.5581  0.7809
  433TIP3    H122858   5.255   5.750   0.651  1.9651 -0.2577  1.7823
  433TIP3    H222859   5.355   5.685   0.557  0.0745 -1.4619  0.5437
  434TIP3   OH222860   0.824   1.542   7.696  0.1281  0.0010  0.7814
  434TIP3    H122861   0.832   1.450   7.672 -1.1250  0.0772 -0.0212
  434TIP3    H222862   0.887   1.587   7.640  1.9896 -0.4842  2.3420
  435TIP3   OH222863   5.709   2.459   1.418 -0.3026  0.1286  0.2897
  435TIP3    H122864   5.683   2.545   1.384  1.7421 -0.4873 -3.3955
  435TIP3    H222865   5.667   2.396   1.359  1.6067 -1.1596  0.2160
  436TIP3   OH222866   3.548   4.580   2.200  0.1981  0.1570  0.0953
  436TIP3    H122867   3.567   4.575   2.294 -0.3810 -0.6994  0.1790
  436TIP3    H222868   3.494   4.503   2.182 -1.2314  1.2631 -0.5813
  437TIP3   OH222869   2.068   6.341   1.570  0.1399  0.3094  0.0244
  437TIP3    H122870   2.120   6.327   1.649 -0.1979 -0.2893  0.1545
  437TIP3    H222871   2.108   6.284   1.504 -0.8640 -0.8652  0.3752
  438TIP3   OH222872   0.273   1.819   7.834  0.0211  0.5778  0.2627
  438TIP3    H122873   0.304   1.801   7.745  0.5725 -0.2474  0.6132
  438TIP3    H222874   0.304   1.745   7.886  1.2649  1.9067  1.5155
  439TIP3   OH222875   1.820   0.777   1.446 -0.2451  0.7765 -0.4107
  439TIP3    H122876   1.726   0.777   1.464 -0.3374  1.8390 -0.8681
  439TIP3    H222877   1.858   0.730   1.520 -1.0858  0.8065  0.0490
  440TIP3   OH222878   2.344   0.540   0.402  0.6663  0.4330 -0.0450
  440TIP3    H122879   2.320   0.631   0.388 -1.0799 -0.1236 -0.9438
  440TIP3    H222880   2.409   0.543   0.472  1.3404  2.4246 -0.6834
  441TIP3   OH222881   5.343   1.928   2.456  0.2942  0.4455 -0.7639
  441TIP3    H122882   5.286   2.001   2.433 -2.0041  0.2163  3.2466
  441TIP3    H222883   5.424   1.970   2.486  0.3503  1.0817 -1.7579
  442TIP3   OH222884   3.879   2.967   2.528 -0.3484  0.2286  0.1065
  442TIP3    H122885   3.834   3.050   2.513  0.5564  0.6580 -0.2993
  442TIP3    H222886   3.944   2.963   2.458 -0.0269 -0.5718  0.4500
  443TIP3   OH222887   6.197   2.757   2.758  0.3848  0.4718 -0.0629
  443TIP3    H122888   6.292   2.757   2.751  0.3122  0.2370 -1.3522
  443TIP3    H222889   6.171   2.671   2.723 -0.2519  0.1023  1.2493
  444TIP3   OH222890   4.268   4.659   7.277 -0.0159 -0.5201 -0.3561
  444TIP3    H122891   4.203   4.730   7.281  0.0442 -0.5198  1.4645
  444TIP3    H222892   4.236   4.602   7.208 -3.2484 -1.6726  1.8607
  445TIP3   OH222893   0.305   0.333   1.220  0.5343  0.1836 -0.4765
  445TIP3    H122894   0.345   0.343   1.133  0.8950 -0.2785 -0.3705
  445TIP3    H222895   0.280   0.421   1.246  0.3793  0.3227 -1.0719
  446TIP3   OH222896   4.378   0.857   1.951  0.1134  0.4608  0.3171
  446TIP3    H122897   4.354   0.825   1.864  0.4017 -0.2087  0.4832
  446TIP3    H222898   4.441   0.927   1.934 -0.4299  0.8823 -0.0362
  447TIP3   OH222899   2.675   1.974   8.154  0.0822 -0.0332 -0.1024
  447TIP3    H122900   2.662   2.042   8.221  2.3087  0.9189 -0.5103
  447TIP3    H222901   2.729   2.017   8.088 -0.3549 -1.5690 -1.5174
  448TIP3   OH222902   6.691   1.838   0.179  0.2688  0.3916 -0.3473
  448TIP3    H122903   6.783   1.852   0.201  1.3078 -1.1641 -3.2117
  448TIP3    H222904   6.683   1.869   0.088 -1.8338 -0.2704 -0.4435
  449TIP3   OH222905   0.481   3.414   8.315 -0.4490  0.2625  0.8757
  449TIP3    H122906   0.423   3.488   8.334 -1.6105 -0.0017 -1.3607
  449TIP3    H222907   0.470   3.356   8.390 -0.6932  1.6121  1.9421
  450TIP3   OH222908   3.285   5.490   1.435  0.1278 -0.1355 -0.3392
  450TIP3    H122909   3.342   5.417   1.461 -0.5540 -0.8491 -0.8024
  450TIP3    H222910   3.248   5.522   1.517 -0.5067 -1.1124 -0.2291
  451TIP3   OH222911   3.659   6.308   0.022 -0.6341  0.0786  0.4950
  451TIP3    H122912   3.603   6.250   0.073  0.0067  0.2021  1.3711
  451TIP3    H222913   3.630   6.298  -0.068 -0.8646 -1.2205  0.7029
  452TIP3   OH222914   6.653   1.033   1.285  0.3153  0.5312  0.0219
  452TIP3    H122915   6.604   1.016   1.366 -1.9807  1.9106 -0.9762
  452TIP3    H222916   6.736   1.069   1.315  0.0915 -0.3171  1.7865
  453TIP3   OH222917   5.971   0.403   0.888  0.3333 -0.4108 -0.5493
  453TIP3    H122918   5.926   0.484   0.865 -0.1617 -0.6001 -0.2825
  453TIP3    H222919   6.055   0.431   0.925 -1.4417  0.2889  3.4888
  454TIP3   OH222920   0.649   2.563   1.924  0.0644 -0.4003  0.6774
  454TIP3    H122921   0.569   2.525   1.886 -1.0378  1.2198  1.2776
  454TIP3    H222922   0.710   2.566   1.851 -1.7252  1.8649 -0.8643
  455TIP3   OH222923   1.017   5.415   1.404  0.7089 -0.3967  0.2927
  455TIP3    H122924   0.947   5.471   1.370  2.0689  0.8664 -0.6098
  455TIP3    H222925   1.004   5.413   1.498  0.5689  1.4368  0.3415
  456TIP3   OH222926   5.111   6.463   1.716 -0.2240 -0.1890 -0.3829
  456TIP3    H122927   5.142   6.400   1.781  0.9291  0.3215 -0.4144
  456TIP3    H222928   5.092   6.542   1.767  1.9560  0.6526 -0.7803
  457TIP3   OH222929   4.284   3.350   0.376  0.3685 -0.0811  0.3648
  457TIP3    H122930   4.279   3.408   0.452 -0.9105  0.2453  0.0547
  457TIP3    H222931   4.359   3.383   0.326 -0.5625  1.6225 -0.0194
  458TIP3   OH222932   3.528   1.486   2.112  0.1028 -0.1975 -0.1776
  458TIP3    H122933   3.499   1.573   2.139 -2.5989 -1.5413  1.7288
  458TIP3    H222934   3.467   1.461   2.042  0.4219 -0.7764 -0.2548
  459TIP3   OH222935   1.084   0.674   6.908  0.3036 -0.5875  0.0929
  459TIP3    H122936   1.144   0.748   6.904 -1.4370  0.8286 -1.1153
  459TIP3    H222937   1.138   0.598   6.884  1.3789  0.7927 -2.1769
  460TIP3   OH222938   5.065   5.011   8.029  0.1561  0.1837  0.4817
  460TIP3    H122939   5.062   4.960   8.111  0.8183 -1.0682 -0.2390
  460TIP3    H222940   5.156   5.041   8.023 -0.6293  3.2790  1.9011
  461TIP3   OH222941   1.308   6.338   0.353  0.0496  0.4565  0.6718
  461TIP3    H122942   1.279   6.414   0.301  0.0565  1.9364  2.7063
  461TIP3    H222943   1.401   6.355   0.370  0.4654 -0.8507 -0.1763
  462TIP3   OH222944   4.042   1.323   6.838 -0.2971 -0.6950 -0.7330
  462TIP3    H122945   3.963   1.273   6.854 -0.0124 -0.6500  1.0537
  462TIP3    H222946   4.111   1.257   6.826 -0.6134 -0.7432 -2.6833
  463TIP3   OH222947   2.110   3.806   2.098 -0.2807 -0.5977 -0.6096
  463TIP3    H122948   2.096   3.768   2.011 -0.2960 -0.4042 -0.6927
  463TIP3    H222949   2.024   3.840   2.124 -0.2485 -0.5423 -0.5740
  464TIP3   OH222950   3.361   3.075   8.188 -0.4031  0.4965 -0.4194
  464TIP3    H122951   3.390   3.166   8.188 -1.5089  0.8767  0.6228
  464TIP3    H222952   3.271   3.078   8.156 -0.2684 -0.3097 -0.9163
  465TIP3   OH222953   1.424   5.184   0.922  0.1564  0.4023  0.5532
  465TIP3    H122954   1.372   5.107   0.948  0.8496 -0.6236 -0.9435
  465TIP3    H222955   1.512   5.165   0.954  0.2776  0.6855  0.3908
  466TIP3   OH222956   0.777   3.649   8.139  0.7566  0.3645  0.1794
  466TIP3    H122957   0.854   3.675   8.189  1.4842 -0.4826 -0.4610
  466TIP3    H222958   0.776   3.553   8.146 -0.8800  0.4260  1.1038
  467TIP3   OH222959   6.488   2.897   7.951  0.7651  0.3390  0.2239
  467TIP3    H122960   6.533   2.813   7.962  1.1752  0.5966  0.5496
  467TIP3    H222961   6.436   2.887   7.871  0.2272 -0.4766  0.6670
  468TIP3   OH222962   0.137   5.891   7.387 -0.2622  0.4653  0.1843
  468TIP3    H122963   0.190   5.897   7.308 -0.7255 -1.4053 -0.3325
  468TIP3    H222964   0.104   5.979   7.401  1.6280  1.3283 -0.4067
  469TIP3   OH222965   0.185   0.515   1.396  0.1103  0.0732 -0.1162
  469TIP3    H122966   0.259   0.564   1.433  0.6578  0.1746 -1.2842
  469TIP3    H222967   0.167   0.447   1.460  1.0505  0.2095  0.3153
  470TIP3   OH222968   0.027   2.485   1.229 -0.2047 -0.0346  0.1995
  470TIP3    H122969  -0.017   2.493   1.314 -1.2795 -1.8790 -0.1308
  470TIP3    H222970  -0.038   2.513   1.165  0.5209  1.1214 -0.0724
  471TIP3   OH222971   2.924   5.291   1.939  0.0168  0.0986 -0.1504
  471TIP3    H122972   2.999   5.242   1.905 -0.9554 -1.0782 -0.6767
  471TIP3    H222973   2.872   5.226   1.986 -0.7738  0.8512  0.0546
  472TIP3   OH222974   5.552   5.792   7.140  0.3346  0.0289 -0.1714
  472TIP3    H122975   5.544   5.812   7.047  0.0240 -0.4400 -0.2471
  472TIP3    H222976   5.513   5.705   7.150  0.0497  0.2194  0.4517
  473TIP3   OH222977   4.933   2.803   1.246 -0.2395 -0.0835  0.1068
  473TIP3    H122978   4.882   2.789   1.166 -0.9168 -1.9040  0.8068
  473TIP3    H222979   5.023   2.815   1.215 -0.4327 -1.1219 -0.9275
  474TIP3   OH222980   1.312   6.115   1.395  0.2840  0.0983  0.0474
  474TIP3    H122981   1.220   6.129   1.373  0.1953 -0.6975 -0.1294
  474TIP3    H222982   1.310   6.057   1.471  0.6435 -1.3757 -1.0243
  475TIP3   OH222983   6.146   2.100   7.939  0.3220 -0.3537 -0.2704
  475TIP3    H122984   6.144   2.129   8.031 -0.4119 -1.7124  0.1705
  475TIP3    H222985   6.184   2.173   7.892 -0.0850  0.7130  1.0005
  476TIP3   OH222986   2.037   1.147   8.206 -0.8826  0.0506  0.1870
  476TIP3    H122987   2.036   1.052   8.197  5.3026 -0.4369  0.1791
  476TIP3    H222988   2.041   1.180   8.117  1.9345 -0.2921  0.0745
  477TIP3   OH222989   0.156   6.024   7.907 -0.3341 -0.1589  0.4093
  477TIP3    H122990   0.201   6.087   7.851  1.4445 -1.2422  0.5475
  477TIP3    H222991   0.067   6.019   7.872  0.1292  0.7980 -0.9532
  478TIP3   OH222992   4.821   5.632   0.639 -0.2102 -0.1611 -0.3509
  478TIP3    H122993   4.781   5.618   0.553  0.7086  0.3302 -0.8657
  478TIP3    H222994   4.912   5.604   0.628 -0.6690 -2.6377  1.1799
  479TIP3   OH222995   0.540   3.468   1.581  0.1729  0.3750  0.3142
  479TIP3    H122996   0.605   3.399   1.569 -0.0531  0.3333 -0.8607
  479TIP3    H222997   0.561   3.532   1.512  0.7793  1.8088  1.7690
  480TIP3   OH222998   1.306   6.071   2.022  0.8048  0.0894 -0.2745
  480TIP3    H122999   1.367   6.009   2.062 -0.0085  0.4978  1.7086
  480TIP3    H223000   1.247   6.096   2.093 -0.1819  1.5471 -1.5433
  481TIP3   OH223001   1.320   3.845   1.309 -0.8072  0.7100  0.2395
  481TIP3    H123002   1.404   3.803   1.327 -0.0524  2.4678  1.0123
  481TIP3    H223003   1.255   3.779   1.332  0.2864 -1.6127 -2.5989
  482TIP3   OH223004   1.483   1.949   2.003  0.3614 -0.0086  0.1514
  482TIP3    H123005   1.522   2.012   1.943 -2.2738  0.8314 -0.8212
  482TIP3    H223006   1.549   1.881   2.013  1.7803  0.9832 -1.8745
  483TIP3   OH223007   5.403   1.058   8.316 -0.7679 -0.0024 -0.1515
  483TIP3    H123008   5.341   1.120   8.356 -0.6856  0.7153 -1.0927
  483TIP3    H223009   5.470   1.114   8.277  1.3837 -0.7701  2.1495
  484TIP3   OH223010   2.370   5.301   7.482 -0.0052  0.2353  0.1248
  484TIP3    H123011   2.453   5.257   7.499 -0.5562 -0.9521 -0.1771
  484TIP3    H223012   2.320   5.240   7.427 -1.9990 -0.1461  2.2048
  485TIP3   OH223013   4.584   3.116   0.836  0.0908 -0.4562 -0.5596
  485TIP3    H123014   4.521   3.141   0.768 -1.7121 -0.0474  1.1923
  485TIP3    H223015   4.668   3.113   0.790 -1.2296 -1.5893 -3.1109
  486TIP3   OH223016   0.041   2.185   1.017 -0.1161  0.0137  0.4486
  486TIP3    H123017   0.027   2.263   0.963  1.0315 -0.7347 -0.9863
  486TIP3    H223018   0.129   2.155   0.994  0.2613 -0.5809  2.4511
  487TIP3   OH223019   6.312   0.924   1.207  0.1560  0.0726 -0.2732
  487TIP3    H123020   6.388   0.911   1.150  0.1659 -1.3574  0.0256
  487TIP3    H223021   6.306   1.019   1.218  1.6178  0.2319 -0.6711
  488TIP3   OH223022   5.649   1.952   1.267  0.6771  0.2666 -0.6747
  488TIP3    H123023   5.575   2.013   1.275  0.9735  0.8083 -1.8172
  488TIP3    H223024   5.697   1.962   1.349 -1.2809 -1.1890  0.7436
  489TIP3   OH223025   0.016   5.030   8.767  0.2608  0.2402 -0.1473
  489TIP3    H123026   0.065   5.101   8.808  0.9254  0.1953 -0.8470
  489TIP3    H223027  -0.057   5.075   8.723  0.8939  0.5475 -0.9108
  490TIP3   OH223028   0.930   3.984   0.316  0.1052 -0.1746  0.1835
  490TIP3    H123029   0.999   3.986   0.382 -0.9975 -0.9451  1.3935
  490TIP3    H223030   0.936   4.070   0.273  1.2729  0.0817  0.8057
  491TIP3   OH223031   5.122   0.923   0.864  0.7993 -0.2492  0.1229
  491TIP3    H123032   5.108   0.836   0.827 -0.6502 -1.1052  2.5254
  491TIP3    H223033   5.068   0.981   0.810  3.3608 -0.3187 -2.8572
  492TIP3   OH223034   1.684   3.631   2.070 -0.4434 -0.0323 -0.0783
  492TIP3    H123035   1.681   3.540   2.042 -1.4432  0.0830 -0.3911
  492TIP3    H223036   1.650   3.630   2.160 -0.1194 -0.0045  0.0484
  493TIP3   OH223037   2.930   2.121   1.819  0.1055 -0.1388 -0.3472
  493TIP3    H123038   2.926   2.026   1.810 -0.3537 -0.2013  0.4959
  493TIP3    H223039   2.944   2.153   1.729  2.0948 -1.0837 -0.4316
  494TIP3   OH223040   0.411   2.541   1.747 -0.3258 -0.1037  0.3403
  494TIP3    H123041   0.353   2.566   1.819  1.6665  0.0313  1.9976
  494TIP3    H223042   0.352   2.512   1.678 -2.5378  3.8097  0.3474
  495TIP3   OH223043   4.955   3.132   1.615  0.0450  0.4347  0.3887
  495TIP3    H123044   4.966   3.071   1.688  0.5099 -0.3248 -0.3013
  495TIP3    H223045   4.984   3.083   1.538  1.7017  1.9603 -0.0117
  496TIP3   OH223046   2.958   1.616   8.721 -0.3445 -0.4350  0.3135
  496TIP3    H123047   2.927   1.530   8.691 -1.4659 -0.1147  0.4994
  496TIP3    H223048   2.895   1.678   8.684 -0.3974  0.1735  1.3976
  497TIP3   OH223049   2.276   0.562   0.048 -0.7410  0.5607  0.0801
  497TIP3    H123050   2.229   0.486   0.014 -1.2252  1.7465 -2.1241
  497TIP3    H223051   2.367   0.534   0.054 -0.9853 -0.3264 -0.2483
  498TIP3   OH223052   4.959   1.337   8.332 -0.3224 -0.1848  0.6199
  498TIP3    H123053   4.907   1.329   8.252  1.4518  1.4348 -0.7610
  498TIP3    H223054   5.032   1.276   8.320  0.7175  1.0768  0.3322
  499TIP3   OH223055   1.936   2.270   0.679 -0.2806  0.2569 -0.3008
  499TIP3    H123056   1.878   2.346   0.682 -0.4615  0.4729 -4.2087
  499TIP3    H223057   2.019   2.303   0.646 -0.4724 -1.1783 -2.4519
  500TIP3   OH223058   4.250   2.762   2.399  0.0853 -0.1171 -0.0134
  500TIP3    H123059   4.342   2.761   2.375  0.3411  0.4373  0.8669
  500TIP3    H223060   4.237   2.680   2.447  0.3087  0.1249  0.4730
  501TIP3   OH223061   4.654   0.838   0.165  0.0759 -0.3344  0.0721
  501TIP3    H123062   4.680   0.748   0.144  0.1929 -0.3044  0.0900
  501TIP3    H223063   4.579   0.828   0.225 -1.8663 -0.4465 -2.2330
  502TIP3   OH223064   6.178   4.763   1.149  0.7310  0.3106 -0.4014
  502TIP3    H123065   6.104   4.798   1.100  0.8199  3.7540  1.5995
  502TIP3    H223066   6.201   4.833   1.211  1.9962 -2.7949  3.0165
  503TIP3   OH223067   3.649   3.883   7.899 -0.5986 -0.2220  0.4959
  503TIP3    H123068   3.693   3.967   7.887 -1.6021  0.0682 -1.5113
  503TIP3    H223069   3.578   3.902   7.960  0.1057  0.0018  1.2758
  504TIP3   OH223070   4.682   5.566   1.099 -0.3684  1.2644 -0.6389
  504TIP3    H123071   4.620   5.636   1.084 -0.8060  0.4221 -3.4439
  504TIP3    H223072   4.700   5.531   1.011  1.0436 -1.0737  0.4783
  505TIP3   OH223073   5.172   3.360   1.553 -0.0850  0.4623  0.2824
  505TIP3    H123074   5.171   3.363   1.457 -1.1364  1.6974  0.3179
  505TIP3    H223075   5.093   3.312   1.577 -1.6014  2.9769  0.5732
  506TIP3   OH223076   4.316   4.141   0.377  0.3066 -0.3642 -0.4149
  506TIP3    H123077   4.238   4.192   0.352  0.9722  0.5394 -0.6799
  506TIP3    H223078   4.312   4.063   0.321 -0.5451 -0.4629 -0.2382
  507TIP3   OH223079   3.274   4.434   1.357  0.1435 -0.1797 -0.0664
  507TIP3    H123080   3.270   4.350   1.311  0.3003 -1.1170  1.5584
  507TIP3    H223081   3.334   4.487   1.305  1.0857 -1.5498 -0.4185
  508TIP3   OH223082   6.265   4.202   0.536  0.4379  0.3068  0.1643
  508TIP3    H123083   6.225   4.164   0.458  0.2743 -0.1651  0.4739
  508TIP3    H223084   6.238   4.294   0.535  0.6038  0.3491 -0.4418
  509TIP3   OH223085   4.135   2.015   1.994  0.1882 -0.2043 -0.6408
  509TIP3    H123086   4.062   2.077   1.992  0.2493 -0.1091 -0.1551
  509TIP3    H223087   4.199   2.051   1.933 -0.3891 -0.5707 -1.4797
  510TIP3   OH223088   5.382   6.412   2.389  0.1549 -0.0006 -0.2471
  510TIP3    H123089   5.339   6.438   2.470 -1.1285  0.3236 -0.9857
  510TIP3    H223090   5.328   6.339   2.356 -0.1734  0.7382 -1.4499
  511TIP3   OH223091   5.588   5.952   2.703 -0.6168  0.2274  0.0265
  511TIP3    H123092   5.546   5.942   2.618  0.1016 -2.7078 -0.0917
  511TIP3    H223093   5.671   5.995   2.685 -1.0850  0.9352 -0.5076
  512TIP3   OH223094   5.923   1.449   0.005  0.7879 -0.6718 -0.4891
  512TIP3    H123095   5.919   1.379   0.070 -1.5621  0.4600  0.6918
  512TIP3    H223096   5.865   1.420  -0.066  0.4728 -0.2966 -0.3861
  513TIP3   OH223097   6.320   5.474   0.245 -0.3672  0.3570 -0.2147
  513TIP3    H123098   6.259   5.547   0.251 -1.3390 -0.5026  0.7244
  513TIP3    H223099   6.274   5.400   0.285 -0.2372 -1.3140 -2.8409
  514TIP3   OH223100   3.525   3.472   7.631  0.4378 -0.0608 -0.3601
  514TIP3    H123101   3.503   3.506   7.718 -1.0434 -1.4246 -0.1568
  514TIP3    H223102   3.550   3.550   7.581 -0.5999  1.0241  0.7322
  515TIP3   OH223103   3.593   2.563   7.428 -0.0804 -0.0959 -0.5780
  515TIP3    H123104   3.616   2.644   7.472  1.1735 -1.0629  0.6490
  515TIP3    H223105   3.670   2.540   7.376 -0.0795 -0.9050 -0.2479
  516TIP3   OH223106   3.388   5.928   7.599 -0.6242  0.7196 -1.3027
  516TIP3    H123107   3.422   5.951   7.685 -1.4902  0.8385 -0.9859
  516TIP3    H223108   3.405   6.004   7.544  0.9878  0.2124 -1.5655
  517TIP3   OH223109   5.710   1.905   7.655 -0.1282  0.4258 -0.1963
  517TIP3    H123110   5.717   1.882   7.563  2.2374  2.4062 -0.6126
  517TIP3    H223111   5.775   1.849   7.699 -0.9948 -0.2574  0.2489
  518TIP3   OH223112   3.832   1.315   0.884 -0.7204 -0.2946 -0.7766
  518TIP3    H123113   3.790   1.365   0.953 -0.2176  0.0685 -0.7260
  518TIP3    H223114   3.776   1.238   0.872 -1.1194 -0.0708 -0.3700
  519TIP3   OH223115   3.530   0.257   1.390 -0.2993 -0.2805  0.4538
  519TIP3    H123116   3.471   0.320   1.431  0.7536  1.9910 -1.2901
  519TIP3    H223117   3.472   0.189   1.356 -1.5917  0.2386  1.5203
  520TIP3   OH223118   6.021   3.238   0.493 -0.6346  0.3307 -0.4174
  520TIP3    H123119   6.105   3.202   0.465  1.0135  3.0623  0.5934
  520TIP3    H223120   5.974   3.257   0.412  0.4059  0.2539 -1.0585
  521TIP3   OH223121   1.005   4.877   6.714  0.4428  0.1019 -0.1443
  521TIP3    H123122   0.941   4.938   6.753 -1.8990 -2.2447  0.0081
  521TIP3    H223123   0.984   4.876   6.621 -0.5644 -1.4595  0.0527
  522TIP3   OH223124   2.370   6.111   0.690  0.2818  0.5915 -0.0962
  522TIP3    H123125   2.334   6.033   0.733  0.1705  1.2080  0.9703
  522TIP3    H223126   2.432   6.147   0.754 -1.5667  2.8260  0.5778
  523TIP3   OH223127   1.247   4.882   1.330  0.4486 -0.0377  0.0404
  523TIP3    H123128   1.255   4.929   1.413 -0.6655 -0.6762  0.5309
  523TIP3    H223129   1.307   4.807   1.339  1.5610  0.7815 -0.3946
  524TIP3   OH223130   2.995   0.012   1.812 -0.2105  0.1821  0.1491
  524TIP3    H123131   2.909   0.016   1.854  1.0025  0.5570  2.8079
  524TIP3    H223132   3.013  -0.082   1.803  0.6311 -0.0508  3.2023
  525TIP3   OH223133   5.303   2.941   0.353  0.2727 -0.4260 -0.1138
  525TIP3    H123134   5.328   3.016   0.406  0.0227 -0.0563 -0.5156
  525TIP3    H223135   5.243   2.976   0.287  1.7724 -0.5660 -1.6432
  526TIP3   OH223136   2.805   0.628   7.224 -0.3649  0.4365  0.0159
  526TIP3    H123137   2.862   0.590   7.291 -1.2578 -1.0793 -0.0287
  526TIP3    H223138   2.865   0.655   7.154  0.3113 -1.8040 -0.3623
  527TIP3   OH223139   5.109   5.322   3.416  0.5687  0.0459 -0.0510
  527TIP3    H123140   5.138   5.232   3.398 -0.5648 -0.3760  0.1291
  527TIP3    H223141   5.120   5.331   3.511 -2.2967 -1.0905  0.5208
  528TIP3   OH223142   0.757   4.841   0.114  0.5264 -0.1794  0.6728
  528TIP3    H123143   0.838   4.877   0.077  0.7376 -0.2726  1.0345
  528TIP3    H223144   0.717   4.792   0.042  1.7878 -1.7940  0.9968
  529TIP3   OH223145   6.472   3.901   2.284  0.4315 -0.3178  0.5753
  529TIP3    H123146   6.540   3.836   2.266  1.6488  1.6945 -2.9204
  529TIP3    H223147   6.520   3.983   2.297 -1.2388  0.6913  0.6404
  530TIP3   OH223148   0.856   6.663   1.711 -0.1789  0.0291 -0.7792
  530TIP3    H123149   0.780   6.719   1.725  0.1698  0.2753  0.2236
  530TIP3    H223150   0.931   6.722   1.716  0.1576 -0.4204 -0.3482
  531TIP3   OH223151   0.947   6.400   0.823 -0.7131  0.1173 -0.2661
  531TIP3    H123152   0.894   6.332   0.865 -0.3226 -0.3250 -0.4758
  531TIP3    H223153   0.922   6.481   0.868 -0.1997 -0.3584  0.9148
  532TIP3   OH223154   4.049   3.773   0.223  0.8824  0.0190 -0.4630
  532TIP3    H123155   4.103   3.780   0.301  3.4239  2.2251 -2.2667
  532TIP3    H223156   3.975   3.832   0.239  1.6657  0.8773  0.0757
  533TIP3   OH223157   4.906   1.961   7.409 -0.0969  0.5858 -0.0789
  533TIP3    H123158   4.864   2.010   7.480  0.1522 -0.3816  0.7660
  533TIP3    H223159   4.836   1.946   7.346 -0.4920  0.8716  0.2871
  534TIP3   OH223160   1.468   0.814   0.465 -0.1952  0.3974  0.5064
  534TIP3    H123161   1.442   0.893   0.417 -0.4129  0.4127  0.6455
  534TIP3    H223162   1.465   0.841   0.557  0.1450  0.3473  0.5307
  535TIP3   OH223163   3.386   1.384   7.860  0.4349 -0.2057 -0.2010
  535TIP3    H123164   3.414   1.470   7.830  0.5744 -0.4315 -0.7292
  535TIP3    H223165   3.293   1.395   7.881  0.5528  0.1722  0.1439
  536TIP3   OH223166   4.087   1.381   0.494 -0.7222 -0.3575 -1.3074
  536TIP3    H123167   4.060   1.302   0.542  1.2408 -0.3301 -0.0087
  536TIP3    H223168   4.045   1.453   0.541  0.9423 -0.3556  0.2866
  537TIP3   OH223169   5.665   3.658   2.876 -0.2206  0.3302  0.5652
  537TIP3    H123170   5.649   3.669   2.970  0.8951  0.0395  0.8047
  537TIP3    H223171   5.578   3.650   2.838 -0.8207  2.5852  1.2799
  538TIP3   OH223172   2.968   2.237   0.205 -0.0195  0.6106  0.4993
  538TIP3    H123173   3.031   2.227   0.277 -0.4344 -1.5013  0.6401
  538TIP3    H223174   2.967   2.151   0.163 -3.0787  0.4346  0.7449
  539TIP3   OH223175   5.373   0.505   2.767  0.2768  0.1767  0.0742
  539TIP3    H123176   5.419   0.423   2.749  0.6027  0.0544  1.3475
  539TIP3    H223177   5.425   0.546   2.836 -1.5902 -0.0450  1.6981
  540TIP3   OH223178   1.214   0.883   7.173 -0.2723 -0.0647  0.0598
  540TIP3    H123179   1.136   0.912   7.220 -0.0700  1.1401 -0.3275
  540TIP3    H223180   1.196   0.902   7.081  0.5168  0.3225 -0.0220
  541TIP3   OH223181   6.096   5.523   7.756  0.0061 -0.1032 -0.5928
  541TIP3    H123182   6.003   5.498   7.766  0.2026 -0.5150  0.3909
  541TIP3    H223183   6.108   5.535   7.662 -1.1979  0.5638 -0.6812
  542TIP3   OH223184   5.551   2.417   0.713  0.2558  0.0212  0.8009
  542TIP3    H123185   5.476   2.390   0.765 -0.4464  1.4410  0.5679
  542TIP3    H223186   5.624   2.419   0.775 -0.3151  0.5087  1.4645
  543TIP3   OH223187   3.658   1.512   7.588 -0.0105  0.1642 -0.3783
  543TIP3    H123188   3.700   1.480   7.668  0.9671 -0.6946 -1.1954
  543TIP3    H223189   3.722   1.494   7.519 -1.1364  0.1928 -1.4667
  544TIP3   OH223190   3.271   0.529   1.227 -0.3511  0.2522 -0.1431
  544TIP3    H123191   3.312   0.530   1.140  0.2969  2.6659  0.1054
  544TIP3    H223192   3.180   0.507   1.211 -0.1696  0.3668 -1.4050
  545TIP3   OH223193   2.368   2.620   2.355  0.0566  0.3634  0.1312
  545TIP3    H123194   2.353   2.554   2.423 -1.2245  0.2610 -0.2264
  545TIP3    H223195   2.388   2.700   2.403 -3.7420  1.0606  0.8478
  546TIP3   OH223196   6.302   2.560   0.113  0.0809  0.2981 -0.3571
  546TIP3    H123197   6.264   2.477   0.142  0.2289  0.2054 -0.4268
  546TIP3    H223198   6.260   2.577   0.028 -0.5224  0.6840  0.0061
  547TIP3   OH223199   1.065   1.915   8.626  0.3007 -0.2121  0.0308
  547TIP3    H123200   1.107   1.865   8.557 -2.2819 -1.4752 -0.7465
  547TIP3    H223201   1.081   2.007   8.603 -0.0341 -0.6141 -1.9816
  548TIP3   OH223202   4.560   6.081   2.000 -0.2729 -0.1672 -0.4511
  548TIP3    H123203   4.640   6.063   1.951  0.0598 -0.2407  0.1106
  548TIP3    H223204   4.575   6.041   2.085 -0.9113 -0.1812 -0.3405
  549TIP3   OH223205   0.788   4.241   0.535  0.2720  0.2339 -0.0823
  549TIP3    H123206   0.881   4.258   0.518 -0.1183  1.5847 -0.9828
  549TIP3    H223207   0.772   4.281   0.620  0.9887 -1.9507  1.1761
  550TIP3   OH223208   6.238   5.268   1.700  0.0043  0.5823 -0.5216
  550TIP3    H123209   6.159   5.216   1.686 -0.2990  0.4944  1.2394
  550TIP3    H223210   6.306   5.224   1.649 -0.9156  0.2237 -1.4565
  551TIP3   OH223211   3.199   6.752   7.589  0.0869 -0.1042 -0.4943
  551TIP3    H123212   3.253   6.694   7.536 -0.1493 -0.8902  0.1112
  551TIP3    H223213   3.261   6.812   7.630  0.8145 -2.3026  1.8528
  552TIP3   OH223214   5.763   4.169   2.743 -0.0396  0.2281  1.1614
  552TIP3    H123215   5.824   4.143   2.813  0.2966 -0.2564  0.7017
  552TIP3    H223216   5.698   4.099   2.741 -0.1455  0.3282  1.1076
  553TIP3   OH223217   6.502   6.476   1.552 -0.4999  0.2487  0.4941
  553TIP3    H123218   6.422   6.435   1.585  1.0415 -1.6818  2.1120
  553TIP3    H223219   6.570   6.446   1.612  1.7663  0.2721 -1.9302
  554TIP3   OH223220   1.007   2.173   2.778 -0.2947  0.0298  0.0079
  554TIP3    H123221   1.101   2.188   2.787  0.4199 -1.7543 -3.0854
  554TIP3    H223222   0.967   2.259   2.789  1.5346  0.7061  2.1838
  555TIP3   OH223223   0.285   3.698   7.165 -0.2503  0.5747 -0.6144
  555TIP3    H123224   0.318   3.764   7.226 -2.0910  0.6184  0.4001
  555TIP3    H223225   0.190   3.705   7.171 -0.4787 -0.9381 -1.8506
  556TIP3   OH223226   4.116   6.502   8.738  0.1325 -0.0958  0.3166
  556TIP3    H123227   4.079   6.506   8.827 -1.4845  1.4053 -0.3787
  556TIP3    H223228   4.067   6.432   8.695 -0.2087  0.2685  0.1159
  557TIP3   OH223229   4.900   3.734   6.651  0.3892 -0.0362 -0.1299
  557TIP3    H123230   4.956   3.698   6.720  0.0742  0.7180  0.5324
  557TIP3    H223231   4.918   3.828   6.652  0.1001  0.0329 -0.8270
  558TIP3   OH223232   5.283   1.930   7.668  0.3977 -0.2707 -0.1770
  558TIP3    H123233   5.298   1.837   7.647  1.1151 -0.2810  0.3397
  558TIP3    H223234   5.244   1.966   7.588 -1.4317 -1.3598  0.1640
  559TIP3   OH223235   4.160   3.668   2.985 -0.1170  0.1982  0.3708
  559TIP3    H123236   4.118   3.675   3.071 -1.1685  0.0316 -0.1142
  559TIP3    H223237   4.237   3.614   3.001  0.7795  1.7583  1.5820
  560TIP3   OH223238   0.560   0.692   8.755  0.1330 -0.4185 -0.3758
  560TIP3    H123239   0.621   0.634   8.801  2.1580  2.4374  0.8609
  560TIP3    H223240   0.473   0.663   8.784  1.0959 -2.0710  1.0608
  561TIP3   OH223241   4.850   4.394   1.546  0.3398 -0.2147  0.1430
  561TIP3    H123242   4.855   4.450   1.468  1.0052 -0.9568 -0.3627
  561TIP3    H223243   4.792   4.323   1.520 -0.0600 -0.0530  0.5948
  562TIP3   OH223244   6.196   4.689   6.857  0.3334 -0.3025  0.4157
  562TIP3    H123245   6.189   4.782   6.877 -0.2942 -0.8179  2.8884
  562TIP3    H223246   6.243   4.686   6.773  0.1857  2.2129  0.1709
  563TIP3   OH223247   1.127   6.481   8.124 -0.2080 -0.4089  0.3410
  563TIP3    H123248   1.099   6.552   8.182 -0.1298  0.0453 -0.1699
  563TIP3    H223249   1.071   6.407   8.148 -1.2832  0.2376 -0.0880
  564TIP3   OH223250   4.205   5.809   1.133 -0.0001  0.1793 -0.4105
  564TIP3    H123251   4.258   5.752   1.077  0.0518 -0.3474  0.1590
  564TIP3    H223252   4.259   5.823   1.211 -0.7881 -0.5774  0.2951
  565TIP3   OH223253   3.418   3.624   7.836  0.1594  0.1353 -1.0410
  565TIP3    H123254   3.397   3.539   7.874 -2.3304  0.8935 -0.5219
  565TIP3    H223255   3.370   3.687   7.890  1.8993  1.8999 -1.4340
  566TIP3   OH223256   2.403   0.700   2.375 -0.4110 -0.6566 -0.1585
  566TIP3    H123257   2.383   0.788   2.406  3.7900  0.2907  0.5741
  566TIP3    H223258   2.386   0.702   2.281  0.4869  1.2949 -0.3162
  567TIP3   OH223259   1.534   5.546   8.585  0.2442  0.1171  0.2158
  567TIP3    H123260   1.507   5.581   8.670  0.5630 -0.3527  0.5133
  567TIP3    H223261   1.627   5.526   8.595 -0.1018 -1.5669  0.3264
  568TIP3   OH223262   3.335   6.314   0.753 -0.2143 -0.3824 -0.0833
  568TIP3    H123263   3.328   6.388   0.693  1.6263  0.6925  0.9570
  568TIP3    H223264   3.250   6.310   0.796 -0.6756  0.4774 -0.8714
  569TIP3   OH223265   3.515   6.205   0.221  0.1592 -0.5715 -0.0798
  569TIP3    H123266   3.514   6.168   0.309 -1.3077 -0.5793 -0.0763
  569TIP3    H223267   3.438   6.168   0.178 -1.0140  1.9074 -0.2995
  570TIP3   OH223268   5.433   5.664   7.813  0.1580 -0.4635 -0.0843
  570TIP3    H123269   5.461   5.727   7.747 -0.1911  0.7861  0.9092
  570TIP3    H223270   5.340   5.651   7.796 -0.1308  0.5006  0.6162
  571TIP3   OH223271   1.081   6.050   1.851 -0.1651  0.1104 -0.1467
  571TIP3    H123272   1.165   6.039   1.896 -0.1226  0.6633 -0.0882
  571TIP3    H223273   1.100   6.105   1.775  0.0633 -2.0166 -1.7478
  572TIP3   OH223274   4.021   4.401   1.541 -0.6463 -0.2210  0.6326
  572TIP3    H123275   4.001   4.434   1.628 -1.0292  3.1622 -0.5836
  572TIP3    H223276   4.116   4.386   1.542 -0.6846 -0.4179  1.6700
  573TIP3   OH223277   2.177   0.930   1.616  0.8361 -0.2581 -0.1201
  573TIP3    H123278   2.088   0.945   1.650  0.8817  1.4131 -0.6814
  573TIP3    H223279   2.231   0.919   1.694  0.3829  0.1763  0.2585
  574TIP3   OH223280   5.894   1.933   8.271  0.2390 -0.6070 -0.8101
  574TIP3    H123281   5.862   1.904   8.357  0.6136 -0.0431 -0.4745
  574TIP3    H223282   5.856   2.020   8.261  1.2624 -0.1373 -0.6343
  575TIP3   OH223283   2.266   1.912   1.193 -0.2598 -0.1649 -0.4839
  575TIP3    H123284   2.252   1.825   1.155 -0.5895  0.7083 -2.4797
  575TIP3    H223285   2.331   1.953   1.136  0.9642  0.4333  1.2540
  576TIP3   OH223286   4.902   0.689   8.053  0.3810  0.0874  0.1035
  576TIP3    H123287   4.813   0.705   8.083  0.0962 -1.0348 -0.0783
  576TIP3    H223288   4.937   0.624   8.114  0.6991 -0.2752 -0.4548
  577TIP3   OH223289   3.514   4.016   1.065 -0.1280  0.1966 -0.5664
  577TIP3    H123290   3.523   3.935   1.015  0.2376  0.8877 -1.6623
  577TIP3    H223291   3.493   4.082   0.999  2.1627  1.4954 -0.1012
  578TIP3   OH223292   5.350   2.913   8.194  0.1066 -0.2064  0.4714
  578TIP3    H123293   5.269   2.951   8.229 -0.1315 -0.6338  0.3922
  578TIP3    H223294   5.411   2.916   8.267 -0.7177 -2.1275  1.3020
  579TIP3   OH223295   1.705   6.616   2.360  0.4725 -0.3022 -0.4566
  579TIP3    H123296   1.688   6.695   2.411  1.9497  0.7307 -1.4916
  579TIP3    H223297   1.647   6.551   2.398  0.2116  0.8954  1.3456
  580TIP3   OH223298   1.160   1.796   2.095  0.2172  0.0041  0.3647
  580TIP3    H123299   1.230   1.799   2.160 -0.6128  0.3783  1.2567
  580TIP3    H223300   1.202   1.828   2.015  1.3620 -0.8663  0.5767
  581TIP3   OH223301   2.117   1.974   2.454  0.5391 -0.0951 -0.3696
  581TIP3    H123302   2.146   1.901   2.509 -0.7416 -0.1750  0.2313
  581TIP3    H223303   2.118   2.050   2.512  2.2087  0.4864 -1.0835
  582TIP3   OH223304   1.344   5.064   2.154 -0.5196 -0.1227  0.2373
  582TIP3    H123305   1.366   5.151   2.188  3.3710 -0.8191  0.0014
  582TIP3    H223306   1.286   5.082   2.080 -1.0906  2.1387  1.1458
  583TIP3   OH223307   0.419   0.873   0.474  0.0148 -0.3684  0.7348
  583TIP3    H123308   0.490   0.864   0.411 -1.2258 -1.3494 -0.6062
  583TIP3    H223309   0.377   0.956   0.451  0.5696  0.0915  1.3677
  584TIP3   OH223310   4.690   0.116   0.371 -0.2259 -0.3208 -0.4698
  584TIP3    H123311   4.653   0.203   0.383  4.2567  1.6839  0.7401
  584TIP3    H223312   4.671   0.070   0.452  0.6459  0.9710  0.5008
  585TIP3   OH223313   4.817   2.772   0.228  0.0564  0.3034  0.2467
  585TIP3    H123314   4.901   2.728   0.232 -0.0593  0.1972  2.5094
  585TIP3    H223315   4.798   2.779   0.134  2.4955  0.2155 -0.3090
  586TIP3   OH223316   6.283   4.137   1.422 -0.3201 -0.2519 -0.5103
  586TIP3    H123317   6.377   4.137   1.438 -0.3163  2.9393  0.2450
  586TIP3    H223318   6.256   4.047   1.439  2.2462 -0.7633  1.6583
  587TIP3   OH223319   6.312   0.462   0.248 -0.7137 -0.2361 -0.4565
  587TIP3    H123320   6.285   0.450   0.339  0.0351 -0.0660 -0.2046
  587TIP3    H223321   6.271   0.389   0.201  0.3487 -1.3838  0.3279
  588TIP3   OH223322   2.757   6.669   1.944  1.0879  0.6637  0.0089
  588TIP3    H123323   2.822   6.633   2.003  1.2939  1.5368  0.3268
  588TIP3    H223324   2.756   6.763   1.963 -0.0345  0.7129 -0.2079
  589TIP3   OH223325   0.675   6.175   6.946 -0.2863 -0.1229 -0.0072
  589TIP3    H123326   0.606   6.238   6.970 -0.7684 -0.8763  0.6427
  589TIP3    H223327   0.642   6.133   6.867 -0.8004 -0.8049  0.5590
  590TIP3   OH223328   1.060   4.094   0.805  0.2440  0.1069  0.0613
  590TIP3    H123329   1.082   4.160   0.872  1.8289  1.1056 -1.3435
  590TIP3    H223330   1.023   4.021   0.854 -0.8220  1.7048  1.7779
  591TIP3   OH223331   3.685   4.484   6.937  0.6456 -0.0814  0.8109
  591TIP3    H123332   3.729   4.404   6.909 -1.1988 -1.1970  0.9471
  591TIP3    H223333   3.682   4.538   6.858  1.1360 -0.5063  0.4921
  592TIP3   OH223334   2.150   2.552   8.647  0.2307 -0.2334 -0.4950
  592TIP3    H123335   2.221   2.492   8.667 -0.0849 -0.6176 -0.4964
  592TIP3    H223336   2.192   2.627   8.606  0.5898 -0.6431 -0.8910
  593TIP3   OH223337   1.822   1.800   8.714  0.0872  0.3389 -0.0942
  593TIP3    H123338   1.912   1.767   8.705 -0.3126 -0.6788 -0.4886
  593TIP3    H223339   1.817   1.873   8.652  0.5456  0.1832 -0.3205
  594TIP3   OH223340   6.560   1.309   0.434 -0.0957 -0.1201  0.4878
  594TIP3    H123341   6.566   1.378   0.500 -0.1779 -0.1918  0.5705
  594TIP3    H223342   6.563   1.355   0.350 -0.6918  0.0287  0.5460
  595TIP3   OH223343   1.152   1.251   7.421  0.0571 -0.8237  0.1130
  595TIP3    H123344   1.077   1.279   7.368  0.3427 -1.7546 -0.8246
  595TIP3    H223345   1.213   1.324   7.416 -0.9231  0.1120  1.2137
  596TIP3   OH223346   1.670   0.976   8.060  0.2918 -0.1831  0.2461
  596TIP3    H123347   1.625   0.891   8.053  1.5416 -0.8504  0.1121
  596TIP3    H223348   1.755   0.955   8.097  0.8521  0.9359 -0.3618
  597TIP3   OH223349   2.727   1.919   1.198  0.0792  0.0812  0.2335
  597TIP3    H123350   2.776   1.965   1.265  1.5489  0.6704 -1.1646
  597TIP3    H223351   2.652   1.881   1.244 -0.9236  3.3536  1.5832
  598TIP3   OH223352   1.445   0.494   0.909  0.6081  0.5297 -0.5324
  598TIP3    H123353   1.403   0.435   0.971 -0.0512 -2.5327 -3.5892
  598TIP3    H223354   1.539   0.475   0.917  0.5019 -0.0612 -0.6628
  599TIP3   OH223355   4.632   6.817   8.315 -0.3149  0.0146  0.5634
  599TIP3    H123356   4.678   6.883   8.366 -1.9082  2.1800 -0.6495
  599TIP3    H223357   4.697   6.785   8.252  0.6167  0.0180  1.4989
  600TIP3   OH223358   6.523   1.036   7.951 -0.0136 -0.5475  0.1611
  600TIP3    H123359   6.583   1.091   8.002 -0.6720  0.3231  0.0178
  600TIP3    H223360   6.580   0.972   7.907  1.0365  1.4129 -1.4734
  601TIP3   OH223361   2.409   3.051   7.475  0.3253  0.1572 -0.0097
  601TIP3    H123362   2.339   3.116   7.464  0.3941  0.4587  1.2721
  601TIP3    H223363   2.375   2.972   7.432 -0.8218  0.2866  0.6273
  602TIP3   OH223364   1.984   0.216   2.048 -0.6544 -0.5270 -0.1543
  602TIP3    H123365   1.889   0.214   2.039 -0.5494 -3.0388 -1.6147
  602TIP3    H223366   2.013   0.277   1.981 -1.2369  1.2827  1.1643
  603TIP3   OH223367   6.177   4.683   2.840  0.2348  0.6262 -0.4071
  603TIP3    H123368   6.216   4.596   2.841  1.9482  1.3457  0.8465
  603TIP3    H223369   6.159   4.701   2.748  2.4868  0.0531 -1.0187
  604TIP3   OH223370   0.462   5.296   8.121  0.2766  0.0753  0.0499
  604TIP3    H123371   0.519   5.241   8.067  0.8575 -1.0990  1.7665
  604TIP3    H223372   0.521   5.337   8.184 -0.5927 -0.2401  1.1086
  605TIP3   OH223373   5.775   5.357   1.039  0.6740 -0.2351 -0.1883
  605TIP3    H123374   5.774   5.426   0.973  0.3462  0.3807  0.4494
  605TIP3    H223375   5.772   5.275   0.988 -1.9849  0.2229 -0.9515
  606TIP3   OH223376   4.903   3.350   8.068 -0.2482  0.6396 -0.1129
  606TIP3    H123377   4.897   3.291   7.993  0.0060  1.1748 -0.5643
  606TIP3    H223378   4.856   3.305   8.138  0.4438 -0.3675 -0.2670
  607TIP3   OH223379   1.891   1.295   1.575  0.2885  0.2944  0.4385
  607TIP3    H123380   1.850   1.238   1.510  0.0941 -1.3652  1.9338
  607TIP3    H223381   1.851   1.381   1.561 -1.2779 -0.5174 -0.2755
  608TIP3   OH223382   1.547   4.503   0.679  0.0979 -0.1949  0.1824
  608TIP3    H123383   1.609   4.495   0.751  0.5896 -1.3869 -0.3522
  608TIP3    H223384   1.601   4.528   0.604 -0.4643  1.4453  0.2744
  609TIP3   OH223385   1.005   5.808   8.379 -0.3469  0.5873  0.3321
  609TIP3    H123386   0.980   5.716   8.382 -0.1655  0.5446  0.5468
  609TIP3    H223387   0.956   5.844   8.304 -1.3690  0.5955  0.9800
  610TIP3   OH223388   2.283   2.755   7.082 -0.1441  0.1465  0.3183
  610TIP3    H123389   2.226   2.831   7.079  0.5447  0.6608 -0.1009
  610TIP3    H223390   2.265   2.708   7.001 -0.7609 -0.2867  0.7006
  611TIP3   OH223391   5.010   3.668   6.911 -1.0246  0.1178 -0.6478
  611TIP3    H123392   5.093   3.629   6.884 -1.1090  0.8113 -1.9438
  611TIP3    H223393   5.034   3.725   6.985 -0.3316  0.3573 -1.0457
  612TIP3   OH223394   4.171   1.134   7.078  0.0779 -0.2632  0.3673
  612TIP3    H123395   4.243   1.186   7.041 -0.4763  0.6146  0.4781
  612TIP3    H223396   4.199   1.116   7.168  0.5263 -0.6478  0.1544
  613TIP3   OH223397   3.145   0.407   1.886  0.2079  0.3707 -0.1804
  613TIP3    H123398   3.093   0.382   1.963  1.4792 -0.4959  0.4377
  613TIP3    H223399   3.097   0.480   1.847 -0.6764  0.5833  1.2260
  614TIP3   OH223400   4.326   6.364   8.224 -0.0530 -0.2528  0.2644
  614TIP3    H123401   4.326   6.434   8.158  1.5651  0.4248  0.9187
  614TIP3    H223402   4.270   6.397   8.294 -0.3965 -0.2170 -0.0246
  615TIP3   OH223403   5.165   2.202   6.650  0.3440 -0.4005  0.1489
  615TIP3    H123404   5.122   2.257   6.715 -0.9771  0.2983 -1.2462
  615TIP3    H223405   5.100   2.136   6.628  1.9365 -2.7181  1.8757
  616TIP3   OH223406   2.817   4.269   1.745  0.1882  0.2395 -0.0449
  616TIP3    H123407   2.877   4.256   1.672 -0.0240  1.6586 -0.4943
  616TIP3    H223408   2.873   4.274   1.822  0.4248 -1.0953 -0.0988
  617TIP3   OH223409   6.134   2.372   0.312  0.3578  0.0051 -0.3003
  617TIP3    H123410   6.043   2.367   0.282  0.0572 -1.9887  0.8417
  617TIP3    H223411   6.179   2.305   0.261  0.5195 -1.1309  1.2904
  618TIP3   OH223412   3.371   1.408   1.331  0.7619  0.2707 -0.1076
  618TIP3    H123413   3.350   1.453   1.249  0.6868  1.5239  0.5657
  618TIP3    H223414   3.391   1.319   1.305 -0.4003  0.3376 -1.3589
  619TIP3   OH223415   4.475   5.492   1.303  0.2425 -0.4834 -0.0212
  619TIP3    H123416   4.455   5.505   1.396  0.6232  0.9130 -0.1056
  619TIP3    H223417   4.406   5.434   1.272 -0.8302  0.2971  0.8015
  620TIP3   OH223418   2.846   0.291   0.214  0.3279 -0.4802 -0.3052
  620TIP3    H123419   2.908   0.313   0.284  1.0499  0.0609 -1.1004
  620TIP3    H223420   2.798   0.373   0.199 -0.1014 -0.7067 -0.1787
  621TIP3   OH223421   1.561   3.365   2.200 -0.3413 -0.7283  0.2763
  621TIP3    H123422   1.601   3.362   2.287  0.6919 -2.1519 -0.2180
  621TIP3    H223423   1.468   3.380   2.217  0.1746  1.6028  1.4978
  622TIP3   OH223424   1.367   5.317   2.254 -0.3713  0.7009  0.2530
  622TIP3    H123425   1.340   5.299   2.344 -3.1836  0.0518 -0.6380
  622TIP3    H223426   1.382   5.411   2.252 -1.8087  0.9797  1.0765
  623TIP3   OH223427   2.943   1.573   1.323  0.1617 -0.2773 -0.1498
  623TIP3    H123428   2.987   1.498   1.283 -0.5535 -2.1556  2.3365
  623TIP3    H223429   2.861   1.537   1.358 -0.2469  1.6876  1.0676
  624TIP3   OH223430   2.717   2.455   8.051 -0.0503 -0.0551  0.1009
  624TIP3    H123431   2.743   2.538   8.011  0.3268  0.0735  0.6073
  624TIP3    H223432   2.718   2.392   7.979 -0.3231  0.3750 -0.2810
  625TIP3   OH223433   1.318   4.065   6.625  0.2139 -0.6838  0.4401
  625TIP3    H123434   1.276   3.985   6.658  0.5770 -1.4284 -0.8463
  625TIP3    H223435   1.410   4.056   6.649  0.1037 -0.1952  1.0995
  626TIP3   OH223436   2.774   1.502   1.853  0.7626 -0.4663  0.3007
  626TIP3    H123437   2.773   1.472   1.944  0.0175 -1.5299 -0.0358
  626TIP3    H223438   2.810   1.591   1.857  0.0826 -0.2265  1.7158
  627TIP3   OH223439   4.481   0.218   8.601  0.1174 -0.0313 -0.5228
  627TIP3    H123440   4.483   0.270   8.520 -2.3094  0.7264 -0.1587
  627TIP3    H223441   4.458   0.130   8.572  0.3910 -0.0287 -0.7590
  628TIP3   OH223442   1.547   5.843   1.565  0.1749  0.3726  0.0375
  628TIP3    H123443   1.565   5.925   1.519  1.4504  0.1087  0.0390
  628TIP3    H223444   1.631   5.798   1.568 -0.5373 -1.0179 -0.1036
  629TIP3   OH223445   2.212   3.789   0.961  0.2524  0.8853  0.2137
  629TIP3    H123446   2.167   3.705   0.948  0.0593  0.8154  1.2575
  629TIP3    H223447   2.223   3.824   0.873  2.4283 -1.3079 -0.4940
  630TIP3   OH223448   4.097   4.886   2.474  0.2561 -0.1300  0.1033
  630TIP3    H123449   4.064   4.918   2.390  1.8592  1.9832  0.1903
  630TIP3    H223450   4.058   4.945   2.539 -0.8497 -1.6499  0.8685
  631TIP3   OH223451   3.236   4.944   1.601 -0.5271  0.3371 -0.0271
  631TIP3    H123452   3.189   4.889   1.665 -0.4989 -0.4671 -0.6872
  631TIP3    H223453   3.253   5.025   1.648  3.0857 -1.5966  2.4721
  632TIP3   OH223454   4.782   5.476   8.785  0.9115  0.1748  0.7754
  632TIP3    H123455   4.857   5.534   8.772  1.6672 -1.2266 -1.7315
  632TIP3    H223456   4.733   5.481   8.703  0.1827 -1.5694  1.0567
  633TIP3   OH223457   3.864   4.718   7.806  0.0707 -0.1445 -0.4545
  633TIP3    H123458   3.839   4.671   7.726 -1.3090  0.0016 -0.1231
  633TIP3    H223459   3.807   4.795   7.808  2.3945  1.6941 -1.0676
  634TIP3   OH223460   0.498   4.808   1.379  0.1325 -0.1314 -0.2128
  634TIP3    H123461   0.429   4.760   1.423  0.9743 -1.7109 -0.5438
  634TIP3    H223462   0.574   4.750   1.383  1.0451  0.9505 -1.1104
  635TIP3   OH223463   5.665   3.312   8.795  0.0945  0.1346  0.3414
  635TIP3    H123464   5.760   3.302   8.791  0.2737  1.9076 -1.3447
  635TIP3    H223465   5.652   3.405   8.816 -1.1540  0.9824 -3.3855
  636TIP3   OH223466   6.542   6.376   2.639 -0.0177  0.2835 -0.2112
  636TIP3    H123467   6.530   6.470   2.626  1.1879  0.2851 -1.6313
  636TIP3    H223468   6.456   6.345   2.669 -0.1003  1.9993  1.5095
  637TIP3   OH223469   5.527   1.698   1.249  0.2117  0.0272  0.0625
  637TIP3    H123470   5.545   1.792   1.255 -0.4916  0.0999  1.6507
  637TIP3    H223471   5.568   1.671   1.167 -0.5426  1.9328 -1.0298
  638TIP3   OH223472   4.152   4.614   8.580 -0.0527 -0.1174  0.5928
  638TIP3    H123473   4.140   4.539   8.638 -2.0770  0.4074  0.9018
  638TIP3    H223474   4.115   4.688   8.629 -0.4818  0.5992 -0.7741
  639TIP3   OH223475   0.034   0.828   2.520 -0.3246 -0.1936 -0.5151
  639TIP3    H123476   0.073   0.741   2.511 -0.2156 -0.3412  1.0920
  639TIP3    H223477   0.101   0.880   2.564 -1.0797  0.1945  0.1950
  640TIP3   OH223478   0.347   1.915   7.020  0.4218 -0.5777  0.3932
  640TIP3    H123479   0.331   2.004   6.990 -1.7730 -0.4797  1.6945
  640TIP3    H223480   0.419   1.923   7.083  0.5912  0.1871  0.1069
  641TIP3   OH223481   1.565   5.094   1.154  0.1632  0.5168 -0.3660
  641TIP3    H123482   1.652   5.117   1.187  0.3647 -1.9754  1.1631
  641TIP3    H223483   1.573   5.002   1.129 -2.0050  0.2309 -0.2031
  642TIP3   OH223484   0.508   6.077   0.341 -0.2097 -0.3132 -0.0226
  642TIP3    H123485   0.562   6.156   0.348 -0.1620 -0.3190 -0.3023
  642TIP3    H223486   0.556   6.020   0.281  0.4281 -1.1149  1.1991
  643TIP3   OH223487   0.321   0.730   0.843 -0.1319  0.2393  0.2310
  643TIP3    H123488   0.262   0.727   0.768 -2.5532  1.4346  1.9225
  643TIP3    H223489   0.392   0.789   0.816 -0.6385  0.1764 -1.3016
  644TIP3   OH223490   4.124   0.441   7.203 -0.2815 -0.5634  0.2428
  644TIP3    H123491   4.176   0.361   7.190 -0.0648 -0.3427 -0.2910
  644TIP3    H223492   4.152   0.475   7.288  2.1717  0.7966 -1.0004
  645TIP3   OH223493   0.396   5.077   1.597 -0.0484  0.4394 -0.2490
  645TIP3    H123494   0.485   5.070   1.561  0.8080  0.1569  1.8015
  645TIP3    H223495   0.408   5.077   1.692 -2.2601  0.3923  0.0864
  646TIP3   OH223496   6.805   5.535   8.246 -0.3418 -0.5301 -0.4701
  646TIP3    H123497   6.873   5.486   8.294  1.3732  1.7033 -0.4544
  646TIP3    H223498   6.745   5.467   8.214 -0.2959 -2.3044  2.7988
  647TIP3   OH223499   1.439   5.667   6.461 -0.2088 -0.3736  0.6106
  647TIP3    H123500   1.376   5.633   6.397 -0.2442  0.1429  0.3702
  647TIP3    H223501   1.446   5.760   6.441  0.7863 -0.4630  0.5010
  648TIP3   OH223502   3.088   2.208   1.113 -0.0433 -0.2530  0.3853
  648TIP3    H123503   3.064   2.274   1.048 -0.0287 -1.2457 -0.6583
  648TIP3    H223504   3.146   2.254   1.174 -1.6017  1.2253  0.8504
  649TIP3   OH223505   5.312   5.523   1.854  0.4882  0.0358  0.1885
  649TIP3    H123506   5.350   5.459   1.793  0.1016  0.4676 -0.5218
  649TIP3    H223507   5.386   5.577   1.880  0.7914 -0.6012  0.6800
  650TIP3   OH223508   4.036   0.466   2.225 -0.5486 -0.1428 -0.8725
  650TIP3    H123509   4.106   0.426   2.276  1.3832  1.3831 -2.2007
  650TIP3    H223510   3.989   0.392   2.186  0.6193 -1.1826 -0.3527
  651TIP3   OH223511   1.285   0.905   8.674 -0.6928  0.3484 -0.1719
  651TIP3    H123512   1.222   0.975   8.690  0.1267  0.6792  1.8886
  651TIP3    H223513   1.313   0.918   8.583  1.6540  4.6871  0.8955
  652TIP3   OH223514   3.270   3.282   8.555  0.0953 -0.0871  0.1302
  652TIP3    H123515   3.188   3.279   8.604  0.4208 -0.2397  0.6748
  652TIP3    H223516   3.250   3.334   8.477 -0.5649 -0.2771  0.1644
  653TIP3   OH223517   6.400   4.554   7.363 -0.3684 -0.4154  0.0509
  653TIP3    H123518   6.494   4.546   7.345  0.1764  0.7177  2.1188
  653TIP3    H223519   6.385   4.499   7.440 -1.9551 -2.5550 -1.6656
  654TIP3   OH223520   5.805   4.652   0.015 -0.2130 -0.0139  0.0173
  654TIP3    H123521   5.847   4.728   0.053  2.0022 -1.0742 -0.1674
  654TIP3    H223522   5.822   4.660  -0.079 -0.5960 -0.3690 -0.0862
  655TIP3   OH223523   6.807   3.088   0.960  0.0014 -0.4059  0.8639
  655TIP3    H123524   6.727   3.119   1.002 -0.2901 -2.0635  1.6223
  655TIP3    H223525   6.877   3.114   1.019  0.0241  0.8409  0.3159
  656TIP3   OH223526   6.761   0.218   0.568 -0.1744 -0.1600  0.2771
  656TIP3    H123527   6.833   0.251   0.621 -0.8549  2.1329 -0.1062
  656TIP3    H223528   6.769   0.122   0.572  1.1439 -0.0152  2.5875
  657TIP3   OH223529   5.864   2.172   0.542 -0.3299 -0.5043 -0.1116
  657TIP3    H123530   5.789   2.199   0.594  0.7309 -2.0214  2.4066
  657TIP3    H223531   5.909   2.254   0.520 -1.0878  0.2351  0.9820
  658TIP3   OH223532   0.554   1.103   0.110 -0.6095 -0.0553  0.0225
  658TIP3    H123533   0.566   1.198   0.111 -0.8021 -0.0305  0.1586
  658TIP3    H223534   0.461   1.091   0.089 -0.5127 -0.2213 -0.3121
  659TIP3   OH223535   5.888   5.297   7.739 -0.1280  0.0956  0.3771
  659TIP3    H123536   5.908   5.351   7.662  1.9765 -2.1077 -0.7593
  659TIP3    H223537   5.805   5.254   7.718 -0.5198  0.9314  0.1822
  660TIP3   OH223538   6.057   2.603   1.786  0.2098  0.1781  0.2949
  660TIP3    H123539   5.971   2.568   1.761  0.6873 -0.2413 -0.8305
  660TIP3    H223540   6.042   2.645   1.870 -0.6708 -1.6135  1.0899
  661TIP3   OH223541   6.176   2.768   0.530 -0.3614 -0.3661  0.1812
  661TIP3    H123542   6.136   2.748   0.446  1.2200  0.5728 -0.8640
  661TIP3    H223543   6.115   2.734   0.595 -1.1301 -2.0697 -1.3471
  662TIP3   OH223544   6.738   0.792   0.815  0.2546  0.2718  0.5263
  662TIP3    H123545   6.657   0.741   0.815  1.1279 -1.2344 -1.2751
  662TIP3    H223546   6.751   0.818   0.724  1.4665  1.0396  0.8818
  663TIP3   OH223547   3.790   3.360   7.440  0.1961  0.5995 -0.5523
  663TIP3    H123548   3.846   3.387   7.367 -2.2934  1.4578 -2.2738
  663TIP3    H223549   3.763   3.271   7.418 -2.2023  1.5704 -1.8693
  664TIP3   OH223550   5.308   6.217   2.685  0.6105  0.2910 -0.4236
  664TIP3    H123551   5.399   6.239   2.705  0.5470  1.0441 -0.9429
  664TIP3    H223552   5.308   6.121   2.679  0.6251 -0.0675  3.1503
  665TIP3   OH223553   4.834   4.248   2.325  0.2230  0.1755 -0.2745
  665TIP3    H123554   4.856   4.313   2.258 -1.6548  1.8460  0.6542
  665TIP3    H223555   4.879   4.278   2.404  0.2359 -0.2883 -0.1008
  666TIP3   OH223556   4.514   3.757   2.655 -0.5470  0.5491 -0.8341
  666TIP3    H123557   4.593   3.791   2.696 -1.1786  1.2334 -0.1557
  666TIP3    H223558   4.512   3.799   2.569 -1.2278  2.1396 -0.0710
  667TIP3   OH223559   6.099   4.010   1.902 -0.5244 -0.0224  0.0646
  667TIP3    H123560   6.050   3.943   1.950  0.3853 -0.4127  0.4933
  667TIP3    H223561   6.189   3.975   1.899 -0.0305  1.1934  0.3175
  668TIP3   OH223562   5.376   6.679   8.700 -1.0965 -0.0499 -0.1030
  668TIP3    H123563   5.375   6.695   8.795 -0.3215  1.3928 -0.3030
  668TIP3    H223564   5.420   6.756   8.664 -1.3016 -0.6253 -1.6362
  669TIP3   OH223565   3.203   4.871   7.587 -0.2508  0.3851 -0.4604
  669TIP3    H123566   3.254   4.792   7.605  0.7342  1.2133  0.5233
  669TIP3    H223567   3.175   4.862   7.496 -0.7569 -1.4173 -0.1659
  670TIP3   OH223568   3.225   6.250   0.093  0.2877  0.1915  0.0957
  670TIP3    H123569   3.283   6.310   0.047  2.5066 -1.6513  0.2825
  670TIP3    H223570   3.151   6.239   0.034  1.4296  0.5481 -1.4828
  671TIP3   OH223571   4.138   5.432   8.510  0.4574 -0.1054  0.2342
  671TIP3    H123572   4.047   5.459   8.501  0.2233 -0.6495  0.8881
  671TIP3    H223573   4.149   5.415   8.604  0.8584 -1.3176 -0.0130
  672TIP3   OH223574   3.605   0.437   2.500  0.2623 -0.0277 -0.3458
  672TIP3    H123575   3.569   0.348   2.493 -0.8024  0.4318 -1.0392
  672TIP3    H223576   3.528   0.492   2.512  1.0522  0.6209  2.3059
  673TIP3   OH223577   3.196   4.030   7.942 -0.1974 -0.0027  0.1976
  673TIP3    H123578   3.211   3.973   7.866 -2.2226  1.0613 -1.0796
  673TIP3    H223579   3.101   4.034   7.950 -0.0485 -0.0885  2.8639
  674TIP3   OH223580   0.244   5.679   3.167 -0.3550  0.0415  0.3559
  674TIP3    H123581   0.186   5.747   3.201 -0.9802 -0.6403  0.6801
  674TIP3    H223582   0.331   5.704   3.198 -0.5919  0.6235  0.5696
  675TIP3   OH223583   2.257   3.818   0.360  0.3539  0.0495  0.4636
  675TIP3    H123584   2.323   3.769   0.312 -1.1873  0.3700 -2.1477
  675TIP3    H223585   2.210   3.751   0.411 -0.3282 -0.9583 -1.3818
  676TIP3   OH223586   4.120   5.987   8.357  0.0500  0.1787 -0.0485
  676TIP3    H123587   4.214   5.990   8.374  0.4552  0.2752 -2.0537
  676TIP3    H223588   4.098   5.894   8.366 -0.0686  0.3850  2.2039
  677TIP3   OH223589   6.339   1.994   0.981 -0.5272 -0.4449 -0.4916
  677TIP3    H123590   6.380   2.043   0.909  0.9843 -0.9861 -0.0566
  677TIP3    H223591   6.381   2.027   1.060  1.7957 -3.4115 -0.2804
  678TIP3   OH223592   0.555   2.337   2.662 -0.6739 -0.4950 -0.1877
  678TIP3    H123593   0.473   2.385   2.650 -0.5440 -0.0256  0.7345
  678TIP3    H223594   0.538   2.250   2.626 -1.5440 -0.3679 -0.0962
  679TIP3   OH223595   0.162   5.073   0.968  0.2831  0.4803 -0.0863
  679TIP3    H123596   0.122   5.010   1.028  1.2049 -0.8033 -0.7816
  679TIP3    H223597   0.107   5.151   0.975  0.0153  0.1500  1.9406
  680TIP3   OH223598   4.943   4.446   7.979  0.2987 -0.7875  0.0073
  680TIP3    H123599   4.964   4.365   8.026  1.8799 -0.4547 -0.0599
  680TIP3    H223600   4.970   4.515   8.039 -0.4925 -0.3086 -0.1803
  681TIP3   OH223601   4.465   1.916   7.869 -0.3021  0.2231  0.1412
  681TIP3    H123602   4.502   1.876   7.948 -0.7954  0.2338  0.3789
  681TIP3    H223603   4.502   2.004   7.868  0.6985 -0.1781 -0.3218
  682TIP3   OH223604   1.740   0.517   7.865  0.0986 -0.5468  0.5244
  682TIP3    H123605   1.749   0.427   7.896 -1.4283 -0.7246  0.5077
  682TIP3    H223606   1.774   0.515   7.775 -1.7896 -1.5994 -0.2173
  683TIP3   OH223607   4.819   4.520   1.794  0.3438  0.4755  0.2387
  683TIP3    H123608   4.728   4.495   1.777  0.5094  0.3999 -0.6011
  683TIP3    H223609   4.864   4.498   1.712  1.1630  0.2705  0.7468
  684TIP3   OH223610   2.356   3.640   7.340 -0.5693  0.0136  0.1761
  684TIP3    H123611   2.395   3.568   7.291 -0.5643 -0.5400  0.9759
  684TIP3    H223612   2.427   3.703   7.351 -0.6674  0.3086 -0.8321
  685TIP3   OH223613   3.724   2.302   7.631 -1.0877 -0.2667 -0.3823
  685TIP3    H123614   3.653   2.318   7.568  0.9345 -1.8957 -3.3283
  685TIP3    H223615   3.772   2.385   7.634 -0.9447 -0.3061 -1.3603
  686TIP3   OH223616   1.787   3.662   1.791  0.5986  0.3781 -0.0121
  686TIP3    H123617   1.706   3.637   1.836  1.0699 -0.1517  0.5484
  686TIP3    H223618   1.857   3.622   1.842  1.1039 -1.1949 -1.7848
  687TIP3   OH223619   2.587   4.051   2.032 -0.4664 -0.4847 -0.0112
  687TIP3    H123620   2.637   3.981   2.073  2.0515  2.1785  1.9475
  687TIP3    H223621   2.495   4.029   2.048  0.2666 -2.7405  1.5037
  688TIP3   OH223622   0.769   2.263   2.418 -0.3526  0.1398  0.3097
  688TIP3    H123623   0.747   2.252   2.510  0.3303  1.7981  0.7039
  688TIP3    H223624   0.685   2.256   2.372 -0.7708 -0.1756  1.1116
  689TIP3   OH223625   6.116   5.661   7.987 -0.1764 -0.1457  0.3778
  689TIP3    H123626   6.084   5.751   7.989  2.0660  0.7145  1.0266
  689TIP3    H223627   6.114   5.638   7.894 -0.8269  0.5364  0.2088
  690TIP3   OH223628   0.262   2.635   1.931  0.1237  0.5027 -0.4711
  690TIP3    H123629   0.210   2.716   1.933  0.1005  0.4962  1.6368
  690TIP3    H223630   0.319   2.642   2.007 -0.3127 -1.7489  0.1305
  691TIP3   OH223631   0.262   4.666   0.702 -0.3928  0.7425  0.1561
  691TIP3    H123632   0.280   4.682   0.609  0.4480  0.1229  0.2068
  691TIP3    H223633   0.339   4.620   0.734  0.1843  2.6459  1.6475
  692TIP3   OH223634   6.020   4.157   2.487 -0.4171 -0.4468 -0.5008
  692TIP3    H123635   6.100   4.181   2.440 -0.4944  0.2641 -0.2838
  692TIP3    H223636   6.027   4.062   2.500  0.2206 -0.4455 -0.7936
  693TIP3   OH223637   2.303   6.472   0.842 -0.2989 -0.3761 -0.3345
  693TIP3    H123638   2.266   6.522   0.770 -0.8988 -0.5618 -0.1577
  693TIP3    H223639   2.235   6.409   0.866  0.6985 -1.7801 -1.0305
  694TIP3   OH223640   4.452   1.959   0.572 -0.1605  0.3341 -0.0638
  694TIP3    H123641   4.363   1.927   0.589 -0.1844  0.3427 -0.1674
  694TIP3    H223642   4.463   1.949   0.477 -0.3112  0.9806 -0.1560
  695TIP3   OH223643   5.798   1.985   1.491 -0.1029 -0.1179 -0.1314
  695TIP3    H123644   5.761   1.941   1.568 -0.3438 -0.8259 -0.6432
  695TIP3    H223645   5.870   2.037   1.526 -0.2515 -0.3812  0.5878
  696TIP3   OH223646   6.250   5.510   1.883 -0.7404  0.0695 -0.1404
  696TIP3    H123647   6.338   5.543   1.862 -0.9965  2.2483  1.8044
  696TIP3    H223648   6.235   5.441   1.819  1.5560  1.0150 -1.8587
  697TIP3   OH223649   2.941   0.153   8.406 -0.1201 -0.1359 -0.2239
  697TIP3    H123650   2.959   0.059   8.416  1.1968  0.1153  0.0177
  697TIP3    H223651   2.861   0.157   8.355 -0.9324 -1.3998  0.8868
  698TIP3   OH223652   2.664   5.739   0.300 -0.7712  0.5092 -0.3465
  698TIP3    H123653   2.646   5.666   0.241  0.9436 -1.0213  0.9100
  698TIP3    H223654   2.578   5.779   0.316 -2.0081 -2.0661 -0.0384
  699TIP3   OH223655   1.246   2.031   7.499  0.5467 -0.6750 -0.5412
  699TIP3    H123656   1.252   2.123   7.525  0.0593 -0.5053 -0.9914
  699TIP3    H223657   1.152   2.011   7.502  0.5686 -0.9196 -1.2251
  700TIP3   OH223658   3.667   3.654   8.597 -0.4616  0.9379  0.4941
  700TIP3    H123659   3.588   3.605   8.575  0.1604 -1.1295  2.5791
  700TIP3    H223660   3.704   3.678   8.512 -3.2146  1.9181 -0.5617
  701TIP3   OH223661   1.148   6.397   1.660 -0.5041  0.2838 -0.1379
  701TIP3    H123662   1.142   6.310   1.621  0.1515 -0.2034  0.8052
  701TIP3    H223663   1.232   6.431   1.631  0.4045 -0.4429  1.4924
  702TIP3   OH223664   0.997   6.314   7.839 -0.5241 -0.0275  0.6742
  702TIP3    H123665   1.091   6.318   7.824 -0.3605 -0.4833  1.5420
  702TIP3    H223666   0.965   6.245   7.781 -0.2916 -0.0199  0.5389
  703TIP3   OH223667   2.982   3.911   7.597 -0.7599 -0.2058 -0.3231
  703TIP3    H123668   2.925   3.989   7.600 -1.8656 -0.9792 -0.4529
  703TIP3    H223669   2.944   3.858   7.527  0.3748 -0.5764 -0.6709
  704TIP3   OH223670   5.756   5.808   0.507  0.4916  0.2115  0.5435
  704TIP3    H123671   5.758   5.757   0.426  3.6706  3.4065 -1.6880
  704TIP3    H223672   5.846   5.804   0.540  0.4950  2.9681  1.0878
  705TIP3   OH223673   0.574   0.264   8.593 -0.3186 -0.3914 -0.8856
  705TIP3    H123674   0.542   0.235   8.508 -1.2059  0.0977 -0.7282
  705TIP3    H223675   0.594   0.357   8.581  0.7393 -0.6117 -0.8894
  706TIP3   OH223676   3.091   5.973   8.447 -0.1676 -0.1088 -0.6373
  706TIP3    H123677   3.187   5.974   8.443 -0.1006 -0.7611  0.3927
  706TIP3    H223678   3.067   6.063   8.469  0.2105  0.0475 -0.8580
  707TIP3   OH223679   5.476   0.015   2.197 -0.4978  0.5865 -0.5076
  707TIP3    H123680   5.388   0.052   2.197 -0.7363  0.1615  1.8732
  707TIP3    H223681   5.486  -0.025   2.283  1.8235  0.1045 -0.9195
  708TIP3   OH223682   3.850   3.988   0.207  0.2741 -0.6505 -0.0051
  708TIP3    H123683   3.887   4.074   0.187 -0.3526 -0.3726  0.0207
  708TIP3    H223684   3.798   3.966   0.131  0.7695 -1.2059 -0.1948
  709TIP3   OH223685   5.225   6.348   0.486 -0.1511 -0.5168  0.5828
  709TIP3    H123686   5.192   6.372   0.400  0.8240  0.0654  0.3586
  709TIP3    H223687   5.200   6.421   0.542  0.2242 -0.3533  0.5401
  710TIP3   OH223688   5.309   5.593   8.659  0.0758 -0.6290 -0.2488
  710TIP3    H123689   5.356   5.561   8.582 -1.1075  1.3647 -1.8878
  710TIP3    H223690   5.235   5.532   8.668 -1.0228  0.3290 -2.1068
  711TIP3   OH223691   1.248   5.594   6.737  0.3533 -0.3557 -0.5115
  711TIP3    H123692   1.169   5.561   6.695  0.0711 -0.5457  0.1547
  711TIP3    H223693   1.318   5.540   6.701  0.0778 -0.7192 -0.5118
  712TIP3   OH223694   2.631   6.002   8.330 -0.3539 -1.1515 -0.2801
  712TIP3    H123695   2.559   6.064   8.324  0.2085 -0.4538 -0.0330
  712TIP3    H223696   2.625   5.949   8.250  0.2491  0.4357 -1.4251
  713TIP3   OH223697   0.683   4.753   0.364  0.4783  0.9006 -0.1466
  713TIP3    H123698   0.742   4.765   0.289 -0.6837 -0.6185 -1.3716
  713TIP3    H223699   0.741   4.731   0.437  1.5685  1.3859 -0.8386
  714TIP3   OH223700   4.001   1.455   8.154 -0.6092 -0.4140  0.5702
  714TIP3    H123701   3.986   1.520   8.085  1.1869  0.8751  1.3091
  714TIP3    H223702   3.918   1.407   8.160 -0.9656 -0.3167 -2.1672
  715TIP3   OH223703   0.464   0.050   0.742  0.4196 -0.4334 -0.1524
  715TIP3    H123704   0.405   0.064   0.668  0.0515 -1.5961 -0.1008
  715TIP3    H223705   0.515   0.131   0.748 -1.1332  0.5859 -0.2273
  716TIP3   OH223706   2.666   4.101   8.092  0.2922 -0.9515 -0.4535
  716TIP3    H123707   2.673   4.015   8.051 -1.1479 -1.4792  0.3589
  716TIP3    H223708   2.616   4.086   8.172 -1.6386  0.9071 -1.2231
  717TIP3   OH223709   0.227   5.715   0.143  0.2480 -0.1081 -0.3269
  717TIP3    H123710   0.198   5.803   0.120  0.2151 -0.1631 -0.5022
  717TIP3    H223711   0.167   5.657   0.094 -1.2754 -0.2610  1.6007
  718TIP3   OH223712   4.981   5.126   2.507  0.3137  0.2666 -0.0760
  718TIP3    H123713   4.969   5.124   2.602  0.2596  1.5629 -0.0389
  718TIP3    H223714   5.076   5.117   2.494  0.3280  0.1677  0.0964
  719TIP3   OH223715   6.217   2.638   0.925 -0.0194 -0.1875  0.1890
  719TIP3    H123716   6.307   2.619   0.952  1.0747  1.4641 -1.9718
  719TIP3    H223717   6.191   2.561   0.873  0.2777 -0.4844  0.4716
  720TIP3   OH223718   2.053   5.552   0.264  0.3345 -0.5058 -0.0010
  720TIP3    H123719   2.026   5.587   0.349 -0.7613 -2.4875  0.5180
  720TIP3    H223720   2.019   5.615   0.200 -1.4427 -0.5083  0.8937
  721TIP3   OH223721   3.846   0.609   0.399 -0.0298 -0.2014 -0.3160
  721TIP3    H123722   3.817   0.644   0.483 -0.0672 -0.7806 -0.0862
  721TIP3    H223723   3.873   0.686   0.350 -2.2801  0.4442 -0.6821
  722TIP3   OH223724   5.472   6.130   0.194  0.0783 -0.4234 -0.5071
  722TIP3    H123725   5.527   6.055   0.170  0.3201 -0.1934 -0.6825
  722TIP3    H223726   5.451   6.116   0.286 -1.1256 -1.4853 -0.9148
  723TIP3   OH223727   5.147   4.064   1.690 -0.1778  0.1586 -0.0010
  723TIP3    H123728   5.135   3.978   1.649 -1.0016 -0.1296  0.8359
  723TIP3    H223729   5.059   4.099   1.699 -0.2388 -0.5811  3.2173
  724TIP3   OH223730   3.735   0.349   0.938  0.7098 -0.2172  0.4967
  724TIP3    H123731   3.707   0.404   1.011  0.7353 -0.9069  1.0344
  724TIP3    H223732   3.768   0.411   0.872  0.0693  0.4519  0.7928
  725TIP3   OH223733   3.757   3.850   1.955 -0.7300 -0.3887  0.2257
  725TIP3    H123734   3.746   3.775   1.896 -2.4091  0.3350 -0.4687
  725TIP3    H223735   3.672   3.857   1.999 -0.6509  1.1845  0.1637
  726TIP3   OH223736   3.411   4.680   7.496  0.1739 -0.3861 -0.4379
  726TIP3    H123737   3.364   4.620   7.437 -0.7643  0.2163 -0.3159
  726TIP3    H223738   3.445   4.748   7.438  1.1839 -0.9871 -0.5678
  727TIP3   OH223739   0.684   6.216   0.717 -0.8731 -0.3895 -0.8362
  727TIP3    H123740   0.648   6.299   0.749 -0.2356 -0.4688  0.1312
  727TIP3    H223741   0.618   6.150   0.740  0.2143 -0.6841  1.8157
  728TIP3   OH223742   4.898   5.072   8.424 -0.5587  0.6000 -0.2691
  728TIP3    H123743   4.813   5.042   8.455  0.2845 -1.2046  0.4228
  728TIP3    H223744   4.933   4.998   8.374  1.7844  0.1937  1.8070
  729TIP3   OH223745   4.665   6.327   7.642 -0.1199 -0.5366  0.3950
  729TIP3    H123746   4.727   6.270   7.597  0.4583  0.3296  0.0731
  729TIP3    H223747   4.587   6.274   7.653  0.3655 -1.3455 -0.0124
  730TIP3   OH223748   3.956   4.640   2.578  0.3805 -0.2314 -0.0698
  730TIP3    H123749   3.967   4.724   2.624 -0.0252 -0.4577  0.4540
  730TIP3    H223750   3.915   4.583   2.643 -1.8587 -0.0590 -1.2319
  731TIP3   OH223751   4.078   6.375   7.295 -0.4127 -0.0924 -0.0411
  731TIP3    H123752   4.031   6.433   7.236 -0.0370  1.4254  1.0865
  731TIP3    H223753   4.158   6.353   7.248 -1.5495 -1.5525 -1.3891
  732TIP3   OH223754   1.282   4.280   8.475 -0.1968 -0.3818 -0.1586
  732TIP3    H123755   1.228   4.358   8.461  1.1826  0.5492 -0.5069
  732TIP3    H223756   1.348   4.307   8.538  1.5197 -0.6354 -1.7763
  733TIP3   OH223757   0.148   6.014   6.934 -0.4364 -0.0100  0.6309
  733TIP3    H123758   0.058   6.044   6.950 -0.6083  0.4876 -1.0291
  733TIP3    H223759   0.202   6.069   6.991 -1.1912 -0.6092  1.9715
  734TIP3   OH223760   2.497   3.053   1.962  0.2955  0.1971 -0.2714
  734TIP3    H123761   2.530   2.982   2.016 -1.6916 -0.6475 -0.0762
  734TIP3    H223762   2.474   3.011   1.879 -1.3046  0.4917 -0.0036
  735TIP3   OH223763   1.688   6.189   1.292  0.1962  0.3443 -0.2887
  735TIP3    H123764   1.694   6.201   1.386  0.6518 -0.9891 -0.1157
  735TIP3    H223765   1.681   6.094   1.280 -0.9541  0.5457 -1.5485
  736TIP3   OH223766   0.598   4.915   0.675  0.7380  0.4752  0.1851
  736TIP3    H123767   0.526   4.947   0.731  0.0441 -0.1503 -0.3315
  736TIP3    H223768   0.606   4.981   0.606  1.4578  1.1444  0.8854
  737TIP3   OH223769   2.254   1.023   2.088 -0.1834 -0.0690 -0.3423
  737TIP3    H123770   2.317   1.089   2.059  0.1469 -0.9023 -1.5695
  737TIP3    H223771   2.274   1.011   2.181  1.8930 -0.7357 -0.8240
  738TIP3   OH223772   3.050   0.664   8.426 -0.3495 -0.1028 -0.1235
  738TIP3    H123773   3.134   0.708   8.419  0.5647 -1.3835  1.6961
  738TIP3    H223774   3.071   0.571   8.419 -1.5194 -0.4771  0.8876
  739TIP3   OH223775   5.778   6.462   7.259  0.7954 -0.3301  0.3750
  739TIP3    H123776   5.683   6.475   7.247  1.2182  2.7079 -0.7632
  739TIP3    H223777   5.806   6.415   7.180  0.2526 -1.1472  0.6653
  740TIP3   OH223778   5.628   0.071   8.668  0.5179 -0.1457  0.2135
  740TIP3    H123779   5.652   0.059   8.576 -0.8617 -1.0882 -0.0589
  740TIP3    H223780   5.702   0.118   8.706  1.4426 -0.3780 -1.2079
  741TIP3   OH223781   4.926   0.734   0.381 -0.2951  0.3429  0.0545
  741TIP3    H123782   4.931   0.694   0.468 -0.8001  1.4992  0.6455
  741TIP3    H223783   4.938   0.662   0.320 -0.7573 -0.6311  1.0840
  742TIP3   OH223784   1.693   0.074   1.390 -0.0008  0.6742  0.5113
  742TIP3    H123785   1.622   0.035   1.339  0.1322  0.3464  0.5708
  742TIP3    H223786   1.722   0.004   1.448  0.9786  0.5168 -0.1440
  743TIP3   OH223787   6.534   5.694   6.702  0.2782  0.1563  0.0144
  743TIP3    H123788   6.528   5.659   6.613  1.1949  0.0384 -0.0110
  743TIP3    H223789   6.445   5.720   6.724 -0.0093 -0.1029 -0.8232
  744TIP3   OH223790   2.240   6.610   1.759 -0.8063  0.4838  0.1567
  744TIP3    H123791   2.260   6.533   1.813 -0.2600  0.6448  0.1910
  744TIP3    H223792   2.297   6.602   1.683  0.4887  1.7074  0.9561
  745TIP3   OH223793   6.451   4.720   8.411  0.2615 -0.4429 -0.5733
  745TIP3    H123794   6.402   4.800   8.393 -0.2379 -0.2609  1.3361
  745TIP3    H223795   6.384   4.657   8.437  0.8065 -0.9835 -0.4580
  746TIP3   OH223796   4.515   1.840   0.822 -0.6073  0.1241 -0.3888
  746TIP3    H123797   4.492   1.897   0.749  0.3556  1.7640  0.5424
  746TIP3    H223798   4.432   1.798   0.846 -1.3086  0.9936 -1.2030
  747TIP3   OH223799   3.754   5.388   7.606  0.3090 -0.5651 -0.0765
  747TIP3    H123800   3.781   5.459   7.548 -1.6893  0.5566  0.2804
  747TIP3    H223801   3.741   5.429   7.691 -0.9412 -1.3303  0.1242
  748TIP3   OH223802   6.658   3.709   8.381 -0.0341  0.6247 -0.3073
  748TIP3    H123803   6.687   3.621   8.357  0.8573  0.2247  2.0267
  748TIP3    H223804   6.585   3.694   8.441  0.4280  1.4598  0.4731
  749TIP3   OH223805   3.738   4.046   2.790 -0.2785  0.0329 -0.3523
  749TIP3    H123806   3.759   3.953   2.796 -1.0171 -0.1277 -0.1736
  749TIP3    H223807   3.821   4.090   2.809  0.0141 -0.5858 -0.1600
  750TIP3   OH223808   4.049   3.255   2.487 -0.5593  0.4480  0.0068
  750TIP3    H123809   4.058   3.343   2.449 -1.1465  0.2862 -0.5326
  750TIP3    H223810   3.976   3.263   2.548  2.1513  1.4523  3.4316
  751TIP3   OH223811   2.530   6.264   0.523 -0.2771  0.1943  0.1739
  751TIP3    H123812   2.538   6.218   0.439 -1.5093  0.9187 -0.3592
  751TIP3    H223813   2.481   6.204   0.579  0.5509 -0.2925  0.4079
  752TIP3   OH223814   1.538   2.297   2.739  0.0375  0.3533  0.2690
  752TIP3    H123815   1.620   2.287   2.691  0.2786 -0.2295  0.7742
  752TIP3    H223816   1.535   2.389   2.766  0.6006  0.3394  0.3754
  753TIP3   OH223817   2.799   2.217   7.210 -0.0374 -0.0350  0.0005
  753TIP3    H123818   2.777   2.310   7.214  0.6100  0.1234  0.1737
  753TIP3    H223819   2.883   2.214   7.163  0.9563 -0.3288  1.7150
  754TIP3   OH223820   5.666   3.899   8.091  0.6058  0.3362 -0.1703
  754TIP3    H123821   5.596   3.933   8.035 -0.3712  0.9867  1.3655
  754TIP3    H223822   5.734   3.869   8.030  0.1367  2.1376 -1.6528
  755TIP3   OH223823   3.672   5.576   7.398  0.4603 -0.1620  0.6870
  755TIP3    H123824   3.682   5.602   7.306 -1.0721  0.9945  0.8154
  755TIP3    H223825   3.670   5.658   7.446  0.1743 -0.7095  1.6408
  756TIP3   OH223826   6.107   1.730   7.213 -0.0314  0.2116  0.0756
  756TIP3    H123827   6.086   1.817   7.180  0.6215  0.6120  0.6779
  756TIP3    H223828   6.025   1.697   7.248 -0.3406  0.4774 -0.3888
  757TIP3   OH223829   2.376   2.566   0.062  0.3511 -0.6949  0.6886
  757TIP3    H123830   2.444   2.545   0.125 -1.8362  0.6050  3.7015
  757TIP3    H223831   2.386   2.660   0.046 -0.7344 -0.4590  1.2700
  758TIP3   OH223832   1.019   2.461   8.363 -0.2470  0.3148 -0.0675
  758TIP3    H123833   0.970   2.432   8.286  0.4735  0.8810 -0.7524
  758TIP3    H223834   1.034   2.381   8.414  1.7837 -0.5992 -1.9607
  759TIP3   OH223835   5.842   5.973   2.446  0.2766  0.3713 -0.7686
  759TIP3    H123836   5.782   6.045   2.463  1.3374  1.8989 -2.9818
  759TIP3    H223837   5.785   5.895   2.441 -0.9592  1.0899  1.0812
  760TIP3   OH223838   3.591   2.281   2.341  0.1171  0.0073  0.2476
  760TIP3    H123839   3.556   2.206   2.389  0.8686 -0.4894  0.0335
  760TIP3    H223840   3.599   2.349   2.408 -2.2514  0.5141  0.1010
  761TIP3   OH223841   6.365   5.799   2.515 -0.2289  0.0922 -0.4335
  761TIP3    H123842   6.292   5.860   2.504  0.0636  1.1013  2.3123
  761TIP3    H223843   6.423   5.844   2.577  1.5882 -1.6576 -0.8053
  762TIP3   OH223844   3.025   6.326   0.800 -0.2854  0.2370  0.1893
  762TIP3    H123845   2.981   6.242   0.788 -3.1881  1.6570 -0.0498
  762TIP3    H223846   2.975   6.370   0.869  1.7853  1.4090  1.0405
  763TIP3   OH223847   3.542   6.302   8.517  0.2326 -0.6425 -0.1076
  763TIP3    H123848   3.597   6.363   8.468 -0.7971  0.4797  0.0962
  763TIP3    H223849   3.589   6.219   8.513  1.8668  0.2361 -0.0680
  764TIP3   OH223850   0.522   5.429   2.305  0.8249  0.4122  0.2445
  764TIP3    H123851   0.489   5.511   2.341  1.1671  0.4864  0.3899
  764TIP3    H223852   0.451   5.366   2.321  0.6773  0.6140  0.3896
  765TIP3   OH223853   0.199   4.718   2.005 -0.0995  0.2056  0.9135
  765TIP3    H123854   0.139   4.648   1.978  0.7721  0.9274 -3.8540
  765TIP3    H223855   0.269   4.673   2.052 -1.1194 -1.6510  0.7565
  766TIP3   OH223856   3.957   5.190   8.746 -0.1089 -0.1663 -0.5354
  766TIP3    H123857   4.046   5.220   8.727 -0.3803  1.8231  0.9511
  766TIP3    H223858   3.939   5.223   8.834 -2.2248 -0.7543 -0.6967
  767TIP3   OH223859   5.048   5.486   8.658  0.2334  0.5817  0.2234
  767TIP3    H123860   5.058   5.491   8.563 -2.0998  2.9769 -0.0273
  767TIP3    H223861   5.021   5.396   8.674  0.0219  0.3009 -1.4638
  768TIP3   OH223862   1.407   6.374   0.981  0.7750 -0.1418  0.4350
  768TIP3    H123863   1.393   6.286   0.945  0.1068 -0.0737  0.5145
  768TIP3    H223864   1.373   6.433   0.915 -3.4063 -0.0778  2.3150
  769TIP3   OH223865   3.237   0.580   8.196 -0.6276 -0.5663 -0.4015
  769TIP3    H123866   3.259   0.560   8.105  0.4051  0.0171 -0.2930
  769TIP3    H223867   3.143   0.598   8.194 -0.5470 -0.1618 -1.4271
  770TIP3   OH223868   0.248   1.073   0.334 -0.1186 -0.3477  0.4633
  770TIP3    H123869   0.179   1.008   0.323 -0.0493 -0.5478  1.1544
  770TIP3    H223870   0.269   1.102   0.245  0.8491 -2.2850  0.0111
  771TIP3   OH223871   2.767   2.458   8.332  0.3320  0.1877 -0.1731
  771TIP3    H123872   2.704   2.523   8.363 -0.8676 -0.6543 -0.7645
  771TIP3    H223873   2.790   2.487   8.244  2.3359  1.5785  0.7536
  772TIP3   OH223874   3.043   1.959   6.722  0.1026  0.0160  0.0152
  772TIP3    H123875   3.019   2.051   6.736  1.3035  0.3616 -0.0641
  772TIP3    H223876   2.963   1.910   6.742 -0.4628  1.0524  0.3900
  773TIP3   OH223877   3.989   4.196   7.244  0.7909 -0.2043  0.1159
  773TIP3    H123878   3.989   4.128   7.311  3.3434 -0.5547 -0.1322
  773TIP3    H223879   4.011   4.150   7.163  1.7954  0.7640 -0.1967
  774TIP3   OH223880   5.217   2.244   8.209  0.7260 -0.0367 -0.3144
  774TIP3    H123881   5.269   2.171   8.244  3.2627  2.0241  0.5641
  774TIP3    H223882   5.250   2.257   8.121  0.8824  0.5350 -0.1777
  775TIP3   OH223883   0.763   0.891   3.109  0.4299 -0.4067  0.3639
  775TIP3    H123884   0.764   0.974   3.158  0.7521  0.0304 -0.3744
  775TIP3    H223885   0.748   0.917   3.018  0.6833 -1.1457  0.1053
  776TIP3   OH223886   4.027   4.470   0.571 -0.0682 -0.6550  0.6207
  776TIP3    H123887   3.937   4.476   0.603  0.1175 -2.9760  1.8235
  776TIP3    H223888   4.018   4.464   0.476 -1.2688 -1.4558  0.7539
  777TIP3   OH223889   5.665   0.241   0.201 -0.5367 -0.1905 -0.4625
  777TIP3    H123890   5.697   0.329   0.178  0.2005 -0.0734  0.8739
  777TIP3    H223891   5.571   0.244   0.184 -0.7811  1.3438  0.8508
  778TIP3   OH223892   6.471   0.617   8.742 -0.0410 -0.0411  0.2801
  778TIP3    H123893   6.422   0.553   8.691  1.2449  0.2296 -1.3866
  778TIP3    H223894   6.555   0.575   8.759  0.7543  1.0899 -0.6811
  779TIP3   OH223895   2.832   4.590   2.186  0.3509 -0.2130 -0.0154
  779TIP3    H123896   2.776   4.602   2.263  0.3830 -0.5488  0.0612
  779TIP3    H223897   2.813   4.502   2.155 -0.3370  0.2446 -0.9440
  780TIP3   OH223898   5.741   3.765   2.233 -0.5113 -0.4846 -0.6199
  780TIP3    H123899   5.669   3.828   2.223 -0.6533 -0.5764 -0.2224
  780TIP3    H223900   5.719   3.694   2.172 -0.1200  0.0522 -1.3931
  781TIP3   OH223901   2.453   4.916   0.402 -0.2552 -0.1637  0.2304
  781TIP3    H123902   2.497   4.949   0.480 -0.1669 -1.0382  0.5604
  781TIP3    H223903   2.409   4.836   0.430  0.9070 -1.2577 -0.9060
  782TIP3   OH223904   3.346   5.129   1.273 -0.0766  0.1712  0.4716
  782TIP3    H123905   3.419   5.172   1.229 -1.1970  2.5531  0.7531
  782TIP3    H223906   3.341   5.042   1.232  0.2923  1.4532 -2.5890
  783TIP3   OH223907   1.213   3.838   6.752 -0.2129  0.3109  0.4091
  783TIP3    H123908   1.214   3.866   6.843 -1.2706  0.7853  0.2979
  783TIP3    H223909   1.274   3.765   6.748  0.8942  1.1656  1.1983
  784TIP3   OH223910   5.588   3.254   8.283 -0.4778 -0.2252 -0.4699
  784TIP3    H123911   5.659   3.237   8.346 -0.4263 -1.8009 -0.9124
  784TIP3    H223912   5.595   3.348   8.265  0.7733 -0.1218  0.3575
  785TIP3   OH223913   1.319   4.757   6.737 -0.3533 -0.1856  0.1616
  785TIP3    H123914   1.412   4.736   6.728 -0.4387 -0.5749  0.1975
  785TIP3    H223915   1.289   4.704   6.810 -0.5339  0.1785  0.3562
  786TIP3   OH223916   5.016   0.516   8.240 -0.7819  0.2380 -0.3756
  786TIP3    H123917   5.008   0.487   8.331 -1.1478 -0.3808 -0.6004
  786TIP3    H223918   5.110   0.528   8.227 -0.4214 -2.3738 -0.7125
  787TIP3   OH223919   3.750   5.733   8.421 -0.0255  0.1148  0.9455
  787TIP3    H123920   3.712   5.770   8.341  0.1060  0.2048  0.9241
  787TIP3    H223921   3.758   5.807   8.481 -1.3384 -0.1827  1.5162
  788TIP3   OH223922   4.872   3.547   6.436 -0.3393 -0.0571 -0.4501
  788TIP3    H123923   4.896   3.615   6.499 -0.9536 -0.6663  0.4466
  788TIP3    H223924   4.873   3.466   6.486  2.4674 -1.0908 -1.9443
  789TIP3   OH223925   6.233   3.805   0.801  0.2904  0.1634  0.2986
  789TIP3    H123926   6.190   3.889   0.783  0.6357  0.4533  0.8034
  789TIP3    H223927   6.241   3.802   0.896  0.4339 -0.3660  0.2712
  790TIP3   OH223928   3.294   1.049   7.816  0.2590 -0.2260  0.0959
  790TIP3    H123929   3.310   1.099   7.736  1.4076 -1.0637 -0.2243
  790TIP3    H223930   3.333   1.101   7.886 -0.2240  0.2225  0.0382
  791TIP3   OH223931   6.344   4.842   8.764  0.1259 -0.1929  0.6554
  791TIP3    H123932   6.277   4.805   8.821 -1.6099 -0.5298 -1.4477
  791TIP3    H223933   6.403   4.889   8.822 -1.2973 -0.8466  2.7252
  792TIP3   OH223934   1.792   3.922   7.925  1.1126 -0.6097 -0.2552
  792TIP3    H123935   1.853   3.995   7.923 -1.0042  1.3624  1.1072
  792TIP3    H223936   1.791   3.894   8.017  1.1356 -1.6991 -0.5694
  793TIP3   OH223937   1.819   5.857   7.824 -0.0061  0.8550 -0.5970
  793TIP3    H123938   1.852   5.849   7.735  0.1764  1.2746 -0.5696
  793TIP3    H223939   1.897   5.864   7.879 -0.0962 -0.4134 -0.2942
  794TIP3   OH223940   1.498   4.146   1.545  0.6113  0.3647  0.0836
  794TIP3    H123941   1.478   4.103   1.462 -2.3665 -0.8176  1.2939
  794TIP3    H223942   1.487   4.078   1.610 -0.0123  1.9551  1.7113
  795TIP3   OH223943   5.140   3.200   2.135  0.1067  0.4480 -0.1717
  795TIP3    H123944   5.121   3.273   2.194 -4.1422  0.0287 -0.7478
  795TIP3    H223945   5.165   3.129   2.194  2.0820  1.6156  0.5394
  796TIP3   OH223946   6.173   5.669   0.441  0.8028 -0.5336 -0.2136
  796TIP3    H123947   6.130   5.743   0.485 -0.2630 -0.4601 -1.3077
  796TIP3    H223948   6.252   5.654   0.492 -0.5592 -0.7492  1.9723
  797TIP3   OH223949   3.232   6.248   2.229  0.0266 -0.4633  0.7459
  797TIP3    H123950   3.204   6.285   2.313  1.3020  0.5418  0.7530
  797TIP3    H223951   3.150   6.222   2.186 -0.6789 -0.5335  2.0739
  798TIP3   OH223952   4.594   5.437   0.185 -0.4875  0.1862  0.1927
  798TIP3    H123953   4.585   5.344   0.163  2.4546  0.0811 -0.9894
  798TIP3    H223954   4.662   5.469   0.126 -0.7987  2.9216  1.1808
  799TIP3   OH223955   3.634   3.825   2.555 -0.0900 -0.3283  0.1084
  799TIP3    H123956   3.626   3.734   2.525  2.5699 -0.8614  0.8057
  799TIP3    H223957   3.557   3.868   2.518 -1.1503 -2.7192 -0.7100
  800TIP3   OH223958   6.524   1.689   8.755  0.0052 -0.6137 -0.5120
  800TIP3    H123959   6.476   1.633   8.817  0.6646 -0.0584  0.5175
  800TIP3    H223960   6.459   1.710   8.687 -0.3559 -2.3075 -0.7299
  801TIP3   OH223961   6.798   2.862   8.075 -0.0256  0.4770 -0.0246
  801TIP3    H123962   6.807   2.790   8.012 -0.2442  0.1341  0.3312
  801TIP3    H223963   6.821   2.823   8.160  1.3949  1.2210 -0.0430
  802TIP3   OH223964   1.908   2.703   1.553 -0.7301 -0.3091 -0.1448
  802TIP3    H123965   1.867   2.647   1.487  0.5366  0.8489 -2.0032
  802TIP3    H223966   1.967   2.643   1.600 -0.4403 -0.8532 -1.1567
  803TIP3   OH223967   5.714   2.121   6.968 -0.4786 -0.2310  0.1769
  803TIP3    H123968   5.701   2.182   6.895 -0.4741 -1.4231 -0.8569
  803TIP3    H223969   5.741   2.039   6.926  1.3820 -0.4415  1.6287
  804TIP3   OH223970   0.313   2.345   8.494 -0.3818  0.2132 -0.4275
  804TIP3    H123971   0.298   2.254   8.471  1.3578 -0.3663  0.5886
  804TIP3    H223972   0.225   2.381   8.509 -1.0595 -1.4142 -0.3324
  805TIP3   OH223973   4.445   4.348   6.723  0.2381 -0.3382  0.7243
  805TIP3    H123974   4.526   4.357   6.673  0.0019 -2.8425 -0.2988
  805TIP3    H223975   4.427   4.436   6.756  0.5601  1.5315 -3.3946
  806TIP3   OH223976   6.240   2.838   1.734 -0.1444  0.2302 -0.1904
  806TIP3    H123977   6.186   2.805   1.661  0.1984  1.1135 -0.8577
  806TIP3    H223978   6.206   2.925   1.751  1.4695  1.0725 -1.0645
  807TIP3   OH223979   3.576   6.723   7.695 -0.2582 -0.2262 -0.1389
  807TIP3    H123980   3.492   6.734   7.650 -1.4387  1.2803  2.2513
  807TIP3    H223981   3.630   6.795   7.664 -0.2313 -0.5493 -0.8530
  808TIP3   OH223982   6.064   4.473   8.009  0.1577 -0.1192 -0.2105
  808TIP3    H123983   6.082   4.493   7.917 -3.3613 -0.9999 -1.2805
  808TIP3    H223984   6.085   4.380   8.017  2.2491  0.3721  0.4813
  809TIP3   OH223985   2.716   2.989   1.133 -0.2771  0.6662  0.7005
  809TIP3    H123986   2.723   2.927   1.060  3.2476  0.6663  0.8345
  809TIP3    H223987   2.640   2.959   1.183 -0.8107 -1.3602 -1.1616
  810TIP3   OH223988   4.865   0.687   7.356  0.1783  0.1714 -0.0932
  810TIP3    H123989   4.789   0.732   7.392 -0.4287  0.5731 -1.8009
  810TIP3    H223990   4.861   0.703   7.262  1.6321 -0.9376 -0.3899
  811TIP3   OH223991   0.285   6.535   7.735  0.0727  0.6890  0.4162
  811TIP3    H123992   0.323   6.622   7.731  1.0821  0.2344 -0.2575
  811TIP3    H223993   0.345   6.485   7.791  0.2448  0.0814 -0.2882
  812TIP3   OH223994   5.731   5.631   0.294  0.1710  0.1100  0.2253
  812TIP3    H123995   5.670   5.559   0.308  0.0293  0.4716  1.6429
  812TIP3    H223996   5.801   5.594   0.240 -0.2762 -0.8709  0.3115
  813TIP3   OH223997   3.283   5.178   0.668 -0.0170 -0.3594 -0.0789
  813TIP3    H123998   3.327   5.243   0.723  0.7372 -0.1818 -0.8677
  813TIP3    H223999   3.262   5.225   0.587 -0.6047 -0.7670 -0.1707
  814TIP3   OH224000   6.354   1.290   1.587 -0.1064 -0.0235 -0.3696
  814TIP3    H124001   6.274   1.264   1.542 -0.4816  1.2181 -0.4669
  814TIP3    H224002   6.336   1.273   1.680  0.3979 -1.8994 -0.5872
  815TIP3   OH224003   0.079   5.751   6.875  0.2139 -0.1692 -0.0913
  815TIP3    H124004   0.146   5.719   6.815 -0.2138 -0.6446 -0.3248
  815TIP3    H224005   0.093   5.846   6.879  0.7042 -0.2277 -0.3671
  816TIP3   OH224006   2.302   3.660   2.202 -0.2952  0.1844 -0.4997
  816TIP3    H124007   2.299   3.713   2.282  2.4210  0.4130 -0.4708
  816TIP3    H224008   2.238   3.702   2.143 -0.0303  1.9766  0.4199
  817TIP3   OH224009   3.286   3.084   1.190  0.0240 -0.3561  0.4643
  817TIP3    H124010   3.233   3.013   1.154 -0.6760  0.6773 -0.5876
  817TIP3    H224011   3.233   3.162   1.180 -0.3782  0.0019  4.0905
  818TIP3   OH224012   2.535   4.995   0.653 -0.4280 -0.3129  0.0049
  818TIP3    H124013   2.630   4.987   0.647 -0.2193  1.2593  0.7781
  818TIP3    H224014   2.512   4.950   0.734 -0.2766 -0.1742  0.1241
  819TIP3   OH224015   6.629   1.473   1.809 -0.0785 -0.1277  0.4400
  819TIP3    H124016   6.611   1.456   1.716  1.2016 -1.6934  0.4192
  819TIP3    H224017   6.725   1.465   1.816 -0.1533 -0.0151  1.8921
  820TIP3   OH224018   5.603   3.094   1.139  0.3102  0.3243 -0.2160
  820TIP3    H124019   5.605   3.185   1.171 -2.1010  0.1815  0.4769
  820TIP3    H224020   5.695   3.068   1.140  0.8410  1.8326  2.3174
  821TIP3   OH224021   4.166   5.156   2.581 -0.3651 -0.0209  0.2731
  821TIP3    H124022   4.196   5.139   2.670  0.6883 -0.7668 -0.2024
  821TIP3    H224023   4.072   5.138   2.583 -0.1285 -1.3056  0.9359
  822TIP3   OH224024   6.115   0.910   0.522  0.1606 -0.7942  0.0611
  822TIP3    H124025   6.112   0.953   0.608 -0.9356 -0.5385 -0.0872
  822TIP3    H224026   6.208   0.901   0.503  0.4154  0.2555  0.7257
  823TIP3   OH224027   4.167   5.266   0.356  0.0419 -0.1022 -0.3308
  823TIP3    H124028   4.221   5.341   0.380  1.4359 -1.0363 -0.4037
  823TIP3    H224029   4.173   5.207   0.431 -0.6806 -0.3443 -0.4528
  824TIP3   OH224030   5.248   6.608   8.486  0.1726  0.3604  0.2921
  824TIP3    H124031   5.295   6.527   8.464 -0.6552 -0.4826  1.5257
  824TIP3    H224032   5.278   6.629   8.574 -2.2024 -0.5645  1.3870
  825TIP3   OH224033   2.374   2.329   2.364  0.0615  0.3686 -0.2927
  825TIP3    H124034   2.463   2.358   2.344 -0.2406 -0.1769 -2.7205
  825TIP3    H224035   2.382   2.280   2.446  1.9643  0.3773 -0.4438
  826TIP3   OH224036   4.747   5.140   2.356 -0.2804 -0.2573  0.2188
  826TIP3    H124037   4.679   5.175   2.413  0.7636 -1.2359  2.2187
  826TIP3    H224038   4.824   5.131   2.414  0.5140 -2.4088 -1.0328
  827TIP3   OH224039   3.878   6.714   0.229  0.6577 -0.2325 -0.1760
  827TIP3    H124040   3.845   6.659   0.159 -0.4107  0.4407 -0.2365
  827TIP3    H224041   3.880   6.802   0.192 -0.7836  0.2855  0.8657
  828TIP3   OH224042   0.343   4.468   0.143  0.1400  0.4750 -0.3062
  828TIP3    H124043   0.360   4.502   0.231 -1.2263  0.4613 -0.0057
  828TIP3    H224044   0.361   4.375   0.149 -2.8584 -0.1485  0.8813
  829TIP3   OH224045   5.066   5.355   1.040 -0.1169 -0.3951  0.5218
  829TIP3    H124046   5.019   5.351   0.957 -1.0536 -0.8114  1.0487
  829TIP3    H224047   5.147   5.306   1.024  0.2207  0.4399 -0.4356
  830TIP3   OH224048   4.928   0.594   2.190  0.1419 -0.3847  0.6395
  830TIP3    H124049   4.980   0.642   2.254  0.5980  0.0451 -0.0349
  830TIP3    H224050   4.837   0.605   2.220  0.2921  0.3551  0.8579
  831TIP3   OH224051   2.530   6.077   7.630  0.3904  0.8747 -0.2985
  831TIP3    H124052   2.589   6.066   7.555  0.7903 -0.8809  0.2165
  831TIP3    H224053   2.540   6.169   7.655  0.4052  1.4406 -2.2437
  832TIP3   OH224054   1.474   3.705   7.023  0.6624 -0.1054 -0.1215
  832TIP3    H124055   1.431   3.701   6.938 -0.9399 -0.0122  0.6594
  832TIP3    H224056   1.528   3.784   7.019 -0.1031  0.3964 -0.7423
  833TIP3   OH224057   2.962   6.519   0.548  0.3891  0.0292  0.4290
  833TIP3    H124058   2.925   6.462   0.480  0.3906  0.4968  0.0254
  833TIP3    H224059   2.936   6.478   0.630  0.7983 -0.8168  0.1486
  834TIP3   OH224060   4.890   4.151   1.722 -0.0591 -0.1996 -0.3010
  834TIP3    H124061   4.831   4.166   1.796  0.2459 -1.8306  0.2985
  834TIP3    H224062   4.914   4.239   1.693  0.8167  0.5263  2.3442
  835TIP3   OH224063   5.893   5.822   0.934 -0.2114 -0.0174  0.3952
  835TIP3    H124064   5.933   5.760   0.996  1.1293  0.5583  0.1370
  835TIP3    H224065   5.928   5.907   0.960 -1.6499  0.5911  0.4267
  836TIP3   OH224066   4.402   5.899   0.017  0.0710 -0.7419 -0.7903
  836TIP3    H124067   4.417   5.814  -0.024 -2.4451 -1.0962 -1.1502
  836TIP3    H224068   4.379   5.957  -0.055 -0.6794 -0.4150 -0.3054
  837TIP3   OH224069   2.860   3.279   7.226 -0.0088 -0.0994 -0.1848
  837TIP3    H124070   2.778   3.311   7.263  0.9120  0.7067  1.2382
  837TIP3    H224071   2.904   3.358   7.195  1.5874 -0.0960  1.9153
  838TIP3   OH224072   4.921   1.662   7.303 -0.3109 -0.3854  0.3912
  838TIP3    H124073   4.851   1.725   7.320 -0.6330  0.0147 -2.0402
  838TIP3    H224074   4.900   1.626   7.217  3.6966  1.5496 -1.6900
  839TIP3   OH224075   2.408   0.941   8.146 -0.3190 -0.0895  0.0617
  839TIP3    H124076   2.338   0.939   8.082 -1.2492  0.1310  1.0447
  839TIP3    H224077   2.439   1.031   8.145  0.6039 -0.3885 -1.0236
  840TIP3   OH224078   4.335   0.568   6.889  0.2505  0.2438  0.3058
  840TIP3    H124079   4.367   0.590   6.802 -0.2957 -0.3423 -0.0534
  840TIP3    H224080   4.244   0.542   6.875  0.6557 -1.5562  0.7741
  841TIP3   OH224081   3.425   0.583   1.005 -0.2683 -0.2362 -0.1881
  841TIP3    H124082   3.503   0.546   1.048 -0.7069  0.2262  1.0312
  841TIP3    H224083   3.460   0.635   0.933  0.6291  0.7931  0.9616
  842TIP3   OH224084   3.217   5.102   2.621 -0.2364  0.0408  0.2305
  842TIP3    H124085   3.122   5.105   2.634 -0.2991 -0.3765 -0.1393
  842TIP3    H224086   3.230   5.108   2.527 -0.0773 -3.5318 -0.0907
  843TIP3   OH224087   0.917   3.357   0.300 -0.0164 -1.1772  0.0031
  843TIP3    H124088   0.881   3.426   0.244 -1.9735 -1.7110  0.5291
  843TIP3    H224089   0.844   3.332   0.357  1.0049 -2.8433  0.6417
  844TIP3   OH224090   4.165   4.352   2.047  0.1376  0.0665 -0.1515
  844TIP3    H124091   4.120   4.336   1.965 -1.2406 -0.5137  0.6921
  844TIP3    H224092   4.099   4.337   2.115  0.1632  4.0207  0.9914
  845TIP3   OH224093   1.657   3.832   0.542  0.2433 -0.2873 -0.2446
  845TIP3    H124094   1.702   3.762   0.494  1.9314 -1.2489  2.4968
  845TIP3    H224095   1.719   3.905   0.541 -0.9418  0.7579 -1.9109
  846TIP3   OH224096   2.095   1.159   1.206 -0.0076 -0.0364  0.5746
  846TIP3    H124097   2.028   1.214   1.166  0.1442 -1.9651 -2.7983
  846TIP3    H224098   2.048   1.081   1.235  0.5866 -1.2891 -1.5817
  847TIP3   OH224099   5.722   4.045   2.441 -0.0581  0.9312  0.4759
  847TIP3    H124100   5.713   3.982   2.512  1.2777  1.4898  1.1839
  847TIP3    H224101   5.664   4.013   2.372 -1.2446  0.2813  1.7448
  848TIP3   OH224102   2.018   3.126   0.294  0.5117  0.2353 -0.3462
  848TIP3    H124103   2.078   3.191   0.331  0.3013  0.9987 -1.3221
  848TIP3    H224104   1.938   3.175   0.276  0.1106 -0.4476 -0.4573
  849TIP3   OH224105   6.687   4.369   1.729  0.0955  0.8507  0.4567
  849TIP3    H124106   6.743   4.318   1.670  1.3624  2.2180  0.4328
  849TIP3    H224107   6.618   4.404   1.672 -1.1074 -1.2030  0.5666
  850TIP3   OH224108   1.025   1.372   2.971 -0.3697  0.0428 -0.1836
  850TIP3    H124109   1.075   1.452   2.984  2.3017 -1.4245 -0.5462
  850TIP3    H224110   1.092   1.305   2.952 -2.5486 -1.9933 -1.2507
  851TIP3   OH224111   5.972   0.180   0.708  0.5632 -0.1109  0.3134
  851TIP3    H124112   5.985   0.267   0.746  0.2351  0.4403 -0.7844
  851TIP3    H224113   5.890   0.149   0.748 -1.4959  1.7624 -2.1016
  852TIP3   OH224114   5.851   2.817   7.508  0.5632 -0.1172 -0.0623
  852TIP3    H124115   5.842   2.904   7.546  0.4162 -0.3038  0.3309
  852TIP3    H224116   5.897   2.832   7.425  1.8210  0.1646  0.6710
  853TIP3   OH224117   5.095   6.815   0.687  0.2300 -0.0023  0.1648
  853TIP3    H124118   5.065   6.891   0.637  0.0980 -0.0616  0.1546
  853TIP3    H224119   5.110   6.848   0.775  0.1698  0.0349  0.1609
  854TIP3   OH224120   2.916   5.357   1.434 -0.4078  0.6306 -0.2933
  854TIP3    H124121   2.994   5.333   1.485 -0.8103 -2.7125 -1.0285
  854TIP3    H224122   2.942   5.344   1.343 -1.7776 -0.5813 -0.5437
  855TIP3   OH224123   2.183   6.351   8.282  0.2770 -0.0773 -0.1953
  855TIP3    H124124   2.186   6.270   8.333  1.0663  0.5700  0.8279
  855TIP3    H224125   2.102   6.394   8.310 -0.3017 -0.6337 -0.9662
  856TIP3   OH224126   6.788   0.771   1.656 -0.2323 -0.1056 -0.5202
  856TIP3    H124127   6.862   0.832   1.657  0.0420 -0.4243 -0.9802
  856TIP3    H224128   6.760   0.765   1.747  0.3185 -0.0017 -0.3425
  857TIP3   OH224129   3.505   5.793   0.435  0.4169  0.5500  0.2207
  857TIP3    H124130   3.470   5.762   0.351  0.6439  0.7821  0.0390
  857TIP3    H224131   3.442   5.763   0.500 -0.0752  0.8802 -0.0949
  858TIP3   OH224132   3.705   3.675   1.231  0.5320  0.0232 -0.1539
  858TIP3    H124133   3.720   3.722   1.149 -2.8986  0.9263 -0.4142
  858TIP3    H224134   3.669   3.591   1.204  0.4508 -0.1267  0.4190
  859TIP3   OH224135   4.255   5.268   1.803  0.1265 -0.4434 -0.2287
  859TIP3    H124136   4.179   5.249   1.858  0.9079 -0.7720  0.7648
  859TIP3    H224137   4.266   5.363   1.809 -0.4077 -0.3515 -0.6548
  860TIP3   OH224138   4.338   5.417   2.140  0.2974 -0.1822 -0.6771
  860TIP3    H124139   4.337   5.348   2.206  0.7558  1.9455  1.7549
  860TIP3    H224140   4.246   5.441   2.129  0.2343 -0.4074 -0.6443
  861TIP3   OH224141   2.966   1.964   8.393  0.1788 -0.2776  0.1121
  861TIP3    H124142   3.059   1.963   8.416  0.3302 -0.0828 -0.4694
  861TIP3    H224143   2.964   1.939   8.300 -0.3772 -0.6194  0.2068
  862TIP3   OH224144   4.701   2.033   6.962  0.9051 -0.0110 -0.1118
  862TIP3    H124145   4.757   2.087   6.906 -0.2358  1.7037  0.3290
  862TIP3    H224146   4.679   2.090   7.035 -1.4256 -0.6007 -0.2858
  863TIP3   OH224147   0.456   0.803   2.697 -0.1554 -0.5453  0.5833
  863TIP3    H124148   0.507   0.837   2.624 -1.5142 -1.9241 -1.0700
  863TIP3    H224149   0.382   0.863   2.705 -0.3986 -0.8178  0.3545
  864TIP3   OH224150   6.716   0.213   1.543 -0.2180 -0.1785  0.2604
  864TIP3    H124151   6.793   0.171   1.504 -0.2121 -0.3428  0.4436
  864TIP3    H224152   6.743   0.303   1.558  0.3503 -0.5206  1.4060
  865TIP3   OH224153   2.201   0.487   8.262  0.1661  0.1172 -0.0194
  865TIP3    H124154   2.249   0.550   8.315  0.3117 -0.2012  0.2328
  865TIP3    H224155   2.111   0.492   8.294  0.1309  0.3550 -0.1516
  866TIP3   OH224156   0.581   4.356   1.831  0.1245 -0.0186 -0.4869
  866TIP3    H124157   0.523   4.431   1.834 -0.3895 -0.4274  1.0654
  866TIP3    H224158   0.669   4.394   1.825 -0.2379  0.6102 -2.4331
  867TIP3   OH224159   0.925   1.014   1.018 -0.1381  0.0395 -0.5574
  867TIP3    H124160   0.868   0.938   1.030 -0.8517  0.6730  0.2145
  867TIP3    H224161   0.874   1.088   1.052  1.4189  0.5362  0.8006
  868TIP3   OH224162   4.712   3.850   7.255 -0.5146 -0.1293 -0.0404
  868TIP3    H124163   4.679   3.930   7.297 -1.3133 -1.1446  1.3496
  868TIP3    H224164   4.805   3.867   7.241 -0.5829  0.8709  0.6459
  869TIP3   OH224165   0.172   5.431   8.427 -0.3809  0.5342  0.5998
  869TIP3    H124166   0.130   5.405   8.510 -0.0185 -0.1305  0.5870
  869TIP3    H224167   0.195   5.348   8.386  1.1152  0.8825  0.6929
  870TIP3   OH224168   1.754   6.387   2.835 -0.0906 -0.0081  0.7341
  870TIP3    H124169   1.794   6.365   2.751 -0.2966  2.4810 -0.1063
  870TIP3    H224170   1.805   6.339   2.900  0.5222 -1.4362 -0.7467
  871TIP3   OH224171   1.725   1.456   1.234  0.4255 -0.4936 -0.3626
  871TIP3    H124172   1.633   1.473   1.254  0.1595 -1.8762 -0.3064
  871TIP3    H224173   1.770   1.468   1.317  0.4345  0.8945 -0.5355
  872TIP3   OH224174   4.440   1.930   7.447  0.2715  0.0492 -0.3047
  872TIP3    H124175   4.439   1.837   7.466  0.2836  0.2110  0.5610
  872TIP3    H224176   4.444   1.936   7.352 -1.3591 -0.8288 -0.4589
  873TIP3   OH224177   2.295   5.248   0.887 -0.1571  0.2594  0.1163
  873TIP3    H124178   2.326   5.333   0.917 -1.2539  0.5183  0.5674
  873TIP3    H224179   2.334   5.237   0.800  0.7873  0.7691  0.4650
  874TIP3   OH224180   5.688   1.627   8.160 -0.3541  0.4885  0.3423
  874TIP3    H124181   5.780   1.641   8.184 -0.2907 -0.8250  0.9606
  874TIP3    H224182   5.647   1.713   8.172  0.1942  0.4697  2.8959
  875TIP3   OH224183   5.356   1.807   2.202  0.5363 -0.4175  0.2876
  875TIP3    H124184   5.273   1.760   2.192 -0.8221  1.2811  2.5247
  875TIP3    H224185   5.352   1.842   2.291  2.8356  1.3094 -0.2180
  876TIP3   OH224186   5.260   4.260   1.117 -0.3611  0.3162  0.1471
  876TIP3    H124187   5.336   4.219   1.076 -0.5221  1.7162 -1.6812
  876TIP3    H224188   5.196   4.269   1.045 -1.7380  0.4035  1.3307
  877TIP3   OH224189   0.924   5.244   6.767  0.2136 -0.1340 -0.1667
  877TIP3    H124190   0.893   5.333   6.753  0.5859  0.0593  0.1969
  877TIP3    H224191   1.015   5.245   6.736  0.1678 -0.4275 -0.3124
  878TIP3   OH224192   1.742   0.956   7.559 -0.3824  0.2054  0.0334
  878TIP3    H124193   1.688   0.999   7.493  1.6101  3.0801  0.0958
  878TIP3    H224194   1.829   0.950   7.518 -0.0753 -1.9768  0.8574
  879TIP3   OH224195   5.239   5.375   7.610 -0.3819 -0.0293 -0.0735
  879TIP3    H124196   5.195   5.460   7.615  0.2179  0.3088 -0.4667
  879TIP3    H224197   5.175   5.317   7.570 -1.0076  0.0929  0.7234
  880TIP3   OH224198   1.712   0.633   8.243 -0.2920  0.1077 -0.3088
  880TIP3    H124199   1.642   0.568   8.256 -0.0984 -0.2996 -1.2331
  880TIP3    H224200   1.792   0.581   8.239 -0.0409  0.4834 -0.2110
  881TIP3   OH224201   5.096   4.371   0.315  0.1397 -0.3960  0.2677
  881TIP3    H124202   5.179   4.335   0.347  0.3291 -0.1409  0.0694
  881TIP3    H224203   5.121   4.448   0.264 -0.2959  0.3330  1.1322
  882TIP3   OH224204   5.250   4.212   7.946 -0.2802 -0.2559 -0.2530
  882TIP3    H124205   5.165   4.212   7.902 -0.4089  0.0653 -0.0092
  882TIP3    H224206   5.277   4.303   7.945  1.2315 -0.6470 -2.5290
  883TIP3   OH224207   5.313   3.983   7.666 -0.5195 -0.4139  0.3124
  883TIP3    H124208   5.322   3.907   7.608 -1.4414 -0.7623  0.6078
  883TIP3    H224209   5.229   4.022   7.641 -0.2837  0.2262  0.5032
  884TIP3   OH224210   2.069   0.597   8.525  0.0590 -1.0486 -0.0624
  884TIP3    H124211   2.032   0.592   8.613  0.0332  0.1372  0.0008
  884TIP3    H224212   2.161   0.573   8.536  0.6387  1.2898  0.6953
  885TIP3   OH224213   5.765   5.094   1.816  0.2374 -0.4254  0.2701
  885TIP3    H124214   5.806   5.022   1.865  1.8201  0.3908  0.2322
  885TIP3    H224215   5.759   5.062   1.726 -1.1116 -1.2998  0.6409
  886TIP3   OH224216   0.234   0.710   1.161  0.3919 -0.1052  0.4085
  886TIP3    H124217   0.248   0.744   1.249 -0.7506 -2.6117  1.6462
  886TIP3    H224218   0.179   0.633   1.173  1.3025 -1.3270 -2.3707
  887TIP3   OH224219   3.856   2.897   8.478  0.5589 -0.5165  0.3949
  887TIP3    H124220   3.907   2.866   8.553  1.1648 -0.7951 -0.1269
  887TIP3    H224221   3.863   2.828   8.413 -0.1684 -0.3842  0.1645
  888TIP3   OH224222   4.452   4.864   1.865 -0.8514 -0.4046  0.2663
  888TIP3    H124223   4.401   4.790   1.897 -1.9447  0.3855  0.3874
  888TIP3    H224224   4.391   4.915   1.812  0.2659 -0.3493 -1.0301
  889TIP3   OH224225   5.579   1.447   8.367  0.2565  0.3701 -0.5119
  889TIP3    H124226   5.501   1.422   8.318 -0.0690  0.0458  0.1645
  889TIP3    H224227   5.642   1.474   8.300  0.7254 -2.4956 -1.3713
  890TIP3   OH224228   1.134   5.674   0.609 -0.4698  0.0413  1.0247
  890TIP3    H124229   1.211   5.718   0.644 -0.1494 -0.3435  0.8116
  890TIP3    H224230   1.121   5.600   0.668  0.0148 -0.5570  0.3981
  891TIP3   OH224231   4.807   4.863   2.467 -0.2875 -0.2229 -0.1807
  891TIP3    H124232   4.871   4.912   2.415  0.4172 -1.3641 -0.4198
  891TIP3    H224233   4.839   4.869   2.556  0.6185 -1.4525 -0.4017
  892TIP3   OH224234   2.935   6.256   0.332 -0.1500 -0.2817 -0.1391
  892TIP3    H124235   2.865   6.320   0.346  0.0310 -0.3573  1.3132
  892TIP3    H224236   2.903   6.176   0.374 -0.1496 -1.0106 -1.4751
  893TIP3   OH224237   6.394   5.318   7.606 -0.2700  0.7302 -0.9698
  893TIP3    H124238   6.375   5.243   7.549 -1.1043  0.2479 -0.0972
  893TIP3    H224239   6.482   5.301   7.639 -0.5214  0.0166 -0.6291
  894TIP3   OH224240   2.908   0.734   1.207  0.1164 -0.5662 -0.3791
  894TIP3    H124241   2.991   0.749   1.253  0.6157 -1.7170 -0.8438
  894TIP3    H224242   2.841   0.771   1.264  1.0376  1.6498 -0.6279
  895TIP3   OH224243   5.325   2.495   7.507 -0.4265  0.4137 -0.0049
  895TIP3    H124244   5.339   2.474   7.600 -0.8554 -1.6514 -0.3441
  895TIP3    H224245   5.235   2.527   7.503 -1.0688 -1.2708  0.0923
  896TIP3   OH224246   5.983   4.213   7.691  0.4599 -0.6070 -0.3215
  896TIP3    H124247   6.036   4.289   7.710 -1.2071  0.7124 -0.6970
  896TIP3    H224248   6.003   4.191   7.601 -0.1612  0.3657 -0.7125
  897TIP3   OH224249   4.095   4.049   1.009 -0.6553  0.0232 -0.3037
  897TIP3    H124250   4.125   3.959   0.998  0.2942  0.2462  0.3323
  897TIP3    H224251   4.014   4.054   0.958  0.6284 -0.4567 -2.4993
  898TIP3   OH224252   0.211   0.944   1.739 -0.0674  0.4334  0.6566
  898TIP3    H124253   0.295   0.907   1.710  1.0741  0.4254  3.5896
  898TIP3    H224254   0.234   1.031   1.770 -1.3918  0.8674  0.4504
  899TIP3   OH224255   2.344   2.504   7.955  0.2347  0.0591  0.7354
  899TIP3    H124256   2.411   2.468   8.012 -0.1704 -1.4109  0.3172
  899TIP3    H224257   2.355   2.458   7.872 -0.2749  0.9515  0.1514
  900TIP3   OH224258   6.327   5.964   0.755 -0.0486 -0.1662  0.0338
  900TIP3    H124259   6.270   5.937   0.826 -1.0836 -1.3335 -1.1897
  900TIP3    H224260   6.281   6.038   0.714  0.6790  0.6871  0.7215
  901TIP3   OH224261   4.527   3.370   0.221  0.4582 -1.2778 -0.1594
  901TIP3    H124262   4.556   3.279   0.222  2.9207 -0.5623  1.9218
  901TIP3    H224263   4.605   3.420   0.198 -0.2700  0.4610  0.9997
  902TIP3   OH224264   2.879   4.229   7.859 -0.7433 -0.9106 -0.3398
  902TIP3    H124265   2.932   4.158   7.893 -1.7446 -1.4788  0.0804
  902TIP3    H224266   2.835   4.192   7.782 -1.6515 -0.9236  0.1666
  903TIP3   OH224267   0.911   0.345   1.275 -1.0509  0.4722  0.2823
  903TIP3    H124268   0.947   0.276   1.330  1.2199  2.8756  2.0694
  903TIP3    H224269   0.844   0.386   1.330 -1.4240  0.5427 -0.2219
  904TIP3   OH224270   5.330   4.054   1.899 -0.0569  0.3519 -0.4955
  904TIP3    H124271   5.319   3.970   1.943  2.1307 -0.0555 -0.6394
  904TIP3    H224272   5.295   4.040   1.811  2.6554 -1.3074 -1.4165
  905TIP3   OH224273   0.507   1.786   1.983 -0.2208  0.0455 -0.8158
  905TIP3    H124274   0.590   1.749   1.952  1.1993  1.1500  1.4493
  905TIP3    H224275   0.464   1.713   2.028 -0.4545 -0.4816 -1.8477
  906TIP3   OH224276   4.834   0.418   7.450  0.3258 -0.3600  0.1653
  906TIP3    H124277   4.877   0.374   7.376 -0.3538  1.1447 -1.1985
  906TIP3    H224278   4.846   0.512   7.432 -1.0474  0.0578  1.2578
  907TIP3   OH224279   6.682   0.392   1.155  0.7058 -0.0441  0.0624
  907TIP3    H124280   6.672   0.307   1.113 -1.5711  0.5275 -0.7198
  907TIP3    H224281   6.750   0.436   1.105 -1.9656  0.6570 -3.3147
  908TIP3   OH224282   2.855   5.044   7.322  0.4690  0.3514 -0.0908
  908TIP3    H124283   2.816   5.121   7.280  0.2691 -0.5885 -1.7040
  908TIP3    H224284   2.880   5.075   7.410  0.0037  2.1235 -0.5378
  909TIP3   OH224285   1.845   2.611   1.291 -0.6382 -0.0466 -0.1955
  909TIP3    H124286   1.813   2.697   1.264 -1.5686  0.2301  1.5944
  909TIP3    H224287   1.772   2.551   1.273  0.1471 -0.5677 -1.8019
  910TIP3   OH224288   0.266   2.722   7.872  0.1367  0.2645  0.9316
  910TIP3    H124289   0.207   2.676   7.932 -0.6379 -3.4262 -2.2588
  910TIP3    H224290   0.220   2.803   7.852 -1.8050 -0.5479  1.8142
  911TIP3   OH224291   2.125   2.034   8.013  0.2272 -0.2963  0.1318
  911TIP3    H124292   2.088   1.973   8.077  0.5880  0.4125  1.0415
  911TIP3    H224293   2.184   1.980   7.960  0.4942 -0.7599  0.8800
  912TIP3   OH224294   1.899   5.021   1.487  0.2151 -0.0712  0.2126
  912TIP3    H124295   1.962   5.007   1.416  0.1018  0.9339 -0.1012
  912TIP3    H224296   1.927   5.102   1.529 -1.1738  0.7069 -0.2889
  913TIP3   OH224297   0.537   2.356   0.092  0.5258  0.2395 -0.3879
  913TIP3    H124298   0.556   2.354  -0.002 -1.1530 -0.9512 -0.7296
  913TIP3    H224299   0.526   2.449   0.112  2.8285  0.6914 -0.9117
  914TIP3   OH224300   0.579   0.434   7.307  0.2808  0.0723 -0.0560
  914TIP3    H124301   0.508   0.398   7.255 -1.1047  2.2186  0.2200
  914TIP3    H224302   0.584   0.379   7.385 -0.2524 -0.8113 -0.6388
  915TIP3   OH224303   5.030   0.480   0.396 -0.7391  0.3805  0.0247
  915TIP3    H124304   5.122   0.458   0.411 -0.5823  0.2645 -1.0320
  915TIP3    H224305   4.991   0.483   0.484  0.0345 -0.5903  0.4151
  916TIP3   OH224306   6.440   2.490   0.985  0.7044 -0.2794 -0.0282
  916TIP3    H124307   6.447   2.409   0.934 -1.1667 -1.1413  0.9639
  916TIP3    H224308   6.529   2.524   0.991  1.4555 -2.0288 -0.8596
  917TIP3   OH224309   2.365   6.488   8.480 -0.0848 -0.0120 -0.3346
  917TIP3    H124310   2.337   6.495   8.572  1.4463 -1.8924  0.3470
  917TIP3    H224311   2.284   6.480   8.431 -0.9122 -0.0256  0.9778
  918TIP3   OH224312   3.758   5.223   8.472 -0.0591  0.1194  0.1220
  918TIP3    H124313   3.827   5.283   8.500 -0.1532  0.9513 -1.3464
  918TIP3    H224314   3.799   5.137   8.470  0.6498  0.4503  0.2327
  919TIP3   OH224315   1.468   1.449   0.195 -0.1210 -0.1510 -0.2496
  919TIP3    H124316   1.404   1.521   0.189  0.4023  0.3562  0.1487
  919TIP3    H224317   1.543   1.480   0.143 -0.0814 -0.6169 -0.4707
  920TIP3   OH224318   4.221   6.558   6.968  0.0392 -0.0676  0.3922
  920TIP3    H124319   4.291   6.596   6.915 -0.2420  0.2780  0.2615
  920TIP3    H224320   4.267   6.509   7.036  0.4457  1.5375  1.3347
  921TIP3   OH224321   3.174   3.372   2.404 -0.4338  0.8537 -0.1752
  921TIP3    H124322   3.143   3.456   2.440 -0.7209  0.6139  0.1404
  921TIP3    H224323   3.158   3.379   2.310  1.8360  2.1481 -0.5235
  922TIP3   OH224324   3.169   1.053   8.456  0.1159  0.0518  0.1321
  922TIP3    H124325   3.169   0.998   8.535  2.2132  2.1618  1.7325
  922TIP3    H224326   3.261   1.058   8.430 -0.1011  2.1566 -0.3923
  923TIP3   OH224327   1.327   6.568   8.663 -0.1903 -0.1147 -0.2311
  923TIP3    H124328   1.323   6.542   8.571  0.6688 -0.9879 -0.0454
  923TIP3    H224329   1.369   6.494   8.706  2.5863  1.6318  0.3229
  924TIP3   OH224330   5.512   0.054   8.091 -0.3724 -0.4243  0.2362
  924TIP3    H124331   5.598   0.022   8.063  0.9840  1.7407  1.6174
  924TIP3    H224332   5.494   0.127   8.031  0.2605  1.0995  1.8282
  925TIP3   OH224333   2.525   4.692   1.291 -0.1348 -0.2542 -0.7873
  925TIP3    H124334   2.487   4.656   1.371 -0.6840  1.9765  0.0018
  925TIP3    H224335   2.557   4.615   1.244 -3.0422 -2.0188 -0.1596
  926TIP3   OH224336   5.565   3.906   0.913 -0.7087 -0.3102 -0.1793
  926TIP3    H124337   5.544   3.997   0.894 -0.9519 -0.7579 -2.2889
  926TIP3    H224338   5.657   3.897   0.891 -0.1774 -0.1612  1.8336
  927TIP3   OH224339   2.385   5.042   8.484 -0.1744  0.4590 -0.2698
  927TIP3    H124340   2.318   4.990   8.527  0.7030  0.1379  0.7486
  927TIP3    H224341   2.353   5.054   8.394 -1.5524  0.2766  0.1751
  928TIP3   OH224342   4.365   1.298   1.716  0.0720 -0.0792  0.3294
  928TIP3    H124343   4.412   1.241   1.654 -0.5640  0.7955 -1.0036
  928TIP3    H224344   4.331   1.239   1.783  1.2830 -0.9810  0.1733
  929TIP3   OH224345   1.993   4.877   1.851 -0.1879  0.1464 -0.1260
  929TIP3    H124346   2.012   4.970   1.853 -0.5834  0.2250  1.0019
  929TIP3    H224347   1.909   4.869   1.897  0.0543 -0.7957  0.1790
  930TIP3   OH224348   1.800   4.083   0.486  0.1082  0.2559  0.0406
  930TIP3    H124349   1.884   4.068   0.443  0.2828  0.8466  0.1749
  930TIP3    H224350   1.756   4.147   0.429 -1.2554 -1.7852 -1.3685
  931TIP3   OH224351   6.703   0.470   7.669 -0.3463  0.3847  0.4910
  931TIP3    H124352   6.780   0.498   7.618  0.4643  1.8557  2.3788
  931TIP3    H224353   6.648   0.424   7.606  2.1267 -0.8496 -0.9361
  932TIP3   OH224354   6.687   3.684   1.927 -0.4319 -0.2180 -0.2849
  932TIP3    H124355   6.597   3.702   1.955 -0.1584  0.6317  0.0754
  932TIP3    H224356   6.704   3.750   1.859  0.5203  0.8345  0.9178
  933TIP3   OH224357   2.351   6.338   7.185 -0.2468  0.2193 -0.1945
  933TIP3    H124358   2.432   6.322   7.234  0.3894  1.1937 -0.8863
  933TIP3    H224359   2.348   6.267   7.121 -0.1811 -0.0812  0.1341
  934TIP3   OH224360   5.749   3.846   8.568  0.0988 -0.0976  0.3063
  934TIP3    H124361   5.757   3.941   8.561 -0.7399 -0.1478 -2.2377
  934TIP3    H224362   5.657   3.831   8.590 -0.3189 -0.3312 -1.4610
  935TIP3   OH224363   4.823   4.095   3.040  0.3981  0.8854  0.5551
  935TIP3    H124364   4.846   4.067   3.128  0.6067  0.0887  0.2556
  935TIP3    H224365   4.789   4.016   2.998 -1.9480  1.7568  0.6523
  936TIP3   OH224366   2.072   0.507   1.329  0.1662 -0.5535  0.1604
  936TIP3    H124367   2.092   0.414   1.317 -0.2305 -0.8388  1.5504
  936TIP3    H224368   2.153   0.544   1.366 -0.9094 -1.2125  3.4584
  937TIP3   OH224369   3.659   1.074   6.997  0.4724 -0.1828 -0.1834
  937TIP3    H124370   3.602   1.006   7.034 -0.9476  0.8601 -0.3557
  937TIP3    H224371   3.657   1.144   7.063 -0.6326  0.9580 -1.3798
  938TIP3   OH224372   1.476   2.247   1.980 -0.5823 -0.2619 -0.1877
  938TIP3    H124373   1.429   2.302   2.042 -0.0856  1.6012 -1.3761
  938TIP3    H224374   1.561   2.231   2.022 -0.4654  0.5011 -0.1187
  939TIP3   OH224375   5.957   6.104   7.344 -0.3773 -0.4364 -0.3336
  939TIP3    H124376   5.927   6.114   7.254 -2.1220  1.4290  0.3733
  939TIP3    H224377   6.035   6.158   7.350  0.0564 -0.9977 -0.8478
  940TIP3   OH224378   0.701   6.792   7.717 -0.6342  0.1653  0.6249
  940TIP3    H124379   0.716   6.707   7.676 -2.9427 -0.0635  0.1125
  940TIP3    H224380   0.609   6.811   7.700 -0.1578  2.8673  0.5530
  941TIP3   OH224381   3.056   3.799   8.639  0.0538  1.1303 -0.2395
  941TIP3    H124382   3.128   3.820   8.700 -0.7584 -1.9370  2.0331
  941TIP3    H224383   2.978   3.832   8.683 -0.3142  0.9734 -0.7745
  942TIP3   OH224384   2.944   6.191   2.304  0.2515  0.1267  0.0949
  942TIP3    H124385   2.940   6.287   2.304 -0.8549  0.0978  0.6659
  942TIP3    H224386   2.913   6.166   2.391 -1.4510 -0.7886 -0.7217
  943TIP3   OH224387   0.582   5.389   6.826 -0.4195  0.2598 -0.3334
  943TIP3    H124388   0.576   5.294   6.830  1.3737  0.1614  2.0019
  943TIP3    H224389   0.649   5.406   6.760  1.5765 -0.3345  1.4103
  944TIP3   OH224390   2.557   6.438   0.989 -0.5909  0.0996 -0.2093
  944TIP3    H124391   2.494   6.479   0.930 -0.7861  1.7648  1.0851
  944TIP3    H224392   2.633   6.495   0.987 -0.3541 -0.1611  0.6453
  945TIP3   OH224393   5.766   4.868   7.776  0.3051 -0.4675 -0.1488
  945TIP3    H124394   5.768   4.778   7.742 -1.4253 -0.4874 -0.2570
  945TIP3    H224395   5.702   4.866   7.847 -0.3167  0.8418 -0.6483
  946TIP3   OH224396   3.629   6.462   7.731 -0.3729  0.1510  0.4458
  946TIP3    H124397   3.641   6.547   7.689 -1.4166  0.3536  0.5199
  946TIP3    H224398   3.587   6.408   7.664  1.1599 -0.6315  0.0673
  947TIP3   OH224399   1.117   3.057   0.300 -0.3769 -0.2819 -0.2378
  947TIP3    H124400   1.136   3.140   0.344 -1.0435  0.0547 -0.5652
  947TIP3    H224401   1.173   3.059   0.222 -0.6460  0.0231 -0.4266
  948TIP3   OH224402   2.985   2.898   7.806 -0.2177 -0.0457 -0.4779
  948TIP3    H124403   2.904   2.868   7.765 -0.2589  0.2950 -0.6488
  948TIP3    H224404   3.028   2.950   7.738 -0.5102  0.9191  0.0666
  949TIP3   OH224405   3.641   0.836   7.852  0.0826 -0.3862 -0.4428
  949TIP3    H124406   3.563   0.870   7.897  1.0922  1.5130 -0.0625
  949TIP3    H224407   3.613   0.750   7.820 -1.3963 -0.8589  1.8379
  950TIP3   OH224408   1.321   2.953   2.711 -0.5372 -0.7738  0.3332
  950TIP3    H124409   1.250   2.975   2.651 -0.1191  0.4462  0.2665
  950TIP3    H224410   1.393   3.010   2.686 -0.1320 -0.6942  1.5777
  951TIP3   OH224411   0.208   5.098   7.537 -0.2946 -0.3435 -0.3382
  951TIP3    H124412   0.185   5.136   7.622  0.0844  0.3543 -0.5486
  951TIP3    H224413   0.261   5.021   7.559 -0.3446 -0.2668  0.0607
  952TIP3   OH224414   6.530   3.325   1.941 -0.1697  0.2420  0.0605
  952TIP3    H124415   6.520   3.268   1.865  0.2011  1.1846 -0.7174
  952TIP3    H224416   6.529   3.265   2.016  1.8016 -0.9722 -0.8006
  953TIP3   OH224417   6.113   0.700   1.491 -0.3067 -0.5354  0.2537
  953TIP3    H124418   6.103   0.636   1.561 -2.9109 -1.0187 -0.4645
  953TIP3    H224419   6.096   0.650   1.411  2.4918  0.0266 -0.7951
  954TIP3   OH224420   5.115   1.129   8.234 -0.1891 -0.1145 -0.5866
  954TIP3    H124421   5.174   1.118   8.160  1.7383  0.9863  0.6908
  954TIP3    H224422   5.129   1.053   8.289  0.6228  0.4946  0.0739
  955TIP3   OH224423   0.112   2.563   2.265  0.7551  0.3517 -0.1031
  955TIP3    H124424   0.071   2.603   2.341 -1.1913  1.5973 -1.6954
  955TIP3    H224425   0.192   2.614   2.251 -0.1035  1.7137 -0.2600
  956TIP3   OH224426   5.072   3.957   1.028 -0.0799 -0.2433 -0.0843
  956TIP3    H124427   5.148   4.008   1.000 -0.4139 -0.6194 -1.7558
  956TIP3    H224428   5.107   3.870   1.046 -0.0279 -0.2691 -0.3109
  957TIP3   OH224429   6.291   2.159   0.156  0.4286 -0.3938  0.4879
  957TIP3    H124430   6.351   2.152   0.082  0.3862  0.1327  0.3965
  957TIP3    H224431   6.205   2.171   0.116  0.6808  2.2612  0.5772
  958TIP3   OH224432   1.511   6.650   0.454 -0.1375  0.1262 -0.4261
  958TIP3    H124433   1.558   6.670   0.373  1.4860 -2.5210 -0.2569
  958TIP3    H224434   1.429   6.609   0.425  0.0027  0.0720 -0.7501
  959TIP3   OH224435   3.629   0.818   1.988  0.3956  0.0896  0.8888
  959TIP3    H124436   3.666   0.751   1.930  0.0054  0.5237  0.1217
  959TIP3    H224437   3.565   0.771   2.042 -1.9032  0.2330 -1.4920
  960TIP3   OH224438   0.325   5.259   1.919 -0.2533 -0.0218 -0.5211
  960TIP3    H124439   0.331   5.175   1.964 -0.3297  0.0237 -0.4270
  960TIP3    H224440   0.361   5.323   1.981  0.0844 -0.0251 -0.7062
  961TIP3   OH224441   5.948   5.466   2.711 -0.6035 -0.3954 -0.2894
  961TIP3    H124442   5.955   5.550   2.666 -0.0606 -0.9013 -1.1890
  961TIP3    H224443   5.972   5.485   2.801 -1.0095  0.5095 -0.3643
  962TIP3   OH224444   5.677   3.411   1.817  0.7014 -0.3673  0.1435
  962TIP3    H124445   5.590   3.390   1.784  0.6337  1.0314 -0.6522
  962TIP3    H224446   5.691   3.351   1.890 -0.7440 -0.9003 -0.0001
  963TIP3   OH224447   0.919   2.514   2.475  0.4248 -0.2310  0.1153
  963TIP3    H124448   0.892   2.443   2.416 -0.6024  1.2624 -1.2859
  963TIP3    H224449   0.849   2.519   2.540  0.9252 -1.0361  0.7351
  964TIP3   OH224450   6.390   2.754   8.466  0.3373 -0.4719  0.3414
  964TIP3    H124451   6.349   2.678   8.425 -2.9442  1.8897 -1.2084
  964TIP3    H224452   6.425   2.804   8.393 -0.1675  0.9035  1.0158
  965TIP3   OH224453   0.312   2.389   1.532 -0.4066  0.3961  0.0099
  965TIP3    H124454   0.257   2.449   1.482  0.9806  0.1225 -1.9398
  965TIP3    H224455   0.317   2.310   1.478 -1.1684 -1.0564  1.9396
  966TIP3   OH224456   4.723   5.480   0.841 -0.9268  0.3357  0.5373
  966TIP3    H124457   4.746   5.546   0.776  0.6369 -0.4570  0.2376
  966TIP3    H224458   4.685   5.408   0.790  0.8826 -0.5528  0.3695
  967TIP3   OH224459   2.519   6.418   1.690 -0.1579 -0.5233 -0.1090
  967TIP3    H124460   2.442   6.365   1.712 -0.5788 -0.2241 -0.8168
  967TIP3    H224461   2.581   6.355   1.653  0.0166 -0.7980  0.6458
  968TIP3   OH224462   4.476   0.569   0.673 -0.0725  0.4085 -0.2842
  968TIP3    H124463   4.514   0.657   0.674  1.0581 -0.0087 -1.8304
  968TIP3    H224464   4.539   0.515   0.720 -0.7833  0.4042  0.6962
  969TIP3   OH224465   2.061   6.012   7.683 -0.4240 -0.4307 -0.0236
  969TIP3    H124466   2.005   6.087   7.665 -0.1216 -0.5860 -1.7448
  969TIP3    H224467   2.132   6.020   7.620  0.0242 -1.7434  0.2931
  970TIP3   OH224468   0.254   2.671   0.305 -0.5922 -0.1648  0.1721
  970TIP3    H124469   0.199   2.718   0.243 -0.3957 -1.8563 -1.3687
  970TIP3    H224470   0.344   2.690   0.277 -0.4089  0.8557  1.3560
  971TIP3   OH224471   3.180   2.410   2.874  0.2701 -0.3384 -0.2094
  971TIP3    H124472   3.183   2.318   2.901 -0.0026 -0.5035 -0.7289
  971TIP3    H224473   3.152   2.457   2.952 -3.8911 -1.1635 -0.9504
  972TIP3   OH224474   2.794   6.248   2.050  0.0943 -0.1689  0.4401
  972TIP3    H124475   2.855   6.188   2.093  0.0709 -1.2101 -0.9085
  972TIP3    H224476   2.797   6.223   1.958 -0.5245  1.4015 -0.0350
  973TIP3   OH224477   2.927   3.990   1.914 -0.5419  0.5789  0.0663
  973TIP3    H124478   2.900   3.963   1.826  0.8773  1.1652 -0.5769
  973TIP3    H224479   2.940   3.907   1.962  0.8314  0.1657 -0.9622
  974TIP3   OH224480   3.928   2.659   1.431  0.0084  0.0209  0.4700
  974TIP3    H124481   3.932   2.663   1.526 -0.2888 -0.2168  0.4967
  974TIP3    H224482   3.944   2.567   1.410  2.0118  0.3935  0.1686
  975TIP3   OH224483   0.554   3.946   7.074  0.0916 -0.4618  0.2332
  975TIP3    H124484   0.557   4.042   7.076 -0.6196 -0.4347  1.6893
  975TIP3    H224485   0.601   3.922   6.994 -0.0218  1.1064 -0.3422
  976TIP3   OH224486   5.392   6.644   0.583 -0.0761  0.5852  0.4578
  976TIP3    H124487   5.324   6.658   0.518  0.0991  2.0429  0.5338
  976TIP3    H224488   5.467   6.611   0.533 -0.9158 -1.4296  0.4354
  977TIP3   OH224489   6.122   0.543   2.246 -0.0319  0.1441 -0.2598
  977TIP3    H124490   6.038   0.576   2.214  0.2155  0.2474 -0.8129
  977TIP3    H224491   6.125   0.570   2.338  0.4615  2.3225 -0.8438
  978TIP3   OH224492   0.376   0.040   1.933  0.2687 -0.2898  0.7120
  978TIP3    H124493   0.382  -0.009   2.015 -1.3977 -1.6203  0.1012
  978TIP3    H224494   0.361   0.131   1.960  2.2922 -0.2186  1.8595
  979TIP3   OH224495   5.078   0.854   8.246 -0.1110  0.1738 -0.0358
  979TIP3    H124496   5.068   0.841   8.341 -1.3222  0.5868 -0.0956
  979TIP3    H224497   5.003   0.810   8.208 -0.8867  1.9263 -0.6419
  980TIP3   OH224498   0.716   1.994   0.219  0.1736  0.4640  0.6598
  980TIP3    H124499   0.765   2.012   0.138 -0.8023 -0.7950 -0.2477
  980TIP3    H224500   0.628   1.970   0.189 -1.3226  3.3797  2.2440
  981TIP3   OH224501   1.399   2.362   7.314 -0.0900  0.7165  0.0939
  981TIP3    H124502   1.359   2.426   7.254 -0.1840  0.5059 -0.0684
  981TIP3    H224503   1.363   2.384   7.400 -0.6764  0.4301 -0.0740
  982TIP3   OH224504   0.900   5.886   8.119 -0.0753 -0.1058 -0.7538
  982TIP3    H124505   0.834   5.944   8.082 -0.2567  1.0934  1.3225
  982TIP3    H224506   0.984   5.924   8.093 -0.1954 -0.1532 -1.2121
  983TIP3   OH224507   3.197   3.194   7.880 -0.1541 -0.0898 -0.3816
  983TIP3    H124508   3.170   3.133   7.948  1.3946 -1.2948 -0.7866
  983TIP3    H224509   3.152   3.163   7.801  0.0990 -0.3081 -0.4429
  984TIP3   OH224510   6.238   2.840   1.457  0.3297  0.8923  0.3369
  984TIP3    H124511   6.314   2.783   1.444  0.0790  0.4086  0.9477
  984TIP3    H224512   6.165   2.792   1.419 -0.0566  0.3456  1.7072
  985TIP3   OH224513   3.620   2.745   1.775 -0.2199 -0.0364 -0.1268
  985TIP3    H124514   3.568   2.667   1.755  0.8831 -0.9184  0.3018
  985TIP3    H224515   3.641   2.737   1.868 -3.0238  2.6306  0.8766
  986TIP3   OH224516   2.626   0.811   7.192  0.2360  0.4005 -0.0473
  986TIP3    H124517   2.671   0.889   7.158  1.6741  0.0124  0.9038
  986TIP3    H224518   2.691   0.741   7.187 -0.1835 -0.1424  1.5313
  987TIP3   OH224519   3.233   6.078   0.336  0.1414  0.4686 -0.4052
  987TIP3    H124520   3.214   6.083   0.242 -0.7084  0.3274 -0.2491
  987TIP3    H224521   3.241   6.170   0.363 -1.7918  0.6194 -0.2087
  988TIP3   OH224522   3.194   1.444   8.183 -0.3861  0.0179  0.4890
  988TIP3    H124523   3.186   1.528   8.228  0.2082  0.8078 -0.8377
  988TIP3    H224524   3.108   1.404   8.191 -1.1259  1.4108 -0.1275
  989TIP3   OH224525   0.251   0.496   8.672  0.0224  0.2426  0.2421
  989TIP3    H124526   0.212   0.422   8.626  0.4488  0.2715 -0.1757
  989TIP3    H224527   0.286   0.552   8.603  1.9275 -0.4092  0.5955
  990TIP3   OH224528   0.877   5.900   1.785  0.2248 -0.2287 -0.0907
  990TIP3    H124529   0.817   5.930   1.852 -1.7362 -1.5931 -1.1492
  990TIP3    H224530   0.951   5.961   1.790  0.5077 -0.6774  3.6993
  991TIP3   OH224531   6.451   2.718   0.297 -0.0112 -0.0813 -0.2142
  991TIP3    H124532   6.474   2.662   0.372  1.2915  1.2948  0.4588
  991TIP3    H224533   6.383   2.669   0.251 -0.0388 -1.4875  1.2314
  992TIP3   OH224534   4.912   0.489   1.924 -0.2750 -0.0460  0.0223
  992TIP3    H124535   4.903   0.507   2.017 -1.3502 -1.9185  0.3418
  992TIP3    H224536   4.936   0.396   1.920 -1.2002 -0.2601 -1.5642
  993TIP3   OH224537   1.383   0.005   2.341 -0.4893 -0.2244  0.4496
  993TIP3    H124538   1.405   0.095   2.317  1.7438 -1.1088 -1.1550
  993TIP3    H224539   1.439  -0.015   2.416  1.6122 -1.2743 -1.2938
  994TIP3   OH224540   1.332   4.461   1.130  0.7096  0.3011  0.6422
  994TIP3    H124541   1.287   4.430   1.208  1.9043 -0.8602  0.9014
  994TIP3    H224542   1.372   4.544   1.157  0.7868  0.1029  1.1487
  995TIP3   OH224543   2.287   4.223   0.246  0.2369  0.0634 -0.7078
  995TIP3    H124544   2.326   4.269   0.172  0.7595  0.9515  0.0986
  995TIP3    H224545   2.358   4.170   0.283  0.4906  1.0138  0.2312
  996TIP3   OH224546   1.967   3.967   1.128  0.7675  0.0501  0.2282
  996TIP3    H124547   2.026   3.944   1.199  0.4808  0.7706  0.7094
  996TIP3    H224548   1.929   3.883   1.100  1.7200 -0.3745  0.1607
  997TIP3   OH224549   0.671   2.121   7.473 -0.4819  1.1096  0.0602
  997TIP3    H124550   0.686   2.037   7.517 -1.4922  1.5009  1.2105
  997TIP3    H224551   0.577   2.122   7.453 -0.2225  1.3708 -1.2499
  998TIP3   OH224552   5.987   1.268   1.687  0.3332  0.2948 -0.2721
  998TIP3    H124553   6.035   1.232   1.612 -0.6906  0.6922 -1.1386
  998TIP3    H224554   5.957   1.191   1.735  1.6971  0.0382  0.2107
  999TIP3   OH224555   4.486   3.477   6.472  0.5744 -0.0747  0.0477
  999TIP3    H124556   4.508   3.467   6.380 -1.2454  0.8696 -0.5385
  999TIP3    H224557   4.399   3.518   6.472 -0.9936 -3.0007  2.1537
 1000TIP3   OH224558   6.283   6.063   7.638 -0.1735  0.0909 -0.1477
 1000TIP3    H124559   6.245   5.977   7.619 -1.4952  0.7055 -0.4255
 1000TIP3    H224560   6.212   6.125   7.622  0.6748  1.2270  0.2940
 1001TIP3   OH224561   2.145   2.911   2.019  0.1656 -0.9313  0.4923
 1001TIP3    H124562   2.076   2.882   1.959 -0.1560 -0.4373  0.6100
 1001TIP3    H224563   2.134   2.856   2.097  0.0901 -1.0537  0.3947
 1002TIP3   OH224564   1.646   1.947   8.020  0.0509 -0.1341  0.0251
 1002TIP3    H124565   1.576   1.891   7.985 -1.9364  3.7140 -2.8718
 1002TIP3    H224566   1.715   1.942   7.954  0.1356  0.3379  0.0793
 1003TIP3   OH224567   5.163   3.086   7.716 -0.3199  0.2062  0.2640
 1003TIP3    H124568   5.163   3.050   7.627 -0.0730  0.6191  0.0915
 1003TIP3    H224569   5.096   3.036   7.763 -1.6910  1.1382 -0.6248
 1004TIP3   OH224570   5.234   2.136   0.608  0.1433 -0.1437 -0.0687
 1004TIP3    H124571   5.273   2.109   0.524 -0.4032  0.2527 -0.4578
 1004TIP3    H224572   5.240   2.232   0.607 -4.7316  0.4382 -2.1751
 1005TIP3   OH224573   3.265   5.529   0.968  0.1319 -0.0101  0.3807
 1005TIP3    H124574   3.218   5.455   1.008  1.3187 -0.3091  1.2744
 1005TIP3    H224575   3.342   5.488   0.927 -0.0519  0.5418 -0.5266
 1006TIP3   OH224576   5.973   4.376   0.185  0.7513  0.1132  0.2091
 1006TIP3    H124577   5.987   4.467   0.211 -0.8797  1.0222 -1.8286
 1006TIP3    H224578   5.881   4.372   0.160  0.2805 -2.5860  1.8845
 1007TIP3   OH224579   4.139   2.848   6.967  0.4762  0.1094 -0.6302
 1007TIP3    H124580   4.048   2.821   6.952  0.8746 -0.8271 -1.4562
 1007TIP3    H224581   4.168   2.883   6.883  1.2356 -0.6778 -0.7065
 1008TIP3   OH224582   6.044   5.672   1.550 -0.1844 -0.4366  0.2686
 1008TIP3    H124583   6.010   5.668   1.460  0.7030  0.6465 -0.1366
 1008TIP3    H224584   5.969   5.646   1.604 -0.7835 -0.9507 -0.7630
 1009TIP3   OH224585   1.002   2.231   8.145  0.8301  0.1382 -0.1405
 1009TIP3    H124586   1.093   2.229   8.115  0.2931  0.1785 -1.8937
 1009TIP3    H224587   0.965   2.310   8.106 -0.2738 -0.5199 -0.4747
 1010TIP3   OH224588   4.170   4.951   8.097 -0.0214 -0.1666 -0.3073
 1010TIP3    H124589   4.261   4.947   8.128 -0.1062  1.1584  0.2037
 1010TIP3    H224590   4.160   4.874   8.042  0.5718 -1.8876  1.8471
 1011TIP3   OH224591   0.398   0.537   8.353  0.0570  0.6604 -0.1370
 1011TIP3    H124592   0.474   0.490   8.386 -1.2897 -0.5699  1.4433
 1011TIP3    H224593   0.389   0.613   8.411 -1.5303 -0.7801  1.6596
 1012TIP3   OH224594   0.028   3.739   7.264 -0.6076 -0.4737 -0.0526
 1012TIP3    H124595  -0.024   3.754   7.185  0.0271 -0.9817 -0.5727
 1012TIP3    H224596   0.027   3.644   7.277  0.4603 -0.5278 -0.2656
 1013TIP3   OH224597   2.540   5.372   8.312  0.1647 -1.1289  0.1791
 1013TIP3    H124598   2.557   5.335   8.398 -2.1221  0.2235  1.3249
 1013TIP3    H224599   2.451   5.343   8.291 -0.2992  0.6605 -0.5026
 1014TIP3   OH224600   2.604   1.065   1.264 -0.2004  0.3824  0.3921
 1014TIP3    H124601   2.513   1.084   1.284  0.3753  0.0621  3.9870
 1014TIP3    H224602   2.636   1.142   1.217 -1.8638  1.2088  0.5622
 1015TIP3   OH224603   5.733   0.324   2.783 -0.2250  0.2426  0.3256
 1015TIP3    H124604   5.809   0.266   2.780  1.6208  2.5341 -0.6305
 1015TIP3    H224605   5.683   0.301   2.705  0.6733  0.1579 -0.2437
 1016TIP3   OH224606   3.159   0.043   6.728  0.0229  0.8238  0.2776
 1016TIP3    H124607   3.204  -0.003   6.657 -1.6928 -1.8682  0.8047
 1016TIP3    H224608   3.066   0.040   6.704 -0.7450 -1.0063  2.9586
 1017TIP3   OH224609   2.271   0.282   8.725 -0.1920 -0.0912 -0.5214
 1017TIP3    H124610   2.312   0.237   8.799  0.5390 -1.3430 -1.6491
 1017TIP3    H224611   2.345   0.318   8.676 -0.7379  1.9024  0.0445
 1018TIP3   OH224612   6.137   0.104   7.821 -0.4570 -0.3758  0.3091
 1018TIP3    H124613   6.135   0.157   7.901  0.2118 -0.5654  0.4603
 1018TIP3    H224614   6.050   0.114   7.783 -0.9331 -0.6291  1.2894
 1019TIP3   OH224615   6.708   2.386   7.860  0.3623 -0.3874 -0.3048
 1019TIP3    H124616   6.750   2.383   7.775  2.4269 -0.8048  0.6746
 1019TIP3    H224617   6.695   2.294   7.885 -2.3370 -0.3114 -1.0748
 1020TIP3   OH224618   4.626   2.440   2.011  0.3595  0.5693 -0.8341
 1020TIP3    H124619   4.664   2.381   2.076 -1.1340  0.0738 -0.3592
 1020TIP3    H224620   4.639   2.396   1.928 -0.6787 -0.4394 -0.4895
 1021TIP3   OH224621   5.032   5.358   0.752 -0.5643  0.5279  0.2378
 1021TIP3    H124622   5.057   5.404   0.672  0.5233  2.3025  1.5149
 1021TIP3    H224623   5.014   5.268   0.724  1.1463  0.7398 -1.7650
 1022TIP3   OH224624   3.053   2.597   7.511  0.3988 -0.3913 -0.8940
 1022TIP3    H124625   3.054   2.600   7.606 -2.3721  1.5389 -0.8032
 1022TIP3    H224626   3.097   2.678   7.484 -2.9022  1.5151 -1.0058
 1023TIP3   OH224627   5.321   6.746   0.155  0.9501 -0.3756 -0.6908
 1023TIP3    H124628   5.241   6.701   0.128  0.5654  0.7291 -1.4679
 1023TIP3    H224629   5.303   6.774   0.245  0.9363 -1.1489 -0.4392
 1024TIP3   OH224630   5.406   4.315   2.315  0.3987 -0.2497 -0.4169
 1024TIP3    H124631   5.336   4.271   2.362  2.1982 -1.0998  1.6647
 1024TIP3    H224632   5.416   4.264   2.234  1.1662 -2.6263  1.0668
 1025TIP3   OH224633   6.796   6.635   1.469  0.1526 -0.2281 -0.2479
 1025TIP3    H124634   6.848   6.563   1.434 -0.6522 -0.7358 -0.4190
 1025TIP3    H224635   6.766   6.604   1.554 -2.2761 -1.1728 -1.3396
 1026TIP3   OH224636   2.438   4.235   1.229  0.3960  0.2770 -0.0836
 1026TIP3    H124637   2.356   4.263   1.269  0.4057  0.5811 -0.2741
 1026TIP3    H224638   2.413   4.164   1.169  0.1638  0.8747 -0.7072
 1027TIP3   OH224639   5.078   0.281   1.226  0.1977 -0.0853 -0.0192
 1027TIP3    H124640   5.039   0.198   1.197 -0.7686  0.8005 -1.3570
 1027TIP3    H224641   5.087   0.271   1.320 -0.6522 -1.4081 -0.0486
 1028TIP3   OH224642   4.928   3.299   6.878  0.0482 -0.1800  0.2588
 1028TIP3    H124643   4.859   3.308   6.942  0.6554  2.2635  0.6838
 1028TIP3    H224644   5.001   3.260   6.926 -0.9519 -2.8414 -0.2123
 1029TIP3   OH224645   1.942   3.392   7.798  0.4734 -0.2047  0.2692
 1029TIP3    H124646   2.022   3.444   7.799  0.0473  0.4866 -0.3653
 1029TIP3    H224647   1.888   3.433   7.731 -0.6588 -0.2888  1.1061
 1030TIP3   OH224648   0.245   3.922   8.723 -0.0433 -1.1005  0.1469
 1030TIP3    H124649   0.167   3.940   8.776  0.0926  0.2336 -0.0593
 1030TIP3    H224650   0.303   3.997   8.740 -0.4580 -0.0090 -2.7082
 1031TIP3   OH224651   1.639   1.189   8.687 -0.4504  0.4277  0.2956
 1031TIP3    H124652   1.567   1.153   8.635  1.7898 -2.8371 -0.8544
 1031TIP3    H224653   1.696   1.232   8.623  0.4858 -0.3565  0.5858
 1032TIP3   OH224654   3.378   2.776   2.377 -0.0051  0.4788 -0.5967
 1032TIP3    H124655   3.467   2.753   2.407 -0.2792  0.1601  0.0014
 1032TIP3    H224656   3.326   2.776   2.457 -0.9676 -1.3547 -1.1739
 1033TIP3   OH224657   4.137   6.249   1.941 -0.1888 -0.9534 -0.1906
 1033TIP3    H124658   4.125   6.344   1.938  1.6779 -0.5816  1.9468
 1033TIP3    H224659   4.055   6.215   1.978 -0.7216 -0.1832 -0.6310
 1034TIP3   OH224660   3.394   5.547   2.175  0.2806 -0.0743  0.0846
 1034TIP3    H124661   3.467   5.607   2.192 -0.3169  0.1077  2.3332
 1034TIP3    H224662   3.316   5.603   2.175 -0.0874 -0.5727  0.0897
 1035TIP3   OH224663   3.191   3.077   0.130 -0.1627  0.0441  0.3495
 1035TIP3    H124664   3.107   3.050   0.093  0.4584 -0.7988 -0.5247
 1035TIP3    H224665   3.169   3.127   0.208 -1.4557 -1.8016  1.2362
 1036TIP3   OH224666   3.553   5.849   7.109 -0.4155  0.3623 -0.1893
 1036TIP3    H124667   3.495   5.773   7.109  1.1953 -0.9109 -0.3394
 1036TIP3    H224668   3.641   5.812   7.107  0.4258  2.2397  0.3499
 1037TIP3   OH224669   1.605   3.976   7.009  0.1627  0.3665 -0.0028
 1037TIP3    H124670   1.646   3.929   6.937  2.0212 -0.5993  1.6060
 1037TIP3    H224671   1.577   4.059   6.971 -0.3106 -0.7106 -2.1538
 1038TIP3   OH224672   1.612   1.455   7.816 -0.0081  0.7907  0.0280
 1038TIP3    H124673   1.635   1.366   7.843  1.3173  0.5451 -1.7270
 1038TIP3    H224674   1.650   1.464   7.728 -2.8294  2.0070 -1.1926
 1039TIP3   OH224675   5.232   3.328   7.840  0.0426 -0.5615  0.9576
 1039TIP3    H124676   5.198   3.242   7.815 -1.6372  0.0296  1.1408
 1039TIP3    H224677   5.297   3.309   7.908  0.5625 -1.7524  0.1633
 1040TIP3   OH224678   3.969   0.495   1.071 -0.4637 -0.2131  0.1565
 1040TIP3    H124679   3.947   0.402   1.072 -3.1744  0.3072 -0.8748
 1040TIP3    H224680   3.925   0.531   1.148 -0.6336  0.4109 -0.2204
 1041TIP3   OH224681   3.277   2.222   7.603  0.5475  0.9071  0.3385
 1041TIP3    H124682   3.238   2.246   7.519  0.9426  1.7621  0.3884
 1041TIP3    H224683   3.208   2.172   7.648  0.7112 -0.5203 -0.9133
 1042TIP3   OH224684   2.370   1.235   7.848 -0.4381 -0.1243 -0.1765
 1042TIP3    H124685   2.338   1.288   7.921 -0.8119 -0.3698 -0.1560
 1042TIP3    H224686   2.291   1.191   7.815 -0.3205  0.1874 -0.8935
 1043TIP3   OH224687   5.367   1.739   7.420 -0.4678 -0.3008 -0.0222
 1043TIP3    H124688   5.417   1.812   7.383  0.6082 -0.4626  1.0391
 1043TIP3    H224689   5.279   1.773   7.433 -0.2293  0.5009 -0.4505
 1044TIP3   OH224690   4.052   0.203   2.528 -0.0851 -0.4233 -0.0108
 1044TIP3    H124691   4.082   0.240   2.612  2.7010 -2.3279 -0.0155
 1044TIP3    H224692   4.107   0.245   2.463  1.0697 -2.2709 -0.3117
 1045TIP3   OH224693   4.203   1.505   8.311 -0.6179 -0.5556  0.3072
 1045TIP3    H124694   4.145   1.464   8.246 -0.8483  0.6371 -0.2810
 1045TIP3    H224695   4.149   1.512   8.390  0.5508 -4.7117  1.7219
 1046TIP3   OH224696   5.181   4.766   7.908 -0.0214  0.8456 -0.0343
 1046TIP3    H124697   5.093   4.784   7.875 -1.4824  0.9792  3.4528
 1046TIP3    H224698   5.225   4.851   7.907  0.3472  0.6877 -2.2841
 1047TIP3   OH224699   4.719   2.189   8.562 -0.0126 -0.1901 -0.0835
 1047TIP3    H124700   4.780   2.119   8.540 -0.1522 -0.2625 -0.2468
 1047TIP3    H224701   4.767   2.245   8.623 -0.4376 -1.3096  1.3452
 1048TIP3   OH224702   5.418   6.504   0.175 -0.7230 -0.1332 -0.4316
 1048TIP3    H124703   5.396   6.597   0.176  1.9364  0.5727 -0.3691
 1048TIP3    H224704   5.462   6.488   0.259 -1.4516 -1.5468 -0.2872
 1049TIP3   OH224705   2.132   2.932   7.819 -0.3175 -0.8295 -0.1014
 1049TIP3    H124706   2.118   2.881   7.899 -0.6141 -2.1208 -0.9508
 1049TIP3    H224707   2.078   3.011   7.832  1.2904  0.0510  1.8634
 1050TIP3   OH224708   3.986   3.612   3.200 -0.7715 -0.3172  0.5714
 1050TIP3    H124709   3.968   3.518   3.203 -2.7160 -0.1465 -2.2031
 1050TIP3    H224710   3.901   3.653   3.188  0.1726  1.7106  0.3227
 1051TIP3   OH224711   2.295   6.247   1.700  0.4015 -0.2678 -0.0408
 1051TIP3    H124712   2.250   6.200   1.630 -1.9348  0.5028  0.8180
 1051TIP3    H224713   2.279   6.194   1.778  2.2127 -0.6612  0.1032
 1052TIP3   OH224714   0.715   3.016   7.894 -0.4034  0.5418 -0.3554
 1052TIP3    H124715   0.652   3.087   7.887 -0.8838  0.1735  0.1672
 1052TIP3    H224716   0.663   2.940   7.919  0.4959  0.6513  2.0739
 1053TIP3   OH224717   0.494   5.311   7.739 -0.3907  0.1478 -0.4937
 1053TIP3    H124718   0.580   5.333   7.776 -0.7242 -0.6806  0.8358
 1053TIP3    H224719   0.442   5.390   7.750 -0.0945  0.3263 -0.3795
 1054TIP3   OH224720   3.421   2.763   8.360 -0.1768  0.3106  0.3128
 1054TIP3    H124721   3.491   2.744   8.423 -0.1947 -0.3368  0.1435
 1054TIP3    H224722   3.385   2.677   8.338  1.6391  0.1907 -2.6930
 1055TIP3   OH224723   5.637   4.613   0.654 -1.0472  0.7260 -0.4291
 1055TIP3    H124724   5.711   4.569   0.612 -1.4601  1.2871 -1.7963
 1055TIP3    H224725   5.677   4.672   0.718 -0.0085  3.1768 -3.0789
 1056TIP3   OH224726   0.445   3.578   1.082 -0.1119  0.1316 -0.1476
 1056TIP3    H124727   0.413   3.657   1.127  1.5900  0.2639  0.9273
 1056TIP3    H224728   0.538   3.597   1.065  0.3225 -1.6395  0.1359
 1057TIP3   OH224729   6.761   5.048   2.945  0.6133 -0.0700 -0.0966
 1057TIP3    H124730   6.771   5.143   2.934  1.7662 -0.1983 -0.3025
 1057TIP3    H224731   6.707   5.039   3.024 -1.6917  0.7733 -1.4707
 1058TIP3   OH224732   0.809   6.495   8.649  0.7164 -0.2808 -0.2696
 1058TIP3    H124733   0.875   6.429   8.632  1.4926  0.5272 -0.4905
 1058TIP3    H224734   0.833   6.531   8.735  0.5966  0.0464 -0.3709
 1059TIP3   OH224735   0.465   6.337   7.013  0.3445  0.6373  0.0534
 1059TIP3    H124736   0.405   6.381   6.952  0.7959 -0.8752 -1.5896
 1059TIP3    H224737   0.498   6.407   7.069 -1.2864  1.8618 -0.4196
 1060TIP3   OH224738   5.013   4.847   8.280  0.6488 -0.0508  0.1725
 1060TIP3    H124739   4.942   4.805   8.230 -2.8581  3.4036  1.7291
 1060TIP3    H224740   5.040   4.781   8.343 -3.7177 -0.6874  1.7301
 1061TIP3   OH224741   5.449   2.816   7.645 -0.4241  0.0065  0.0922
 1061TIP3    H124742   5.368   2.767   7.662  0.0233 -1.6041 -1.9907
 1061TIP3    H224743   5.451   2.827   7.550  1.7482  0.0873  0.0894
 1062TIP3   OH224744   4.529   2.366   7.366  0.0443 -0.3491  0.2936
 1062TIP3    H124745   4.437   2.383   7.350  0.2155 -0.3300 -0.7453
 1062TIP3    H224746   4.548   2.409   7.449 -1.2224 -1.5938  1.2862
 1063TIP3   OH224747   2.702   2.173   0.472  0.2137  0.0025  0.0603
 1063TIP3    H124748   2.681   2.210   0.558  2.8650  0.1562  0.7175
 1063TIP3    H224749   2.695   2.247   0.412  2.3833  0.9393  0.8631
 1064TIP3   OH224750   5.800   3.900   2.903  0.4829  0.4167 -0.1051
 1064TIP3    H124751   5.754   3.815   2.902 -0.1649  0.6655 -3.4010
 1064TIP3    H224752   5.732   3.964   2.922  0.5936  0.3578  0.5003
 1065TIP3   OH224753   1.549   4.051   8.009 -0.0014  0.0270 -0.0131
 1065TIP3    H124754   1.639   4.019   8.004  0.9511  2.5895 -1.3783
 1065TIP3    H224755   1.514   4.037   7.921 -1.5526 -2.3227  0.8831
 1066TIP3   OH224756   4.703   4.816   0.111  0.6094 -0.2939 -0.1090
 1066TIP3    H124757   4.770   4.862   0.162 -0.8299  0.6896  0.9619
 1066TIP3    H224758   4.704   4.726   0.146  1.5070 -0.3595 -0.2697
 1067TIP3   OH224759   2.482   6.077   1.354  0.5172 -0.2198 -0.2815
 1067TIP3    H124760   2.530   5.998   1.380 -0.1062 -0.5394 -0.1044
 1067TIP3    H224761   2.433   6.050   1.276  0.4224  0.0359 -0.3098
 1068TIP3   OH224762   2.319   2.366   2.028  0.4087 -0.1487 -0.2855
 1068TIP3    H124763   2.293   2.412   1.949  1.5451 -1.0120 -1.2025
 1068TIP3    H224764   2.355   2.434   2.085 -1.2599  0.6237 -0.1023
 1069TIP3   OH224765   6.384   2.850   1.134  0.8320 -0.3269  0.0457
 1069TIP3    H124766   6.304   2.894   1.165  1.1206  1.1630 -1.1433
 1069TIP3    H224767   6.391   2.772   1.187  0.5524  1.3311  2.7109
 1070TIP3   OH224768   2.771   0.411   2.699 -0.2450 -0.3569  0.6680
 1070TIP3    H124769   2.721   0.330   2.687 -1.9847  0.6105  1.1836
 1070TIP3    H224770   2.734   0.471   2.634  1.0536  0.0478  0.2733
 1071TIP3   OH224771   4.787   5.072   2.749 -0.6495  0.6684 -0.4698
 1071TIP3    H124772   4.862   5.014   2.761 -0.9327  0.4974  0.6024
 1071TIP3    H224773   4.711   5.015   2.760 -0.9327  1.2247  0.5933
 1072TIP3   OH224774   2.655   2.179   1.674  0.8962  0.2561 -0.0811
 1072TIP3    H124775   2.722   2.248   1.676  3.4064 -1.9935 -0.3525
 1072TIP3    H224776   2.628   2.170   1.766 -0.2161  2.1766 -0.1639
 1073TIP3   OH224777   1.951   6.296   7.442 -0.1422 -0.6371  0.5573
 1073TIP3    H124778   1.914   6.301   7.531  0.7710 -1.7213  1.0377
 1073TIP3    H224779   1.893   6.235   7.396 -0.5536 -0.1602  0.4371
 1074TIP3   OH224780   2.076   1.793   8.402 -0.3162  0.7839 -0.2483
 1074TIP3    H124781   2.054   1.788   8.309  1.4131  0.3626 -0.6683
 1074TIP3    H224782   2.118   1.878   8.413 -0.1387  0.6590  0.0659
 1075TIP3   OH224783   1.230   5.833   2.766  0.4331  0.8032 -0.2996
 1075TIP3    H124784   1.212   5.909   2.710 -2.7837  0.4878  0.0945
 1075TIP3    H224785   1.192   5.759   2.719  1.1484 -0.1193  0.5373
 1076TIP3   OH224786   1.259   1.753   8.461  0.3049  0.7913  0.3691
 1076TIP3    H124787   1.333   1.764   8.401 -0.0932  2.6055  0.1471
 1076TIP3    H224788   1.181   1.760   8.406 -0.0781 -0.9170  0.6296
 1077TIP3   OH224789   4.118   2.100   0.457  0.1186  0.4074 -1.0744
 1077TIP3    H124790   4.043   2.140   0.412 -1.5884 -0.5513  0.7741
 1077TIP3    H224791   4.110   2.006   0.438  1.3935  0.3678 -1.5511
 1078TIP3   OH224792   2.674   5.456   7.772 -0.1521 -0.1124  0.6666
 1078TIP3    H124793   2.743   5.405   7.815  1.5328  3.0411  2.0414
 1078TIP3    H224794   2.611   5.475   7.842 -0.2050  0.5569  0.4443
 1079TIP3   OH224795   5.827   0.953   1.548 -0.4670  0.1578 -0.1604
 1079TIP3    H124796   5.879   0.949   1.468 -0.1515  1.1074 -0.0204
 1079TIP3    H224797   5.858   0.879   1.600 -1.9209 -1.5506 -1.6136
 1080TIP3   OH224798   4.378   1.672   7.409  0.6590  0.3462 -0.3835
 1080TIP3    H124799   4.294   1.645   7.447  0.5056  0.3843 -0.6881
 1080TIP3    H224800   4.367   1.657   7.315  1.5706 -1.1669 -0.2725
 1081TIP3   OH224801   6.730   3.640   1.442 -0.1110  0.1946 -0.1473
 1081TIP3    H124802   6.666   3.629   1.372  0.7400 -0.9767 -0.7848
 1081TIP3    H224803   6.800   3.692   1.402 -0.3709  0.9587  0.3647
 1082TIP3   OH224804   2.918   3.538   7.133  0.0032  0.6196  0.1695
 1082TIP3    H124805   2.998   3.578   7.166  0.1957  1.1137 -0.8279
 1082TIP3    H224806   2.936   3.522   7.040 -1.0172  0.6711 -0.0549
 1083TIP3   OH224807   3.713   0.008   8.792 -0.0052  0.3593 -0.3941
 1083TIP3    H124808   3.723  -0.043   8.712  0.1769 -0.4992  0.1694
 1083TIP3    H224809   3.802   0.034   8.816 -0.2128  2.4066 -1.5863
 1084TIP3   OH224810   4.274   0.296   7.810  0.1927  0.5585 -0.2956
 1084TIP3    H124811   4.196   0.321   7.859  1.1417 -1.6290  2.6360
 1084TIP3    H224812   4.344   0.295   7.875  1.9635 -0.7896 -2.0940
 1085TIP3   OH224813   5.569   5.059   7.416  0.0492 -0.2555  0.5543
 1085TIP3    H124814   5.547   5.137   7.365  0.7731  0.6247  1.5352
 1085TIP3    H224815   5.661   5.072   7.440 -0.3855 -0.3883  2.4640
 1086TIP3   OH224816   0.769   5.484   7.969 -0.0971  0.6162 -0.1997
 1086TIP3    H124817   0.819   5.404   7.982 -0.8958  0.0803 -0.3465
 1086TIP3    H224818   0.755   5.519   8.057  0.0667  0.4737 -0.1181
 1087TIP3   OH224819   0.375   3.205   6.923  0.4627  0.1290  0.1521
 1087TIP3    H124820   0.452   3.172   6.877  1.1579  1.6813  0.1302
 1087TIP3    H224821   0.388   3.300   6.925 -0.8550  0.3090  1.2398
 1088TIP3   OH224822   4.658   5.156   8.737 -0.4152 -0.1327 -0.3206
 1088TIP3    H124823   4.739   5.197   8.708 -0.2106 -0.2454  0.0738
 1088TIP3    H224824   4.655   5.072   8.691 -0.3797 -0.0659 -0.4435
 1089TIP3   OH224825   2.668   2.722   7.986  0.3754 -0.3070  0.2865
 1089TIP3    H124826   2.593   2.775   7.961  1.6230  1.7424  0.6962
 1089TIP3    H224827   2.664   2.716   8.082  0.7684 -0.1293  0.3169
 1090TIP3   OH224828   3.796   0.557   0.758 -0.1658  0.2611  0.1368
 1090TIP3    H124829   3.858   0.517   0.698  0.2884 -1.8345  1.9003
 1090TIP3    H224830   3.768   0.637   0.713  3.2188  0.9417 -1.0304
 1091TIP3   OH224831   5.234   0.916   8.672 -0.2638 -0.5132 -0.0864
 1091TIP3    H124832   5.286   0.858   8.616  2.1200  0.1276  1.3606
 1091TIP3    H224833   5.250   0.886   8.761 -1.4964  0.4391  0.4941
 1092TIP3   OH224834   1.928   5.490   1.239  0.2734  0.5483 -0.3559
 1092TIP3    H124835   1.925   5.450   1.152  0.2918 -0.1869 -0.0218
 1092TIP3    H224836   1.933   5.584   1.221 -1.1817  0.5039 -1.1378
 1093TIP3   OH224837   0.801   0.260   8.377  0.7099 -0.4132  0.1818
 1093TIP3    H124838   0.746   0.332   8.409  2.2651  0.9813 -0.1394
 1093TIP3    H224839   0.775   0.185   8.430  0.8036  1.0115  2.3797
 1094TIP3   OH224840   0.732   4.928   7.849 -0.0333 -0.4943  0.4397
 1094TIP3    H124841   0.696   4.845   7.881  0.6355 -0.6080  0.9011
 1094TIP3    H224842   0.819   4.906   7.818 -0.2720 -0.1752 -0.4965
 1095TIP3   OH224843   6.075   6.590   8.158 -0.2051  0.5784 -0.7038
 1095TIP3    H124844   6.083   6.605   8.253 -0.3315 -0.3196 -0.5396
 1095TIP3    H224845   6.150   6.635   8.120  0.7246 -0.3446 -0.0186
 1096TIP3   OH224846   2.621   2.728   8.286 -0.1317 -0.8817  0.3177
 1096TIP3    H124847   2.683   2.754   8.354 -1.0792 -1.6733  1.5182
 1096TIP3    H224848   2.551   2.793   8.291  0.6979  0.2064 -1.2604
 1097TIP3   OH224849   0.696   3.075   2.223 -0.4606 -0.7416 -0.1495
 1097TIP3    H124850   0.692   2.985   2.193 -1.2366 -0.6847 -0.2507
 1097TIP3    H224851   0.726   3.125   2.147  1.9206 -1.1332  0.4576
 1098TIP3   OH224852   4.849   6.537   1.845 -0.2160  0.4472 -0.9778
 1098TIP3    H124853   4.785   6.608   1.851 -1.2028 -0.4647 -0.2620
 1098TIP3    H224854   4.918   6.561   1.908 -0.5630  0.7488 -0.7138
 1099TIP3   OH224855   0.768   4.444   0.270 -0.0222  0.0630  0.1797
 1099TIP3    H124856   0.693   4.491   0.233 -0.1194  0.1169  0.4478
 1099TIP3    H224857   0.771   4.471   0.361 -0.1761 -0.5687  0.3774
 1100TIP3   OH224858   0.601   1.471   8.203  0.3496 -0.3555 -0.1553
 1100TIP3    H124859   0.547   1.448   8.278 -2.4023  2.9430 -0.8709
 1100TIP3    H224860   0.558   1.428   8.128 -0.0476  0.5272 -0.4494
 1101TIP3   OH224861   0.223   4.521   8.103 -0.4167  0.1043 -0.2109
 1101TIP3    H124862   0.176   4.484   8.177 -0.3843  0.6523  0.0875
 1101TIP3    H224863   0.206   4.615   8.108 -0.0875  0.1931 -0.6647
 1102TIP3   OH224864   1.310   5.800   8.345 -0.3305  0.6959 -0.2872
 1102TIP3    H124865   1.215   5.806   8.334 -0.2197  2.1589 -0.6966
 1102TIP3    H224866   1.330   5.868   8.410  0.4050  0.1293  0.0929
 1103TIP3   OH224867   2.502   1.875   0.439 -0.4516  0.6171 -0.5193
 1103TIP3    H124868   2.586   1.894   0.396  1.0049 -1.6224  1.0904
 1103TIP3    H224869   2.494   1.780   0.433 -2.0070  0.6193  0.8864
 1104TIP3   OH224870   0.537   3.111   0.661  0.0250 -0.3465 -0.0005
 1104TIP3    H124871   0.575   3.040   0.711  1.0031  0.0492 -0.1629
 1104TIP3    H224872   0.470   3.148   0.719  2.6143  1.5419  2.0173
 1105TIP3   OH224873   5.598   1.996   6.722 -0.0806  0.0769  0.1370
 1105TIP3    H124874   5.548   2.078   6.724 -2.2143 -1.1389  2.5107
 1105TIP3    H224875   5.562   1.947   6.648 -0.2464  0.4162 -0.0095
 1106TIP3   OH224876   3.157   5.237   7.350  0.0698  0.4107  0.2317
 1106TIP3    H124877   3.205   5.296   7.291 -1.9187  1.3804 -0.4984
 1106TIP3    H224878   3.171   5.273   7.437  1.0411  0.3880  0.0988
 1107TIP3   OH224879   3.984   1.321   1.237  0.3144 -0.1178  0.4124
 1107TIP3    H124880   3.993   1.390   1.302  0.2497  0.6496 -0.3779
 1107TIP3    H224881   4.045   1.253   1.266  3.5781  1.9578 -0.9540
 1108TIP3   OH224882   1.596   1.595   7.190 -0.0359 -0.1745  0.3949
 1108TIP3    H124883   1.535   1.632   7.126  1.7380 -1.2706 -2.0949
 1108TIP3    H224884   1.680   1.635   7.168  0.6784 -0.7803  1.9239
 1109TIP3   OH224885   4.948   2.473   1.917  0.2441 -0.1298 -0.1492
 1109TIP3    H124886   4.891   2.533   1.871  0.3260 -0.7108 -1.0239
 1109TIP3    H224887   4.961   2.513   2.003  0.5955  1.2803 -0.8422
 1110TIP3   OH224888   2.711   4.852   7.528  0.1898 -0.3778  0.5079
 1110TIP3    H124889   2.688   4.833   7.437  0.3698 -0.1205  0.4064
 1110TIP3    H224890   2.751   4.939   7.524  1.0681 -0.7691  0.7042
 1111TIP3   OH224891   4.786   1.410   7.540 -0.2360 -0.5385 -0.2158
 1111TIP3    H124892   4.705   1.374   7.576  0.1471 -2.1087 -0.8382
 1111TIP3    H224893   4.784   1.502   7.564 -1.0887 -1.0253  1.8189
 1112TIP3   OH224894   0.456   2.881   7.364  0.6453  0.5490 -0.4090
 1112TIP3    H124895   0.381   2.824   7.345  0.7658 -0.1438  1.0483
 1112TIP3    H224896   0.440   2.960   7.312 -1.2391  0.5215  0.0537
 1113TIP3   OH224897   3.950   3.683   1.768 -0.0410 -0.3044  0.2874
 1113TIP3    H124898   3.969   3.742   1.696  1.3329 -0.6469  0.3469
 1113TIP3    H224899   4.003   3.717   1.841 -1.3229 -0.0210  1.1251
 1114TIP3   OH224900   1.887   2.610   0.027 -0.4391 -0.5367 -0.0198
 1114TIP3    H124901   1.982   2.618   0.037 -0.4662  0.0305 -0.1859
 1114TIP3    H224902   1.873   2.518   0.003  0.1727 -0.3215 -1.2781
 1115TIP3   OH224903   3.828   4.104   3.100  0.3871  0.1802  0.2295
 1115TIP3    H124904   3.756   4.167   3.107  0.2141  0.0223 -0.1000
 1115TIP3    H224905   3.888   4.143   3.037  0.4031  0.1363  0.2174
 1116TIP3   OH224906   3.758   0.202   1.674 -0.1967 -0.3194  0.0040
 1116TIP3    H124907   3.789   0.130   1.620  0.1368 -1.9117  2.2050
 1116TIP3    H224908   3.669   0.178   1.698 -0.8082  0.9922 -0.8037
 1117TIP3   OH224909   1.963   2.922   8.597  0.1804 -0.1694  0.3598
 1117TIP3    H124910   2.055   2.925   8.622  0.2614  0.1882  0.0146
 1117TIP3    H224911   1.916   2.943   8.678  0.4222  0.3023  0.3825
 1118TIP3   OH224912   1.581   1.027   0.740 -0.2157  0.2465  0.7023
 1118TIP3    H124913   1.562   1.108   0.789 -1.4113  0.3984  0.0254
 1118TIP3    H224914   1.498   1.006   0.697  0.4980 -0.5305 -0.3172
 1119TIP3   OH224915   4.796   3.203   7.845 -0.4308 -0.2745 -0.3840
 1119TIP3    H124916   4.704   3.178   7.839 -0.3076 -1.0497  0.6078
 1119TIP3    H224917   4.844   3.121   7.830  0.1229  0.2092 -1.3467
 1120TIP3   OH224918   1.983   3.761   0.693  0.6379  0.2589 -0.4354
 1120TIP3    H124919   2.031   3.842   0.714  0.0825  1.3491 -2.9638
 1120TIP3    H224920   1.923   3.749   0.766  2.0839  1.0021  0.9458
 1121TIP3   OH224921   1.891   0.127   0.413 -0.0665 -0.2476  0.2305
 1121TIP3    H124922   1.893   0.032   0.408  0.3145 -0.2672  0.6586
 1121TIP3    H224923   1.820   0.146   0.474 -1.9299 -0.1514 -1.8603
 1122TIP3   OH224924   4.767   6.640   0.687 -0.0326 -0.7480  0.5311
 1122TIP3    H124925   4.834   6.595   0.636 -1.0618 -0.9451 -0.6638
 1122TIP3    H224926   4.697   6.660   0.625  0.6379  3.1827  0.7630
 1123TIP3   OH224927   3.588   1.945   6.764 -0.2604  0.1725 -0.4178
 1123TIP3    H124928   3.630   1.859   6.753  0.4160  0.3620  0.5339
 1123TIP3    H224929   3.502   1.935   6.723 -0.7170 -1.3849  0.7921
 1124TIP3   OH224930   2.959   4.249   1.133  0.4128 -0.0476  0.2796
 1124TIP3    H124931   2.908   4.184   1.085  3.0667 -0.4812 -2.3077
 1124TIP3    H224932   2.896   4.293   1.189 -1.8375 -3.6568  0.9163
 1125TIP3   OH224933   3.877   0.708   7.823  1.2340  0.0389  0.1415
 1125TIP3    H124934   3.932   0.705   7.744 -0.3730  0.7553 -1.0624
 1125TIP3    H224935   3.805   0.766   7.799 -0.1801 -1.0555  1.5794
 1126TIP3   OH224936   6.266   0.053   8.178 -0.2022 -0.1323 -0.1776
 1126TIP3    H124937   6.262   0.050   8.274 -1.8703  0.3314 -0.1991
 1126TIP3    H224938   6.332   0.120   8.160 -1.1451  1.1046  0.7052
 1127TIP3   OH224939   3.364   1.187   7.485  0.2347 -0.2070  0.4892
 1127TIP3    H124940   3.442   1.191   7.429  0.5531  0.9220  0.9721
 1127TIP3    H224941   3.323   1.104   7.463  0.4323  0.1315 -1.2978
 1128TIP3   OH224942   6.540   0.109   0.813 -0.2873  0.3154 -0.2615
 1128TIP3    H124943   6.494   0.042   0.864 -0.8139  1.5960  0.9973
 1128TIP3    H224944   6.476   0.179   0.803  0.2806  0.6695 -1.5058
 1129TIP3   OH224945   6.181   1.882   7.811 -0.0632  0.1621  0.4495
 1129TIP3    H124946   6.148   1.944   7.877  0.4231 -0.2699  1.1155
 1129TIP3    H224947   6.239   1.935   7.756  1.1704  0.1215  1.6430
 1130TIP3   OH224948   2.665   3.861   7.931  0.0594  0.1673  0.3115
 1130TIP3    H124949   2.700   3.776   7.902  0.1346 -0.2052  1.4380
 1130TIP3    H224950   2.571   3.852   7.921  0.1838  1.0469 -2.3962
 1131TIP3   OH224951   3.563   0.072   8.336  1.0167  0.2482 -0.2065
 1131TIP3    H124952   3.520   0.109   8.413  1.3174 -0.7521  0.4734
 1131TIP3    H224953   3.652   0.109   8.338  0.8227  0.7338 -0.4535
 1132TIP3   OH224954   3.450   3.431   1.348 -0.6365 -0.0484 -0.2093
 1132TIP3    H124955   3.442   3.519   1.386 -1.0494 -0.6671  1.2373
 1132TIP3    H224956   3.522   3.438   1.285  1.5917  0.5848  2.2182
 1133TIP3   OH224957   6.587   6.281   0.626 -0.3047 -0.0893 -0.2736
 1133TIP3    H124958   6.668   6.296   0.578  0.5722 -0.3768  1.0645
 1133TIP3    H224959   6.572   6.362   0.675 -0.3802 -0.3322  0.1112
 1134TIP3   OH224960   0.647   1.978   0.499  0.3569  0.7474  0.1398
 1134TIP3    H124961   0.599   2.059   0.514  0.2494  0.7856 -0.3885
 1134TIP3    H224962   0.674   1.982   0.407 -1.3851 -0.7248 -0.5039
 1135TIP3   OH224963   1.309   6.732   7.150 -0.3518 -0.2687 -0.2962
 1135TIP3    H124964   1.370   6.727   7.077 -0.7042 -0.1930 -0.6014
 1135TIP3    H224965   1.285   6.641   7.169  1.6678 -0.5218  1.3959
 1136TIP3   OH224966   5.558   2.621   8.134  0.4485  0.4878 -0.0994
 1136TIP3    H124967   5.562   2.554   8.066  0.4885  1.1460 -0.7685
 1136TIP3    H224968   5.561   2.704   8.085  1.7621  0.9933  0.7665
 1137TIP3   OH224969   1.787   1.138   2.509 -0.5123 -0.4072  0.0642
 1137TIP3    H124970   1.805   1.048   2.483  1.6191 -0.9099  2.8250
 1137TIP3    H224971   1.714   1.132   2.570  0.3843 -0.4941  1.1711
 1138TIP3   OH224972   1.032   4.702   1.242 -0.1547  0.0660  0.2721
 1138TIP3    H124973   1.057   4.785   1.282 -1.3370  0.2829  0.5918
 1138TIP3    H224974   0.998   4.649   1.314  2.4056 -1.5055  0.4650
 1139TIP3   OH224975   1.484   4.238   1.008 -0.7845  0.6344 -0.4932
 1139TIP3    H124976   1.432   4.303   1.055 -0.8898 -0.4745  1.0011
 1139TIP3    H224977   1.574   4.252   1.039 -0.7323  0.3639 -0.5203
 1140TIP3   OH224978   0.239   4.197   2.471  0.0508  0.2961 -0.2392
 1140TIP3    H124979   0.170   4.248   2.430  0.0618  0.7249  0.2727
 1140TIP3    H224980   0.208   4.181   2.561  0.4432  0.1659 -0.1236
 1141TIP3   OH224981   4.944   2.274   0.613 -0.2485  0.9822 -0.2681
 1141TIP3    H124982   4.890   2.321   0.549  1.1368  1.2191 -1.2941
 1141TIP3    H224983   5.023   2.250   0.565 -0.5499 -1.7314  0.4416
 1142TIP3   OH224984   0.786   1.260   2.961 -0.2401  0.4387 -0.0537
 1142TIP3    H124985   0.871   1.298   2.981  0.8079 -1.5851 -0.3461
 1142TIP3    H224986   0.758   1.219   3.043 -0.6447  0.5511 -0.1310
 1143TIP3   OH224987   0.630   3.154   6.854 -0.1106 -0.2064 -0.0072
 1143TIP3    H124988   0.629   3.092   6.780  2.5504  0.0685 -0.3407
 1143TIP3    H224989   0.675   3.231   6.821 -0.3960  0.6175  1.4301
 1144TIP3   OH224990   4.307   2.085   0.223  0.1180  0.2278 -0.0820
 1144TIP3    H124991   4.225   2.093   0.272  0.4463 -0.3475  0.5772
 1144TIP3    H224992   4.282   2.098   0.132 -0.7507 -0.1940  0.0884
 1145TIP3   OH224993   5.527   4.069   0.528 -0.0424  0.4301 -0.0469
 1145TIP3    H124994   5.611   4.027   0.544 -0.6485 -1.4752 -1.5390
 1145TIP3    H224995   5.514   4.126   0.604  2.2906  0.3325  0.4931
 1146TIP3   OH224996   1.788   1.585   8.017  0.4981  0.2223  0.3556
 1146TIP3    H124997   1.734   1.550   7.947 -1.3760  0.5459  1.5844
 1146TIP3    H224998   1.754   1.673   8.032 -0.0537 -0.3036  2.5262
 1147TIP3   OH224999   5.837   3.491   7.874 -0.3892 -0.1653 -0.0497
 1147TIP3    H125000   5.770   3.558   7.857 -0.0330 -0.1838 -1.6586
 1147TIP3    H225001   5.860   3.504   7.966 -0.5336  1.7446 -0.2292
 1148TIP3   OH225002   3.342   0.168   1.047 -0.0519  0.8198 -0.7924
 1148TIP3    H125003   3.409   0.136   0.987  0.0573 -0.3715 -0.0788
 1148TIP3    H225004   3.362   0.125   1.130 -1.4151  0.8076 -0.4483
 1149TIP3   OH225005   3.324   6.151   1.352  0.6724  0.2298  0.1832
 1149TIP3    H125006   3.391   6.086   1.375  1.3083  0.5630 -0.6393
 1149TIP3    H225007   3.258   6.143   1.420  0.1501 -2.0757 -0.4980
 1150TIP3   OH225008   3.936   6.492   1.593  0.6997 -0.1444  0.0438
 1150TIP3    H125009   3.982   6.531   1.519  0.8201 -1.0420 -0.3694
 1150TIP3    H225010   3.992   6.420   1.621  1.2781  0.9307  1.8174
 1151TIP3   OH225011   3.839   1.985   8.618 -0.2387  0.3164  0.1218
 1151TIP3    H125012   3.874   1.927   8.686 -1.0208 -0.4864 -0.1367
 1151TIP3    H225013   3.749   2.002   8.645 -0.3568  0.5132 -0.3798
 1152TIP3   OH225014   1.565   0.144   2.747 -0.1717  0.0836  0.2812
 1152TIP3    H125015   1.619   0.209   2.793  0.1928  0.3912 -0.5676
 1152TIP3    H225016   1.492   0.194   2.710  0.5742  0.1922 -1.1215
 1153TIP3   OH225017   0.932   5.408   1.664 -0.7142 -0.1155  0.4018
 1153TIP3    H125018   0.944   5.403   1.759 -0.6404  1.1464  0.4810
 1153TIP3    H225019   0.905   5.499   1.648  0.9366  0.1885 -0.9574
 1154TIP3   OH225020   2.437   2.861   2.464 -0.4227  0.1341 -0.0120
 1154TIP3    H125021   2.528   2.840   2.443 -0.4469 -2.0839  1.6891
 1154TIP3    H225022   2.443   2.936   2.523  0.4535 -0.7659  1.0946
 1155TIP3   OH225023   4.363   6.215   7.877 -0.5761 -0.2629 -0.1818
 1155TIP3    H125024   4.395   6.212   7.787 -1.6852  1.1241 -0.6569
 1155TIP3    H225025   4.268   6.203   7.869 -0.6954 -0.0200  0.7860
 1156TIP3   OH225026   0.635   0.060   2.162 -0.1985 -0.1974  0.6813
 1156TIP3    H125027   0.565   0.124   2.176 -0.2223 -0.1229  0.2313
 1156TIP3    H225028   0.707   0.093   2.216  0.4699  1.3123 -1.0038
 1157TIP3   OH225029   6.816   1.533   8.798 -0.1753  0.2942  0.5766
 1157TIP3    H125030   6.853   1.489   8.721 -2.2959  0.0874 -0.3735
 1157TIP3    H225031   6.810   1.625   8.773 -0.3656  0.3151  0.6991
 1158TIP3   OH225032   0.243   4.716   0.427  0.1897 -0.2919  0.0255
 1158TIP3    H125033   0.185   4.669   0.367  1.8683 -1.9558 -0.4324
 1158TIP3    H225034   0.289   4.779   0.371  0.6818 -0.8039 -0.1569
 1159TIP3   OH225035   4.704   2.254   1.746  0.0540 -0.5965  0.3701
 1159TIP3    H125036   4.628   2.283   1.696  0.0551 -3.3176 -1.4565
 1159TIP3    H225037   4.778   2.299   1.705 -0.1064 -1.7689 -1.3604
 1160TIP3   OH225038   1.759   4.660   1.515 -0.3296 -0.1615 -0.0309
 1160TIP3    H125039   1.737   4.724   1.582 -2.8282 -0.8616 -0.0864
 1160TIP3    H225040   1.753   4.576   1.559  0.0634 -0.5202 -0.6466
 1161TIP3   OH225041   3.330   6.529   2.177  0.0742  0.1395 -0.1581
 1161TIP3    H125042   3.316   6.436   2.194  0.5365 -0.1338 -1.2310
 1161TIP3    H225043   3.280   6.573   2.247  0.2265 -0.8984  0.6349
 1162TIP3   OH225044   3.824   4.197   7.700 -0.1933  0.0236 -0.0670
 1162TIP3    H125045   3.821   4.183   7.794  0.0206  0.0351 -0.0585
 1162TIP3    H225046   3.818   4.109   7.662  0.9230 -0.0877 -0.0192
 1163TIP3   OH225047   6.047   4.897   8.571 -0.1235  0.2242 -0.0069
 1163TIP3    H125048   6.115   4.957   8.603  0.3861 -0.8688  1.0373
 1163TIP3    H225049   6.090   4.848   8.501 -0.6971  1.3845 -1.2202
 1164TIP3   OH225050   6.477   4.030   8.491 -0.6547 -0.1857 -0.7390
 1164TIP3    H125051   6.418   3.964   8.453 -1.2214 -0.1022 -0.0217
 1164TIP3    H225052   6.421   4.081   8.550 -0.3642  1.3318 -1.7240
 1165TIP3   OH225053   3.330   5.748   0.659 -0.1400 -0.1391 -0.5395
 1165TIP3    H125054   3.315   5.837   0.627  0.7636  0.8269  1.5070
 1165TIP3    H225055   3.253   5.729   0.713  0.2255 -0.0810  0.0173
 1166TIP3   OH225056   2.781   5.936   8.580 -0.0201  0.1327 -0.9187
 1166TIP3    H125057   2.761   5.948   8.487 -1.6262  0.6265 -0.5496
 1166TIP3    H225058   2.726   6.001   8.624  1.8997  1.0019  0.3057
 1167TIP3   OH225059   0.504   3.877   0.244 -0.2811  0.2795 -0.0348
 1167TIP3    H125060   0.507   3.905   0.335  0.4111 -2.4154  0.8809
 1167TIP3    H225061   0.434   3.812   0.242  0.6079 -0.6855 -1.0732
 1168TIP3   OH225062   6.769   0.818   1.158 -0.3851 -0.2649 -0.0926
 1168TIP3    H125063   6.777   0.899   1.209  0.2422 -0.4277  0.0728
 1168TIP3    H225064   6.699   0.769   1.201 -0.4542 -0.0136  0.0821
 1169TIP3   OH225065   0.464   6.051   8.220 -0.5876  0.5983 -0.1267
 1169TIP3    H125066   0.477   6.058   8.125 -0.5225 -1.7226 -0.3511
 1169TIP3    H225067   0.392   6.111   8.239 -1.2657  0.3813 -1.8211
 1170TIP3   OH225068   3.241   0.784   7.705  0.4485  0.2894 -0.1499
 1170TIP3    H125069   3.266   0.870   7.738  0.0110  0.9320 -1.4375
 1170TIP3    H225070   3.299   0.767   7.632 -1.2927  0.7945 -1.7297
 1171TIP3   OH225071   3.699   2.724   8.144  0.4183 -0.0360  0.4827
 1171TIP3    H125072   3.769   2.706   8.206  0.1882  1.3874  1.2041
 1171TIP3    H225073   3.734   2.699   8.059  2.4025  2.0799  0.6034
 1172TIP3   OH225074   0.264   2.073   2.391  0.0913 -0.0662  0.0971
 1172TIP3    H125075   0.171   2.092   2.395 -0.0142 -0.4651 -0.3265
 1172TIP3    H225076   0.270   1.978   2.403  0.3681 -0.1595 -0.7061
 1173TIP3   OH225077   1.307   2.356   2.483 -0.0719  0.3154  0.4514
 1173TIP3    H125078   1.248   2.395   2.548 -1.4943 -0.1524 -0.5069
 1173TIP3    H225079   1.250   2.300   2.430  0.8750  1.2581 -1.6679
 1174TIP3   OH225080   1.626   5.884   0.600  0.3366  0.6908 -0.4380
 1174TIP3    H125081   1.674   5.879   0.683 -0.4541 -0.1676 -0.0149
 1174TIP3    H225082   1.636   5.798   0.561  0.4524  1.0028 -1.1079
 1175TIP3   OH225083   1.749   6.107   8.795 -0.1228  0.6622  1.0580
 1175TIP3    H125084   1.803   6.090   8.872  0.4502  0.5053  0.6292
 1175TIP3    H225085   1.808   6.093   8.721 -1.2042 -1.3833  0.4980
 1176TIP3   OH225086   5.355   6.656   7.997  0.6086  0.2876 -0.0022
 1176TIP3    H125087   5.357   6.581   8.056 -1.3098  1.4891  1.7056
 1176TIP3    H225088   5.398   6.727   8.045 -0.5087  1.1453 -0.2245
 1177TIP3   OH225089   2.792   0.262   7.611  0.7910  0.2130  0.1309
 1177TIP3    H125090   2.818   0.277   7.520 -0.8964  1.3299 -0.2137
 1177TIP3    H225091   2.769   0.169   7.614 -0.6617  0.4919 -1.0505
 1178TIP3   OH225092   2.945   5.418   0.060  0.2577  0.0404 -0.3191
 1178TIP3    H125093   2.941   5.403   0.154 -1.0313  0.5676 -0.2646
 1178TIP3    H225094   2.996   5.345   0.026 -0.7895 -1.1594  0.5910
 1179TIP3   OH225095   6.408   5.789   0.223 -0.1618 -0.0977  0.4911
 1179TIP3    H125096   6.437   5.879   0.238 -2.7560  1.0046 -0.4772
 1179TIP3    H225097   6.406   5.750   0.310  1.7142  0.4929  0.8474
 1180TIP3   OH225098   3.935   6.770   0.624  0.3662  0.3826  0.1160
 1180TIP3    H125099   3.919   6.678   0.646 -1.7104  0.8527  0.8753
 1180TIP3    H225100   3.848   6.804   0.602  1.1244  2.1233 -0.3260
 1181TIP3   OH225101   1.828   4.225   7.936  0.5413 -0.5633  0.1679
 1181TIP3    H125102   1.878   4.275   7.872  0.8878 -0.7236  0.3157
 1181TIP3    H225103   1.737   4.232   7.906  0.8196 -1.5735 -0.9692
 1182TIP3   OH225104   3.760   0.461   7.722  0.0226  0.4862 -0.2900
 1182TIP3    H125105   3.739   0.534   7.664 -0.4839  0.7562  0.2194
 1182TIP3    H225106   3.839   0.489   7.768  2.3652 -1.0181 -3.0613
 1183TIP3   OH225107   4.982   6.713   8.556  0.1437 -0.2329 -0.2808
 1183TIP3    H125108   4.955   6.804   8.546 -1.3208 -0.7722 -1.8675
 1183TIP3    H225109   5.051   6.702   8.490 -0.0928 -0.4133 -0.4986
 1184TIP3   OH225110   6.175   2.858   8.108 -0.6356 -0.1067  0.7904
 1184TIP3    H125111   6.264   2.891   8.123 -0.5879  1.0034 -1.4147
 1184TIP3    H225112   6.123   2.894   8.179  0.4293  0.3618  1.3523
 1185TIP3   OH225113   1.772   6.091   7.365 -0.4139  0.5586 -0.0646
 1185TIP3    H125114   1.686   6.050   7.358  0.7480 -2.2482  0.4463
 1185TIP3    H225115   1.825   6.049   7.297  1.1388  0.4646  1.1244
 1186TIP3   OH225116   3.482   4.820   1.584  0.2160 -0.5604 -0.1859
 1186TIP3    H125117   3.398   4.863   1.594  0.1158 -0.6344 -0.6704
 1186TIP3    H225118   3.488   4.800   1.490  1.7277  1.4141 -0.5684
 1187TIP3   OH225119   1.900   0.628   1.704  0.6890 -0.0520 -0.2279
 1187TIP3    H125120   1.945   0.545   1.690 -0.8887 -1.1482  0.8887
 1187TIP3    H225121   1.886   0.632   1.799 -2.6491 -0.4461 -0.5898
 1188TIP3   OH225122   4.242   6.432   1.054  0.0639  0.2302  0.3989
 1188TIP3    H125123   4.209   6.379   0.982  1.9088  2.2040 -2.0820
 1188TIP3    H225124   4.178   6.503   1.063  0.0895  0.2628  0.3279
 1189TIP3   OH225125   0.151   0.286   7.456  0.3635  0.0873  0.2234
 1189TIP3    H125126   0.173   0.281   7.363 -1.1401 -1.6225 -0.0898
 1189TIP3    H225127   0.235   0.273   7.502  0.9130 -0.2992 -0.8717
 1190TIP3   OH225128   3.130   0.733   0.287 -0.1873  0.3953 -0.2965
 1190TIP3    H125129   3.190   0.658   0.281 -0.5255  0.1679 -1.0652
 1190TIP3    H225130   3.123   0.751   0.380  1.0623  0.4138 -0.1953
 1191TIP3   OH225131   3.009   0.541   7.399 -0.4215 -0.2159  0.6806
 1191TIP3    H125132   3.086   0.487   7.419 -0.0715  0.2124  0.5159
 1191TIP3    H225133   3.018   0.617   7.456  0.8890  1.3033 -1.4102
 1192TIP3   OH225134   4.213   5.474   0.613 -0.3220  0.1116 -0.3037
 1192TIP3    H125135   4.157   5.515   0.548 -0.0305  0.3260 -0.4246
 1192TIP3    H225136   4.295   5.523   0.608 -0.3929  0.3201  0.4332
 1193TIP3   OH225137   2.914   1.849   1.724 -0.1322 -0.4012  0.2469
 1193TIP3    H125138   2.823   1.841   1.752  0.0182 -0.7167  0.6448
 1193TIP3    H225139   2.912   1.827   1.630 -0.5511  0.1477  0.1210
 1194TIP3   OH225140   1.064   3.452   8.193 -0.3924 -0.0262 -0.3727
 1194TIP3    H125141   1.152   3.439   8.227 -1.6009 -1.6809  2.5325
 1194TIP3    H225142   1.041   3.541   8.221 -0.3403 -0.3317  0.6797
 1195TIP3   OH225143   3.509   6.582   8.169 -0.4319 -0.1371 -0.4464
 1195TIP3    H125144   3.578   6.522   8.139 -0.3949  0.3838 -1.4285
 1195TIP3    H225145   3.474   6.621   8.089 -3.0794 -1.6618 -0.1117
 1196TIP3   OH225146   4.530   4.758   7.321 -0.2856  0.2034  0.3775
 1196TIP3    H125147   4.555   4.819   7.251  0.5233  0.0891  0.5531
 1196TIP3    H225148   4.450   4.718   7.290  0.4066 -0.3248 -0.7954
 1197TIP3   OH225149   4.420   0.961   8.515  0.1943  0.1351  0.2692
 1197TIP3    H125150   4.399   0.886   8.460  1.8139  0.3795 -0.7584
 1197TIP3    H225151   4.420   0.927   8.604 -2.0786 -0.3641  0.1439
 1198TIP3   OH225152   2.469   5.995   2.672 -0.0801  0.3003  0.0828
 1198TIP3    H125153   2.418   5.994   2.753 -0.2898 -0.7923 -0.0421
 1198TIP3    H225154   2.425   5.932   2.615  0.3467  0.7040 -0.7074
 1199TIP3   OH225155   0.959   0.780   2.861 -0.2311 -0.0039  0.2961
 1199TIP3    H125156   0.989   0.859   2.904 -0.4508 -0.3574  1.1260
 1199TIP3    H225157   0.909   0.733   2.929  0.3856 -1.1305  0.0029
 1200TIP3   OH225158   1.969   2.178   2.206  0.2567  0.1415  0.0900
 1200TIP3    H125159   2.014   2.158   2.124 -0.6510  1.6038 -0.7989
 1200TIP3    H225160   2.030   2.236   2.252  0.6421 -0.4522  0.3481
 1201TIP3   OH225161   1.015   1.217   2.082  0.2374  0.2958  0.1735
 1201TIP3    H125162   1.059   1.253   2.005 -0.2447  0.8838  0.1675
 1201TIP3    H225163   1.040   1.124   2.083  0.5853  0.3805 -0.4491
 1202TIP3   OH225164   5.439   2.369   8.549  0.3363  0.4217 -0.3510
 1202TIP3    H125165   5.524   2.405   8.573 -0.2644 -0.0591  2.9697
 1202TIP3    H225166   5.422   2.302   8.614 -1.6599 -1.0556 -2.2559
 1203TIP3   OH225167   5.228   4.792   8.676  0.3827 -0.7026 -0.2366
 1203TIP3    H125168   5.148   4.841   8.695  0.1351  0.0103 -2.7506
 1203TIP3    H225169   5.292   4.859   8.654  1.4688 -1.3143  0.9506
 1204TIP3   OH225170   0.832   6.163   0.239 -0.2727 -0.3062 -0.3831
 1204TIP3    H125171   0.764   6.231   0.240  0.5263  0.6031 -2.3262
 1204TIP3    H225172   0.827   6.123   0.326 -1.6309  1.3782  0.3829
 1205TIP3   OH225173   2.030   1.729   1.837  0.1154  0.1623 -0.0993
 1205TIP3    H125174   2.063   1.803   1.787 -2.4827 -0.2948 -2.7626
 1205TIP3    H225175   1.944   1.757   1.868  0.0777 -0.9239  0.8453
 1206TIP3   OH225176   2.251   0.613   1.887 -0.2526 -0.0189 -0.2153
 1206TIP3    H125177   2.287   0.700   1.870 -1.5830  0.6718  0.3480
 1206TIP3    H225178   2.157   0.627   1.898 -0.5269 -1.5603 -0.2887
 1207TIP3   OH225179   6.244   6.790   1.651 -0.6173 -0.9734 -0.3304
 1207TIP3    H125180   6.307   6.740   1.703 -0.6145 -0.2988  0.3355
 1207TIP3    H225181   6.296   6.859   1.610 -0.9807 -0.0626  0.6790
 1208TIP3   OH225182   0.692   0.529   1.923  0.0163 -0.0425 -0.0900
 1208TIP3    H125183   0.691   0.437   1.949  2.0973 -0.4275 -1.1505
 1208TIP3    H225184   0.665   0.576   2.002  0.0996 -1.4973  0.8444
 1209TIP3   OH225185   5.668   3.383   0.790 -0.2808  0.0544  0.1589
 1209TIP3    H125186   5.706   3.302   0.823 -0.0383  0.0882 -0.0384
 1209TIP3    H225187   5.638   3.361   0.702 -0.6331  0.0536  0.2765
 1210TIP3   OH225188   6.660   4.937   8.379  0.1563  0.4634  0.2416
 1210TIP3    H125189   6.652   4.857   8.430  2.7046  1.0072  1.6428
 1210TIP3    H225190   6.580   4.986   8.400 -0.7024 -1.0206  0.5736
 1211TIP3   OH225191   6.759   2.967   0.449 -0.0070 -0.2499 -0.4074
 1211TIP3    H125192   6.678   2.997   0.491 -0.7903 -1.9007 -0.6605
 1211TIP3    H225193   6.828   2.988   0.512 -1.0237 -1.6690  1.2722
 1212TIP3   OH225194   3.721   2.564   6.755 -0.8432 -0.0951 -0.2646
 1212TIP3    H125195   3.680   2.541   6.838 -0.7503  0.1747 -0.1399
 1212TIP3    H225196   3.660   2.626   6.715  0.5716  2.3410  1.0853
 1213TIP3   OH225197   1.077   4.957   8.748 -0.9301 -0.1143 -0.1628
 1213TIP3    H125198   1.128   5.006   8.814  0.5398  0.9738 -1.9884
 1213TIP3    H225199   1.063   4.871   8.787  0.5327  0.2528  1.2784
 1214TIP3   OH225200   1.863   6.312   7.706 -0.3178 -0.2861 -0.7379
 1214TIP3    H125201   1.858   6.348   7.795  0.9423 -1.6113 -0.1002
 1214TIP3    H225202   1.812   6.231   7.710  0.4947 -0.8145 -0.9689
 1215TIP3   OH225203   3.180   0.160   1.434  0.3603 -0.2815  0.5904
 1215TIP3    H125204   3.199   0.161   1.527 -0.5664  0.5620  0.7914
 1215TIP3    H225205   3.232   0.232   1.398  2.0879 -1.6842  0.1256
 1216TIP3   OH225206   1.773   0.249   7.867 -0.1792 -0.1786 -0.0307
 1216TIP3    H125207   1.820   0.187   7.922  2.4622  0.9258 -0.8833
 1216TIP3    H225208   1.733   0.196   7.798  1.9420 -1.0285 -0.6829
 1217TIP3   OH225209   3.400   2.706   3.047  0.0527  0.3661 -0.2482
 1217TIP3    H125210   3.413   2.770   2.978  1.4982 -0.7619 -1.0748
 1217TIP3    H225211   3.462   2.731   3.115 -1.1133  1.2611  0.5139
 1218TIP3   OH225212   4.553   4.571   2.049 -0.1967 -0.5187 -0.8245
 1218TIP3    H125213   4.462   4.602   2.047 -0.2979 -0.8189 -0.8315
 1218TIP3    H225214   4.605   4.651   2.042 -0.4437 -0.1428  1.0431
 1219TIP3   OH225215   6.552   0.603   3.071 -0.4386  0.3341 -0.3375
 1219TIP3    H125216   6.619   0.547   3.032 -0.3671 -0.5353  0.9796
 1219TIP3    H225217   6.601   0.665   3.125 -0.6104  0.7536 -0.6571
 1220TIP3   OH225218   4.563   4.424   1.726  0.2290 -0.0520  0.3188
 1220TIP3    H125219   4.488   4.446   1.780 -0.1806 -1.4951  0.3862
 1220TIP3    H225220   4.538   4.451   1.637 -0.4592 -0.6775  0.3101
 1221TIP3   OH225221   4.271   4.349   1.318 -0.0691 -0.1848 -0.0661
 1221TIP3    H125222   4.229   4.352   1.404 -1.9378 -0.5359 -0.9137
 1221TIP3    H225223   4.356   4.308   1.334 -0.7831 -1.1565  1.4734
 1222TIP3   OH225224   4.106   4.184   0.757  0.6234 -0.2173 -0.6329
 1222TIP3    H125225   4.133   4.092   0.750  0.4194 -0.6475  2.7079
 1222TIP3    H225226   4.188   4.233   0.757  0.8922 -0.6505 -0.0392
 1223TIP3   OH225227   3.316   3.780   7.436  0.3294 -0.3541 -0.3102
 1223TIP3    H125228   3.393   3.728   7.457  1.3406  0.8809 -0.8271
 1223TIP3    H225229   3.344   3.836   7.364 -0.6680  0.9934  0.3162
 1224TIP3   OH225230   5.311   5.274   7.021 -0.3037  0.3962 -0.3419
 1224TIP3    H125231   5.394   5.295   6.978 -0.7089  1.4488 -0.6473
 1224TIP3    H225232   5.315   5.180   7.036  1.2873  0.5442  0.3840
 1225TIP3   OH225233   5.115   4.107   1.329 -0.6981  0.1045 -0.5844
 1225TIP3    H125234   5.031   4.136   1.292 -0.1389  0.1203 -1.8876
 1225TIP3    H225235   5.180   4.163   1.287 -0.2212  2.3216  2.7689
 1226TIP3   OH225236   6.376   5.573   2.104 -0.5464  0.3419  0.9075
 1226TIP3    H125237   6.328   5.647   2.141 -0.0686  1.2771 -0.2833
 1226TIP3    H225238   6.316   5.533   2.041 -0.2498  0.6897  0.3987
 1227TIP3   OH225239   6.159   4.933   7.552 -0.1253 -0.5876  0.5141
 1227TIP3    H125240   6.181   4.980   7.471  1.2728  0.9829  1.7445
 1227TIP3    H225241   6.136   4.845   7.522  0.4100 -0.0803 -1.5882
 1228TIP3   OH225242   0.166   0.689   0.309  0.4034 -0.4691  0.3285
 1228TIP3    H125243   0.138   0.779   0.292  2.5370  0.3761  0.9884
 1228TIP3    H225244   0.225   0.668   0.237 -0.0535 -1.3585  0.1963
 1229TIP3   OH225245   6.356   4.663   0.972 -0.1802  0.0916  0.3643
 1229TIP3    H125246   6.275   4.699   1.007 -1.3089 -0.2880 -1.7195
 1229TIP3    H225247   6.424   4.723   1.004 -1.2811  0.6077  1.8617
 1230TIP3   OH225248   2.589   0.087   1.099 -0.2914  0.4633  0.0221
 1230TIP3    H125249   2.650   0.014   1.109 -1.1655 -0.4216 -0.8542
 1230TIP3    H225250   2.553   0.100   1.187  1.4027  1.2547  0.6302
 1231TIP3   OH225251   0.619   1.427   2.265  0.4613  0.2788 -0.3984
 1231TIP3    H125252   0.673   1.391   2.194  0.2028 -0.8867 -0.0262
 1231TIP3    H225253   0.530   1.405   2.241  0.3762 -0.1639  0.3138
 1232TIP3   OH225254   3.995   3.435   7.272  0.1375 -0.5516 -0.0089
 1232TIP3    H125255   4.066   3.399   7.218 -0.7292  0.2048 -1.7341
 1232TIP3    H225256   3.996   3.529   7.253 -1.0448 -0.4713  0.2794
 1233TIP3   OH225257   2.758   1.887   6.838 -0.5147  1.0760  0.0442
 1233TIP3    H125258   2.685   1.855   6.785 -1.5160  2.2072  0.6788
 1233TIP3    H225259   2.768   1.822   6.908  0.3991 -0.0903 -1.1111
 1234TIP3   OH225260   2.617   0.672   0.937 -0.0752  0.1748 -0.3126
 1234TIP3    H125261   2.568   0.600   0.896 -0.4094  0.6546 -0.7752
 1234TIP3    H225262   2.709   0.649   0.924 -0.1542 -0.9707  0.9789
 1235TIP3   OH225263   3.285   6.467   1.386 -0.5172  1.1740 -0.2560
 1235TIP3    H125264   3.259   6.378   1.359  0.0365  0.0381  2.5962
 1235TIP3    H225265   3.380   6.469   1.373  0.2481 -0.4206  3.8097
 1236TIP3   OH225266   1.422   2.701   8.164 -0.3586  0.0149  0.2767
 1236TIP3    H125267   1.468   2.620   8.182 -0.2988  0.0704  0.3696
 1236TIP3    H225268   1.489   2.769   8.169 -0.7072  0.2803  1.8938
 1237TIP3   OH225269   4.079   4.262   7.604  0.5715 -0.2773  0.3905
 1237TIP3    H125270   4.107   4.343   7.560 -0.2969  0.2085  0.7000
 1237TIP3    H225271   3.986   4.277   7.624  0.6946 -0.8904  1.4852
 1238TIP3   OH225272   4.782   0.548   6.787 -0.1554 -0.2611 -0.8495
 1238TIP3    H125273   4.837   0.542   6.866  1.7106 -1.7728 -2.1596
 1238TIP3    H225274   4.772   0.642   6.773 -0.0538  0.0473  0.8611
 1239TIP3   OH225275   2.005   1.430   8.112 -0.0168 -0.0895  0.2033
 1239TIP3    H125276   1.922   1.443   8.068 -0.3387 -3.2204 -0.3123
 1239TIP3    H225277   1.991   1.463   8.201 -2.2094 -1.4879  0.4443
 1240TIP3   OH225278   5.401   5.549   0.179  0.3186  0.5043  0.0137
 1240TIP3    H125279   5.382   5.460   0.210  0.2288 -0.1454 -1.7846
 1240TIP3    H225280   5.454   5.536   0.100 -1.9797  1.9117 -1.9098
 1241TIP3   OH225281   0.928   1.748   1.256 -0.1933 -0.4241 -0.0736
 1241TIP3    H125282   1.022   1.766   1.245 -0.4978  1.4769 -0.0559
 1241TIP3    H225283   0.901   1.713   1.172  0.6104 -1.3953  0.0596
 1242TIP3   OH225284   2.591   3.262   0.131  0.4411  0.0150  0.4962
 1242TIP3    H125285   2.516   3.322   0.128  0.5602  0.1136 -1.2750
 1242TIP3    H225286   2.665   3.318   0.153  0.6242  0.6585 -1.5559
 1243TIP3   OH225287   3.260   0.841   8.116  0.8891 -0.0235  0.3103
 1243TIP3    H125288   3.253   0.756   8.161 -0.2531 -0.9663 -1.5103
 1243TIP3    H225289   3.353   0.847   8.092  0.9684 -0.8222  0.3677
 1244TIP3   OH225290   6.360   4.248   7.387  0.2688 -0.1646 -0.3665
 1244TIP3    H125291   6.383   4.180   7.324  2.6146  0.3848 -0.2252
 1244TIP3    H225292   6.383   4.210   7.472  0.5063  0.3785 -0.1820
 1245TIP3   OH225293   1.334   5.526   8.407 -0.4973 -0.0932 -0.0819
 1245TIP3    H125294   1.392   5.509   8.481 -0.8508  1.1360  0.4895
 1245TIP3    H225295   1.318   5.620   8.409 -1.2982 -0.1855 -1.1443
 1246TIP3   OH225296   4.442   5.886   7.001 -0.5228  0.3873  0.1678
 1246TIP3    H125297   4.377   5.816   7.008  0.6315 -0.8361 -0.7106
 1246TIP3    H225298   4.400   5.953   6.947 -1.0889 -0.3382 -0.3098
 1247TIP3   OH225299   4.485   0.854   7.932  0.2221 -0.3189 -0.6237
 1247TIP3    H125300   4.405   0.903   7.916  1.1942  2.0183  1.0271
 1247TIP3    H225301   4.554   0.921   7.936  1.9277 -2.0182 -0.0012
 1248TIP3   OH225302   1.098   5.693   7.944 -0.5711  0.0331  0.1376
 1248TIP3    H125303   1.013   5.728   7.916 -1.0722 -0.8948  0.4475
 1248TIP3    H225304   1.162   5.756   7.911 -1.2140 -0.3165 -1.9498
 1249TIP3   OH225305   5.770   1.611   1.060  0.3280  0.1303 -0.0665
 1249TIP3    H125306   5.751   1.528   1.103 -0.1017  0.2889  0.0500
 1249TIP3    H225307   5.862   1.605   1.036  1.1006  0.7394  2.4364
 1250TIP3   OH225308   0.972   4.874   7.645 -0.4548 -0.4112  0.3478
 1250TIP3    H125309   0.996   4.932   7.572 -0.9914  0.6345  0.9901
 1250TIP3    H225310   0.997   4.923   7.724 -0.4598 -1.2691  0.8897
 1251TIP3   OH225311   4.553   3.433   7.947 -0.2161  0.2633 -0.0646
 1251TIP3    H125312   4.627   3.430   7.887  1.4929  0.0794  1.9312
 1251TIP3    H225313   4.483   3.385   7.902  1.5985 -1.5589 -1.0874
 1252TIP3   OH225314   1.415   4.673   1.317 -0.0996  0.1043 -0.1867
 1252TIP3    H125315   1.394   4.607   1.383 -0.1511  0.2121 -0.0941
 1252TIP3    H225316   1.493   4.716   1.350 -0.8354  1.0021  0.4384
 1253TIP3   OH225317   5.991   2.224   8.411  0.1321  0.0515 -0.6915
 1253TIP3    H125318   5.952   2.300   8.454 -1.2132 -0.0665 -1.6428
 1253TIP3    H225319   6.084   2.229   8.434 -0.6321 -0.7655  3.3545
 1254TIP3   OH225320   4.794   3.404   1.144  0.6091 -0.3501 -0.0652
 1254TIP3    H125321   4.752   3.477   1.097  0.0610 -0.0414  0.8656
 1254TIP3    H225322   4.782   3.426   1.237 -0.9721 -2.3665  0.2975
 1255TIP3   OH225323   5.895   5.729   2.602  0.2902 -0.1576  0.4391
 1255TIP3    H125324   5.868   5.734   2.694 -1.1886 -2.4662  0.2090
 1255TIP3    H225325   5.826   5.774   2.554  0.1352 -0.4889  0.3452
 1256TIP3   OH225326   3.696   3.842   0.005  0.1575 -0.0495  0.3032
 1256TIP3    H125327   3.694   3.785  -0.072  0.2427  0.6328 -0.2115
 1256TIP3    H225328   3.652   3.792   0.073 -1.8946  0.1727 -0.7822
 1257TIP3   OH225329   6.711   4.870   7.318 -0.6253 -0.3599  0.0733
 1257TIP3    H125330   6.616   4.878   7.330 -0.7675  1.8072 -1.9226
 1257TIP3    H225331   6.723   4.862   7.223  1.2692  1.6466  0.0700
 1258TIP3   OH225332   2.679   2.153   8.591 -0.0870  0.1338 -0.2554
 1258TIP3    H125333   2.693   2.234   8.640 -0.2043 -0.2618  0.4460
 1258TIP3    H225334   2.641   2.093   8.655 -0.0762 -0.4514 -0.7920
 1259TIP3   OH225335   4.687   5.479   6.650 -0.3412  0.4477  0.3495
 1259TIP3    H125336   4.631   5.420   6.700  0.7670  0.6762  1.9455
 1259TIP3    H225337   4.739   5.421   6.594  1.0759 -0.2260  2.2401
 1260TIP3   OH225338   2.497   4.110   0.366 -0.3982  0.4301  0.2195
 1260TIP3    H125339   2.520   4.043   0.430 -0.9264 -0.5667 -0.6007
 1260TIP3    H225340   2.569   4.174   0.371  1.0302 -1.0632 -0.1673
 1261TIP3   OH225341   4.413   1.717   8.599 -0.3766  0.2023  0.4344
 1261TIP3    H125342   4.400   1.623   8.589  0.2241  0.1910 -0.2922
 1261TIP3    H225343   4.455   1.744   8.517  0.5665  0.8968  1.1351
 1262TIP3   OH225344   5.925   5.916   0.184 -0.2056  0.0110 -0.2080
 1262TIP3    H125345   5.853   5.920   0.121 -0.8066 -0.5311  0.4344
 1262TIP3    H225346   5.893   5.964   0.261 -0.6496 -1.8149  0.8064
 1263TIP3   OH225347   1.340   5.598   1.089  0.0391  0.3313 -0.0807
 1263TIP3    H125348   1.423   5.566   1.123  0.1976  0.8432  0.0210
 1263TIP3    H225349   1.298   5.639   1.164 -0.6969 -0.6791  0.0812
 1264TIP3   OH225350   0.780   5.246   8.466 -0.4518 -0.2033 -0.3359
 1264TIP3    H125351   0.842   5.294   8.411 -0.5924  0.0949 -0.2362
 1264TIP3    H225352   0.835   5.188   8.520 -0.2445  0.2252 -0.0882
 1265TIP3   OH225353   5.615   5.466   0.008 -0.5231  0.0390 -0.0248
 1265TIP3    H125354   5.608   5.372  -0.010  0.7231  0.0809 -0.8903
 1265TIP3    H225355   5.708   5.480   0.024 -0.7999  1.0212  0.7902
 1266TIP3   OH225356   4.079   1.810   2.368  0.1381 -0.6056  0.4281
 1266TIP3    H125357   3.987   1.832   2.385 -0.1379 -0.3085 -1.3200
 1266TIP3    H225358   4.124   1.833   2.449 -0.8662  2.0099  0.3337
 1267TIP3   OH225359   0.718   3.163   8.647  0.3738 -0.0799  0.2589
 1267TIP3    H125360   0.765   3.138   8.567 -1.5748 -2.4610 -0.2395
 1267TIP3    H225361   0.729   3.088   8.706 -1.9181 -0.3049  0.4849
 1268TIP3   OH225362   2.850   1.255   8.444  0.0995 -0.0849  0.2897
 1268TIP3    H125363   2.854   1.341   8.487 -1.6198  0.3811 -0.4136
 1268TIP3    H225364   2.911   1.262   8.371  2.9761 -0.8424  2.4536
 1269TIP3   OH225365   5.990   4.473   8.275  0.7532  0.6254 -0.1150
 1269TIP3    H125366   6.011   4.481   8.181  1.0915 -0.7745 -0.1827
 1269TIP3    H225367   5.896   4.454   8.277  0.7614  0.5781 -0.1731
 1270TIP3   OH225368   1.785   0.159   0.884 -0.6630 -0.2566  0.1646
 1270TIP3    H125369   1.759   0.247   0.913  0.2144  0.3866 -0.9200
 1270TIP3    H225370   1.745   0.150   0.797 -3.0389 -2.0488  1.3380
 1271TIP3   OH225371   6.796   5.895   2.509  0.3897 -0.4287  0.2031
 1271TIP3    H125372   6.862   5.905   2.578  0.5659 -1.0231  0.1229
 1271TIP3    H225373   6.732   5.964   2.528  0.7864 -0.1531  0.5620
 1272TIP3   OH225374   2.103   2.312   2.391 -0.4536  0.2379 -0.6963
 1272TIP3    H125375   2.196   2.311   2.373 -0.4242 -1.6443 -0.7176
 1272TIP3    H225376   2.097   2.324   2.486 -0.2510  1.5678 -0.8461
 1273TIP3   OH225377   4.413   6.095   8.271 -0.2417 -1.5375  0.1156
 1273TIP3    H125378   4.507   6.100   8.289 -0.0143 -1.1736 -1.1077
 1273TIP3    H225379   4.384   6.186   8.267 -0.8183 -1.6490  1.2465
 1274TIP3   OH225380   1.627   0.872   1.776  0.0345  0.3548  0.5675
 1274TIP3    H125381   1.580   0.885   1.858 -2.5930 -0.2144 -0.7561
 1274TIP3    H225382   1.625   0.777   1.762  0.2999  0.4552 -0.2281
 1275TIP3   OH225383   3.043   3.475   8.183  0.1447  0.3025 -0.0247
 1275TIP3    H125384   3.032   3.497   8.091  0.9363  2.0409  0.2658
 1275TIP3    H225385   3.038   3.379   8.185 -2.6037  0.3036 -1.4770
 1276TIP3   OH225386   6.677   0.150   7.261  0.1065 -0.3346  0.1345
 1276TIP3    H125387   6.728   0.229   7.276 -0.6271  0.1164  0.2649
 1276TIP3    H225388   6.743   0.080   7.256  0.8197  0.3704 -0.7155
 1277TIP3   OH225389   6.495   5.812   7.835  0.3607  0.0142 -0.2321
 1277TIP3    H125390   6.567   5.844   7.890 -0.4300  1.7691 -0.1715
 1277TIP3    H225391   6.420   5.865   7.860 -1.1736 -2.2045  0.1772
 1278TIP3   OH225392   0.075   3.503   1.667 -0.2444  0.0993  0.2132
 1278TIP3    H125393   0.162   3.463   1.665 -0.9988 -1.6115  0.3573
 1278TIP3    H225394   0.086   3.585   1.618  1.8837  0.9220  1.8860
 1279TIP3   OH225395   3.902   2.419   1.594 -0.3055  0.2680  0.1438
 1279TIP3    H125396   3.997   2.417   1.593 -0.2145  1.7551 -2.0400
 1279TIP3    H225397   3.880   2.509   1.621 -1.1365 -0.2309  1.2387
 1280TIP3   OH225398   0.516   6.017   0.789  0.0365 -0.1367 -0.3220
 1280TIP3    H125399   0.561   5.933   0.795  1.8066  0.8691  2.2274
 1280TIP3    H225400   0.450   6.015   0.858 -0.5293  0.2479 -0.8363
 1281TIP3   OH225401   2.244   4.777   1.061  0.0388 -0.8911 -0.4305
 1281TIP3    H125402   2.207   4.864   1.051 -1.3763 -1.1345  1.9143
 1281TIP3    H225403   2.334   4.785   1.029  0.5122  1.8939  1.2522
 1282TIP3   OH225404   0.073   1.946   7.001  0.2070 -0.1326  0.3981
 1282TIP3    H125405   0.089   2.039   7.017  0.1682 -0.0939  0.2153
 1282TIP3    H225406   0.159   1.904   7.012 -0.0141 -0.2829  1.8755
 1283TIP3   OH225407   2.367   1.131   7.573 -0.2383 -0.1759 -0.4666
 1283TIP3    H125408   2.404   1.219   7.572  0.0733 -0.1713  2.4162
 1283TIP3    H225409   2.382   1.098   7.484  1.3067  1.9816 -1.1001
 1284TIP3   OH225410   5.418   4.230   7.589  0.2037 -0.5234 -0.2409
 1284TIP3    H125411   5.388   4.150   7.632 -1.3398 -0.5748 -1.3424
 1284TIP3    H225412   5.410   4.211   7.495  0.1777  0.7958 -0.5241
 1285TIP3   OH225413   5.558   5.241   8.178  0.2509 -0.2266  0.7725
 1285TIP3    H125414   5.644   5.200   8.190 -0.1978 -1.7986 -0.9143
 1285TIP3    H225415   5.501   5.194   8.240  0.1076 -0.9634  0.0990
 1286TIP3   OH225416   6.077   5.061   0.842 -0.1186 -0.7733  0.1353
 1286TIP3    H125417   6.009   5.106   0.792 -0.3434 -1.7537 -0.4630
 1286TIP3    H225418   6.065   4.969   0.822  0.8036 -1.0477  0.7615
 1287TIP3   OH225419   6.056   6.646   8.433  0.1605 -0.0252 -0.0021
 1287TIP3    H125420   5.988   6.579   8.449  0.3447 -0.2493 -0.1464
 1287TIP3    H225421   6.055   6.700   8.511 -0.0460 -0.1519  0.0853
 1288TIP3   OH225422   2.542   4.961   8.708  0.3748 -0.0344 -0.0025
 1288TIP3    H125423   2.520   4.970   8.615 -0.2789 -0.1694  0.1339
 1288TIP3    H225424   2.516   4.872   8.730 -1.6431  0.7067  0.8593
 1289TIP3   OH225425   3.953   1.213   0.660 -0.4196 -0.1067  0.2815
 1289TIP3    H125426   3.876   1.175   0.617 -0.3809  0.4910 -0.3308
 1289TIP3    H225427   3.918   1.256   0.737 -0.5681 -0.6865  0.5439
 1290TIP3   OH225428   6.801   2.084   2.344  0.0147 -0.2584 -0.7566
 1290TIP3    H125429   6.716   2.076   2.388  0.6225  0.9869  0.7211
 1290TIP3    H225430   6.779   2.107   2.254 -1.2215  0.4463 -0.3008
 1291TIP3   OH225431   3.246   2.744   0.761 -0.3233 -0.5188  0.2953
 1291TIP3    H125432   3.175   2.801   0.790  0.4226 -0.1557  1.4407
 1291TIP3    H225433   3.278   2.785   0.680  0.1718  0.6718  1.0780
 1292TIP3   OH225434   0.856   0.799   8.567  0.2468 -0.2667  0.0470
 1292TIP3    H125435   0.846   0.796   8.662 -4.3165 -0.6510 -0.2349
 1292TIP3    H225436   0.840   0.890   8.543  1.7350 -0.0947 -0.4053
 1293TIP3   OH225437   6.505   6.656   2.646 -0.0528  0.6612 -0.0630
 1293TIP3    H125438   6.410   6.668   2.645 -0.0526  0.6348 -0.3798
 1293TIP3    H225439   6.539   6.733   2.600 -0.0259 -0.2930 -1.6937
 1294TIP3   OH225440   1.357   1.826   2.278  0.4354  0.0284  0.0861
 1294TIP3    H125441   1.391   1.825   2.368  0.1040 -1.9386  0.2286
 1294TIP3    H225442   1.430   1.796   2.224  0.5587  0.9771 -0.3027
 1295TIP3   OH225443   4.722   0.892   7.442  0.2710  0.3134 -1.2878
 1295TIP3    H125444   4.783   0.910   7.514  0.0401 -0.6010 -0.8445
 1295TIP3    H225445   4.651   0.954   7.455 -0.9846 -1.4392  0.7773
 1296TIP3   OH225446   5.772   4.861   8.389  0.0130  0.0079  0.2393
 1296TIP3    H125447   5.704   4.801   8.359 -0.1028 -0.6700  1.7380
 1296TIP3    H225448   5.833   4.806   8.438  0.8730  0.8397  0.1356
 1297TIP3   OH225449   2.318   4.336   6.926 -0.4218 -0.2806  0.5717
 1297TIP3    H125450   2.392   4.359   6.981 -0.1482  0.2970 -0.0180
 1297TIP3    H225451   2.241   4.360   6.978 -0.1572  1.0337  0.3955
 1298TIP3   OH225452   6.075   4.028   0.823 -0.5737  0.8799  0.3724
 1298TIP3    H125453   6.109   4.095   0.882 -1.1499 -0.4938  2.3712
 1298TIP3    H225454   6.038   4.078   0.750 -2.2219  2.8772  2.4012
 1299TIP3   OH225455   0.777   3.469   7.750  0.5590 -0.4131  0.0237
 1299TIP3    H125456   0.757   3.529   7.678 -1.0403 -1.2057 -0.2349
 1299TIP3    H225457   0.869   3.486   7.770  0.5388  1.1131 -0.9802
 1300TIP3   OH225458   3.881   0.867   1.770 -0.3151  0.0843 -0.2406
 1300TIP3    H125459   3.959   0.894   1.722  0.2156  0.2055  0.6742
 1300TIP3    H225460   3.891   0.907   1.856 -0.3088 -1.7039  0.6168
 1301TIP3   OH225461   0.772   0.413   1.049 -0.0066 -0.0283  0.6489
 1301TIP3    H125462   0.728   0.457   1.122  0.5052  0.0602  0.9083
 1301TIP3    H225463   0.846   0.367   1.090 -1.2373 -2.1999  0.5990
 1302TIP3   OH225464   4.113   0.011   7.859 -0.0991 -0.2321 -0.1573
 1302TIP3    H125465   4.100   0.008   7.953  0.9603 -2.3797 -0.0097
 1302TIP3    H225466   4.163   0.092   7.844 -0.2881  0.1340  1.1087
 1303TIP3   OH225467   1.012   4.989   2.193  0.4613 -0.5424 -0.1414
 1303TIP3    H125468   1.085   5.028   2.241 -0.5558  1.7774 -0.3321
 1303TIP3    H225469   1.031   5.008   2.101  0.5851 -1.7370 -0.3802
 1304TIP3   OH225470   6.199   2.371   1.833  0.3133  0.3078  0.1638
 1304TIP3    H125471   6.290   2.400   1.836  0.3293  0.2677  0.0957
 1304TIP3    H225472   6.148   2.451   1.821  0.4738  0.1735 -1.7518
 1305TIP3   OH225473   3.927   3.828   7.360  0.2392 -0.3162 -0.2939
 1305TIP3    H125474   4.006   3.882   7.360 -0.5689  0.9141  0.3631
 1305TIP3    H225475   3.935   3.774   7.282  3.0952 -2.3196  1.1913
 1306TIP3   OH225476   5.727   4.663   1.673 -0.1895 -0.1783  0.2214
 1306TIP3    H125477   5.770   4.687   1.591 -1.9548 -0.2041 -0.7756
 1306TIP3    H225478   5.735   4.568   1.677 -2.0526 -0.4571 -1.1638
 1307TIP3   OH225479   4.369   4.838   8.608  0.5893  0.0317 -0.4432
 1307TIP3    H125480   4.358   4.898   8.533  1.8239 -0.1465 -0.7837
 1307TIP3    H225481   4.286   4.844   8.655 -0.1097  0.3721 -1.6659
 1308TIP3   OH225482   3.889   6.756   7.675  0.3123 -0.0109  0.4030
 1308TIP3    H125483   3.881   6.851   7.684  0.0025 -0.0879  1.0430
 1308TIP3    H225484   3.977   6.736   7.707  0.7973  0.1783 -0.7999
 1309TIP3   OH225485   0.666   0.771   1.411 -0.0272  0.1960  0.3630
 1309TIP3    H125486   0.634   0.857   1.382 -0.4311 -0.3199 -0.7638
 1309TIP3    H225487   0.758   0.771   1.386 -0.0552  0.2538  0.2570
 1310TIP3   OH225488   1.159   1.554   7.947 -0.0849  0.1474  0.2925
 1310TIP3    H125489   1.185   1.507   7.868  1.5800  1.5376 -0.0602
 1310TIP3    H225490   1.226   1.531   8.012 -0.6145  0.1499  0.8522
 1311TIP3   OH225491   5.651   4.083   7.075  0.9122  0.5688 -0.4135
 1311TIP3    H125492   5.657   3.988   7.067 -1.5466  0.3135  0.0104
 1311TIP3    H225493   5.724   4.107   7.132  1.5169 -1.0507 -0.4373
 1312TIP3   OH225494   4.444   1.992   1.119 -0.6286 -0.0362 -0.4848
 1312TIP3    H125495   4.468   1.926   1.183  1.7922 -0.1427 -1.3843
 1312TIP3    H225496   4.377   1.950   1.064  0.3243 -1.4832 -0.5818
 1313TIP3   OH225497   2.890   3.093   0.756 -0.3000  0.5072 -0.5424
 1313TIP3    H125498   2.944   3.128   0.685 -0.4088 -1.2663 -1.5593
 1313TIP3    H225499   2.836   3.025   0.714  0.2980 -1.2730  1.3867
 1314TIP3   OH225500   5.617   6.321   8.600  0.4584  0.4048 -0.2672
 1314TIP3    H125501   5.636   6.414   8.585 -0.4133  0.2681 -2.5577
 1314TIP3    H225502   5.554   6.322   8.672 -0.0652  1.6537 -0.6991
 1315TIP3   OH225503   5.757   4.129   8.523  0.2412 -0.0789  0.1011
 1315TIP3    H125504   5.673   4.173   8.532 -1.5596 -3.4077  1.2723
 1315TIP3    H225505   5.813   4.170   8.589 -0.4189  2.1011 -0.6136
 1316TIP3   OH225506   6.499   1.055   1.930  0.0860 -0.3936  0.1198
 1316TIP3    H125507   6.464   1.129   1.980 -0.3146  0.3262 -1.1830
 1316TIP3    H225508   6.548   1.095   1.858  1.2803 -1.4090  0.3271
 1317TIP3   OH225509   0.982   5.377   1.930  0.1226  0.0449 -0.2027
 1317TIP3    H125510   1.005   5.305   1.988  1.5577 -0.1632 -0.9910
 1317TIP3    H225511   1.039   5.449   1.957  1.0869 -0.1762 -1.5798
 1318TIP3   OH225512   2.245   0.197   0.238 -0.0624  0.2982 -0.0325
 1318TIP3    H125513   2.232   0.102   0.237 -1.9225  0.5068 -0.2778
 1318TIP3    H225514   2.300   0.213   0.314 -1.4529 -0.8224  1.2823
 1319TIP3   OH225515   6.593   6.525   0.788  0.4360  0.1069 -0.6375
 1319TIP3    H125516   6.498   6.537   0.777  0.5701  1.8107 -0.2148
 1319TIP3    H225517   6.605   6.525   0.883  0.7566 -1.1811 -0.6666
 1320TIP3   OH225518   6.629   4.594   0.666  0.3039  0.0007  0.1212
 1320TIP3    H125519   6.664   4.522   0.613  0.9889  0.0040  0.5533
 1320TIP3    H225520   6.687   4.668   0.647  0.3678  0.0886  0.6358
 1321TIP3   OH225521   4.532   2.033   8.140 -0.0252  0.2172 -0.1472
 1321TIP3    H125522   4.460   1.993   8.189  1.1006 -0.8857  0.6539
 1321TIP3    H225523   4.607   2.029   8.199  0.9159  0.5489 -1.2735
 1322TIP3   OH225524   4.814   1.568   8.611  0.1917 -0.5214 -0.0821
 1322TIP3    H125525   4.892   1.613   8.643 -1.0657  0.6524  1.4674
 1322TIP3    H225526   4.793   1.613   8.529  1.3218 -1.0918 -0.7065
 1323TIP3   OH225527   3.394   6.487   7.884  0.0619  0.1237 -0.0182
 1323TIP3    H125528   3.479   6.474   7.840 -0.1885 -0.3457 -0.3771
 1323TIP3    H225529   3.330   6.482   7.813 -0.2240  1.1638  0.1513
 1324TIP3   OH225530   3.785   4.751   7.480 -0.0140 -0.2731  0.3208
 1324TIP3    H125531   3.719   4.753   7.411 -0.1163 -2.3057  0.2913
 1324TIP3    H225532   3.851   4.815   7.453 -0.3694 -0.5725 -1.3595
 1325TIP3   OH225533   5.568   4.790   7.508  0.5245 -0.1507  0.4619
 1325TIP3    H125534   5.594   4.769   7.419  0.0339 -1.6268  0.6346
 1325TIP3    H225535   5.518   4.871   7.500 -2.3759 -1.9169 -1.1599
 1326TIP3   OH225536   6.567   5.161   0.336 -0.2116  0.6017 -0.1357
 1326TIP3    H125537   6.635   5.112   0.382 -0.4611  0.8885  0.5512
 1326TIP3    H225538   6.520   5.208   0.405  0.1678  1.9978 -0.7985
 1327TIP3   OH225539   1.613   3.569   8.406 -0.1240  1.1645 -0.5242
 1327TIP3    H125540   1.610   3.664   8.419 -0.2151  0.9592  1.0748
 1327TIP3    H225541   1.706   3.547   8.414 -0.1556  1.0587 -0.4526
 1328TIP3   OH225542   0.199   0.233   0.344 -0.2626  0.3358 -0.3351
 1328TIP3    H125543   0.251   0.309   0.370  0.8291 -0.3314 -0.5126
 1328TIP3    H225544   0.217   0.222   0.251  0.2638 -0.6311 -0.1324
 1329TIP3   OH225545   0.170   4.532   7.835  0.0785 -0.4161  0.6101
 1329TIP3    H125546   0.245   4.517   7.777 -0.4414 -0.8968  0.0421
 1329TIP3    H225547   0.208   4.538   7.922  0.8656  0.1484  0.2479
 1330TIP3   OH225548   3.098   2.531   0.176  0.0076 -0.0465  0.4165
 1330TIP3    H125549   3.092   2.539   0.080  1.2907 -0.1338  0.3121
 1330TIP3    H225550   3.173   2.474   0.190 -0.2513 -0.1421  1.4921
 1331TIP3   OH225551   4.100   5.005   8.357 -0.6064  0.1553 -0.3149
 1331TIP3    H125552   4.122   5.015   8.264  2.2592 -1.1363  0.1227
 1331TIP3    H225553   4.111   5.093   8.394 -1.1883  0.5506 -1.0462
 1332TIP3   OH225554   6.433   2.071   7.336 -0.1795 -0.5764  0.4773
 1332TIP3    H125555   6.515   2.072   7.386 -0.0185  1.8752  0.2778
 1332TIP3    H225556   6.458   2.102   7.249 -1.0703 -1.4252 -0.1060
 1333TIP3   OH225557   0.617   0.266   0.696  0.1094 -0.1342 -0.3207
 1333TIP3    H125558   0.703   0.300   0.720 -0.3560  1.2535 -0.5431
 1333TIP3    H225559   0.605   0.291   0.605  0.3195 -2.1787 -0.9726
 1334TIP3   OH225560   5.838   6.479   0.402 -0.1291  0.0783 -0.3046
 1334TIP3    H125561   5.787   6.432   0.335 -0.1216  1.0490 -1.0074
 1334TIP3    H225562   5.929   6.470   0.374 -0.0197 -0.4455  0.1860
 1335TIP3   OH225563   4.984   0.935   1.672 -0.1953  0.3113  0.1991
 1335TIP3    H125564   5.072   0.962   1.648  0.5917 -1.1274  1.3020
 1335TIP3    H225565   4.967   0.979   1.756 -0.6192  0.7217 -0.0914
 1336TIP3   OH225566   5.492   0.889   0.838  0.1045 -0.3019  0.2218
 1336TIP3    H125567   5.425   0.844   0.889  0.4998 -0.7730  0.3307
 1336TIP3    H225568   5.525   0.957   0.897 -0.2036 -0.1366  0.2042
 1337TIP3   OH225569   5.093   3.381   2.856  0.2975 -0.1232  0.4998
 1337TIP3    H125570   5.155   3.311   2.834  1.1475  0.8701 -0.3856
 1337TIP3    H225571   5.015   3.361   2.803  0.5252 -0.4087  0.2699
 1338TIP3   OH225572   5.982   1.445   1.330  0.3147  0.4545  0.2906
 1338TIP3    H125573   5.977   1.539   1.349 -1.6215  0.3517  0.5874
 1338TIP3    H225574   5.937   1.404   1.404  1.6123 -0.7588  0.4353
 1339TIP3   OH225575   6.656   2.054   7.483 -0.1179 -0.1755 -0.1670
 1339TIP3    H125576   6.693   1.997   7.416  0.0075  1.3607 -1.4789
 1339TIP3    H225577   6.731   2.083   7.535  0.0226 -0.0460 -0.4391
 1340TIP3   OH225578   0.093   3.646   7.718  0.0875 -0.1365  0.7023
 1340TIP3    H125579   0.165   3.593   7.752  0.0633  0.3360  1.5198
 1340TIP3    H225580   0.127   3.684   7.637  0.5619 -0.3492  0.8010
 1341TIP3   OH225581   4.869   2.718   7.634 -0.4252  0.1377  0.5467
 1341TIP3    H125582   4.855   2.797   7.582  0.9848  0.4889  0.6609
 1341TIP3    H225583   4.958   2.691   7.614 -0.5325 -0.8546  1.2889
 1342TIP3   OH225584   6.599   5.455   0.275  0.1310  0.2977  0.3510
 1342TIP3    H125585   6.580   5.362   0.262  2.5384 -0.1905 -0.2033
 1342TIP3    H225586   6.514   5.498   0.271 -0.8428 -1.6326 -1.6340
 1343TIP3   OH225587   1.389   5.525   7.882  0.3695 -0.6319  0.2032
 1343TIP3    H125588   1.475   5.564   7.863 -0.3354  0.3689 -1.0519
 1343TIP3    H225589   1.359   5.572   7.960  1.4379 -1.8165  1.3872
 1344TIP3   OH225590   1.268   2.349   0.213 -0.2725 -0.0025  0.2067
 1344TIP3    H125591   1.269   2.292   0.136  0.7697  0.9145 -0.4919
 1344TIP3    H225592   1.182   2.334   0.252 -0.2330 -1.6518 -0.2377
 1345TIP3   OH225593   6.115   2.953   1.186 -0.2799  0.0362  0.0699
 1345TIP3    H125594   6.046   2.934   1.250  0.5359 -0.5883  0.7895
 1345TIP3    H225595   6.070   2.997   1.114 -1.3765 -0.1046  0.6536
 1346TIP3   OH225596   2.451   1.859   8.053 -0.1188  0.4199  0.6003
 1346TIP3    H125597   2.543   1.883   8.057 -0.0639  0.4660 -0.5729
 1346TIP3    H225598   2.406   1.924   8.106  0.5277  0.3135  1.2990
 1347TIP3   OH225599   0.597   4.707   7.964 -0.8036 -0.4261 -0.0093
 1347TIP3    H125600   0.565   4.619   7.982  0.0247 -1.4558 -2.9079
 1347TIP3    H225601   0.544   4.737   7.891  0.3548  0.5465 -0.4872
 1348TIP3   OH225602   4.126   1.863   7.307 -0.3188  0.0315 -0.2470
 1348TIP3    H125603   4.171   1.936   7.265  2.9044 -1.8542 -0.4634
 1348TIP3    H225604   4.087   1.900   7.386  1.4044  1.9658 -0.2226
 1349TIP3   OH225605   3.018   1.500   0.681  0.3644 -0.1494  0.2859
 1349TIP3    H125606   2.934   1.493   0.637  0.4242 -0.2564  0.1869
 1349TIP3    H225607   3.007   1.570   0.744  0.0976 -0.3910  0.5070
 1350TIP3   OH225608   4.014   0.517   6.968 -0.6186  0.4317 -0.0806
 1350TIP3    H125609   4.031   0.457   7.041 -1.0980 -0.3861 -0.6252
 1350TIP3    H225610   3.943   0.574   6.999 -0.8421  0.0667  0.0829
 1351TIP3   OH225611   4.369   2.315   0.912  0.1906  0.0269  0.1880
 1351TIP3    H125612   4.407   2.286   0.829 -0.1571 -0.7899  0.2975
 1351TIP3    H225613   4.372   2.410   0.908 -0.6800  0.0362 -1.1914
 1352TIP3   OH225614   2.581   2.470   8.648  0.1269 -0.2038  0.2327
 1352TIP3    H125615   2.498   2.479   8.695 -0.5286 -1.1500 -0.6977
 1352TIP3    H225616   2.572   2.529   8.573  0.4788  0.0162  0.3618
 1353TIP3   OH225617   1.676   4.579   2.098  0.2152  0.1959 -0.1528
 1353TIP3    H125618   1.703   4.646   2.161 -0.4876  0.4793 -0.1509
 1353TIP3    H225619   1.758   4.533   2.077  0.6750  0.9172 -0.0035
 1354TIP3   OH225620   6.464   2.246   0.350  0.6475 -0.0093  0.0198
 1354TIP3    H125621   6.379   2.230   0.309  0.6319 -1.7958  0.6573
 1354TIP3    H225622   6.526   2.247   0.277  0.3093 -0.6818 -0.2933
 1355TIP3   OH225623   0.838   2.993   8.450 -0.0275 -0.1755 -0.0237
 1355TIP3    H125624   0.853   2.902   8.426 -1.1927 -0.1425 -1.0652
 1355TIP3    H225625   0.830   3.038   8.365 -0.5805  0.6762  0.4681
 1356TIP3   OH225626   5.057   5.441   1.485 -0.2866 -0.1258  0.0626
 1356TIP3    H125627   5.007   5.438   1.403 -0.0328  0.4367 -0.1215
 1356TIP3    H225628   4.991   5.429   1.553 -0.5114 -0.5336 -0.2215
 1357TIP3   OH225629   4.417   6.287   8.518 -0.0464  0.0937 -0.1921
 1357TIP3    H125630   4.489   6.299   8.456  1.6018 -0.5666  1.4794
 1357TIP3    H225631   4.347   6.343   8.485  1.8277  2.1078 -1.0070
 1358TIP3   OH225632   0.377   6.384   7.959  0.6705  0.0375  0.5757
 1358TIP3    H125633   0.346   6.315   7.901  0.8309  0.7585 -0.4050
 1358TIP3    H225634   0.444   6.343   8.012  1.2270 -0.4178 -0.4414
 1359TIP3   OH225635   5.450   1.249   7.061  0.6236  0.1228  0.8190
 1359TIP3    H125636   5.473   1.171   7.009  1.1178  0.9568 -0.2562
 1359TIP3    H225637   5.534   1.295   7.071  0.4153  0.2947  1.8436
 1360TIP3   OH225638   4.625   2.169   0.249  0.2961 -0.0563 -0.2389
 1360TIP3    H125639   4.623   2.107   0.176 -0.4055 -1.1874  0.6916
 1360TIP3    H225640   4.697   2.139   0.304 -0.0241 -0.0401  0.1981
 1361TIP3   OH225641   5.624   2.481   7.902 -0.1970  0.7467 -0.2214
 1361TIP3    H125642   5.533   2.472   7.871 -0.0361 -2.8965 -0.1247
 1361TIP3    H225643   5.674   2.503   7.823 -0.8894  0.3775 -0.7781
 1362TIP3   OH225644   1.059   2.404   1.505  0.1875  0.7265 -0.3458
 1362TIP3    H125645   1.076   2.363   1.421 -0.9660  2.0497 -1.2775
 1362TIP3    H225646   1.074   2.335   1.570  2.2835  0.0092 -1.5077
 1363TIP3   OH225647   3.117   5.351   1.625  0.5017 -0.1622  0.5413
 1363TIP3    H125648   3.108   5.444   1.645 -0.9074 -0.1731  0.0509
 1363TIP3    H225649   3.149   5.312   1.706  0.1399  0.6010  1.0626
 1364TIP3   OH225650   6.673   0.201   8.537 -0.0230 -0.2134  0.1690
 1364TIP3    H125651   6.620   0.172   8.611 -2.2044 -0.4002 -1.3583
 1364TIP3    H225652   6.698   0.120   8.492 -2.0965 -0.0420 -1.4468
 1365TIP3   OH225653   4.389   6.789   1.712 -0.2702  0.5117 -0.3368
 1365TIP3    H125654   4.359   6.711   1.759 -0.1487  0.2142 -0.7496
 1365TIP3    H225655   4.312   6.844   1.704 -0.6421 -0.1076 -1.1127
 1366TIP3   OH225656   5.427   0.212   1.125 -0.2368  0.4329  1.1264
 1366TIP3    H125657   5.476   0.253   1.197  2.4408 -1.1991  0.3794
 1366TIP3    H225658   5.403   0.126   1.159 -0.7011  0.4093  0.7420
 1367TIP3   OH225659   1.509   4.174   6.843  0.0275  0.0530 -0.5157
 1367TIP3    H125660   1.589   4.198   6.797 -0.3412 -0.4816 -1.4763
 1367TIP3    H225661   1.462   4.257   6.853  0.5404  0.3170 -0.2492
 1368TIP3   OH225662   2.431   1.320   1.481  0.4430 -0.4758  0.3439
 1368TIP3    H125663   2.502   1.382   1.500 -0.3980  0.1086  1.7897
 1368TIP3    H225664   2.432   1.259   1.555 -0.1383 -0.8519  0.0485
 1369TIP3   OH225665   5.868   5.734   8.702  0.7399 -0.3750 -0.7310
 1369TIP3    H125666   5.956   5.707   8.729  0.2111 -1.5175 -0.0702
 1369TIP3    H225667   5.849   5.680   8.625  1.2105  0.9981 -1.8552
 1370TIP3   OH225668   4.196   5.309   7.427  0.2200  0.1603 -0.3117
 1370TIP3    H125669   4.184   5.404   7.421  1.4271  0.3571  0.0236
 1370TIP3    H225670   4.211   5.281   7.336 -0.6356  0.2128 -0.4707
 1371TIP3   OH225671   4.707   0.137   0.930 -0.6563 -0.0586 -0.2307
 1371TIP3    H125672   4.626   0.086   0.920  0.6570 -2.2684 -0.0848
 1371TIP3    H225673   4.689   0.196   1.003 -0.7117 -3.6927  3.0104
 1372TIP3   OH225674   2.643   4.427   1.256  0.2771 -0.0171 -0.0193
 1372TIP3    H125675   2.657   4.367   1.329 -1.2029 -1.3735 -0.7577
 1372TIP3    H225676   2.566   4.390   1.210 -0.4204  2.2164 -0.7705
 1373TIP3   OH225677   5.865   2.420   8.075 -0.2868  0.1733 -0.5386
 1373TIP3    H125678   5.829   2.356   8.137  1.2966  0.0741  0.3440
 1373TIP3    H225679   5.790   2.471   8.046 -1.2137 -0.3902  0.7617
 1374TIP3   OH225680   0.121   0.397   0.657  0.5303 -0.0534 -0.1955
 1374TIP3    H125681   0.195   0.420   0.600  1.4441 -0.4618  0.8037
 1374TIP3    H225682   0.154   0.409   0.746 -0.0560 -1.8233  0.3126
 1375TIP3   OH225683   3.209   4.736   8.226 -0.3878 -0.2202 -0.0211
 1375TIP3    H125684   3.192   4.677   8.300 -0.0946 -0.7479 -0.3715
 1375TIP3    H225685   3.124   4.775   8.206 -0.5943 -0.5721  0.1751
 1376TIP3   OH225686   3.384   5.749   0.168  0.0284  0.1084 -0.4071
 1376TIP3    H125687   3.377   5.654   0.157 -2.3029  0.0059  1.2906
 1376TIP3    H225688   3.302   5.783   0.133 -0.1187  1.2475  0.9525
 1377TIP3   OH225689   5.607   3.201   0.496 -0.0198  0.0993 -0.1416
 1377TIP3    H125690   5.595   3.296   0.501 -1.6625 -0.0487 -0.7557
 1377TIP3    H225691   5.640   3.186   0.408 -0.1550  0.0664 -0.1867
 1378TIP3   OH225692   4.157   3.686   7.565 -0.1023 -0.0076  0.2615
 1378TIP3    H125693   4.186   3.645   7.483  0.4970 -0.8772  0.8958
 1378TIP3    H225694   4.065   3.662   7.573 -0.2937  0.4821 -0.3916
 1379TIP3   OH225695   6.801   3.206   8.286 -0.7622 -0.0448 -0.2487
 1379TIP3    H125696   6.737   3.146   8.248 -2.3363  1.3334  0.1343
 1379TIP3    H225697   6.871   3.149   8.319 -0.9036 -1.4759 -2.2600
 1380TIP3   OH225698   0.283   2.699   1.493 -0.6467 -0.4122 -0.3447
 1380TIP3    H125699   0.355   2.729   1.548 -1.9756 -1.1989  1.9914
 1380TIP3    H225700   0.207   2.748   1.524 -2.0831 -3.1489  0.8800
 1381TIP3   OH225701   4.208   6.451   1.395 -0.0623 -0.3113 -0.4404
 1381TIP3    H125702   4.261   6.448   1.316 -0.7415 -0.7260 -0.8905
 1381TIP3    H225703   4.211   6.362   1.430  1.6991  0.2527  1.0185
 1382TIP3   OH225704   5.230   1.635   8.233 -0.0225  0.2248  0.1761
 1382TIP3    H125705   5.256   1.723   8.206  2.5960  0.1214  2.0375
 1382TIP3    H225706   5.148   1.649   8.281  0.1359  1.5900  0.0941
 1383TIP3   OH225707   0.354   3.963   7.264  0.0872 -0.3059  0.1488
 1383TIP3    H125708   0.414   3.926   7.199 -0.1270  0.5107 -0.5276
 1383TIP3    H225709   0.389   4.050   7.282 -0.7833  0.1123 -0.1248
 1384TIP3   OH225710   3.867   0.774   0.945 -0.8164  0.4391 -0.6124
 1384TIP3    H125711   3.879   0.682   0.923  2.3556  0.9166 -1.4330
 1384TIP3    H225712   3.859   0.818   0.861  1.0913  1.2019 -0.4458
 1385TIP3   OH225713   5.958   0.344   2.407 -0.7070  0.2122  0.1060
 1385TIP3    H125714   5.896   0.271   2.401 -0.4767 -0.2609  2.4676
 1385TIP3    H225715   5.981   0.364   2.317 -4.6153  0.7256 -0.9371
 1386TIP3   OH225716   4.200   2.516   2.552 -0.0619  0.3797 -0.0808
 1386TIP3    H125717   4.257   2.497   2.627 -0.1823  0.8419  0.1374
 1386TIP3    H225718   4.190   2.433   2.507  1.1783  0.3887 -0.4002
 1387TIP3   OH225719   5.035   2.362   0.858 -0.0854 -0.0832  0.5264
 1387TIP3    H125720   5.103   2.313   0.904  1.3979  0.3212 -1.1306
 1387TIP3    H225721   5.023   2.314   0.776 -1.4179  0.1732  0.5497
 1388TIP3   OH225722   3.211   0.167   8.270  0.5246  0.1201  0.0089
 1388TIP3    H125723   3.188   0.249   8.314 -1.2045 -0.2313 -0.1460
 1388TIP3    H225724   3.293   0.139   8.310  1.9408  2.6351 -0.9187
 1389TIP3   OH225725   0.238   4.268   0.564 -0.3440 -0.3231 -0.2755
 1389TIP3    H125726   0.328   4.298   0.551 -0.3667 -0.3537 -0.5073
 1389TIP3    H225727   0.185   4.327   0.510 -0.3541 -1.0062 -1.0271
 1390TIP3   OH225728   3.130   3.200   0.351 -0.3980  0.0791 -0.3087
 1390TIP3    H125729   3.116   3.295   0.353  0.9007  0.4126 -2.8938
 1390TIP3    H225730   3.210   3.187   0.402 -0.0839  0.5188 -0.6713
 1391TIP3   OH225731   6.086   3.485   2.615 -0.1836  0.3907  0.0430
 1391TIP3    H125732   6.042   3.492   2.699 -1.3901  1.6970 -0.6555
 1391TIP3    H225733   6.017   3.498   2.550  0.8299  0.0949 -1.1410
 1392TIP3   OH225734   5.032   4.517   8.226  0.4948  0.4230  0.6950
 1392TIP3    H125735   5.005   4.546   8.314 -0.0979  1.2488  0.2615
 1392TIP3    H225736   5.028   4.421   8.230 -0.6875  0.4661  1.2369
 1393TIP3   OH225737   3.819   3.495   6.957 -0.3134 -1.0723  0.2918
 1393TIP3    H125738   3.750   3.466   7.016 -0.2328 -1.5373  0.1616
 1393TIP3    H225739   3.869   3.559   7.008 -3.4133  2.8050 -0.9609
 1394TIP3   OH225740   4.296   1.096   8.763 -0.5328 -0.1358  0.4862
 1394TIP3    H125741   4.335   1.174   8.804  1.3408 -1.2957  1.0358
 1394TIP3    H225742   4.341   1.089   8.678  0.1851 -1.2619  0.9456
 1395TIP3   OH225743   4.717   3.943   0.162  0.0747 -0.9528 -0.1007
 1395TIP3    H125744   4.732   4.009   0.230 -0.1712 -1.9748  0.9759
 1395TIP3    H225745   4.622   3.930   0.163 -0.0675 -0.1869 -1.4280
 1396TIP3   OH225746   2.148   2.740   2.239  0.5710  0.4708 -0.0367
 1396TIP3    H125747   2.207   2.691   2.296 -0.6671 -1.1293 -0.0661
 1396TIP3    H225748   2.064   2.695   2.247  0.2109  0.5257 -2.6731
 1397TIP3   OH225749   2.844   0.975   1.778  0.9459  0.0219  0.2356
 1397TIP3    H125750   2.799   1.059   1.779 -0.5097 -0.7047 -0.2258
 1397TIP3    H225751   2.913   0.985   1.712 -1.4037 -0.1545 -2.4800
 1398TIP3   OH225752   4.247   2.646   8.356 -0.1324  0.0369  0.3732
 1398TIP3    H125753   4.280   2.656   8.445 -0.2058  1.3682  0.2699
 1398TIP3    H225754   4.248   2.552   8.341  0.5347 -0.1656  1.5329
 1399TIP3   OH225755   0.764   3.053   1.334  0.0127  0.1918  0.1496
 1399TIP3    H125756   0.683   3.006   1.353 -1.5073  2.5887 -0.0081
 1399TIP3    H225757   0.765   3.125   1.397  1.5006  0.8152 -0.5338
 1400TIP3   OH225758   4.289   0.163   7.287  0.0664  0.1822 -0.1973
 1400TIP3    H125759   4.289   0.192   7.378 -0.2847  0.5960 -0.3281
 1400TIP3    H225760   4.242   0.079   7.289  1.1343 -0.4315  0.1880
 1401TIP3   OH225761   5.460   3.772   2.478  0.2436  0.1087  0.4271
 1401TIP3    H125762   5.390   3.707   2.469 -0.2190  0.2654  2.4781
 1401TIP3    H225763   5.539   3.720   2.494  0.4718 -0.0228 -0.9431
 1402TIP3   OH225764   1.060   0.443   2.404  0.1084 -0.1047  0.0535
 1402TIP3    H125765   1.072   0.517   2.463  1.0682  0.5222 -0.9031
 1402TIP3    H225766   1.014   0.378   2.457 -2.1924  1.7195  0.4631
 1403TIP3   OH225767   3.341   2.405   7.790  0.1279  0.3075  0.3836
 1403TIP3    H125768   3.361   2.372   7.877  0.0464  0.8646  0.6176
 1403TIP3    H225769   3.317   2.327   7.740  0.4690 -0.0516  0.7737
 1404TIP3   OH225770   1.048   0.841   8.344  0.1711  0.1309  0.1778
 1404TIP3    H125771   0.992   0.814   8.418 -1.0254 -0.0186 -0.7479
 1404TIP3    H225772   1.032   0.935   8.335 -1.8373 -0.3124 -1.5775
 1405TIP3   OH225773   0.217   2.407   0.844 -0.1710 -0.1158  0.3791
 1405TIP3    H125774   0.140   2.404   0.788  1.1397  0.2197 -1.5308
 1405TIP3    H225775   0.207   2.486   0.896 -0.1461  1.0869 -1.3702
 1406TIP3   OH225776   4.647   4.954   1.432  0.1371 -0.2375 -0.1002
 1406TIP3    H125777   4.657   5.048   1.421 -0.6869 -0.1932 -0.5951
 1406TIP3    H225778   4.626   4.922   1.344  0.1139 -0.8392  0.1174
 1407TIP3   OH225779   3.341   2.914   2.090  0.1663  0.0264 -0.3439
 1407TIP3    H125780   3.346   2.975   2.016  1.6997 -0.1038 -0.3838
 1407TIP3    H225781   3.356   2.969   2.167  3.7781 -0.4831 -0.5086
 1408TIP3   OH225782   2.806   5.054   1.641  0.0475  0.4346 -0.0874
 1408TIP3    H125783   2.760   5.058   1.557 -0.3386  0.7643  0.1310
 1408TIP3    H225784   2.890   5.098   1.625  0.5696 -0.7301 -0.6554
 1409TIP3   OH225785   1.539   6.204   0.619  0.0011  0.2222  0.1368
 1409TIP3    H125786   1.454   6.166   0.595  0.4997  0.3648 -2.0526
 1409TIP3    H225787   1.518   6.293   0.648 -0.7805 -0.4338  1.7406
 1410TIP3   OH225788   3.004   5.805   8.690 -0.3223 -0.5813 -0.2725
 1410TIP3    H125789   2.968   5.841   8.608 -1.2845 -0.4377  0.1987
 1410TIP3    H225790   2.936   5.745   8.721 -0.6753  0.5672  1.2497
 1411TIP3   OH225791   3.396   3.561   8.591 -0.4041  0.2056  0.4997
 1411TIP3    H125792   3.333   3.563   8.519  0.0414 -0.3938  0.0802
 1411TIP3    H225793   3.406   3.468   8.612 -1.1451  0.4200  1.8972
 1412TIP3   OH225794   0.596   2.315   1.752 -0.2922  0.8506 -0.1724
 1412TIP3    H125795   0.516   2.358   1.725 -0.6059 -0.0985 -0.8299
 1412TIP3    H225796   0.656   2.327   1.678  0.5328  2.3685  0.6838
 1413TIP3   OH225797   3.444   3.258   1.674 -0.4194  0.2190 -0.4775
 1413TIP3    H125798   3.447   3.169   1.640  0.9879 -0.5449  1.4193
 1413TIP3    H225799   3.351   3.276   1.688 -0.6561 -2.2844  2.1406
 1414TIP3   OH225800   3.865   5.921   1.870 -0.7351  0.3401 -0.0005
 1414TIP3    H125801   3.927   5.994   1.877  0.5330 -0.6463 -0.6231
 1414TIP3    H225802   3.810   5.930   1.948 -0.1807  1.5768  0.2828
 1415TIP3   OH225803   2.998   5.250   7.670  0.1890 -0.3822 -0.0752
 1415TIP3    H125804   3.037   5.248   7.758  0.4224  0.8602 -0.1252
 1415TIP3    H225805   3.027   5.334   7.634 -2.1399  0.3730 -0.3167
 1416TIP3   OH225806   4.244   5.004   1.754  0.3270  0.3489  0.5883
 1416TIP3    H125807   4.242   4.995   1.658 -0.9908  1.5975  0.4614
 1416TIP3    H225808   4.250   5.099   1.768 -0.7593  0.2605  1.7472
 1417TIP3   OH225809   2.448   4.185   3.030 -0.0172  0.2454 -0.0092
 1417TIP3    H125810   2.393   4.125   2.979  0.0543 -0.2829  0.5249
 1417TIP3    H225811   2.441   4.268   2.983 -0.1880 -0.1525 -0.7153
 1418TIP3   OH225812   3.951   0.134   0.085  0.8227 -0.0687 -0.3643
 1418TIP3    H125813   4.009   0.114   0.012  1.0371 -0.1053 -0.1863
 1418TIP3    H225814   3.945   0.230   0.086 -0.8243 -0.1079 -1.6970
 1419TIP3   OH225815   3.759   5.569   0.715 -0.2672  0.3401  0.5919
 1419TIP3    H125816   3.822   5.621   0.765 -0.1241  0.4658  0.2851
 1419TIP3    H225817   3.679   5.621   0.715  0.0930  0.9226 -0.3476
 1420TIP3   OH225818   3.909   1.634   1.398  0.7480 -0.4015  0.3022
 1420TIP3    H125819   3.991   1.614   1.444  1.4508 -0.8790 -1.1181
 1420TIP3    H225820   3.876   1.713   1.441  1.5229 -0.6668  1.4237
 1421TIP3   OH225821   2.271   5.327   1.520  0.5231  0.0023 -0.2168
 1421TIP3    H125822   2.297   5.239   1.548 -0.5582  0.1284  1.2868
 1421TIP3    H225823   2.346   5.382   1.542  1.6459 -0.6476 -2.1255
 1422TIP3   OH225824   2.888   1.204   6.821  0.0723  0.0963 -0.2466
 1422TIP3    H125825   2.833   1.138   6.862  1.2708 -1.8147 -1.5348
 1422TIP3    H225826   2.827   1.263   6.776 -1.0377 -0.0226  1.0665
 1423TIP3   OH225827   6.435   4.747   1.616 -0.1233  0.5964  0.2675
 1423TIP3    H125828   6.457   4.754   1.709  0.0907  2.5862  0.1110
 1423TIP3    H225829   6.520   4.739   1.572 -0.2456 -0.8780  0.2354
 1424TIP3   OH225830   4.183   4.768   0.458  0.6746 -0.0893 -0.2560
 1424TIP3    H125831   4.261   4.719   0.434  1.8409  1.9064 -0.8012
 1424TIP3    H225832   4.203   4.805   0.544 -0.4791 -1.0940  0.4840
 1425TIP3   OH225833   6.611   0.633   1.325 -0.5081  0.1399 -0.0820
 1425TIP3    H125834   6.632   0.543   1.298 -2.3618 -0.7038  1.0811
 1425TIP3    H225835   6.653   0.643   1.410  2.1508  1.4762 -1.4332
 1426TIP3   OH225836   3.871   2.223   8.450  0.3181 -0.7123 -0.4295
 1426TIP3    H125837   3.848   2.178   8.369 -1.4445  0.2945 -0.5581
 1426TIP3    H225838   3.859   2.157   8.519  0.2455 -1.1286 -0.8368
 1427TIP3   OH225839   3.554   0.380   2.033 -0.0161 -0.2228  0.1745
 1427TIP3    H125840   3.567   0.465   2.075 -0.5605  0.0039 -0.1058
 1427TIP3    H225841   3.511   0.326   2.099  0.5664 -0.3684  0.4422
 1428TIP3   OH225842   0.960   1.278   1.678  0.4403  0.2364  0.0624
 1428TIP3    H125843   0.975   1.338   1.751  0.5472  0.7154 -0.3527
 1428TIP3    H225844   0.912   1.330   1.613  0.0875 -0.2693 -0.0917
 1429TIP3   OH225845   3.051   2.785   1.121  0.2463 -0.5195  0.7501
 1429TIP3    H125846   3.144   2.790   1.100  0.0971  2.2865  0.2850
 1429TIP3    H225847   3.008   2.828   1.047 -1.2427 -0.1491  1.7863
 1430TIP3   OH225848   4.790   3.470   7.767  0.1472  0.1529  0.2434
 1430TIP3    H125849   4.821   3.381   7.787  0.6365  0.0969 -0.7052
 1430TIP3    H225850   4.758   3.464   7.676 -0.2768  0.8316  0.3421
 1431TIP3   OH225851   2.429   2.278   0.218 -0.1042  0.2980  0.4739
 1431TIP3    H125852   2.444   2.364   0.256  1.1265 -0.4094  1.6942
 1431TIP3    H225853   2.399   2.224   0.291  1.9337 -1.0048  0.4311
 1432TIP3   OH225854   4.770   4.082   0.398  0.0764 -0.0538  0.0063
 1432TIP3    H125855   4.863   4.088   0.379 -0.0476  0.3577 -0.5039
 1432TIP3    H225856   4.758   4.133   0.478  0.4101 -0.7631  0.5167
 1433TIP3   OH225857   5.814   1.172   2.456 -0.6961 -0.1232 -0.0763
 1433TIP3    H125858   5.846   1.247   2.407  0.9964 -0.7630 -0.0311
 1433TIP3    H225859   5.756   1.209   2.522  0.8050  1.2696  0.5369
 1434TIP3   OH225860   0.532   1.801   7.363  0.7771 -0.3004  0.2844
 1434TIP3    H125861   0.558   1.720   7.319 -1.2575  0.1613 -2.0162
 1434TIP3    H225862   0.555   1.870   7.301  1.1773  0.7800  1.5962
 1435TIP3   OH225863   5.330   4.901   2.694  0.2765 -0.2470 -0.2012
 1435TIP3    H125864   5.378   4.876   2.772  0.4579 -1.4888 -0.6853
 1435TIP3    H225865   5.240   4.874   2.712  0.3930 -0.9139 -0.5531
 1436TIP3   OH225866   4.520   4.065   7.363 -0.5863 -0.5759 -0.4139
 1436TIP3    H125867   4.432   4.076   7.327 -0.4060  2.1197 -0.1881
 1436TIP3    H225868   4.507   4.062   7.458 -0.3428  2.3709 -0.1960
 1437TIP3   OH225869   4.420   2.562   8.734  0.2206  0.0765  0.3620
 1437TIP3    H125870   4.361   2.486   8.738  1.9155 -1.3094  0.2229
 1437TIP3    H225871   4.361   2.637   8.727 -1.5176 -1.2927 -0.7539
 1438TIP3   OH225872   4.082   4.781   2.092  0.2357 -0.4995  0.3268
 1438TIP3    H125873   4.162   4.728   2.091 -0.2344 -1.2478 -2.0284
 1438TIP3    H225874   4.111   4.867   2.060  0.6906  0.2968  2.6792
 1439TIP3   OH225875   5.562   3.642   7.961  0.5071 -0.0297  0.0328
 1439TIP3    H125876   5.487   3.594   7.926 -0.9450  1.1036  1.4415
 1439TIP3    H225877   5.546   3.733   7.936 -0.2753  0.7254  2.8909
 1440TIP3   OH225878   2.549   0.247   7.739  0.3448 -0.9717  0.2021
 1440TIP3    H125879   2.643   0.257   7.722 -0.0245 -1.1619 -2.3204
 1440TIP3    H225880   2.533   0.302   7.816  1.9844  1.6837 -1.1996
 1441TIP3   OH225881   2.179   5.142   8.788  0.2352 -0.0317  0.3435
 1441TIP3    H125882   2.091   5.121   8.820  0.5069  1.7397  2.5304
 1441TIP3    H225883   2.238   5.095   8.847  0.7599  0.4124  0.1789
 1442TIP3   OH225884   5.687   0.236   8.247  0.0302  0.0190 -0.2661
 1442TIP3    H125885   5.678   0.175   8.174  0.1153  0.6289 -0.7920
 1442TIP3    H225886   5.725   0.315   8.208 -0.4004  0.5339  0.3369
 1443TIP3   OH225887   1.881   3.009   0.080 -0.0759  0.5998 -0.6920
 1443TIP3    H125888   1.969   3.026   0.112  0.0211  0.2198 -0.7602
 1443TIP3    H225889   1.833   2.976   0.156 -0.1612  0.7988 -0.6566
 1444TIP3   OH225890   0.360   6.737   2.452  0.1187  0.1422 -0.0360
 1444TIP3    H125891   0.368   6.830   2.432  0.3349  0.2878  0.6888
 1444TIP3    H225892   0.445   6.700   2.427 -0.5476 -0.1912 -1.9435
 1445TIP3   OH225893   2.222   5.380   7.716  0.7810 -0.1243 -0.0846
 1445TIP3    H125894   2.278   5.402   7.641  0.6805  1.2730  0.2129
 1445TIP3    H225895   2.200   5.288   7.704  1.0459 -0.0128 -1.5862
 1446TIP3   OH225896   4.295   3.851   2.431 -0.2884  0.0703  0.0173
 1446TIP3    H125897   4.352   3.878   2.359  0.2716 -0.3956  0.2744
 1446TIP3    H225898   4.209   3.839   2.391  0.6341 -3.3142 -1.2816
 1447TIP3   OH225899   5.539   5.986   1.190  0.1609 -0.0345 -0.2672
 1447TIP3    H125900   5.460   6.036   1.170 -0.2293 -0.3606  0.4149
 1447TIP3    H225901   5.599   6.006   1.118 -1.0988 -1.0191 -1.6626
 1448TIP3   OH225902   5.519   5.435   2.101 -0.4750 -0.1013 -0.4649
 1448TIP3    H125903   5.577   5.477   2.165 -0.7620 -2.0977  1.2216
 1448TIP3    H225904   5.432   5.468   2.123 -0.3804  0.4869 -0.9450
 1449TIP3   OH225905   3.674   6.401   8.052 -0.2331 -0.6428 -0.6074
 1449TIP3    H125906   3.727   6.469   8.011  0.4657 -1.0185 -0.3303
 1449TIP3    H225907   3.735   6.352   8.107 -0.4987 -2.1560 -1.6039
 1450TIP3   OH225908   0.724   5.784   0.318  0.1134  0.5103  0.0149
 1450TIP3    H125909   0.663   5.715   0.294  1.1305 -0.3331 -0.2361
 1450TIP3    H225910   0.724   5.784   0.414  0.2528  0.0211  0.0173
 1451TIP3   OH225911   4.693   6.593   8.040  0.0162  0.0325  0.4480
 1451TIP3    H125912   4.787   6.576   8.044 -0.1008 -0.4442  1.5650
 1451TIP3    H225913   4.652   6.506   8.048 -0.5294  0.2475  0.1047
 1452TIP3   OH225914   6.801   3.520   0.914  0.2261 -0.4791 -0.1460
 1452TIP3    H125915   6.773   3.577   0.842 -1.7448 -2.0039 -0.6855
 1452TIP3    H225916   6.806   3.433   0.874  0.8911 -1.0611  1.1598
 1453TIP3   OH225917   3.783   4.314   1.082  0.0121  0.3524  0.1455
 1453TIP3    H125918   3.734   4.243   1.124  0.3980  0.1610  0.2792
 1453TIP3    H225919   3.871   4.309   1.121 -0.6859  2.6764  2.2846
 1454TIP3   OH225920   5.377   2.050   8.654 -0.1393  0.1824 -0.3242
 1454TIP3    H125921   5.399   1.965   8.692  1.2511  0.4948 -0.3767
 1454TIP3    H225922   5.443   2.064   8.587 -0.6324  1.1072 -0.6388
 1455TIP3   OH225923   6.077   6.432   0.712 -0.5040  0.2214  0.0159
 1455TIP3    H125924   6.027   6.503   0.672  0.6182  0.6616 -0.6760
 1455TIP3    H225925   6.026   6.353   0.693  0.1531  0.3576 -2.7182
 1456TIP3   OH225926   4.497   1.857   1.599 -0.6024  0.3544 -0.0999
 1456TIP3    H125927   4.472   1.947   1.620 -2.5764 -0.3380  0.7232
 1456TIP3    H225928   4.434   1.830   1.532  0.3670 -0.2213 -0.7971
 1457TIP3   OH225929   3.904   3.610   7.547 -0.2281  0.6340  0.6980
 1457TIP3    H125930   3.893   3.671   7.475  0.7721  0.4645  0.3944
 1457TIP3    H225931   3.851   3.534   7.522  2.3215 -0.6326 -1.2793
 1458TIP3   OH225932   1.277   0.678   0.030  0.0298  0.3997 -0.1886
 1458TIP3    H125933   1.298   0.742  -0.038  2.3209  2.1839  2.0217
 1458TIP3    H225934   1.242   0.730   0.102 -1.2842 -1.3027  0.4680
 1459TIP3   OH225935   4.451   3.978   8.547  0.0624  0.0336 -0.4633
 1459TIP3    H125936   4.485   4.066   8.561  1.1621 -0.7272  2.1818
 1459TIP3    H225937   4.486   3.952   8.462 -0.1641  2.0428 -1.2374
 1460TIP3   OH225938   2.926   5.463   8.136  0.0615  1.0604  0.6246
 1460TIP3    H125939   2.939   5.472   8.041  0.9522  1.1226  0.7482
 1460TIP3    H225940   2.967   5.541   8.174  0.6775  0.4979  1.1328
 1461TIP3   OH225941   1.717   4.293   6.685 -0.3909  0.1913 -0.0573
 1461TIP3    H125942   1.647   4.342   6.643 -1.1880  0.1286  1.1576
 1461TIP3    H225943   1.745   4.348   6.758  0.4470 -0.0388 -0.1908
 1462TIP3   OH225944   5.920   5.833   2.216  0.3089  0.0236  0.5097
 1462TIP3    H125945   5.883   5.888   2.147  1.5983  1.1233  0.6730
 1462TIP3    H225946   5.907   5.883   2.297  1.1247 -0.0957  0.7185
 1463TIP3   OH225947   2.655   2.180   0.137  0.0006 -0.2288  0.2183
 1463TIP3    H125948   2.690   2.242   0.202 -0.9482  2.1605 -1.3881
 1463TIP3    H225949   2.560   2.187   0.146 -0.1255 -1.2801 -0.1727
 1464TIP3   OH225950   1.379   4.008   0.843  0.1386 -0.2782  0.5243
 1464TIP3    H125951   1.340   3.967   0.920  1.3069  0.7795  1.7346
 1464TIP3    H225952   1.368   4.102   0.857  1.4534 -0.0242  0.0284
 1465TIP3   OH225953   2.475   6.446   2.419  0.4097  0.0886 -0.1121
 1465TIP3    H125954   2.492   6.360   2.458 -0.2964 -0.7498 -1.5582
 1465TIP3    H225955   2.542   6.455   2.351 -0.8753 -0.3519 -1.4848
 1466TIP3   OH225956   2.879   2.998   1.423  0.2609 -0.4406 -0.0862
 1466TIP3    H125957   2.920   3.064   1.366 -2.0810  0.7819 -0.5075
 1466TIP3    H225958   2.883   2.917   1.372 -2.0408  0.6794 -2.2734
 1467TIP3   OH225959   3.784   3.639   8.069 -0.3272  0.1687  0.1407
 1467TIP3    H125960   3.724   3.710   8.048 -0.9519 -0.4848 -0.3475
 1467TIP3    H225961   3.798   3.594   7.986  0.7481  0.2365  0.2777
 1468TIP3   OH225962   0.378   1.329   2.203  0.1366  0.2858  0.2274
 1468TIP3    H125963   0.308   1.304   2.263 -0.0799  1.0615  0.3110
 1468TIP3    H225964   0.336   1.389   2.141  0.2564 -0.8108 -0.9514
 1469TIP3   OH225965   5.637   6.595   8.559  0.3310 -0.5643  0.0678
 1469TIP3    H125966   5.694   6.655   8.510  1.0855 -0.8525  0.5815
 1469TIP3    H225967   5.633   6.632   8.647 -2.1798  0.7514 -0.4942
 1470TIP3   OH225968   5.063   3.188   0.980 -0.3281 -0.1477 -0.4909
 1470TIP3    H125969   5.084   3.280   0.996 -2.0525  0.0465  1.0006
 1470TIP3    H225970   4.967   3.184   0.985 -0.4933 -1.6056 -3.0984
 1471TIP3   OH225971   5.668   5.194   0.062  0.1346  0.0976 -0.8132
 1471TIP3    H125972   5.753   5.159   0.035  0.7665 -0.2136  1.3667
 1471TIP3    H225973   5.610   5.117   0.064  0.0857  0.1224 -1.2555
 1472TIP3   OH225974   4.874   1.969   8.528  0.1422  0.0306 -0.5866
 1472TIP3    H125975   4.810   1.908   8.564 -2.5747  3.3564  0.7942
 1472TIP3    H225976   4.954   1.952   8.577 -1.5212 -0.1969  2.2407
 1473TIP3   OH225977   4.144   5.546   1.414 -0.0296  0.0222 -0.8720
 1473TIP3    H125978   4.109   5.496   1.488 -2.2952  1.2907 -1.0178
 1473TIP3    H225979   4.215   5.598   1.452 -0.1647 -0.4575  0.0762
 1474TIP3   OH225980   1.283   4.575   6.944 -0.3404 -0.2769  0.4434
 1474TIP3    H125981   1.367   4.534   6.920 -1.2152 -1.8956  0.0471
 1474TIP3    H225982   1.220   4.504   6.942 -1.6322  0.7959  1.3976
 1475TIP3   OH225983   2.842   6.197   1.774 -0.2388  0.5012  0.6464
 1475TIP3    H125984   2.762   6.199   1.723 -0.6412 -1.1213  1.1496
 1475TIP3    H225985   2.888   6.118   1.744  1.1352  1.3633  0.4176
 1476TIP3   OH225986   0.210   3.599   8.373 -0.2538 -0.1551  0.0012
 1476TIP3    H125987   0.225   3.538   8.300  0.1022 -2.0373  1.5674
 1476TIP3    H225988   0.152   3.551   8.433  2.7576 -0.4557  2.9553
 1477TIP3   OH225989   1.267   0.576   2.235  0.1050 -0.0177  0.4319
 1477TIP3    H125990   1.239   0.487   2.212 -0.1746 -0.0818  0.9947
 1477TIP3    H225991   1.305   0.567   2.322  2.8405 -0.1053 -0.6951
 1478TIP3   OH225992   5.465   1.688   1.967 -0.0641  0.1154  0.1948
 1478TIP3    H125993   5.456   1.743   2.046 -0.5761  2.1405 -1.1885
 1478TIP3    H225994   5.465   1.751   1.895 -2.1895 -1.8064 -1.6116
 1479TIP3   OH225995   0.320   6.380   1.350  0.0592  0.6473 -0.2609
 1479TIP3    H125996   0.378   6.455   1.361  2.2043 -0.8998 -0.4232
 1479TIP3    H225997   0.249   6.395   1.413  0.6556  2.5421  0.0332
 1480TIP3   OH225998   5.021   1.267   0.702 -0.2017 -0.1862 -0.1149
 1480TIP3    H125999   4.990   1.308   0.621  1.7356 -2.1039 -1.9394
 1480TIP3    H226000   5.086   1.328   0.737 -1.1613  0.7259  0.1327
 1481TIP3   OH226001   6.232   1.418   0.861 -0.0677 -0.0455 -0.2125
 1481TIP3    H126002   6.265   1.386   0.945 -0.7556  1.6213  0.7509
 1481TIP3    H226003   6.283   1.497   0.844  0.2722 -0.5212 -1.5524
 1482TIP3   OH226004   0.521   4.595   7.417  0.3603 -0.0711  0.9805
 1482TIP3    H126005   0.592   4.583   7.480  1.5698  1.7983  0.0640
 1482TIP3    H226006   0.479   4.510   7.412  3.9329 -1.9830 -0.1002
 1483TIP3   OH226007   2.436   0.090   1.890 -0.1314  0.5500 -0.0124
 1483TIP3    H126008   2.517   0.081   1.941 -0.5899  0.5235  0.7196
 1483TIP3    H226009   2.466   0.104   1.800  0.7074 -2.7838 -0.3818
 1484TIP3   OH226010   0.259   3.659   1.474 -0.3191  0.3288 -0.2677
 1484TIP3    H126011   0.293   3.581   1.430 -0.6047  0.9545 -1.6258
 1484TIP3    H226012   0.218   3.710   1.405 -0.3013  1.6113  0.6373
 1485TIP3   OH226013   5.035   6.723   1.519  0.9428  0.4201 -0.0457
 1485TIP3    H126014   5.090   6.646   1.510 -1.4182 -1.3277 -0.6996
 1485TIP3    H226015   5.038   6.765   1.433  1.8672  0.8198  0.1725
 1486TIP3   OH226016   4.705   0.498   0.826 -0.3924 -0.2375 -0.4616
 1486TIP3    H126017   4.680   0.437   0.896 -0.9848  0.7316  0.1868
 1486TIP3    H226018   4.702   0.584   0.867  2.2874  0.1103 -0.8366
 1487TIP3   OH226019   6.606   2.572   0.068 -0.0432  0.3975 -0.0442
 1487TIP3    H126020   6.544   2.548   0.136  1.1792  0.8096  1.2536
 1487TIP3    H226021   6.660   2.494   0.055 -0.7533  0.0516 -1.1457
 1488TIP3   OH226022   0.223   0.309   0.914  0.0026  0.3067 -0.5944
 1488TIP3    H126023   0.314   0.281   0.926  0.2785  1.6846  0.9140
 1488TIP3    H226024   0.171   0.234   0.944  0.6476 -0.2664 -0.8738
 1489TIP3   OH226025   3.994   0.728   8.258 -0.7142 -0.0735 -0.1863
 1489TIP3    H126026   4.046   0.806   8.276 -1.3396  0.3767 -0.2887
 1489TIP3    H226027   4.038   0.686   8.184  0.2890 -0.4526  0.6047
 1490TIP3   OH226028   2.262   4.386   7.532 -0.3529  0.0518 -0.4858
 1490TIP3    H126029   2.199   4.315   7.544 -0.1337  0.0350  0.7665
 1490TIP3    H226030   2.300   4.371   7.446 -0.4902 -1.2100 -0.3407
 1491TIP3   OH226031   1.134   4.300   2.428 -0.1803  0.0223  0.0475
 1491TIP3    H126032   1.074   4.347   2.485 -0.7693 -1.0078  0.2929
 1491TIP3    H226033   1.111   4.329   2.340 -0.8916 -0.1969  0.1581
 1492TIP3   OH226034   5.031   6.483   0.938 -0.0880  0.2367  0.2884
 1492TIP3    H126035   5.056   6.394   0.963  0.5282  0.8767  2.1056
 1492TIP3    H226036   4.935   6.484   0.946 -0.2127 -0.5702 -0.9035
 1493TIP3   OH226037   2.570   0.933   0.992 -0.0722  0.6878 -0.5443
 1493TIP3    H126038   2.608   0.966   1.073 -2.9972  0.7070  0.9695
 1493TIP3    H226039   2.596   0.841   0.989  0.9854  0.9600 -0.2138
 1494TIP3   OH226040   6.815   5.513   0.992  0.3089 -0.4300  0.3961
 1494TIP3    H126041   6.903   5.476   0.984  1.3983  1.7140  1.7088
 1494TIP3    H226042   6.799   5.556   0.908  1.8163  1.6941  1.1136
 1495TIP3   OH226043   4.253   4.756   8.359  0.1046 -0.3067 -0.3854
 1495TIP3    H126044   4.227   4.697   8.429 -2.4270 -2.6191 -3.0219
 1495TIP3    H226045   4.186   4.824   8.358  0.4802  0.0690 -0.1822
 1496TIP3   OH226046   3.747   2.798   7.526  0.1909  0.2215  0.0305
 1496TIP3    H126047   3.753   2.860   7.454  2.6582  0.4693  0.3689
 1496TIP3    H226048   3.835   2.762   7.534 -0.2153 -0.4156  2.3824
 1497TIP3   OH226049   4.519   2.907   1.006 -0.1474 -0.6596  0.0695
 1497TIP3    H126050   4.533   2.932   0.915  1.0262  1.4391  0.7546
 1497TIP3    H226051   4.498   2.989   1.051  0.0153 -1.5166  1.8137
 1498TIP3   OH226052   4.560   0.646   2.093 -0.1825 -0.4764  0.4275
 1498TIP3    H126053   4.524   0.735   2.090  1.2077  0.0935 -0.5078
 1498TIP3    H226054   4.600   0.639   2.180 -0.8150 -0.4057  0.7260
 1499TIP3   OH226055   2.415   4.209   1.651 -0.0937 -0.6720 -0.4832
 1499TIP3    H126056   2.478   4.141   1.676  1.2089 -0.2978 -2.4474
 1499TIP3    H226057   2.341   4.160   1.615  0.6949 -1.1196 -1.5769
 1500TIP3   OH226058   0.827   5.826   0.577  0.2274 -0.3368 -0.5945
 1500TIP3    H126059   0.773   5.813   0.656 -1.5222  1.3277 -1.4308
 1500TIP3    H226060   0.908   5.865   0.609  0.2755 -1.3063  0.5319
 1501TIP3   OH226061   3.795   3.079   1.806  0.3751 -0.0750  0.3186
 1501TIP3    H126062   3.771   3.034   1.725  0.1327  0.1106  0.2854
 1501TIP3    H226063   3.871   3.133   1.782 -1.3327  2.1517 -0.5391
 1502TIP3   OH226064   3.659   1.302   2.497  0.4240 -0.1346  0.6218
 1502TIP3    H126065   3.616   1.286   2.581  2.9351  1.8806  2.4646
 1502TIP3    H226066   3.624   1.386   2.467  0.1565 -0.4349  0.0795
 1503TIP3   OH226067   3.512   1.943   7.906  0.0501  0.4041 -0.0786
 1503TIP3    H126068   3.486   1.904   7.822 -2.2726  1.7932 -0.0835
 1503TIP3    H226069   3.607   1.953   7.899  0.2075 -1.5616 -1.6146
 1504TIP3   OH226070   2.167   5.805   0.757 -0.4253 -0.3298 -0.1429
 1504TIP3    H126071   2.216   5.788   0.838 -0.3572 -0.8480 -0.2870
 1504TIP3    H226072   2.078   5.777   0.778 -0.3774 -0.5973 -0.2876
 1505TIP3   OH226073   0.259   1.202   0.094  0.1052  0.0475  0.0380
 1505TIP3    H126074   0.314   1.228   0.020  1.1928  0.8694  1.0939
 1505TIP3    H226075   0.171   1.229   0.069  0.2492 -0.7375 -1.4333
 1506TIP3   OH226076   1.664   3.057   8.004  0.2581 -0.7091 -0.9069
 1506TIP3    H126077   1.726   3.063   8.077  0.3101 -0.3343 -0.9821
 1506TIP3    H226078   1.591   3.006   8.039 -1.0224  1.7570  0.3351
 1507TIP3   OH226079   4.866   0.546   0.612 -0.1212 -0.3098  0.1263
 1507TIP3    H126080   4.825   0.504   0.537  1.5566 -0.3604 -0.8170
 1507TIP3    H226081   4.812   0.521   0.687 -0.8758 -1.6423 -0.8313
 1508TIP3   OH226082   0.803   0.656   1.642  0.0391 -0.3526 -0.2790
 1508TIP3    H126083   0.753   0.616   1.714 -0.0559  1.1013  0.4982
 1508TIP3    H226084   0.736   0.682   1.579 -0.2481  1.5973  0.7634
 1509TIP3   OH226085   2.096   2.538   1.339 -0.0391 -0.3060  0.3522
 1509TIP3    H126086   2.017   2.591   1.338  0.1014 -0.0951  0.4334
 1509TIP3    H226087   2.069   2.457   1.382 -0.3221 -0.4136 -0.0199
 1510TIP3   OH226088   2.714   5.770   1.886  0.0476 -0.5218 -0.3012
 1510TIP3    H126089   2.724   5.753   1.980  1.1219  2.4521  0.2323
 1510TIP3    H226090   2.633   5.821   1.880  1.3730  1.6913 -0.5198
 1511TIP3   OH226091   6.391   4.656   2.453  0.4012  0.3987 -0.2137
 1511TIP3    H126092   6.425   4.567   2.443 -1.5233 -0.4495  0.3098
 1511TIP3    H226093   6.458   4.702   2.504  1.6576 -0.5857 -0.9232
 1512TIP3   OH226094   2.082   5.017   1.298  0.1883  0.0332  0.0483
 1512TIP3    H126095   2.171   4.987   1.321 -0.3495 -1.7721 -0.0523
 1512TIP3    H226096   2.092   5.061   1.214  0.8756 -0.8986 -0.3727
 1513TIP3   OH226097   4.734   1.812   1.022  0.0291 -0.1087  0.1537
 1513TIP3    H126098   4.699   1.822   1.111 -0.5066 -0.6518  0.0084
 1513TIP3    H226099   4.663   1.842   0.965 -0.1356 -1.0194 -0.1357
 1514TIP3   OH226100   1.039   1.844   0.100 -0.3023  0.0732 -0.2250
 1514TIP3    H126101   0.996   1.759   0.089  0.6206 -0.4888  0.3199
 1514TIP3    H226102   1.049   1.878   0.011 -1.7971  0.1994 -0.3635
 1515TIP3   OH226103   0.418   2.481   2.451  0.4174 -0.3294 -0.6435
 1515TIP3    H126104   0.459   2.470   2.365  0.3622  0.2331 -0.7401
 1515TIP3    H226105   0.335   2.526   2.434  0.3915 -0.2393 -0.3001
 1516TIP3   OH226106   6.234   6.352   3.028 -0.4165  0.1198 -0.0355
 1516TIP3    H126107   6.291   6.417   2.986  0.8772 -0.5298  0.6552
 1516TIP3    H226108   6.156   6.349   2.973  1.0099 -0.3649 -2.1287
 1517TIP3   OH226109   3.688   1.360   7.162  0.4490  0.0312 -0.4367
 1517TIP3    H126110   3.632   1.421   7.114  1.3557 -0.6522 -2.4837
 1517TIP3    H226111   3.776   1.375   7.128  1.0641 -0.8307  0.6884
 1518TIP3   OH226112   1.327   6.709   1.195  0.0566  0.2649  0.0312
 1518TIP3    H126113   1.274   6.641   1.153 -0.5726 -0.3586  1.7502
 1518TIP3    H226114   1.262   6.772   1.227  0.5261  0.7582  0.0195
 1519TIP3   OH226115   3.072   0.032   6.981 -0.2376 -0.6118 -0.2496
 1519TIP3    H126116   3.088   0.031   6.887 -1.2273 -1.8576 -0.4299
 1519TIP3    H226117   3.139  -0.026   7.017  0.2548  0.0069 -0.1524
 1520TIP3   OH226118   2.212   0.888   7.925 -0.5654 -0.3457  0.0576
 1520TIP3    H126119   2.133   0.835   7.936 -0.4452 -0.5564 -0.0774
 1520TIP3    H226120   2.183   0.964   7.875 -0.7298 -0.3074  0.2099
 1521TIP3   OH226121   6.550   3.811   6.647  0.2494  0.0976 -0.0413
 1521TIP3    H126122   6.635   3.773   6.628  0.7532  1.0342  0.2820
 1521TIP3    H226123   6.569   3.897   6.682 -0.8583  0.6275 -0.6682
 1522TIP3   OH226124   6.653   2.841   1.119 -0.6651 -0.6032 -0.2602
 1522TIP3    H126125   6.567   2.882   1.120 -0.3849 -0.0199  0.4836
 1522TIP3    H226126   6.665   2.809   1.208 -0.0612 -0.5786 -0.3301
 1523TIP3   OH226127   4.378   2.688   0.449  0.4000  0.2377  0.2288
 1523TIP3    H126128   4.290   2.706   0.416  0.3858  0.2651  0.2817
 1523TIP3    H226129   4.430   2.764   0.424  0.8297 -0.5283 -1.3183
 1524TIP3   OH226130   5.867   0.380   2.110  0.3963 -0.0222  0.1684
 1524TIP3    H126131   5.784   0.332   2.110  0.8489 -0.8329 -0.2606
 1524TIP3    H226132   5.929   0.321   2.067  1.4965  0.0670  1.5718
 1525TIP3   OH226133   6.493   0.270   1.839 -0.3184 -0.0454  0.6037
 1525TIP3    H126134   6.460   0.198   1.894  1.6742 -1.5004  0.0154
 1525TIP3    H226135   6.574   0.297   1.882  0.8830 -0.6986 -1.1476
 1526TIP3   OH226136   5.788   6.088   8.409  0.1506 -0.3360  0.0514
 1526TIP3    H126137   5.849   6.061   8.478  0.2279  0.3114  0.2410
 1526TIP3    H226138   5.704   6.050   8.435  0.7748 -2.6909 -1.0832
 1527TIP3   OH226139   0.924   1.669   2.125  0.1318 -0.6072 -0.2645
 1527TIP3    H126140   1.014   1.700   2.111 -0.2917  0.4244 -0.8325
 1527TIP3    H226141   0.934   1.580   2.157  1.3982 -0.2089  0.5393
 1528TIP3   OH226142   5.036   2.551   8.687  0.2532 -0.3665 -0.2025
 1528TIP3    H126143   4.983   2.477   8.715 -0.5942  0.4581  0.4184
 1528TIP3    H226144   5.116   2.545   8.739 -0.6666  0.2895  1.3430
 1529TIP3   OH226145   5.810   2.487   0.541 -0.2603  0.1202  0.1484
 1529TIP3    H126146   5.719   2.503   0.569 -0.1919 -0.3101  0.6431
 1529TIP3    H226147   5.861   2.553   0.586 -0.3586  0.5609 -0.3737
 1530TIP3   OH226148   3.648   5.561   1.018  0.1867 -0.4514  0.2859
 1530TIP3    H126149   3.625   5.652   1.001 -1.8990 -0.1515  3.7780
 1530TIP3    H226150   3.740   5.563   1.043  0.7693  0.2918 -1.7230
 1531TIP3   OH226151   5.432   3.035   8.454  0.6298  0.2625 -0.2760
 1531TIP3    H126152   5.388   3.111   8.492  1.5484  1.3619 -1.3451
 1531TIP3    H226153   5.507   3.071   8.407  1.2144 -1.3336 -0.6366
 1532TIP3   OH226154   2.099   4.657   2.325  0.6080  0.3851 -0.8517
 1532TIP3    H126155   2.127   4.644   2.416  1.2452  0.7128 -0.9959
 1532TIP3    H226156   2.022   4.713   2.331  1.6015  1.7722 -0.5914
 1533TIP3   OH226157   0.161   1.381   8.234 -0.1014 -0.2216 -0.7365
 1533TIP3    H126158   0.073   1.415   8.220 -0.0940  0.5832  0.8664
 1533TIP3    H226159   0.192   1.356   8.147 -1.2909  1.0156 -1.5552
 1534TIP3   OH226160   3.660   2.040   7.086  0.0732 -0.0276 -0.4117
 1534TIP3    H126161   3.670   1.946   7.067  0.4598 -0.2555  0.8292
 1534TIP3    H226162   3.714   2.083   7.020 -0.3214 -0.6661 -1.1646
 1535TIP3   OH226163   1.234   4.693   1.893 -0.3985 -0.2617 -0.1065
 1535TIP3    H126164   1.318   4.713   1.935 -0.4806  0.8069 -0.4091
 1535TIP3    H226165   1.178   4.662   1.964  0.3567 -1.3454  0.0346
 1536TIP3   OH226166   6.717   4.186   7.251  0.5239  0.8060 -0.7682
 1536TIP3    H126167   6.695   4.187   7.158  0.4886  1.7381 -0.7599
 1536TIP3    H226168   6.795   4.131   7.257  0.3551  0.5008 -1.3021
 1537TIP3   OH226169   0.876   1.067   0.195 -0.6245 -0.1852  0.3584
 1537TIP3    H126170   0.951   1.103   0.146  0.3328 -2.9536 -0.4061
 1537TIP3    H226171   0.822   1.144   0.216  1.5051  1.7078 -0.6249
 1538TIP3   OH226172   4.025   6.129   0.577 -0.3783  0.6199  0.1710
 1538TIP3    H126173   3.989   6.040   0.583 -0.3941  0.6922  1.3756
 1538TIP3    H226174   3.970   6.173   0.512 -0.8446 -0.0313  0.1179
 1539TIP3   OH226175   3.297   1.742   1.008 -0.0143  0.0350  0.0140
 1539TIP3    H126176   3.223   1.729   0.950  1.8237 -2.1530 -2.0172
 1539TIP3    H226177   3.351   1.809   0.964  1.1211 -1.2468 -0.6219
 1540TIP3   OH226178   1.961   5.474   8.021  0.0765 -0.4670  0.3114
 1540TIP3    H126179   1.945   5.454   7.929 -1.4569  1.9926 -0.0410
 1540TIP3    H226180   1.973   5.569   8.024 -0.0191 -0.4651  2.6644
 1541TIP3   OH226181   2.702   6.461   2.230  0.0576 -0.0598 -0.1255
 1541TIP3    H126182   2.779   6.473   2.285  1.9581  2.0590 -2.9687
 1541TIP3    H226183   2.732   6.403   2.160 -1.0992  0.3982 -1.0251
 1542TIP3   OH226184   2.569   0.571   8.712 -0.0684  0.1203 -0.0599
 1542TIP3    H126185   2.635   0.606   8.652 -0.5919  1.6358  0.1896
 1542TIP3    H226186   2.572   0.630   8.787  0.7304 -1.8744  1.5389
 1543TIP3   OH226187   6.155   3.040   8.622 -0.3412  0.4011  0.2995
 1543TIP3    H126188   6.199   2.959   8.647  0.6702  1.0677  0.7927
 1543TIP3    H226189   6.227   3.103   8.611 -1.0407  1.0365 -0.8312
 1544TIP3   OH226190   2.004   0.832   0.537  0.2214  0.4204 -0.0457
 1544TIP3    H126191   2.002   0.783   0.619  1.9115 -2.0203 -1.3404
 1544TIP3    H226192   2.097   0.848   0.520  0.1958 -1.6014 -2.7622
 1545TIP3   OH226193   3.218   0.783   2.410 -0.0639  0.0947 -0.1507
 1545TIP3    H126194   3.150   0.824   2.463  0.3698 -1.2756  1.5457
 1545TIP3    H226195   3.171   0.746   2.335 -1.1798 -0.6534  0.8804
 1546TIP3   OH226196   2.953   2.760   0.693  0.0484 -0.5862 -0.1961
 1546TIP3    H126197   2.883   2.720   0.642  0.0869 -0.5699 -0.2613
 1546TIP3    H226198   3.006   2.806   0.629  0.5534 -1.2275 -0.2489
 1547TIP3   OH226199   0.013   2.781   1.989 -0.4345 -0.2512  0.1734
 1547TIP3    H126200   0.020   2.803   2.082  0.0308  0.9538 -0.1343
 1547TIP3    H226201  -0.051   2.844   1.954  1.5686  1.2955 -0.9020
 1548TIP3   OH226202   6.575   6.111   0.831  0.0759 -0.9378  0.0262
 1548TIP3    H126203   6.584   6.156   0.747  0.0186 -1.8778 -0.4944
 1548TIP3    H226204   6.482   6.089   0.836  0.6769 -4.6447 -1.7060
 1549TIP3   OH226205   3.500   4.844   0.412 -0.3117 -0.5193 -0.5180
 1549TIP3    H126206   3.538   4.760   0.439 -1.5965 -0.3917  1.9748
 1549TIP3    H226207   3.434   4.863   0.478 -0.0281  2.5163 -0.9439
 1550TIP3   OH226208   1.045   5.876   1.380  0.5820 -0.3967  0.5711
 1550TIP3    H126209   0.965   5.832   1.350  0.6426 -1.3680  1.7794
 1550TIP3    H226210   1.021   5.969   1.384 -1.1388 -0.8634  2.8238
 1551TIP3   OH226211   1.524   1.049   8.486 -0.3763 -0.5385  0.4719
 1551TIP3    H126212   1.586   0.980   8.463 -0.7802 -0.6919 -0.1831
 1551TIP3    H226213   1.454   1.041   8.421 -0.6528  0.1942  0.6696
 1552TIP3   OH226214   4.745   4.290   0.628  0.6930 -0.2177  0.0303
 1552TIP3    H126215   4.650   4.281   0.621  0.7153 -0.6528  0.2421
 1552TIP3    H226216   4.760   4.327   0.715  0.7320 -0.5192  0.1566
 1553TIP3   OH226217   4.163   2.804   7.818 -0.9469  0.4765  0.2965
 1553TIP3    H126218   4.164   2.768   7.729 -0.9727  0.1617  0.4231
 1553TIP3    H226219   4.236   2.761   7.862  0.0783  1.8299 -0.0411
 1554TIP3   OH226220   4.578   1.081   7.595  0.2934 -0.3344 -0.1470
 1554TIP3    H126221   4.637   1.082   7.670  0.2870 -0.1242 -0.1455
 1554TIP3    H226222   4.544   1.171   7.589  0.0211 -0.4371 -0.1828
 1555TIP3   OH226223   4.767   5.955   0.493  0.3131  0.3550 -0.1560
 1555TIP3    H126224   4.812   5.870   0.499  0.5079  0.2705 -2.1714
 1555TIP3    H226225   4.804   5.996   0.415 -1.5126  1.2771 -0.5785
 1556TIP3   OH226226   3.705   1.662   0.985 -0.5256 -0.2939 -0.3388
 1556TIP3    H126227   3.697   1.608   1.063 -0.7610 -1.4945 -1.1678
 1556TIP3    H226228   3.619   1.660   0.944 -0.1773 -0.4272 -1.0955
 1557TIP3   OH226229   0.630   0.599   2.514  0.8506 -0.5285 -0.3260
 1557TIP3    H126230   0.620   0.675   2.570 -0.4403 -1.5152  0.8683
 1557TIP3    H226231   0.672   0.632   2.435 -1.0917  1.7221 -0.5211
 1558TIP3   OH226232   2.482   2.261   1.211  0.3455 -0.7778 -0.3713
 1558TIP3    H126233   2.493   2.190   1.274  0.6386 -0.1855  0.2550
 1558TIP3    H226234   2.388   2.264   1.195  0.1342 -0.2324  0.8711
 1559TIP3   OH226235   0.220   0.275   7.827 -0.0728  0.1747  0.5209
 1559TIP3    H126236   0.162   0.287   7.902 -1.4872  1.9146 -0.7331
 1559TIP3    H226237   0.254   0.363   7.809  1.1426 -0.4143 -0.1920
 1560TIP3   OH226238   0.848   2.795   1.798 -0.7173  0.3286  0.6473
 1560TIP3    H126239   0.849   2.717   1.743 -0.4646  1.0006 -0.3228
 1560TIP3    H226240   0.937   2.831   1.790 -1.0502  1.1342  0.4570
 1561TIP3   OH226241   5.571   5.750   8.746 -0.3828 -0.0292  0.6726
 1561TIP3    H126242   5.611   5.670   8.712 -1.3262 -1.0823  1.9322
 1561TIP3    H226243   5.480   5.726   8.762 -0.4163  0.9563  2.1521
 1562TIP3   OH226244   0.348   1.504   0.861 -0.0617 -0.4353 -0.1267
 1562TIP3    H126245   0.362   1.492   0.767  2.1891  0.1355  0.0720
 1562TIP3    H226246   0.312   1.592   0.869 -0.0933 -0.4186 -0.4321
 1563TIP3   OH226247   4.643   3.740   1.392 -0.1765  0.2887 -0.0057
 1563TIP3    H126248   4.647   3.688   1.312 -0.3763  0.8033 -0.3583
 1563TIP3    H226249   4.728   3.786   1.394 -0.7736  1.4854 -0.7725
 1564TIP3   OH226250   5.622   6.236   1.914  0.4767 -0.6976 -0.1878
 1564TIP3    H126251   5.641   6.252   1.822  2.0119 -1.7303 -0.0740
 1564TIP3    H226252   5.683   6.293   1.961 -2.0055  1.7998  0.2781
 1565TIP3   OH226253   0.803   5.717   7.838  0.0955 -0.6348 -0.1743
 1565TIP3    H126254   0.789   5.636   7.886  5.2081 -0.5201  2.2415
 1565TIP3    H226255   0.804   5.691   7.746  1.0554 -3.2552  0.4936
 1566TIP3   OH226256   5.605   3.768   0.353 -0.4072  0.8214 -0.4107
 1566TIP3    H126257   5.639   3.823   0.283 -0.8955  1.3898 -0.2167
 1566TIP3    H226258   5.653   3.796   0.431  1.5955 -1.1911 -0.8274
 1567TIP3   OH226259   3.637   4.481   7.884 -0.0371 -0.0849  0.6233
 1567TIP3    H126260   3.633   4.457   7.791  1.4699 -0.6908  0.6841
 1567TIP3    H226261   3.728   4.506   7.898 -0.1718 -0.3083  2.0122
 1568TIP3   OH226262   3.693   6.347   1.436 -0.2202 -0.1174 -0.1732
 1568TIP3    H126263   3.703   6.321   1.528 -0.4498  1.0531  0.1948
 1568TIP3    H226264   3.782   6.368   1.408 -0.3104  0.7408  0.1635
 1569TIP3   OH226265   1.576   5.122   0.579  0.4387 -0.6454 -0.7349
 1569TIP3    H126266   1.571   5.026   0.579 -0.3239 -0.6141 -1.2819
 1569TIP3    H226267   1.486   5.151   0.594  0.3544 -0.0227 -2.2156
 1570TIP3   OH226268   1.635   2.088   1.148 -0.0158  0.4971 -0.2993
 1570TIP3    H126269   1.584   2.008   1.138 -0.6493  0.9756 -0.9702
 1570TIP3    H226270   1.667   2.108   1.060 -0.8327  1.6096 -0.3615
 1571TIP3   OH226271   1.872   3.459   8.429  0.9605  0.0998 -0.2871
 1571TIP3    H126272   1.932   3.496   8.364  1.1980  3.1496  1.4657
 1571TIP3    H226273   1.928   3.440   8.504  0.5000 -2.2551 -0.4635
 1572TIP3   OH226274   5.635   3.583   2.053 -0.8616 -0.1386 -0.3253
 1572TIP3    H126275   5.677   3.527   1.988  0.1937  0.2784 -0.0257
 1572TIP3    H226276   5.560   3.621   2.007 -0.6368 -0.5244 -1.0278
 1573TIP3   OH226277   2.221   6.678   1.027  0.0842  0.5987  0.1699
 1573TIP3    H126278   2.140   6.664   1.076 -0.7001  1.7583 -0.7556
 1573TIP3    H226279   2.237   6.594   0.983  0.9343 -0.5614  2.4895
 1574TIP3   OH226280   0.202   1.165   8.027  0.1716  0.6398 -0.0808
 1574TIP3    H126281   0.293   1.136   8.029 -0.2492 -0.8994 -1.1333
 1574TIP3    H226282   0.154   1.090   7.992 -1.0210  2.5735 -2.9736
 1575TIP3   OH226283   1.313   3.418   7.671  0.6354  0.2493  0.5650
 1575TIP3    H126284   1.384   3.450   7.615  0.6111  0.2962  0.5602
 1575TIP3    H226285   1.357   3.364   7.737  0.4707 -1.4695 -0.6744
 1576TIP3   OH226286   3.332   1.794   1.283  0.0162  0.0731 -0.0865
 1576TIP3    H126287   3.306   1.793   1.191 -0.7844  2.2041  0.0547
 1576TIP3    H226288   3.251   1.777   1.331  0.2298 -0.0050  0.2480
 1577TIP3   OH226289   6.462   6.154   8.271  0.0008 -0.6351  0.0706
 1577TIP3    H126290   6.531   6.171   8.206 -0.7012  0.4581 -0.4192
 1577TIP3    H226291   6.450   6.059   8.268  1.5185 -0.8673  0.2241
 1578TIP3   OH226292   5.816   2.834   8.082 -0.1921  0.0258  0.0447
 1578TIP3    H126293   5.844   2.787   8.003  0.4977  1.4676 -0.5937
 1578TIP3    H226294   5.891   2.828   8.142 -1.2351 -2.3501  1.2589
 1579TIP3   OH226295   4.342   5.813   8.377  0.1775  0.0401 -0.1127
 1579TIP3    H126296   4.363   5.837   8.287 -0.8051 -0.0044 -0.3709
 1579TIP3    H226297   4.320   5.720   8.373 -0.5419  0.1942  0.0352
 1580TIP3   OH226298   0.774   3.446   2.137 -0.1456  0.0503 -0.3752
 1580TIP3    H126299   0.706   3.451   2.204  0.0470 -0.9213 -0.0931
 1580TIP3    H226300   0.739   3.387   2.070  1.2199 -2.2818  0.8098
 1581TIP3   OH226301   0.429   5.194   8.525 -0.1246  0.0200 -0.2434
 1581TIP3    H126302   0.506   5.166   8.476 -1.4678 -0.2805 -2.2904
 1581TIP3    H226303   0.356   5.182   8.465 -1.4902  2.7014  0.7122
 1582TIP3   OH226304   4.317   4.413   0.697 -0.0588 -0.2665 -0.0516
 1582TIP3    H126305   4.231   4.436   0.661  0.0551 -0.5574 -0.5184
 1582TIP3    H226306   4.345   4.491   0.744 -0.7089 -0.2652  0.3538
 1583TIP3   OH226307   3.037   3.416   7.897 -0.5034 -0.0004 -0.1503
 1583TIP3    H126308   3.113   3.358   7.906  0.5154  1.2554 -0.3914
 1583TIP3    H226309   3.047   3.455   7.810 -1.5171  0.0905 -0.2400
 1584TIP3   OH226310   2.696   1.246   2.280  0.1094  0.6164 -0.8359
 1584TIP3    H126311   2.653   1.164   2.306  1.2298  0.7311  1.7034
 1584TIP3    H226312   2.750   1.221   2.205 -1.9638 -0.1858 -2.1532
 1585TIP3   OH226313   1.057   5.790   1.006 -0.6840 -0.2617  0.1635
 1585TIP3    H126314   0.982   5.840   1.038 -0.3112  0.9082 -0.7221
 1585TIP3    H226315   1.049   5.705   1.049 -2.1815  0.0394  0.5404
 1586TIP3   OH226316   3.973   4.032   2.353  0.1758 -0.5526 -0.0133
 1586TIP3    H126317   4.049   4.015   2.298  1.0463  2.6400  0.0048
 1586TIP3    H226318   3.907   4.066   2.293 -0.3445 -0.8942  0.3519
 1587TIP3   OH226319   1.582   2.704   0.382 -0.5324  0.0391 -0.1640
 1587TIP3    H126320   1.546   2.616   0.383  3.6203 -1.9230 -1.1463
 1587TIP3    H226321   1.582   2.730   0.290  2.5452 -1.1345 -0.6189
 1588TIP3   OH226322   5.934   0.164   1.047 -0.0919  0.4901 -0.4525
 1588TIP3    H126323   5.844   0.131   1.046  0.1442 -0.1964  0.0673
 1588TIP3    H226324   5.935   0.232   0.980 -0.8810  0.1871 -0.7886
 1589TIP3   OH226325   3.007   1.029   0.589  0.1480 -0.4237 -0.2291
 1589TIP3    H126326   3.017   0.934   0.590  0.1015 -0.4283 -0.1508
 1589TIP3    H226327   3.043   1.058   0.673  0.4559 -0.3407 -0.3896
 1590TIP3   OH226328   2.255   2.564   1.106  0.0089 -1.0619  0.2273
 1590TIP3    H126329   2.322   2.622   1.143 -0.8365  0.7787 -0.9719
 1590TIP3    H226330   2.211   2.527   1.183  1.2596 -0.9410  1.0226
 1591TIP3   OH226331   4.591   1.797   1.284 -0.0186  0.0399 -0.1389
 1591TIP3    H126332   4.659   1.838   1.337 -0.7023  0.2192  0.6419
 1591TIP3    H226333   4.568   1.717   1.332 -0.2661 -0.0845 -0.4556
 1592TIP3   OH226334   0.066   0.143   0.081  0.1896  0.2137  0.2199
 1592TIP3    H126335   0.160   0.144   0.103  0.7183 -1.1902 -1.7140
 1592TIP3    H226336   0.057   0.209   0.012  0.5634 -2.0979 -2.1980
 1593TIP3   OH226337   5.744   3.829   2.610 -0.2147 -0.0066 -0.0934
 1593TIP3    H126338   5.737   3.736   2.589 -0.9737  0.0065  0.0639
 1593TIP3    H226339   5.798   3.832   2.689 -0.0648 -0.3022 -0.1850
 1594TIP3   OH226340   0.220   5.546   1.612 -0.1516 -0.1863  0.2225
 1594TIP3    H126341   0.303   5.516   1.574  0.7589 -0.1345  2.0538
 1594TIP3    H226342   0.203   5.629   1.569  1.5330  0.5114  0.8041
 1595TIP3   OH226343   1.531   2.451   0.268 -0.0334 -0.0033 -0.1651
 1595TIP3    H126344   1.585   2.378   0.238 -1.1774 -1.3155  0.8502
 1595TIP3    H226345   1.441   2.418   0.263 -0.4431  0.5058  2.3709
 1596TIP3   OH226346   1.000   5.008   1.036  0.5729 -0.4370 -0.6500
 1596TIP3    H126347   0.924   4.960   1.005 -0.5078  0.6880  0.1557
 1596TIP3    H226348   0.964   5.079   1.089  2.2108 -0.3221  0.3950
 1597TIP3   OH226349   2.745   0.858   7.950 -0.3743 -0.3989  0.8433
 1597TIP3    H126350   2.723   0.937   7.901  0.7430  0.9685  2.4338
 1597TIP3    H226351   2.836   0.871   7.978  1.3525 -4.0682 -2.1635
 1598TIP3   OH226352   5.160   5.156   8.292 -0.0093 -0.0803  0.0207
 1598TIP3    H126353   5.222   5.203   8.235  1.0643  0.3481  1.4833
 1598TIP3    H226354   5.076   5.163   8.247  0.9890 -0.8064 -2.1299
 1599TIP3   OH226355   5.613   1.098   1.031 -0.6375  0.0641 -0.6308
 1599TIP3    H126356   5.575   1.126   1.114  1.2767 -1.0383  0.6852
 1599TIP3    H226357   5.672   1.170   1.007 -1.3970  0.5077 -1.2096
 1600TIP3   OH226358   6.538   0.069   7.915 -0.6211  0.5136  0.1757
 1600TIP3    H126359   6.505   0.142   7.968  2.4495  1.3437  1.1455
 1600TIP3    H226360   6.625   0.098   7.887 -0.7002 -1.4196 -2.3359
 1601TIP3   OH226361   2.025   1.011   7.481 -0.0396 -0.7334  0.1064
 1601TIP3    H126362   2.016   1.053   7.395 -0.4381 -1.6129 -0.2945
 1601TIP3    H226363   2.086   0.939   7.466  3.2570  1.5603  1.4875
 1602TIP3   OH226364   0.681   6.283   2.104 -0.2584 -0.4525 -0.1883
 1602TIP3    H126365   0.654   6.375   2.103 -0.2901 -0.4497 -1.4050
 1602TIP3    H226366   0.601   6.235   2.123 -0.2668 -0.2350  0.3343
 1603TIP3   OH226367   5.252   0.243   8.205  0.0152  0.3460 -0.3312
 1603TIP3    H126368   5.306   0.279   8.135 -1.8686  1.1461 -1.4415
 1603TIP3    H226369   5.270   0.149   8.204  2.0362  0.6877 -0.0372
 1604TIP3   OH226370   4.175   2.244   2.476  0.4876 -0.0251  0.0255
 1604TIP3    H126371   4.222   2.183   2.533  0.3781  1.2691  1.5616
 1604TIP3    H226372   4.084   2.216   2.481  0.1372  1.1939  2.1382
 1605TIP3   OH226373   3.495   5.827   7.876 -0.5413 -0.4950  0.3244
 1605TIP3    H126374   3.577   5.865   7.843 -0.2833  0.2507  1.7261
 1605TIP3    H226375   3.518   5.736   7.896 -0.6490 -0.8975 -1.2747
 1606TIP3   OH226376   1.285   3.509   3.150  0.0986 -0.1348  0.2597
 1606TIP3    H126377   1.296   3.604   3.139 -2.3402  0.4100  1.6740
 1606TIP3    H226378   1.369   3.472   3.124  0.5967  2.2526 -1.9697
 1607TIP3   OH226379   0.322   4.648   7.221  0.6369  0.0191  0.3529
 1607TIP3    H126380   0.351   4.593   7.148 -0.9921 -1.3735  0.7063
 1607TIP3    H226381   0.397   4.648   7.281  0.5104 -2.3985  0.6392
 1608TIP3   OH226382   1.663   4.297   8.289  0.1529  0.2967  0.7555
 1608TIP3    H126383   1.593   4.306   8.225  0.6417  1.7669  0.3817
 1608TIP3    H226384   1.669   4.203   8.305 -0.8410  0.0116 -0.3959
 1609TIP3   OH226385   3.066   6.306   1.908  0.2932 -0.1439 -0.1950
 1609TIP3    H126386   2.979   6.300   1.868 -1.6286  0.2831  3.4902
 1609TIP3    H226387   3.082   6.219   1.943 -0.6294  0.6797  2.5709
 1610TIP3   OH226388   3.935   6.808   0.918  0.3729  0.3966  0.3366
 1610TIP3    H126389   4.013   6.865   0.916  0.6966 -0.0657 -0.9613
 1610TIP3    H226390   3.924   6.780   0.827 -2.0499  1.4223  0.2512
 1611TIP3   OH226391   1.283   5.333   0.313 -0.6105 -0.0775 -0.4372
 1611TIP3    H126392   1.246   5.335   0.225  0.0688 -1.4166 -0.7740
 1611TIP3    H226393   1.367   5.379   0.305 -0.8251  0.3386 -0.3399
 1612TIP3   OH226394   4.932   4.447   0.498  0.0712 -0.2351 -0.3976
 1612TIP3    H126395   4.976   4.401   0.426 -1.4646 -0.9680 -0.9182
 1612TIP3    H226396   4.864   4.387   0.527  0.5763  0.0956  1.6471
 1613TIP3   OH226397   5.486   2.834   7.976  0.0285 -0.2233 -0.3447
 1613TIP3    H126398   5.418   2.840   7.909  1.3458  2.4027 -1.6216
 1613TIP3    H226399   5.447   2.875   8.053 -0.9480 -1.8335  0.0674
 1614TIP3   OH226400   2.035   0.932   1.355 -0.4852  0.3620 -0.6521
 1614TIP3    H126401   2.104   0.958   1.416 -1.4630  2.0100 -0.1949
 1614TIP3    H226402   1.978   0.875   1.406  0.0095 -0.2451 -0.7613
 1615TIP3   OH226403   2.589   4.021   0.720  0.1673  0.2584  0.4948
 1615TIP3    H126404   2.501   3.994   0.746  0.3051  0.4773  1.2016
 1615TIP3    H226405   2.640   3.940   0.725 -0.1953 -0.0821 -0.8821
 1616TIP3   OH226406   4.022   2.671   0.763  0.1728  0.0225 -0.2237
 1616TIP3    H126407   3.988   2.618   0.835 -0.7541  0.9470  0.0459
 1616TIP3    H226408   4.109   2.636   0.747  0.9717  0.6405  2.2569
 1617TIP3   OH226409   3.600   4.223   0.162 -0.7011 -0.4096 -0.1859
 1617TIP3    H126410   3.662   4.245   0.092  1.5352  0.2179  1.8573
 1617TIP3    H226411   3.514   4.239   0.124  0.4341  0.3755 -2.6201
 1618TIP3   OH226412   0.301   4.830   8.284  0.1392 -0.0444 -0.1137
 1618TIP3    H126413   0.209   4.836   8.259 -0.1915  1.3396  1.3099
 1618TIP3    H226414   0.301   4.775   8.363  0.3887  0.8595  0.5268
 1619TIP3   OH226415   0.680   4.747   8.485 -0.0194 -0.1593 -0.2408
 1619TIP3    H126416   0.706   4.810   8.418 -0.0341 -1.5868 -1.6761
 1619TIP3    H226417   0.651   4.671   8.435  1.8465 -2.0671  1.3846
 1620TIP3   OH226418   6.336   5.306   2.234 -0.0767  0.8571  0.1155
 1620TIP3    H126419   6.378   5.374   2.183  1.2106  0.0623  0.0690
 1620TIP3    H226420   6.363   5.224   2.192  1.3041  0.1594  2.2149
 1621TIP3   OH226421   0.327   4.496   1.846 -0.2254  0.6335  0.2453
 1621TIP3    H126422   0.317   4.485   1.752  2.0252  0.1930  0.0020
 1621TIP3    H226423   0.272   4.428   1.885 -0.5215  0.2867 -0.7676
 1622TIP3   OH226424   2.064   1.142   8.508  0.2233 -0.2368  0.0614
 1622TIP3    H126425   2.075   1.188   8.425 -0.3174  0.4657  0.3672
 1622TIP3    H226426   2.071   1.049   8.485 -0.0782 -0.0567 -0.7960
 1623TIP3   OH226427   0.443   3.954   7.811 -0.5862  0.4108  0.2150
 1623TIP3    H126428   0.390   3.893   7.863  0.5054  1.4485  2.6936
 1623TIP3    H226429   0.383   4.027   7.792 -0.9949  0.0265  0.0010
 1624TIP3   OH226430   4.865   3.510   1.671  0.0453  0.1430 -0.1740
 1624TIP3    H126431   4.849   3.536   1.762  0.4375  2.5227 -0.7175
 1624TIP3    H226432   4.807   3.436   1.657 -0.9086  0.4764  1.6700
 1625TIP3   OH226433   5.497   2.228   0.074 -0.1047 -0.0059 -0.0370
 1625TIP3    H126434   5.518   2.226   0.167 -0.0673  2.6811  0.1012
 1625TIP3    H226435   5.428   2.294   0.067  0.0373 -0.0166 -1.9342
 1626TIP3   OH226436   3.182   2.555   8.699 -0.3624 -0.2921 -0.0532
 1626TIP3    H126437   3.193   2.650   8.688 -0.4371 -0.1458  1.0286
 1626TIP3    H226438   3.272   2.522   8.706 -0.3287 -0.3357 -0.6416
 1627TIP3   OH226439   2.195   5.047   0.500 -0.6150 -0.2803 -0.2858
 1627TIP3    H126440   2.277   5.002   0.478 -0.5098 -0.3412  0.2346
 1627TIP3    H226441   2.221   5.119   0.558 -1.0096 -0.7420  0.4791
 1628TIP3   OH226442   2.167   3.500   7.465 -0.4824  0.5796  0.5940
 1628TIP3    H126443   2.247   3.550   7.447 -0.1558  0.0034  0.4355
 1628TIP3    H226444   2.096   3.556   7.432 -0.1241  0.9670  0.4748
 1629TIP3   OH226445   4.474   6.599   8.429 -0.1608 -0.2326  0.0900
 1629TIP3    H126446   4.526   6.672   8.397 -0.4680 -0.7783 -1.7799
 1629TIP3    H226447   4.536   6.544   8.476  1.0060 -0.8362 -2.0221
 1630TIP3   OH226448   0.467   0.191   8.365 -0.2830  0.3945  0.4140
 1630TIP3    H126449   0.446   0.098   8.372 -0.3962  0.4895  1.4564
 1630TIP3    H226450   0.477   0.206   8.271  0.4306 -0.8198  0.2709
 1631TIP3   OH226451   4.425   2.272   0.390 -0.4090  0.2885  0.2674
 1631TIP3    H126452   4.510   2.268   0.345 -0.9542  0.6651 -0.8485
 1631TIP3    H226453   4.379   2.194   0.360 -0.1456 -0.3899  1.5697
 1632TIP3   OH226454   2.163   2.413   0.677 -1.2485 -0.3737 -0.9759
 1632TIP3    H126455   2.185   2.394   0.769 -1.2777  1.3153 -0.5971
 1632TIP3    H226456   2.248   2.418   0.633 -1.0418  1.4643 -0.4613
 1633TIP3   OH226457   1.930   2.600   2.352  0.1033 -0.0544 -0.4664
 1633TIP3    H126458   1.854   2.631   2.301 -1.0767 -2.4328 -0.2880
 1633TIP3    H226459   1.894   2.584   2.439  1.3723  0.9045  0.2542
 1634TIP3   OH226460   5.111   3.258   8.588  0.0546 -0.3390  0.5552
 1634TIP3    H126461   5.124   3.349   8.561  0.7887 -0.1607  1.4459
 1634TIP3    H226462   5.151   3.206   8.518  0.0283  0.0399  0.2556
 1635TIP3   OH226463   6.810   5.068   0.511  0.5689  0.0005 -0.0221
 1635TIP3    H126464   6.777   5.158   0.518 -1.3106 -0.4077 -2.1939
 1635TIP3    H226465   6.902   5.078   0.486 -0.0239  1.4086 -1.8757
 1636TIP3   OH226466   1.092   1.098   8.269 -0.1458 -0.2444  0.4622
 1636TIP3    H126467   1.139   1.177   8.297 -0.0044 -0.7749  1.8064
 1636TIP3    H226468   1.088   1.105   8.174  0.8945  0.8054  0.4678
 1637TIP3   OH226469   3.732   1.452   2.790 -0.0961 -0.4822 -0.6216
 1637TIP3    H126470   3.679   1.381   2.754 -1.5379  0.9260 -1.3972
 1637TIP3    H226471   3.681   1.484   2.865 -0.8937  1.5011 -1.9311
 1638TIP3   OH226472   5.758   5.726   2.836 -0.0335 -0.0131  0.1537
 1638TIP3    H126473   5.789   5.680   2.913 -0.7962  0.9144  1.0404
 1638TIP3    H226474   5.673   5.685   2.816  0.6352 -0.9708 -0.8640
 1639TIP3   OH226475   4.667   5.050   0.472 -0.0436  0.1370 -0.6291
 1639TIP3    H126476   4.572   5.045   0.465 -0.1237  0.0282  0.4267
 1639TIP3    H226477   4.684   5.129   0.523  0.3823 -0.3213 -0.0406
 1640TIP3   OH226478   3.622   2.995   1.609  0.4792 -0.2174  0.2560
 1640TIP3    H126479   3.599   2.986   1.516 -0.4382  0.4286  0.4027
 1640TIP3    H226480   3.604   2.910   1.647  0.3325 -0.3295 -0.0608
 1641TIP3   OH226481   4.412   2.968   8.084 -0.5777  0.6752  0.5692
 1641TIP3    H126482   4.321   2.982   8.107 -0.1251  0.2534  2.8095
 1641TIP3    H226483   4.461   3.034   8.133  0.4487 -0.2433  0.8432
 1642TIP3   OH226484   2.870   5.260   8.339 -0.3149 -0.4169  0.2965
 1642TIP3    H126485   2.858   5.327   8.407 -1.9556  0.0235 -0.3675
 1642TIP3    H226486   2.876   5.309   8.258  1.2563 -0.9642  0.0432
 1643TIP3   OH226487   3.100   1.946   7.628  0.3685 -0.3404  1.2252
 1643TIP3    H126488   3.135   1.858   7.643  3.3610  0.0522 -2.1770
 1643TIP3    H226489   3.039   1.935   7.556  1.0706  0.3755  0.5041
 1644TIP3   OH226490   5.367   0.077   1.415  0.7294 -0.5535 -0.4868
 1644TIP3    H126491   5.318  -0.005   1.410 -0.2188 -0.0834  0.5886
 1644TIP3    H226492   5.373   0.096   1.509  0.3326  0.9341 -0.7270
 1645TIP3   OH226493   0.562   1.747   1.664  0.1239  0.4923 -0.2374
 1645TIP3    H126494   0.594   1.689   1.732 -0.1756 -0.6825 -1.0597
 1645TIP3    H226495   0.636   1.757   1.604 -0.0373  0.3611 -0.4655
 1646TIP3   OH226496   2.188   3.041   8.305 -0.1585 -0.4053  0.5959
 1646TIP3    H126497   2.251   3.021   8.235 -1.7490 -0.2201 -0.9591
 1646TIP3    H226498   2.232   3.106   8.359  1.1535 -0.6066 -0.1755
 1647TIP3   OH226499   2.659   0.172   8.462  0.0311 -0.6631 -0.2091
 1647TIP3    H126500   2.619   0.086   8.477 -1.0880 -0.1323 -0.1000
 1647TIP3    H226501   2.706   0.191   8.543  0.1823 -1.1079 -0.1893
 1648TIP3   OH226502   5.051   2.845   0.597 -0.2350 -0.0323  0.3264
 1648TIP3    H126503   5.076   2.799   0.517 -0.6337  0.2571  0.0269
 1648TIP3    H226504   5.053   2.778   0.665 -0.7100 -0.4808 -0.0850
 1649TIP3   OH226505   6.523   0.252   7.562  0.2498 -0.3475  0.5726
 1649TIP3    H126506   6.485   0.217   7.481  0.1937  1.7785 -0.4002
 1649TIP3    H226507   6.577   0.181   7.596 -0.6040 -1.6835 -0.7346
 1650TIP3   OH226508   4.118   3.228   0.725  1.0899 -0.0474 -0.2600
 1650TIP3    H126509   4.078   3.143   0.707  0.3624  0.6499 -2.1196
 1650TIP3    H226510   4.212   3.214   0.712  0.8675 -0.3188 -1.6901
 1651TIP3   OH226511   5.761   0.858   7.721 -0.2577  0.8352 -0.2015
 1651TIP3    H126512   5.673   0.896   7.715 -0.1877  1.2024  0.9389
 1651TIP3    H226513   5.794   0.861   7.631 -0.8649  2.0135 -0.4018
 1652TIP3   OH226514   2.876   2.563   8.608  0.2947  0.3590  0.1676
 1652TIP3    H126515   2.825   2.496   8.652  1.6512 -1.1525 -0.4575
 1652TIP3    H226516   2.956   2.571   8.660 -0.1790  2.1358  0.7118
 1653TIP3   OH226517   3.691   6.278   2.149 -0.2415  0.7063  0.2573
 1653TIP3    H126518   3.658   6.340   2.213 -1.2729 -0.2950  0.7266
 1653TIP3    H226519   3.613   6.247   2.102  0.4143  0.8921 -1.0129
 1654TIP3   OH226520   3.179   4.709   0.388 -0.5569 -0.1044  0.6524
 1654TIP3    H126521   3.216   4.639   0.335 -1.2556  0.0734 -0.0913
 1654TIP3    H226522   3.087   4.711   0.364 -0.3788  1.6984 -0.0744
 1655TIP3   OH226523   2.169   4.601   7.282 -0.1784 -0.0736  0.1684
 1655TIP3    H126524   2.217   4.526   7.316  1.7934  0.2836 -1.6247
 1655TIP3    H226525   2.234   4.671   7.277 -1.1258  0.7654 -1.2852
 1656TIP3   OH226526   5.246   2.551   2.975  0.1709 -0.1234  0.4573
 1656TIP3    H126527   5.226   2.459   2.958 -0.4474  0.4822 -2.6639
 1656TIP3    H226528   5.340   2.558   2.965 -0.0426 -0.0124 -2.1808
 1657TIP3   OH226529   1.253   4.996   1.047 -0.4950  0.0270 -0.1772
 1657TIP3    H126530   1.158   4.989   1.037 -0.6928  1.4109  0.4609
 1657TIP3    H226531   1.276   4.932   1.114 -0.6295 -1.9081 -1.8928
 1658TIP3   OH226532   6.749   0.539   8.306 -0.0699 -0.3246 -0.0237
 1658TIP3    H126533   6.838   0.515   8.281 -0.2695 -0.4220 -0.6611
 1658TIP3    H226534   6.760   0.607   8.373  0.5094 -1.8039  1.4635
 1659TIP3   OH226535   2.273   4.375   1.816  0.1282 -0.0481 -0.0029
 1659TIP3    H126536   2.243   4.425   1.740  0.9808 -0.8508 -0.9037
 1659TIP3    H226537   2.328   4.305   1.778  2.2906  0.7420  1.4545
 1660TIP3   OH226538   2.920   1.568   2.651  0.0467 -0.1007 -0.1170
 1660TIP3    H126539   2.914   1.533   2.740 -2.5516 -0.7070 -0.4478
 1660TIP3    H226540   2.957   1.497   2.600 -1.2218 -0.8706 -0.0122
 1661TIP3   OH226541   2.198   1.671   1.581  0.7651 -0.1744 -0.1467
 1661TIP3    H126542   2.107   1.694   1.563  0.5854 -0.7154  0.0466
 1661TIP3    H226543   2.195   1.579   1.607  1.4299 -0.3542 -0.6555
 1662TIP3   OH226544   0.588   4.190   1.585 -0.1841 -0.8703  0.4247
 1662TIP3    H126545   0.639   4.113   1.610  0.9821 -0.0698  0.6118
 1662TIP3    H226546   0.558   4.227   1.668 -1.6447 -1.6742  0.2946
 1663TIP3   OH226547   2.767   5.242   7.985  0.0326  0.6167  0.4846
 1663TIP3    H126548   2.843   5.192   7.957 -0.1304  0.7641 -0.2645
 1663TIP3    H226549   2.795   5.289   8.063  0.1895 -0.6320  1.1992
 1664TIP3   OH226550   6.305   1.171   1.278 -0.4440  0.3076  0.2918
 1664TIP3    H126551   6.270   1.259   1.266  0.9399  0.5092 -3.9500
 1664TIP3    H226552   6.400   1.183   1.282  0.0570 -0.9697 -3.5323
 1665TIP3   OH226553   5.614   4.353   7.717 -0.1136 -0.1773 -0.5580
 1665TIP3    H126554   5.532   4.321   7.679  0.5563 -0.1681 -2.0666
 1665TIP3    H226555   5.658   4.275   7.750 -0.5562 -0.2228 -0.0607
 1666TIP3   OH226556   2.557   4.316   7.997 -0.0474  0.4702  0.5499
 1666TIP3    H126557   2.625   4.258   8.031 -0.3928  1.4525  3.1752
 1666TIP3    H226558   2.478   4.261   7.995  0.5843 -0.5290 -2.0366
 1667TIP3   OH226559   0.874   1.933   8.029  0.1098 -0.1590 -0.8416
 1667TIP3    H126560   0.879   2.000   7.960  1.5425  0.0425 -0.5709
 1667TIP3    H226561   0.871   1.984   8.110  3.3820 -0.3316 -0.4884
 1668TIP3   OH226562   3.902   1.808   8.347  0.2205 -0.6308 -0.2764
 1668TIP3    H126563   3.815   1.768   8.343 -1.2231  1.9197  2.0671
 1668TIP3    H226564   3.888   1.898   8.318  2.3035 -0.4016 -0.6879
 1669TIP3   OH226565   0.679   2.267   0.305 -0.2434 -0.2504 -0.4217
 1669TIP3    H126566   0.680   2.172   0.294 -1.0186 -0.3490  0.3462
 1669TIP3    H226567   0.641   2.300   0.223  3.8607 -0.2744 -2.6355
 1670TIP3   OH226568   2.095   4.990   7.866  0.5664  0.5006 -0.5118
 1670TIP3    H126569   2.015   5.043   7.853  0.9966  1.2089 -0.3323
 1670TIP3    H226570   2.096   4.973   7.960  1.3654  1.7161 -0.2757
 1671TIP3   OH226571   2.049   2.783   7.323 -0.9962 -0.1150  0.4359
 1671TIP3    H126572   2.020   2.707   7.272 -1.2211 -0.0444  0.4553
 1671TIP3    H226573   2.069   2.850   7.258 -2.7378  0.4897  0.4707
 1672TIP3   OH226574   2.828   3.737   7.410 -0.2703 -0.3677  0.0361
 1672TIP3    H126575   2.755   3.675   7.406  0.1578 -0.8974  0.3997
 1672TIP3    H226576   2.902   3.691   7.370  0.3248 -0.4905  1.2582
 1673TIP3   OH226577   6.176   5.001   1.318 -0.4143  0.6107  0.2399
 1673TIP3    H126578   6.234   5.052   1.375  0.8160 -1.4678  0.9640
 1673TIP3    H226579   6.127   4.945   1.378 -0.8913  0.1294 -0.5814
 1674TIP3   OH226580   1.942   0.895   8.202  0.3796  0.2817 -0.3189
 1674TIP3    H126581   1.943   0.824   8.138 -0.3496  1.6190 -1.8918
 1674TIP3    H226582   2.001   0.866   8.272  1.5264 -1.0416 -1.7828
 1675TIP3   OH226583   5.947   3.688   8.723 -0.4297 -0.2233  0.2978
 1675TIP3    H126584   5.871   3.733   8.687  0.2924 -0.8262 -2.1766
 1675TIP3    H226585   5.946   3.601   8.682  1.0863 -0.5532  0.8875
 1676TIP3   OH226586   0.695   0.376   0.432  0.4571  0.3984 -0.9683
 1676TIP3    H126587   0.726   0.466   0.446  1.1922  0.3047 -1.9067
 1676TIP3    H226588   0.718   0.357   0.341  2.5124 -1.5987 -0.1334
 1677TIP3   OH226589   2.178   5.835   0.492 -0.3346 -0.2485  0.0465
 1677TIP3    H126590   2.188   5.837   0.587 -2.0578  0.4578  0.2570
 1677TIP3    H226591   2.110   5.769   0.476  0.1260 -0.5554 -0.7344
 1678TIP3   OH226592   5.784   5.068   8.613 -0.2030 -0.5147  0.1236
 1678TIP3    H126593   5.871   5.054   8.648  0.5172  0.1269 -1.3285
 1678TIP3    H226594   5.766   4.991   8.560 -0.5052 -0.6259  0.3826
 1679TIP3   OH226595   5.554   2.856   0.229  0.1297  0.0294  0.1135
 1679TIP3    H126596   5.610   2.807   0.290 -0.8350  0.8852  1.7773
 1679TIP3    H226597   5.474   2.874   0.279 -0.1125  2.0875 -0.8861
 1680TIP3   OH226598   5.288   1.380   8.315  0.1273  0.2560 -0.1923
 1680TIP3    H126599   5.238   1.375   8.396  0.5442 -0.7475  0.0121
 1680TIP3    H226600   5.267   1.467   8.280 -0.2225  0.6218  0.8729
 1681TIP3   OH226601   2.125   5.122   1.886 -0.4526 -0.1750  0.5567
 1681TIP3    H126602   2.114   5.202   1.937  0.6158 -0.6147  1.5284
 1681TIP3    H226603   2.193   5.074   1.932 -0.6689 -1.3843 -0.3414
 1682TIP3   OH226604   5.616   1.993   2.503  0.1280 -0.2214 -0.2905
 1682TIP3    H126605   5.649   1.934   2.435  0.3705 -1.9519  1.2607
 1682TIP3    H226606   5.687   1.999   2.567 -0.5949  0.2760  0.4924
 1683TIP3   OH226607   0.381   3.736   7.482  0.0596  0.0049  0.0434
 1683TIP3    H126608   0.448   3.749   7.414 -0.3289 -1.7802 -0.7431
 1683TIP3    H226609   0.431   3.731   7.563  0.8150 -0.4476 -0.4314
 1684TIP3   OH226610   2.804   0.020   6.995  0.0964 -0.3217 -0.4447
 1684TIP3    H126611   2.899   0.027   6.997  0.3675 -1.6773 -3.0512
 1684TIP3    H226612   2.775   0.100   6.952 -0.0504  0.4169  0.9759
 1685TIP3   OH226613   6.700   3.640   7.885 -0.3918 -0.2227  0.0733
 1685TIP3    H126614   6.714   3.558   7.932  0.5817  0.4390  0.9795
 1685TIP3    H226615   6.762   3.636   7.812  0.0997 -0.0352  0.4741
 1686TIP3   OH226616   1.952   3.537   1.575  0.4260 -0.2977  0.3053
 1686TIP3    H126617   2.004   3.484   1.635 -0.4501 -2.1964 -0.5044
 1686TIP3    H226618   1.866   3.544   1.618  0.6575  0.8908  0.6078
 1687TIP3   OH226619   3.683   5.439   8.282  0.1143 -0.4140  0.1783
 1687TIP3    H126620   3.744   5.390   8.337  0.5721 -0.0879 -0.0282
 1687TIP3    H226621   3.653   5.376   8.216  0.9678 -0.3424 -0.2972
 1688TIP3   OH226622   2.203   1.324   7.247  0.4659  0.3669  0.4418
 1688TIP3    H126623   2.190   1.311   7.341 -1.1784  0.2638  0.2288
 1688TIP3    H226624   2.134   1.273   7.205 -0.1927  2.1016 -0.7350
 1689TIP3   OH226625   6.499   0.656   2.499 -0.4425  0.1409 -0.2423
 1689TIP3    H126626   6.493   0.688   2.409  2.6313  2.1763  0.1321
 1689TIP3    H226627   6.491   0.735   2.553 -2.0247 -1.0167  1.3061
 1690TIP3   OH226628   1.045   0.352   8.424 -0.7293 -0.1026  0.4987
 1690TIP3    H126629   0.968   0.313   8.384 -1.1928 -0.4110  1.6863
 1690TIP3    H226630   1.024   0.360   8.517  0.5904 -0.0152  0.8129
 1691TIP3   OH226631   4.360   1.669   7.137 -0.0291 -0.3791 -0.7163
 1691TIP3    H126632   4.388   1.760   7.124 -0.4130 -0.3688 -1.5235
 1691TIP3    H226633   4.358   1.632   7.049  0.2726 -1.2208 -0.3798
 1692TIP3   OH226634   2.395   6.420   8.100  0.0921 -0.2120  0.3314
 1692TIP3    H126635   2.309   6.424   8.142  0.7368  0.6110  1.6264
 1692TIP3    H226636   2.431   6.508   8.110  0.8605 -0.3843 -0.7098
 1693TIP3   OH226637   5.538   4.842   1.622  0.4254  0.0461 -0.4069
 1693TIP3    H126638   5.609   4.782   1.646  1.6177  0.8545 -1.7743
 1693TIP3    H226639   5.564   4.926   1.659 -0.3807  0.1115  0.0218
 1694TIP3   OH226640   5.366   0.236   0.638 -0.2316  0.4529  0.0195
 1694TIP3    H126641   5.461   0.239   0.644 -0.2377 -0.3914  0.6245
 1694TIP3    H226642   5.336   0.209   0.725 -0.9309 -0.8649 -0.5980
 1695TIP3   OH226643   5.819   6.616   8.243 -0.5503 -0.1509  0.4806
 1695TIP3    H126644   5.896   6.623   8.187 -0.6513  1.4895  0.5025
 1695TIP3    H226645   5.799   6.522   8.245  1.7526 -0.6911  0.9309
 1696TIP3   OH226646   5.690   0.459   3.036 -0.2485 -0.0825  0.2739
 1696TIP3    H126647   5.713   0.425   2.949 -0.8149 -1.3326  0.5912
 1696TIP3    H226648   5.715   0.551   3.033  0.2002 -0.2267 -1.0488
 1697TIP3   OH226649   6.535   5.689   8.773 -0.7906 -0.0954  0.1443
 1697TIP3    H126650   6.479   5.691   8.851 -0.3096  0.8685  0.4858
 1697TIP3    H226651   6.508   5.766   8.723 -0.5567 -0.2729 -0.2554
 1698TIP3   OH226652   6.009   5.255   3.182 -0.2068  0.3694  0.2089
 1698TIP3    H126653   6.052   5.189   3.236 -0.6520 -0.5602 -0.5612
 1698TIP3    H226654   6.015   5.335   3.234  4.4303  0.9142 -0.6590
 1699TIP3   OH226655   4.614   1.595   1.592  0.6207  0.4447  0.5340
 1699TIP3    H126656   4.625   1.684   1.626  0.1623  1.1242 -1.0086
 1699TIP3    H226657   4.536   1.600   1.537  0.6913 -0.8846  0.2756
 1700TIP3   OH226658   1.362   5.341   7.698  0.4619 -0.0699  0.0540
 1700TIP3    H126659   1.363   5.420   7.751  2.3957 -0.9073  1.3662
 1700TIP3    H226660   1.445   5.297   7.717  1.0570 -0.7159 -3.2560
 1701TIP3   OH226661   3.612   2.572   0.937 -0.2446 -0.0179  0.1617
 1701TIP3    H126662   3.704   2.549   0.933  0.0793  1.1077  0.6233
 1701TIP3    H226663   3.607   2.639   1.006 -1.5362 -0.6722  0.7372
 1702TIP3   OH226664   1.022   4.680   0.728 -0.0475 -0.2181 -0.3108
 1702TIP3    H126665   1.051   4.690   0.819 -1.3538  0.3209  0.0683
 1702TIP3    H226666   1.098   4.642   0.683  1.0850  0.7436  0.7061
 1703TIP3   OH226667   1.068   6.293   0.484  0.2251  0.4431 -0.4191
 1703TIP3    H126668   1.003   6.359   0.460 -0.2980 -0.4138 -1.4434
 1703TIP3    H226669   1.141   6.307   0.424  0.8246  1.1046  0.4268
 1704TIP3   OH226670   3.259   0.710   2.023 -0.6105 -0.2027  0.4206
 1704TIP3    H126671   3.180   0.762   2.011  0.7966  1.9843 -0.0342
 1704TIP3    H226672   3.287   0.688   1.934 -0.2686 -0.2131  0.5294
 1705TIP3   OH226673   6.652   0.469   7.935 -0.4879 -0.4185  0.7043
 1705TIP3    H126674   6.708   0.400   7.970  0.1373 -0.0045  0.5330
 1705TIP3    H226675   6.670   0.469   7.841 -0.6341 -0.1609  0.6743
 1706TIP3   OH226676   0.864   0.108   8.773 -0.2353 -0.1021  0.7622
 1706TIP3    H126677   0.792   0.053   8.805 -0.3385 -0.2677  0.2544
 1706TIP3    H226678   0.909   0.054   8.708 -0.1164  0.2812  0.5222
 1707TIP3   OH226679   1.247   5.249   1.562  0.4810 -1.0713  0.2911
 1707TIP3    H126680   1.224   5.331   1.606  0.9367 -0.8125  0.0549
 1707TIP3    H226681   1.248   5.271   1.469 -0.2305 -1.5539  0.1605
 1708TIP3   OH226682   1.207   3.649   2.031 -0.5485  0.7338 -0.2615
 1708TIP3    H126683   1.112   3.648   2.040 -0.5340  1.9191  0.1501
 1708TIP3    H226684   1.228   3.564   1.992 -1.7591  0.4146 -0.2577
 1709TIP3   OH226685   4.260   0.589   1.102 -0.0551 -0.2117 -0.2159
 1709TIP3    H126686   4.181   0.536   1.109 -0.5332  0.6571  1.2336
 1709TIP3    H226687   4.262   0.618   1.011 -0.4166 -1.7062 -0.7297
 1710TIP3   OH226688   5.182   5.585   8.080 -0.8931  0.0426 -0.3267
 1710TIP3    H126689   5.216   5.497   8.065 -0.4546 -0.1041  1.2926
 1710TIP3    H226690   5.252   5.629   8.130 -1.4012  1.0787 -0.4966
 1711TIP3   OH226691   1.402   4.489   1.521 -0.3932 -0.1010  0.1150
 1711TIP3    H126692   1.446   4.411   1.555 -2.0606 -0.5490  1.3800
 1711TIP3    H226693   1.341   4.455   1.455  0.6484  0.4447 -1.1796
 1712TIP3   OH226694   6.283   4.341   1.242  0.3763 -0.4023  0.7198
 1712TIP3    H126695   6.288   4.276   1.312  0.5592  0.0655  1.1516
 1712TIP3    H226696   6.373   4.371   1.231  0.3096 -0.2978  0.4442
 1713TIP3   OH226697   4.189   3.367   0.962 -0.1132  0.2894 -0.1030
 1713TIP3    H126698   4.195   3.330   0.874 -0.7634  0.9216 -0.4210
 1713TIP3    H226699   4.271   3.414   0.975 -0.0098  0.1785 -0.3611
 1714TIP3   OH226700   4.543   3.176   1.111 -0.0213 -0.1872  0.2391
 1714TIP3    H126701   4.588   3.167   1.028  0.0556  0.0636  0.2513
 1714TIP3    H226702   4.544   3.271   1.128 -0.4802 -0.1899  0.2778
 1715TIP3   OH226703   3.383   2.318   8.047 -0.3324  0.1696 -0.1282
 1715TIP3    H126704   3.360   2.232   8.083  0.3892 -0.2155 -0.5569
 1715TIP3    H226705   3.460   2.345   8.096 -0.7787  0.7436  0.2561
 1716TIP3   OH226706   2.061   5.685   7.712 -0.2392 -0.3417 -0.2746
 1716TIP3    H126707   2.091   5.599   7.680  1.3495 -0.9919  2.6158
 1716TIP3    H226708   2.085   5.746   7.642  2.2953 -1.7427 -0.7660
 1717TIP3   OH226709   3.037   5.361   2.408 -0.0238 -0.4990 -0.2534
 1717TIP3    H126710   3.122   5.357   2.451 -0.5545 -1.4012  0.7687
 1717TIP3    H226711   3.047   5.312   2.327  0.2245 -1.2613  0.2363
 1718TIP3   OH226712   6.396   1.827   0.178  0.1144  0.0403 -0.7524
 1718TIP3    H126713   6.423   1.864   0.262 -0.1962 -0.4571 -0.4326
 1718TIP3    H226714   6.475   1.833   0.123 -0.2414  2.3267 -1.1238
 1719TIP3   OH226715   1.589   2.275   0.655 -0.0746  0.1380 -0.3432
 1719TIP3    H126716   1.513   2.325   0.627 -2.0872 -3.1394 -1.2801
 1719TIP3    H226717   1.641   2.263   0.576 -0.7935 -1.0788 -0.6582
 1720TIP3   OH226718   5.163   3.559   8.543  0.9076  0.0149 -0.1102
 1720TIP3    H126719   5.182   3.623   8.612  1.2469 -0.1782 -0.0189
 1720TIP3    H226720   5.249   3.523   8.520  0.5758 -1.8068  1.1964
 1721TIP3   OH226721   2.420   2.841   7.891  0.6885  0.3056 -0.4643
 1721TIP3    H126722   2.453   2.891   7.817  0.1170  0.4865 -0.6038
 1721TIP3    H226723   2.394   2.757   7.854  2.3254 -0.3956 -0.1070
 1722TIP3   OH226724   1.810   2.192   7.286  0.2803 -0.0056 -0.6706
 1722TIP3    H126725   1.896   2.166   7.252  1.0740  0.1759  1.1095
 1722TIP3    H226726   1.825   2.277   7.326 -0.9856  0.5014 -1.2290
 1723TIP3   OH226727   2.848   6.444   1.458 -0.0639  0.0416 -0.2982
 1723TIP3    H126728   2.855   6.539   1.456  2.2285 -0.0740 -0.9133
 1723TIP3    H226729   2.785   6.423   1.389 -0.8708  1.1098  0.0941
 1724TIP3   OH226730   2.386   1.401   7.610  0.3721 -0.3271 -0.2499
 1724TIP3    H126731   2.380   1.368   7.700 -1.6520  1.4753  0.3603
 1724TIP3    H226732   2.350   1.489   7.615  0.1121 -0.2281 -2.8858
 1725TIP3   OH226733   4.285   6.738   2.076 -0.4486  0.1817 -0.0527
 1725TIP3    H126734   4.239   6.795   2.137 -0.9057 -0.6770  0.4122
 1725TIP3    H226735   4.377   6.742   2.104 -1.0185 -2.6423  2.7635
 1726TIP3   OH226736   6.766   4.196   0.986 -0.3431 -0.7097  0.3523
 1726TIP3    H126737   6.741   4.279   0.945 -1.0473 -0.8820  0.4190
 1726TIP3    H226738   6.812   4.148   0.917  0.8802  0.0954  0.5806
 1727TIP3   OH226739   3.587   0.560   2.222  0.3149  0.1695  0.4781
 1727TIP3    H126740   3.544   0.634   2.265 -1.1350 -1.6137  2.3212
 1727TIP3    H226741   3.588   0.491   2.288 -0.5410 -2.2273 -1.8278
 1728TIP3   OH226742   4.301   4.126   8.310 -0.4895 -0.0005  0.0725
 1728TIP3    H126743   4.358   4.182   8.257 -0.0889  0.1532  0.6477
 1728TIP3    H226744   4.323   4.037   8.283 -1.0808  0.1113 -0.7992
 1729TIP3   OH226745   0.685   6.281   2.497 -0.0121 -0.2726 -0.3255
 1729TIP3    H126746   0.634   6.307   2.574  2.4075  0.7628  1.0282
 1729TIP3    H226747   0.625   6.293   2.423 -1.4079  1.9318  1.0497
 1730TIP3   OH226748   2.322   4.190   0.738  0.0079  0.2111  0.6431
 1730TIP3    H126749   2.411   4.164   0.761  0.8644  0.5027 -2.0509
 1730TIP3    H226750   2.320   4.284   0.753  1.2254  0.7754 -2.1349
 1731TIP3   OH226751   2.137   4.210   1.995  0.3062 -0.2050 -0.0825
 1731TIP3    H126752   2.156   4.247   1.909  2.1384 -1.2017 -0.1712
 1731TIP3    H226753   2.180   4.270   2.057  1.0919 -0.7649 -0.0619
 1732TIP3   OH226754   3.275   4.786   0.634  0.2796 -0.2004  0.5943
 1732TIP3    H126755   3.237   4.745   0.556  0.4229 -2.8506  1.8284
 1732TIP3    H226756   3.202   4.793   0.696  0.5871  0.0401  0.9336
 1733TIP3   OH226757   3.440   0.986   0.887  0.4500 -0.4459 -0.1414
 1733TIP3    H126758   3.361   1.034   0.864  1.8182  2.4951  0.8012
 1733TIP3    H226759   3.424   0.954   0.975 -0.4250 -1.6707 -0.7228
 1734TIP3   OH226760   0.663   0.357   2.191  0.0860  0.5722 -0.9118
 1734TIP3    H126761   0.702   0.296   2.254 -1.3455  0.7561  0.2109
 1734TIP3    H226762   0.674   0.314   2.106  0.2409 -0.6653 -0.2946
 1735TIP3   OH226763   5.380   0.388   1.513  0.3187 -0.0330  0.2525
 1735TIP3    H126764   5.431   0.438   1.577  0.0913  0.8612 -0.2472
 1735TIP3    H226765   5.435   0.385   1.435 -0.6347  1.5082 -0.5111
 1736TIP3   OH226766   5.214   3.148   2.781  0.3684  0.1489 -0.7312
 1736TIP3    H126767   5.299   3.109   2.798  0.2275 -0.4441 -1.3606
 1736TIP3    H226768   5.152   3.077   2.796 -0.2175  1.0734  1.7540
 1737TIP3   OH226769   2.120   2.835   0.097 -0.5504 -0.2569  0.0286
 1737TIP3    H126770   2.171   2.892   0.154 -0.2648 -1.1176  0.6411
 1737TIP3    H226771   2.134   2.870   0.009 -1.0075  1.0907  0.4641
 1738TIP3   OH226772   6.476   3.297   0.731 -0.4937  0.4411 -0.3562
 1738TIP3    H126773   6.508   3.235   0.665 -0.4671 -0.4633  0.4899
 1738TIP3    H226774   6.381   3.295   0.722 -0.5026  0.1356 -0.2119
 1739TIP3   OH226775   6.705   1.749   3.022 -0.3965 -0.2682  0.0381
 1739TIP3    H126776   6.780   1.794   2.983  1.1265 -2.4604  0.2424
 1739TIP3    H226777   6.630   1.775   2.968  0.3969  2.3528  0.1066
 1740TIP3   OH226778   5.812   6.672   2.460 -0.2956  0.2588  0.2296
 1740TIP3    H126779   5.903   6.644   2.462 -0.3270  0.1809  0.6643
 1740TIP3    H226780   5.802   6.729   2.536 -0.3196  1.2011 -0.4678
 1741TIP3   OH226781   0.999   2.057   2.116  0.3482  0.2845 -0.0478
 1741TIP3    H126782   0.950   2.048   2.035  0.5613 -0.3799 -0.1090
 1741TIP3    H226783   1.060   1.983   2.116 -1.5845 -1.4683  2.0514
 1742TIP3   OH226784   0.073   1.284   0.750  0.1203 -0.0116 -0.0574
 1742TIP3    H126785   0.071   1.275   0.845  0.8990 -2.2960 -0.1928
 1742TIP3    H226786   0.010   1.220   0.718  0.1661  0.4354 -1.1050
 1743TIP3   OH226787   2.954   6.791   0.425 -0.2482  0.1649  0.3279
 1743TIP3    H126788   2.923   6.709   0.464  0.7183  0.6069  2.1178
 1743TIP3    H226789   3.004   6.763   0.348  0.0036 -0.9241  0.8725
 1744TIP3   OH226790   4.357   2.117   8.370 -0.5325  0.1869 -0.1330
 1744TIP3    H126791   4.298   2.042   8.379  1.7506 -1.6114  0.7981
 1744TIP3    H226792   4.416   2.110   8.445  1.5275  1.2798 -1.5654
 1745TIP3   OH226793   6.429   0.124   7.346 -0.4165  0.2586  0.0315
 1745TIP3    H126794   6.383   0.090   7.269  0.6493 -1.9323  0.2894
 1745TIP3    H226795   6.518   0.140   7.316 -0.0493 -0.3980  0.7623
 1746TIP3   OH226796   0.333   6.352   1.083  0.8630 -0.3959  0.1976
 1746TIP3    H126797   0.297   6.355   1.171 -0.8527  1.0793 -0.4926
 1746TIP3    H226798   0.316   6.262   1.054 -0.4460 -0.3188  0.6567
 1747TIP3   OH226799   3.601   0.407   0.139 -0.3257 -0.0159 -0.0530
 1747TIP3    H126800   3.569   0.317   0.128 -0.1048 -0.0323 -0.6230
 1747TIP3    H226801   3.686   0.398   0.181 -0.8113 -0.0026  0.9633
 1748TIP3   OH226802   5.653   5.113   7.715 -0.3487  0.0803 -0.1560
 1748TIP3    H126803   5.595   5.076   7.649 -1.3377  1.3985 -0.0597
 1748TIP3    H226804   5.700   5.037   7.750 -0.7396 -0.7982 -1.4489
 1749TIP3   OH226805   2.826   5.254   0.823 -0.7867  0.3296 -0.1813
 1749TIP3    H126806   2.755   5.223   0.878  0.5373  0.0709  1.4809
 1749TIP3    H226807   2.883   5.303   0.882  0.9124 -0.2956 -1.2054
 1750TIP3   OH226808   1.074   3.987   2.618 -0.1922  0.4185  0.2046
 1750TIP3    H126809   1.102   3.922   2.682 -0.3435 -1.6850 -1.7364
 1750TIP3    H226810   0.979   3.992   2.628 -0.0834  1.1173  1.0117
 1751TIP3   OH226811   2.007   5.304   8.235  0.7245 -0.7688 -0.5869
 1751TIP3    H126812   2.011   5.220   8.189  1.0602 -1.9154  1.4495
 1751TIP3    H226813   1.982   5.366   8.167  0.0035 -2.5741 -2.0809
 1752TIP3   OH226814   3.788   4.362   2.491  0.4842  0.6715 -0.2431
 1752TIP3    H126815   3.810   4.388   2.581 -1.0505  0.2732  0.2839
 1752TIP3    H226816   3.796   4.267   2.490  0.2790  0.6539 -0.4495
 1753TIP3   OH226817   2.193   1.550   0.699 -0.5790  0.1433 -0.1038
 1753TIP3    H126818   2.139   1.557   0.777 -1.0738  2.0572 -0.5604
 1753TIP3    H226819   2.251   1.626   0.704  1.6127 -1.4392 -0.0020
 1754TIP3   OH226820   4.325   3.781   8.705 -0.5922 -0.1569 -0.4900
 1754TIP3    H126821   4.381   3.846   8.661 -1.5642 -0.3360 -2.0629
 1754TIP3    H226822   4.285   3.829   8.777  1.2211  0.0884  0.4290
 1755TIP3   OH226823   5.203   2.836   1.857 -0.1175 -0.6058  0.3561
 1755TIP3    H126824   5.248   2.754   1.878  2.2728  0.5362  0.0937
 1755TIP3    H226825   5.198   2.883   1.940  0.0448 -0.3508  0.2254
 1756TIP3   OH226826   4.269   5.970   8.071 -0.4197  0.0854 -1.1558
 1756TIP3    H126827   4.196   5.989   8.131  0.3393  2.0949 -0.7740
 1756TIP3    H226828   4.343   6.018   8.108  1.8388 -3.7683 -0.2137
 1757TIP3   OH226829   0.454   2.596   0.584  0.9383  0.0275 -0.1433
 1757TIP3    H126830   0.402   2.520   0.561 -0.1924  0.9168 -0.6560
 1757TIP3    H226831   0.463   2.645   0.502 -0.3092  1.5710  0.5824
 1758TIP3   OH226832   5.405   3.426   1.690  0.0936  0.2114  0.0162
 1758TIP3    H126833   5.432   3.504   1.641 -1.5821  1.0609  0.3839
 1758TIP3    H226834   5.329   3.393   1.642  0.8193 -1.2623 -0.1673
 1759TIP3   OH226835   2.566   4.691   2.032 -0.3431  0.7879  0.4797
 1759TIP3    H126836   2.518   4.608   2.036 -1.1556  1.1792 -0.8516
 1759TIP3    H226837   2.530   4.737   1.957  1.4167  1.5399  0.0355
 1760TIP3   OH226838   1.596   6.385   7.809 -0.1029  0.0062  0.7568
 1760TIP3    H126839   1.674   6.440   7.816  0.4771 -0.4095 -1.6125
 1760TIP3    H226840   1.549   6.417   7.733  0.0112 -2.4072 -0.4410
 1761TIP3   OH226841   4.425   4.928   8.202 -0.6620 -0.5107 -0.4979
 1761TIP3    H126842   4.520   4.915   8.208 -0.5356  0.4623 -0.0796
 1761TIP3    H226843   4.389   4.865   8.264 -0.1744  0.1771  0.5230
 1762TIP3   OH226844   5.322   4.310   0.493  0.3746 -0.1798 -0.0005
 1762TIP3    H126845   5.317   4.215   0.489  2.2188 -0.4357  2.1175
 1762TIP3    H226846   5.246   4.337   0.544  0.3372 -0.6060  0.1667
 1763TIP3   OH226847   4.603   1.334   1.273 -0.2063  0.1549  0.0743
 1763TIP3    H126848   4.569   1.423   1.261 -0.8079 -0.0928 -0.0930
 1763TIP3    H226849   4.623   1.305   1.184  0.0473  0.1445  0.1356
 1764TIP3   OH226850   4.201   2.381   8.660  0.0283 -0.3647  0.1618
 1764TIP3    H126851   4.270   2.389   8.594 -0.1702  0.0758  0.0081
 1764TIP3    H226852   4.197   2.287   8.678 -0.1228 -0.5207 -0.6668
 1765TIP3   OH226853   2.540   2.559   0.275  0.6514  0.1771  0.1063
 1765TIP3    H126854   2.628   2.522   0.269  0.4929 -0.0996 -0.6579
 1765TIP3    H226855   2.553   2.652   0.293  1.0908  0.0999  0.1909
 1766TIP3   OH226856   6.447   1.961   0.433  0.3193  0.3510  0.2981
 1766TIP3    H126857   6.494   2.042   0.413  1.6687 -0.2784  0.8085
 1766TIP3    H226858   6.512   1.905   0.475 -0.8240 -0.6763  0.7571
 1767TIP3   OH226859   6.525   6.657   7.379  0.3523 -0.0821 -0.0518
 1767TIP3    H126860   6.537   6.620   7.466 -0.3833  0.6084  0.3560
 1767TIP3    H226861   6.493   6.746   7.394 -0.2833 -0.1235 -1.0220
 1768TIP3   OH226862   5.376   6.117   0.473 -0.4294  0.5366  0.3523
 1768TIP3    H126863   5.330   6.200   0.485  0.9780  1.2986  0.7138
 1768TIP3    H226864   5.417   6.099   0.557  0.1385  0.0191 -0.0226
 1769TIP3   OH226865   6.793   5.205   7.226 -0.0198 -0.7588 -0.0107
 1769TIP3    H126866   6.758   5.206   7.137  0.9574 -1.0161 -0.4175
 1769TIP3    H226867   6.773   5.292   7.261  1.3911  0.1147 -1.2346
 1770TIP3   OH226868   3.144   1.830   7.039  0.5410  0.3300  0.0529
 1770TIP3    H126869   3.157   1.774   6.962  0.3658 -0.1888  0.3917
 1770TIP3    H226870   3.084   1.780   7.094 -0.7411  1.4663 -0.2528
 1771TIP3   OH226871   6.426   1.165   2.261  0.3067  0.3452 -0.1405
 1771TIP3    H126872   6.489   1.190   2.329  0.8410 -2.4146  0.5020
 1771TIP3    H226873   6.364   1.238   2.258  1.0444  1.1891  2.3608
 1772TIP3   OH226874   3.652   3.375   7.163  0.2674 -0.4489  0.6329
 1772TIP3    H126875   3.635   3.367   7.257 -2.8155  1.6432  0.3964
 1772TIP3    H226876   3.594   3.311   7.123 -0.1934  0.3063  0.0783
 1773TIP3   OH226877   2.917   3.068   0.040  0.5119 -0.2267 -0.5022
 1773TIP3    H126878   2.938   3.018  -0.039  0.0218 -1.1552 -0.0590
 1773TIP3    H226879   2.939   3.158   0.017  3.7802 -0.8991 -0.5210
 1774TIP3   OH226880   6.478   2.524   7.764  0.2998  0.2049  0.3601
 1774TIP3    H126881   6.471   2.428   7.764 -0.8398  0.2745  0.5778
 1774TIP3    H226882   6.453   2.550   7.853 -1.9710  0.8354 -0.3918
 1775TIP3   OH226883   1.852   3.162   8.189 -0.4080 -0.0688  0.2396
 1775TIP3    H126884   1.919   3.102   8.222 -1.2898 -1.3870 -0.2943
 1775TIP3    H226885   1.814   3.202   8.267  1.1962  0.9586  0.5422
 1776TIP3   OH226886   3.829   1.164   6.799 -0.7273 -0.3508 -0.9711
 1776TIP3    H126887   3.764   1.222   6.760 -0.7479 -0.6122 -1.3365
 1776TIP3    H226888   3.783   1.119   6.870 -0.9031 -0.4184 -1.1271
 1777TIP3   OH226889   1.909   0.676   1.179  0.4175  0.3737  0.0809
 1777TIP3    H126890   1.896   0.754   1.235 -0.4811  0.0154  0.3976
 1777TIP3    H226891   1.963   0.618   1.232 -0.4131  0.0448  0.5854
 1778TIP3   OH226892   2.310   1.644   8.150  0.3537 -0.0828  0.2050
 1778TIP3    H126893   2.374   1.712   8.129  0.2365  0.0323  0.2172
 1778TIP3    H226894   2.336   1.613   8.237 -0.3314  0.8234  0.7549
 1779TIP3   OH226895   0.614   6.645   0.686 -0.3403  0.2577 -0.4159
 1779TIP3    H126896   0.693   6.671   0.734 -0.4346  0.3222 -0.2927
 1779TIP3    H226897   0.551   6.715   0.704 -0.8437 -0.4103  0.5346
 1780TIP3   OH226898   1.038   2.203   1.721 -0.7159  0.9355 -0.6222
 1780TIP3    H126899   1.118   2.186   1.771 -0.6308  1.8477 -0.4250
 1780TIP3    H226900   0.972   2.223   1.787 -1.3850 -0.7652 -0.7242
 1781TIP3   OH226901   1.313   2.065   8.268  0.2886 -0.4655  0.1808
 1781TIP3    H126902   1.302   2.071   8.174 -0.3283 -0.7774  0.2328
 1781TIP3    H226903   1.324   2.156   8.297 -2.5589 -0.0438  0.1665
 1782TIP3   OH226904   1.737   3.600   1.168  0.4235  0.7532  0.0893
 1782TIP3    H126905   1.789   3.519   1.167 -0.4073  0.2050 -0.0064
 1782TIP3    H226906   1.672   3.587   1.099  0.1686  1.4326  0.1998
 1783TIP3   OH226907   3.907   5.666   7.552 -0.0021  0.0464  0.0546
 1783TIP3    H126908   3.957   5.717   7.488  0.0293  0.7681  0.6437
 1783TIP3    H226909   3.831   5.720   7.571 -0.5467 -0.6427 -0.1518
 1784TIP3   OH226910   0.623   5.305   7.221 -0.1843  0.6337  0.0297
 1784TIP3    H126911   0.652   5.214   7.211 -0.1813  0.8130 -2.1973
 1784TIP3    H226912   0.541   5.299   7.270 -1.1752 -0.8072 -1.6712
 1785TIP3   OH226913   1.193   5.642   1.335  0.1223  0.4063 -0.0130
 1785TIP3    H126914   1.116   5.587   1.350  0.2482 -0.0853 -1.0960
 1785TIP3    H226915   1.159   5.731   1.336 -0.4289  0.2040 -0.2823
 1786TIP3   OH226916   0.334   0.142   0.111 -0.6092 -0.1889  0.1318
 1786TIP3    H126917   0.405   0.200   0.082 -0.1551 -1.4299 -1.3657
 1786TIP3    H226918   0.355   0.057   0.072 -1.5576 -1.2518  1.7999
 1787TIP3   OH226919   3.922   3.577   2.735 -0.5706 -0.3831  0.0767
 1787TIP3    H126920   3.916   3.482   2.731 -0.5581 -0.4638  1.4655
 1787TIP3    H226921   3.872   3.608   2.659  0.8588 -1.5051 -1.3939
 1788TIP3   OH226922   2.760   1.116   0.528 -0.5573 -0.4331 -0.5838
 1788TIP3    H126923   2.708   1.089   0.604  0.8825 -1.0813  0.2030
 1788TIP3    H226924   2.851   1.100   0.554 -0.0311 -0.8310 -2.5082
 1789TIP3   OH226925   5.353   5.975   8.758 -0.3003  0.2547  0.3254
 1789TIP3    H126926   5.359   6.037   8.830  0.0791  0.0071  0.5090
 1789TIP3    H226927   5.340   5.890   8.800 -0.7621  0.1990  0.0769
 1790TIP3   OH226928   2.228   3.207   1.610 -0.0112  0.3879 -0.0133
 1790TIP3    H126929   2.259   3.232   1.697 -0.6634 -0.2588  0.4204
 1790TIP3    H226930   2.280   3.130   1.586  3.0201  2.8392 -1.9697
 1791TIP3   OH226931   0.214   1.847   0.010 -0.5950  0.0429 -0.4183
 1791TIP3    H126932   0.136   1.834  -0.043 -0.3762  0.3029 -0.8091
 1791TIP3    H226933   0.181   1.871   0.096 -0.9849 -1.6741 -0.0436
 1792TIP3   OH226934   1.455   1.426   2.303  0.1527 -0.0205  0.1682
 1792TIP3    H126935   1.390   1.415   2.372 -0.0175  1.5176  0.2826
 1792TIP3    H226936   1.532   1.462   2.347 -0.4969  2.5440 -0.6054
 1793TIP3   OH226937   6.620   4.809   8.674 -0.7090  0.5238  0.1209
 1793TIP3    H126938   6.682   4.849   8.735 -0.6534  0.7044 -0.0568
 1793TIP3    H226939   6.541   4.795   8.727 -0.1768 -0.6900  0.6466
 1794TIP3   OH226940   0.926   2.149   1.103  0.0580 -0.5583 -0.3496
 1794TIP3    H126941   0.997   2.166   1.164 -1.4721  0.4856  1.2625
 1794TIP3    H226942   0.865   2.093   1.152  0.0077 -1.9235 -1.8923
 1795TIP3   OH226943   6.333   0.292   8.380 -0.0306 -0.1231  0.2778
 1795TIP3    H126944   6.324   0.374   8.332 -0.4691  1.1289  2.3802
 1795TIP3    H226945   6.404   0.308   8.443 -0.9738 -0.8921  1.5899
 1796TIP3   OH226946   0.837   0.733   7.037 -0.0176 -0.9029 -0.0434
 1796TIP3    H126947   0.905   0.716   6.971 -0.2848  0.7259 -0.8136
 1796TIP3    H226948   0.840   0.658   7.095  1.9243 -1.2484 -0.5053
 1797TIP3   OH226949   4.291   4.972   1.479 -0.2012 -0.0869 -0.3751
 1797TIP3    H126950   4.365   4.931   1.434  0.2441  1.2577 -0.9134
 1797TIP3    H226951   4.250   5.026   1.412 -0.7317  0.3884  0.3320
 1798TIP3   OH226952   1.847   5.959   8.604 -0.2041  0.2950 -0.4888
 1798TIP3    H126953   1.776   5.901   8.577 -0.4931  0.5496 -0.2810
 1798TIP3    H226954   1.927   5.908   8.589 -0.4838 -0.3852  0.2637
 1799TIP3   OH226955   6.388   2.091   2.223 -0.5232  0.2235  0.1153
 1799TIP3    H126956   6.299   2.109   2.255 -0.1696  2.2406  0.0698
 1799TIP3    H226957   6.377   2.079   2.129 -1.0237 -1.8773  0.3825
 1800TIP3   OH226958   5.935   6.410   7.018  0.4822  0.1849  0.5861
 1800TIP3    H126959   5.999   6.454   6.961  0.7429  0.6033  1.1897
 1800TIP3    H226960   5.850   6.439   6.985  0.6063 -0.2219 -0.1000
 1801TIP3   OH226961   6.111   2.919   6.517  0.4415  0.4206 -0.2508
 1801TIP3    H126962   6.166   2.844   6.494  0.3520  0.1692  0.3202
 1801TIP3    H226963   6.022   2.884   6.517  0.2600  0.8555 -1.2917
 1802TIP3   OH226964   2.933   4.995   0.874  0.0690  0.3036 -0.0949
 1802TIP3    H126965   2.885   4.985   0.956 -0.9426  0.0603 -0.6912
 1802TIP3    H226966   2.904   5.080   0.840 -1.6430 -0.7553 -1.4923
 1803TIP3   OH226967   2.279   1.970   1.472 -0.2752 -0.0017  0.1351
 1803TIP3    H126968   2.310   1.883   1.498 -1.7047 -0.2948  0.9671
 1803TIP3    H226969   2.248   1.959   1.382  1.9789  0.3117 -0.7367
 1804TIP3   OH226970   1.986   5.662   0.524  0.2861  0.0234  0.1953
 1804TIP3    H126971   1.975   5.657   0.619  1.0065 -0.5201  0.2580
 1804TIP3    H226972   1.898   5.651   0.488 -0.2542  1.9022  0.8423
 1805TIP3   OH226973   1.596   6.128   1.557  0.3132  0.1954 -0.0394
 1805TIP3    H126974   1.519   6.148   1.610 -0.4548  0.1845 -1.1209
 1805TIP3    H226975   1.661   6.194   1.582  0.4225 -0.5277  1.7814
 1806TIP3   OH226976   4.314   0.994   2.182  0.4184 -0.4667  0.8192
 1806TIP3    H126977   4.295   1.082   2.151  4.5197  0.7733  1.2188
 1806TIP3    H226978   4.323   0.941   2.103 -1.6625 -0.5265  0.5660
 1807TIP3   OH226979   5.841   0.464   8.199  0.1422  0.3570 -0.6381
 1807TIP3    H126980   5.918   0.520   8.189 -0.3262  0.7832 -2.2582
 1807TIP3    H226981   5.775   0.522   8.238  0.0842  0.5625 -1.0265
 1808TIP3   OH226982   0.625   6.257   8.331 -0.1546  0.0580  0.1725
 1808TIP3    H126983   0.549   6.240   8.387 -0.2392 -0.8080 -0.1929
 1808TIP3    H226984   0.601   6.219   8.246  0.7311 -0.3397  0.0897
 1809TIP3   OH226985   4.001   0.829   2.883  0.0413 -0.3668  0.3891
 1809TIP3    H126986   3.910   0.807   2.863 -0.0627  1.8648 -2.1711
 1809TIP3    H226987   4.037   0.750   2.923 -2.5828 -1.8251  0.0949
 1810TIP3   OH226988   4.231   0.321   0.702 -0.4754  0.1540 -0.1663
 1810TIP3    H126989   4.325   0.307   0.706 -0.3170  1.0712 -0.4657
 1810TIP3    H226990   4.197   0.283   0.783  0.2155  0.3062  0.1965
 1811TIP3   OH226991   5.324   1.813   8.467  0.0242 -0.5426  0.8993
 1811TIP3    H126992   5.377   1.795   8.545 -0.2786 -1.2027  0.9575
 1811TIP3    H226993   5.319   1.729   8.422 -0.2411 -0.2803  0.4374
 1812TIP3   OH226994   3.168   1.653   7.665 -0.4645  0.6699  0.2172
 1812TIP3    H126995   3.256   1.632   7.696 -0.7005 -1.0995 -0.2435
 1812TIP3    H226996   3.112   1.639   7.742 -0.4167  1.3812  0.3917
 1813TIP3   OH226997   2.286   3.380   1.842  0.2471  0.0828 -0.7031
 1813TIP3    H126998   2.343   3.349   1.912 -1.6937 -0.9835  0.4802
 1813TIP3    H226999   2.244   3.459   1.878  0.0538  0.1593 -1.0832
 1814TIP3   OH227000   2.685   1.350   0.406  0.1501 -0.4545  0.3613
 1814TIP3    H127001   2.717   1.267   0.441 -1.1948 -0.9695  0.4385
 1814TIP3    H227002   2.608   1.326   0.354 -2.4916  0.9931  3.2187
 1815TIP3   OH227003   3.266   3.278   7.505 -0.2089 -1.0292 -0.0591
 1815TIP3    H127004   3.263   3.243   7.416 -0.9149  0.4131 -0.6288
 1815TIP3    H227005   3.360   3.287   7.524 -0.0572 -1.0570 -0.7689
 1816TIP3   OH227006   1.060   3.216   7.996  0.3052  0.3616 -0.2268
 1816TIP3    H127007   1.067   3.137   8.051 -3.2199 -0.3111 -0.5205
 1816TIP3    H227008   1.063   3.288   8.058  0.0298 -0.2017  0.4574
 1817TIP3   OH227009   4.973   2.363   0.310  0.2878 -0.0380  0.4909
 1817TIP3    H127010   4.894   2.386   0.360 -0.6020  0.4100 -1.0748
 1817TIP3    H227011   5.004   2.447   0.274  0.7122 -0.4033 -0.0145
 1818TIP3   OH227012   4.223   4.728   7.908 -0.1215  0.2189  0.2923
 1818TIP3    H127013   4.292   4.702   7.969 -0.9734 -0.4067  1.0091
 1818TIP3    H227014   4.260   4.803   7.861  0.9333  0.0769  0.8636
 1819TIP3   OH227015   4.807   4.717   0.907 -0.6451 -0.6384  0.1552
 1819TIP3    H127016   4.892   4.745   0.873 -0.1053 -2.8192 -0.4613
 1819TIP3    H227017   4.753   4.797   0.904  0.7666  0.3413 -1.4011
 1820TIP3   OH227018   1.380   3.092   2.402 -0.3214  0.2892 -0.1821
 1820TIP3    H127019   1.452   3.083   2.466 -0.2089  0.8436 -0.2253
 1820TIP3    H227020   1.311   3.037   2.437  0.2460 -0.5212 -0.3118
 1821TIP3   OH227021   2.778   3.803   0.579  0.0346  0.2527 -0.5510
 1821TIP3    H127022   2.698   3.764   0.544 -0.9325  0.1285  1.6397
 1821TIP3    H227023   2.790   3.883   0.529 -0.6304 -0.4690 -1.9050
 1822TIP3   OH227024   0.833   5.907   1.129  0.4694  0.3306 -0.0480
 1822TIP3    H127025   0.810   5.992   1.168 -0.0018  0.2509 -0.1374
 1822TIP3    H227026   0.806   5.843   1.194  0.0453  0.2149 -0.3342
 1823TIP3   OH227027   5.640   4.330   1.079 -0.1429  0.1397 -0.0347
 1823TIP3    H127028   5.593   4.360   1.157 -0.2678  0.9784 -0.4220
 1823TIP3    H227029   5.570   4.299   1.021  0.0538 -2.1175  0.8299
 1824TIP3   OH227030   0.415   4.227   1.096  0.1717 -0.3327 -0.0770
 1824TIP3    H127031   0.461   4.301   1.135 -0.0884 -0.0156 -0.3643
 1824TIP3    H227032   0.484   4.170   1.063  0.3722 -0.1852  0.0835
 1825TIP3   OH227033   2.801   3.837   1.692  0.5124  0.0822 -0.1472
 1825TIP3    H127034   2.869   3.784   1.650 -0.5280 -0.8316 -0.7053
 1825TIP3    H227035   2.722   3.784   1.687 -0.4240  1.4432 -0.1740
 1826TIP3   OH227036   1.615   5.294   8.283 -0.7920 -0.0749  0.1600
 1826TIP3    H127037   1.590   5.385   8.264  0.2773 -0.2017 -2.1887
 1826TIP3    H227038   1.538   5.242   8.261 -0.3211  0.0062 -1.8656
 1827TIP3   OH227039   0.810   3.498   0.596  0.0132  0.4879  0.4131
 1827TIP3    H127040   0.797   3.549   0.516 -0.6154 -0.1270  0.1094
 1827TIP3    H227041   0.831   3.563   0.663  2.1513  0.8780 -0.5755
 1828TIP3   OH227042   4.110   0.051   2.853  0.6147  0.9222 -0.3332
 1828TIP3    H127043   4.184   0.006   2.812  1.7109  2.2345  0.1589
 1828TIP3    H227044   4.129   0.144   2.841  1.3102  1.4324  3.5702
 1829TIP3   OH227045   5.490   1.514   7.895  0.2523  0.5374  0.0363
 1829TIP3    H127046   5.496   1.564   7.814 -0.3460  1.7801  0.7227
 1829TIP3    H227047   5.545   1.561   7.957  3.7705 -2.4046 -0.4970
 1830TIP3   OH227048   6.297   0.266   2.075  0.3398  0.3251  0.4690
 1830TIP3    H127049   6.299   0.211   2.153  0.5996 -0.3677 -0.0129
 1830TIP3    H227050   6.214   0.244   2.032  0.1651  0.7543  0.5887
 1831TIP3   OH227051   3.755   5.965   1.619  0.6220 -0.3196 -0.2113
 1831TIP3    H127052   3.772   6.059   1.631  0.9016 -0.2460 -1.1158
 1831TIP3    H227053   3.789   5.924   1.699  1.2737  0.2620 -0.1848
 1832TIP3   OH227054   6.636   4.312   0.492  0.3459 -0.1722  0.8755
 1832TIP3    H127055   6.575   4.353   0.430  0.8664 -1.5249 -0.6069
 1832TIP3    H227056   6.583   4.291   0.568 -0.7601 -0.1647  0.1295
 1833TIP3   OH227057   4.532   3.669   0.163 -0.0611 -0.1529  0.3843
 1833TIP3    H127058   4.478   3.716   0.227 -0.8444 -0.1470 -0.2629
 1833TIP3    H227059   4.470   3.614   0.115  0.3813  0.4011 -0.8690
 1834TIP3   OH227060   4.676   2.706   2.147 -0.2329  0.1723 -0.0692
 1834TIP3    H127061   4.669   2.666   2.060  1.3750  0.6863 -0.4816
 1834TIP3    H227062   4.738   2.651   2.194 -0.6317  0.2460  0.5587
 1835TIP3   OH227063   1.538   5.923   0.116  0.0370 -0.1918 -0.0431
 1835TIP3    H127064   1.605   5.978   0.075  2.3030 -3.1047 -0.5949
 1835TIP3    H227065   1.471   5.915   0.049  1.9519 -1.8565 -1.9191
 1836TIP3   OH227066   2.439   3.760   7.762 -0.0848  0.3401 -0.1745
 1836TIP3    H127067   2.496   3.790   7.691 -0.3741 -0.8539 -0.9407
 1836TIP3    H227068   2.430   3.666   7.748 -0.4778  0.1454  1.2271
 1837TIP3   OH227069   4.439   4.501   1.494 -0.1882 -0.3082 -0.1737
 1837TIP3    H127070   4.522   4.499   1.447 -0.3700 -0.4164 -0.4970
 1837TIP3    H227071   4.376   4.533   1.429 -0.2633  0.5028  0.2817
 1838TIP3   OH227072   2.000   0.726   2.011  0.1417 -0.0707 -0.0041
 1838TIP3    H127073   1.965   0.808   1.974  0.7434 -0.0742 -0.6050
 1838TIP3    H227074   1.922   0.674   2.032 -0.2360  0.4380 -0.1207
 1839TIP3   OH227075   4.066   6.251   1.660 -0.5937 -0.2799 -0.4415
 1839TIP3    H127076   4.136   6.194   1.627 -0.4557  0.1897 -0.9846
 1839TIP3    H227077   4.084   6.260   1.753 -0.6596 -1.1815 -0.3309
 1840TIP3   OH227078   6.216   5.159   8.173 -0.0305 -0.3067  0.1735
 1840TIP3    H127079   6.268   5.127   8.099  1.6143  0.9285  0.7358
 1840TIP3    H227080   6.179   5.242   8.142 -0.9179 -0.7098  0.1117
 1841TIP3   OH227081   4.315   4.695   0.814 -0.1579 -0.0726  0.9435
 1841TIP3    H127082   4.361   4.723   0.894 -0.2370  1.1122  0.5927
 1841TIP3    H227083   4.299   4.776   0.766 -0.4550 -0.7339 -0.1030
 1842TIP3   OH227084   2.607   5.131   7.490 -0.0026 -0.1066  0.2364
 1842TIP3    H127085   2.652   5.215   7.502 -0.6960  0.1921  0.8159
 1842TIP3    H227086   2.590   5.127   7.395 -0.1176  0.4938  0.2237
 1843TIP3   OH227087   4.021   4.118   8.580 -0.0174  0.1852 -0.0224
 1843TIP3    H127088   4.098   4.172   8.559  0.0325  0.4212  0.7403
 1843TIP3    H227089   4.041   4.032   8.544  1.7037 -0.4699  2.2418
 1844TIP3   OH227090   5.543   5.648   1.661 -0.0174  0.3101 -1.0598
 1844TIP3    H127091   5.487   5.585   1.614 -1.5632  0.1754  0.8642
 1844TIP3    H227092   5.564   5.714   1.595 -0.9988 -0.5670 -2.3145
 1845TIP3   OH227093   2.132   1.649   7.737 -0.9646  0.1485  0.4430
 1845TIP3    H127094   2.156   1.715   7.801 -0.5169  0.2517  0.1742
 1845TIP3    H227095   2.063   1.690   7.685 -1.2277  0.1162  0.7648
 1846TIP3   OH227096   6.722   4.060   2.911 -0.1130  0.0345 -0.1419
 1846TIP3    H127097   6.632   4.032   2.899 -0.2136 -0.9556  2.3209
 1846TIP3    H227098   6.774   3.991   2.870 -0.4775 -0.8959  0.8922
 1847TIP3   OH227099   6.240   4.396   1.875  0.0537  0.4084  0.2262
 1847TIP3    H127100   6.225   4.434   1.788 -0.3015  1.8239  0.8714
 1847TIP3    H227101   6.332   4.416   1.894  0.3783 -0.6623 -0.1663
 1848TIP3   OH227102   3.403   0.383   1.810  0.6796 -0.6580 -0.0683
 1848TIP3    H127103   3.457   0.364   1.886  0.2639  0.9603  0.6725
 1848TIP3    H227104   3.313   0.382   1.843  0.3481 -1.6647 -0.9323
 1849TIP3   OH227105   6.545   0.173   0.368 -0.7646  0.3807  0.8775
 1849TIP3    H127106   6.634   0.184   0.400 -0.8288 -0.9504  1.5645
 1849TIP3    H227107   6.519   0.261   0.339  1.6920  0.3814 -1.8278
 1850TIP3   OH227108   2.472   2.154   2.555  0.1459  0.2884  0.0718
 1850TIP3    H127109   2.554   2.184   2.594  1.7897 -1.0051 -2.1145
 1850TIP3    H227110   2.415   2.136   2.629  1.4552  2.2190  1.6455
 1851TIP3   OH227111   1.511   6.464   2.712 -0.5703 -0.3889 -0.3476
 1851TIP3    H127112   1.593   6.462   2.763 -0.6817 -0.5430 -0.1718
 1851TIP3    H227113   1.525   6.400   2.642  0.1952  0.9508 -1.4737
 1852TIP3   OH227114   2.535   4.259   0.939  0.4124  0.0173 -0.0306
 1852TIP3    H127115   2.480   4.326   0.979  0.9202 -0.4602  1.5245
 1852TIP3    H227116   2.571   4.210   1.013  5.2223  2.0763 -0.6108
 1853TIP3   OH227117   6.007   6.788   7.245 -0.1197 -0.4921  0.7901
 1853TIP3    H127118   5.956   6.831   7.314  1.2276  1.0035  0.8937
 1853TIP3    H227119   6.043   6.710   7.287  0.1290  0.0437  1.5848
 1854TIP3   OH227120   1.741   4.890   2.001 -0.1397 -0.2804 -0.1082
 1854TIP3    H127121   1.646   4.879   1.995 -0.2688  0.9439 -0.6017
 1854TIP3    H227122   1.755   4.920   2.091 -0.3814  0.8521 -0.4346
 1855TIP3   OH227123   3.246   3.278   7.059  0.1023 -0.2332 -0.1024
 1855TIP3    H127124   3.328   3.228   7.056  0.5722  0.3376  1.9683
 1855TIP3    H227125   3.196   3.245   6.984  1.9426 -1.0567 -1.0397
 1856TIP3   OH227126   5.637   6.341   1.648 -0.0420  0.4339 -0.0709
 1856TIP3    H127127   5.714   6.390   1.621  0.3685  0.1535  0.5586
 1856TIP3    H227128   5.565   6.403   1.638  0.3885  0.9899  0.1786
 1857TIP3   OH227129   1.039   1.128   0.795 -0.2686 -0.0130  0.0175
 1857TIP3    H127130   1.026   1.083   0.878  2.3135  1.4541  1.3614
 1857TIP3    H227131   0.968   1.192   0.791 -0.0182  0.4171  1.5479
 1858TIP3   OH227132   3.109   0.164   0.581  0.1527  0.2544 -0.5081
 1858TIP3    H127133   3.052   0.102   0.535 -0.4848  0.9599 -0.6769
 1858TIP3    H227134   3.073   0.250   0.561  0.3746  0.6281  0.6094
 1859TIP3   OH227135   4.292   3.477   7.352  0.9522  0.7360  0.8691
 1859TIP3    H127136   4.385   3.493   7.337  0.9104 -0.9454 -1.9816
 1859TIP3    H227137   4.257   3.454   7.265 -1.9581  0.4671  1.9840
 1860TIP3   OH227138   1.525   1.057   0.357 -0.2599  0.0804 -0.7810
 1860TIP3    H127139   1.600   1.049   0.415  0.5426  1.3165 -1.5912
 1860TIP3    H227140   1.544   1.135   0.304 -1.6463 -0.1550 -1.6785
 1861TIP3   OH227141   4.308   6.049   2.028  0.5004  0.4070 -0.1944
 1861TIP3    H127142   4.399   6.077   2.025  0.9568 -0.9305  0.2886
 1861TIP3    H227143   4.259   6.121   1.989  1.5932  1.8458  0.9844
 1862TIP3   OH227144   3.032   6.124   8.746 -0.1606 -0.0071 -0.0591
 1862TIP3    H127145   2.976   6.196   8.719 -0.7918  0.1627  1.6239
 1862TIP3    H227146   2.972   6.050   8.758  0.3175 -0.4873 -0.5432
 1863TIP3   OH227147   0.877   1.320   7.561 -0.3912 -0.0638  0.0461
 1863TIP3    H127148   0.870   1.227   7.540 -4.6306  0.4566 -1.7078
 1863TIP3    H227149   0.913   1.360   7.481 -1.1579  0.0820 -0.2326
 1864TIP3   OH227150   3.002   6.561   1.691 -0.3614 -0.1099  0.1354
 1864TIP3    H127151   2.916   6.601   1.673 -0.9694 -0.7958  1.3681
 1864TIP3    H227152   2.995   6.473   1.654 -0.1386 -0.1097  0.0964
 1865TIP3   OH227153   1.324   3.015   0.866  0.1308 -0.3551  0.4279
 1865TIP3    H127154   1.260   2.997   0.797  1.1271  1.6830 -1.1283
 1865TIP3    H227155   1.272   3.024   0.945 -1.4277  0.3546 -0.6222
 1866TIP3   OH227156   6.113   0.173   8.406 -0.4848  0.2284  0.2271
 1866TIP3    H127157   6.186   0.230   8.381 -0.0490 -0.0611  0.8363
 1866TIP3    H227158   6.143   0.128   8.484 -0.7782 -0.9418 -0.3147
 1867TIP3   OH227159   0.302   1.339   1.100  0.0595 -0.5540  0.4421
 1867TIP3    H127160   0.281   1.430   1.121 -0.3491 -0.8225  1.2318
 1867TIP3    H227161   0.334   1.342   1.010  1.7343  0.6153  1.0321
 1868TIP3   OH227162   3.348   0.129   7.742 -0.0702 -1.0031 -0.1626
 1868TIP3    H127163   3.411   0.195   7.770 -1.8572  0.7001  0.0430
 1868TIP3    H227164   3.334   0.074   7.819  0.5953 -0.9358  0.0070
 1869TIP3   OH227165   5.684   5.543   2.323  0.2954  0.4589 -0.4280
 1869TIP3    H127166   5.671   5.617   2.383 -1.5710 -0.7148  0.7145
 1869TIP3    H227167   5.709   5.470   2.380  0.1332 -0.2804 -1.2796
 1870TIP3   OH227168   4.005   5.304   1.946 -0.0671 -0.1948  0.6483
 1870TIP3    H127169   3.987   5.278   2.037 -1.8089 -1.7112 -0.0610
 1870TIP3    H227170   4.028   5.397   1.952 -1.7958  0.2033  2.5146
 1871TIP3   OH227171   6.784   3.105   2.058 -0.4183 -0.3699 -0.3859
 1871TIP3    H127172   6.745   3.161   2.124  0.1596 -0.6160  0.1774
 1871TIP3    H227173   6.722   3.033   2.047 -1.1868  0.3914 -1.1482
 1872TIP3   OH227174   0.429   4.056   0.730 -0.1414 -0.4030  0.1127
 1872TIP3    H127175   0.525   4.053   0.730 -0.0652 -0.3441  2.6876
 1872TIP3    H227176   0.408   4.147   0.750 -0.7030 -0.5951  0.4272
 1873TIP3   OH227177   4.939   5.754   1.217  0.3395  0.5954  0.7861
 1873TIP3    H127178   5.000   5.753   1.291  1.4787 -1.7470 -0.0799
 1873TIP3    H227179   4.962   5.676   1.165 -2.9002  0.0041 -0.0193
 1874TIP3   OH227180   0.556   3.767   0.589  0.0215  0.4780 -0.1988
 1874TIP3    H127181   0.649   3.787   0.587  0.1240  0.4889  1.9646
 1874TIP3    H227182   0.513   3.850   0.565  0.5674  1.5208  2.0750
 1875TIP3   OH227183   4.091   1.736   7.742  0.5495  0.4770  0.1522
 1875TIP3    H127184   4.072   1.703   7.654  1.3297 -1.0896  0.5349
 1875TIP3    H227185   4.166   1.795   7.730 -0.6011  1.8776 -0.4821
 1876TIP3   OH227186   0.114   1.519   7.883 -0.0280  0.3260  0.5010
 1876TIP3    H127187   0.029   1.558   7.861  0.7186  1.2805 -0.8463
 1876TIP3    H227188   0.145   1.569   7.958 -1.5753 -1.4522  2.4521
 1877TIP3   OH227189   1.162   6.704   8.260 -0.2056  0.0269  0.2348
 1877TIP3    H127190   1.094   6.719   8.194  0.3441 -0.0300 -0.3548
 1877TIP3    H227191   1.155   6.778   8.319 -0.4643  0.2702 -0.0972
 1878TIP3   OH227192   1.778   3.442   2.905 -0.5058  0.3562 -0.0390
 1878TIP3    H127193   1.741   3.531   2.907  0.4571  0.7629  2.5563
 1878TIP3    H227194   1.728   3.398   2.835 -0.7801  2.9841 -1.6510
 1879TIP3   OH227195   3.065   1.573   1.961 -0.4262 -0.6901  0.2054
 1879TIP3    H127196   3.064   1.665   1.987  3.3629 -0.7451  1.1449
 1879TIP3    H227197   3.022   1.526   2.033  3.4607 -0.1246  3.2187
 1880TIP3   OH227198   6.671   6.493   1.051 -0.5010  0.1952 -0.0841
 1880TIP3    H127199   6.624   6.440   1.115 -2.9926  0.6799 -1.3826
 1880TIP3    H227200   6.732   6.433   1.009  0.2921 -0.4033  1.8541
 1881TIP3   OH227201   6.359   3.085   1.520  0.0964 -0.1278 -0.3140
 1881TIP3    H127202   6.307   3.012   1.488 -0.6737  0.4823 -0.4696
 1881TIP3    H227203   6.336   3.158   1.463 -0.8076  0.8145  1.1801
 1882TIP3   OH227204   5.856   2.401   0.281  0.2275  0.3749 -0.0884
 1882TIP3    H127205   5.782   2.339   0.281 -0.5345  1.2740  0.3224
 1882TIP3    H227206   5.855   2.440   0.368 -0.5365  2.3943 -0.9505
 1883TIP3   OH227207   5.674   0.107   1.678 -0.5239  0.0718  0.3113
 1883TIP3    H127208   5.725   0.187   1.689 -0.4842  0.0291  0.4381
 1883TIP3    H227209   5.610   0.109   1.750  0.4666 -0.7737  1.2598
 1884TIP3   OH227210   1.324   4.892   7.851 -0.4219 -0.1553  0.6264
 1884TIP3    H127211   1.334   4.959   7.784  2.3225  0.0409  1.1106
 1884TIP3    H227212   1.232   4.896   7.875 -0.7472  2.1507 -0.6784
 1885TIP3   OH227213   5.784   4.257   8.026  0.0151  0.4629  0.2475
 1885TIP3    H127214   5.793   4.340   8.073 -1.1408  1.0554 -0.5405
 1885TIP3    H227215   5.799   4.190   8.093  0.0153  1.2950  1.1005
 1886TIP3   OH227216   1.361   4.015   8.515 -0.2030  0.3853 -0.2000
 1886TIP3    H127217   1.331   4.106   8.503 -0.9054 -0.0446 -2.0091
 1886TIP3    H227218   1.410   3.995   8.434 -3.1155 -1.9716 -1.5558
 1887TIP3   OH227219   4.034   4.099   8.044 -0.3602  0.0517 -0.1708
 1887TIP3    H127220   4.097   4.131   7.980  1.4802 -1.3729  0.8302
 1887TIP3    H227221   4.035   4.004   8.034 -1.5186 -0.0737  0.6371
 1888TIP3   OH227222   1.409   3.586   2.342  0.4298  0.6655 -0.0682
 1888TIP3    H127223   1.483   3.539   2.381  0.7649 -0.1660 -1.6255
 1888TIP3    H227224   1.345   3.517   2.321 -1.4004  1.4713  2.3638
 1889TIP3   OH227225   5.548   5.507   8.090 -0.7639 -0.0174 -0.4556
 1889TIP3    H127226   5.557   5.431   8.148 -0.7566  0.5302  0.2855
 1889TIP3    H227227   5.524   5.470   8.005  1.2856 -0.9882 -0.6598
 1890TIP3   OH227228   0.133   2.681   0.894 -0.2017  0.0778 -1.0134
 1890TIP3    H127229   0.190   2.722   0.830  1.8108 -1.6065 -0.4042
 1890TIP3    H227230   0.160   2.719   0.978 -0.0092 -0.6604 -0.7313
 1891TIP3   OH227231   4.975   4.959   8.748  0.0288 -0.7228 -0.1686
 1891TIP3    H127232   4.953   4.971   8.841  0.9318 -0.1162 -0.0262
 1891TIP3    H227233   4.904   4.905   8.714 -0.3949 -0.8279  0.8426
 1892TIP3   OH227234   2.030   3.918   1.806  0.3930  0.0442 -0.5033
 1892TIP3    H127235   2.011   3.993   1.862 -0.6832 -0.8503  0.3745
 1892TIP3    H227236   1.953   3.862   1.814  1.1375 -1.1213 -1.2131
 1893TIP3   OH227237   3.745   1.816   7.554  0.3322 -0.0366  0.2915
 1893TIP3    H127238   3.703   1.818   7.468  2.6462 -1.0242 -0.9567
 1893TIP3    H227239   3.725   1.729   7.588  2.5497 -1.1632 -1.0425
 1894TIP3   OH227240   2.886   2.641   0.311 -0.0496  0.2418  0.2984
 1894TIP3    H127241   2.928   2.686   0.384 -0.9526 -0.9488  1.6177
 1894TIP3    H227242   2.956   2.592   0.269  0.7567  2.0570 -0.5518
 1895TIP3   OH227243   6.776   5.396   1.331 -0.1492  0.5662  0.3040
 1895TIP3    H127244   6.793   5.408   1.425  0.7260 -0.0026  0.2368
 1895TIP3    H227245   6.685   5.422   1.319 -2.3421 -4.7391  2.3980
 1896TIP3   OH227246   4.890   3.879   1.484 -0.0210 -0.0505 -0.8830
 1896TIP3    H127247   4.840   3.872   1.566 -0.6913 -0.0450 -1.2781
 1896TIP3    H227248   4.975   3.841   1.504 -0.3699 -0.5705 -0.3399
 1897TIP3   OH227249   2.504   5.192   8.008 -0.2803 -0.6256  0.4219
 1897TIP3    H127250   2.497   5.147   7.923  1.3797 -1.6524  0.7809
 1897TIP3    H227251   2.593   5.226   8.010 -0.2218 -0.8124  1.8411
 1898TIP3   OH227252   1.469   4.319   1.768  0.9918 -0.2411  0.3442
 1898TIP3    H127253   1.453   4.284   1.855  0.4183 -1.6077 -0.2883
 1898TIP3    H227254   1.490   4.243   1.714 -0.4001  0.3354 -1.1005
 1899TIP3   OH227255   0.773   2.814   8.170  0.0846  0.7191 -0.0311
 1899TIP3    H127256   0.678   2.803   8.170 -0.1042  1.7134  2.5614
 1899TIP3    H227257   0.806   2.736   8.214  0.3662  0.8522 -0.0086
 1900TIP3   OH227258   1.429   3.800   0.664  0.2930  0.0778 -0.5043
 1900TIP3    H127259   1.409   3.868   0.729 -2.0483  0.3043 -1.3597
 1900TIP3    H227260   1.494   3.839   0.607 -0.1735  1.1855 -0.3032
 1901TIP3   OH227261   3.439   1.662   8.162  0.0587 -0.1820 -0.1745
 1901TIP3    H127262   3.402   1.575   8.152  0.5227 -0.4392  0.3292
 1901TIP3    H227263   3.369   1.721   8.132 -0.0822 -0.7389 -0.9537
 1902TIP3   OH227264   3.644   2.208   8.653 -0.1407 -0.3218  0.6001
 1902TIP3    H127265   3.710   2.268   8.686  0.9486 -0.8972 -0.4458
 1902TIP3    H227266   3.593   2.260   8.591  1.3602 -0.6550 -0.9788
 1903TIP3   OH227267   5.859   1.489   7.970  0.2339  0.3167  0.0009
 1903TIP3    H127268   5.814   1.559   8.017  1.8563  1.4936 -0.0975
 1903TIP3    H227269   5.864   1.417   8.032 -1.0734  0.4385  0.2629
 1904TIP3   OH227270   3.022   0.878   7.939 -0.5805 -0.3997 -0.1823
 1904TIP3    H127271   3.112   0.906   7.954 -0.1554 -1.4486 -0.6581
 1904TIP3    H227272   2.994   0.929   7.862 -0.1183 -0.6316 -0.5112
 1905TIP3   OH227273   0.710   3.276   0.471 -0.3003 -0.2496  0.0832
 1905TIP3    H127274   0.649   3.232   0.530 -0.6348  0.4640  0.2888
 1905TIP3    H227275   0.724   3.362   0.512  0.4483 -0.2160 -0.2249
 1906TIP3   OH227276   0.967   2.747   8.400 -0.1612 -0.1199 -0.3322
 1906TIP3    H127277   1.020   2.751   8.481  1.5866  2.1558 -1.4685
 1906TIP3    H227278   0.984   2.659   8.366  0.7891 -0.3757  0.6977
 1907TIP3   OH227279   0.138   6.215   7.674 -0.4118 -0.5362  0.8002
 1907TIP3    H127280   0.230   6.229   7.696 -0.4575 -0.8842  1.2075
 1907TIP3    H227281   0.132   6.238   7.581 -0.0797  0.2718  0.9634
 1908TIP3   OH227282   6.377   6.697   0.951  0.0684 -0.0715 -0.2634
 1908TIP3    H127283   6.376   6.762   1.021 -0.5704  0.8830 -1.1300
 1908TIP3    H227284   6.321   6.734   0.883 -2.1374 -2.4912  0.0658
 1909TIP3   OH227285   2.678   0.625   2.108  0.0805 -0.2010  0.0624
 1909TIP3    H127286   2.733   0.702   2.094 -0.0525 -0.2317 -0.6747
 1909TIP3    H227287   2.735   0.551   2.087 -1.2189 -0.1568 -4.5932
 1910TIP3   OH227288   5.134   6.332   7.293 -0.5313  0.5236  0.1909
 1910TIP3    H127289   5.058   6.305   7.345 -1.0281  1.0522 -0.2366
 1910TIP3    H227290   5.114   6.423   7.268 -0.2753  0.3036 -0.8541
 1911TIP3   OH227291   0.334   1.627   2.107 -0.5484  0.4426  0.6295
 1911TIP3    H127292   0.283   1.557   2.065  0.4277 -0.6427  1.1747
 1911TIP3    H227293   0.269   1.683   2.149 -1.3482 -0.2712  0.3668
 1912TIP3   OH227294   3.618   1.856   0.179  0.1608 -0.0272 -0.3344
 1912TIP3    H127295   3.593   1.777   0.226  0.6102  0.8132  1.4233
 1912TIP3    H227296   3.544   1.874   0.120 -0.5939 -0.9510  0.3011
 1913TIP3   OH227297   0.410   2.828   2.468  0.8348 -0.3185 -0.2301
 1913TIP3    H127298   0.444   2.886   2.536  0.3353  1.4041 -1.3980
 1913TIP3    H227299   0.316   2.823   2.485  0.3754  1.6843 -1.8526
 1914TIP3   OH227300   4.310   4.571   1.749 -0.1166 -0.0314 -0.1802
 1914TIP3    H127301   4.364   4.572   1.670  0.4029 -0.2884  0.1652
 1914TIP3    H227302   4.221   4.591   1.718  0.1587  0.3016 -0.7651
 1915TIP3   OH227303   0.916   3.108   2.776 -0.1786 -0.0805  0.7315
 1915TIP3    H127304   0.834   3.121   2.824  0.3315  0.0172  1.5796
 1915TIP3    H227305   0.925   3.013   2.769 -0.1013 -0.0980  1.0832
 1916TIP3   OH227306   5.071   6.810   2.630  0.4028  0.5632 -0.0297
 1916TIP3    H127307   4.986   6.777   2.657  0.0596  0.2325 -1.4077
 1916TIP3    H227308   5.133   6.745   2.663 -0.0701 -0.2661 -0.7206
 1917TIP3   OH227309   4.268   4.268   8.543 -0.6938 -0.5987  0.2384
 1917TIP3    H127310   4.289   4.195   8.485 -2.3995 -1.5683  0.7924
 1917TIP3    H227311   4.313   4.343   8.504  1.5397 -1.9980 -0.0594
 1918TIP3   OH227312   2.055   0.159   2.314  0.1272 -0.2657  0.2409
 1918TIP3    H127313   2.008   0.158   2.231  0.0947  1.8960  0.1780
 1918TIP3    H227314   2.144   0.130   2.292  0.3835  1.1522 -0.7858
 1919TIP3   OH227315   3.905   3.731   0.535 -0.6230  0.8195  0.0785
 1919TIP3    H127316   3.997   3.756   0.521 -0.3477 -0.0471  0.2782
 1919TIP3    H227317   3.855   3.808   0.509 -0.0338  0.2101 -3.2680
 1920TIP3   OH227318   0.221   4.211   7.783 -0.2450 -0.4943 -0.3870
 1920TIP3    H127319   0.232   4.304   7.763  1.3680 -0.3044  1.1130
 1920TIP3    H227320   0.143   4.208   7.839  0.2548  0.1175  0.3717
 1921TIP3   OH227321   1.628   6.380   2.476  0.4594 -0.0598 -0.5636
 1921TIP3    H127322   1.718   6.406   2.494  0.1643  0.1589  0.6950
 1921TIP3    H227323   1.628   6.285   2.484  0.3799  0.0182  0.4228
 1922TIP3   OH227324   6.370   2.986   0.893 -0.9679 -0.0299  0.3770
 1922TIP3    H127325   6.414   3.071   0.897  1.1935 -0.9374 -1.9349
 1922TIP3    H227326   6.396   2.942   0.974  2.6284 -0.5355 -0.8904
 1923TIP3   OH227327   1.887   2.218   1.804 -0.3483  0.0516 -0.3658
 1923TIP3    H127328   1.982   2.228   1.813 -0.1755  0.9173 -2.5749
 1923TIP3    H227329   1.860   2.290   1.747 -2.2008 -0.6625 -0.4750
 1924TIP3   OH227330   3.078   2.532   1.550 -0.1927  0.2829 -0.6237
 1924TIP3    H127331   3.130   2.454   1.572  0.6462  1.0633  0.2522
 1924TIP3    H227332   3.057   2.521   1.457 -1.8321 -1.9741 -0.0737
 1925TIP3   OH227333   6.294   6.266   2.697  0.0746 -0.2019  0.7650
 1925TIP3    H127334   6.267   6.343   2.647 -1.4850 -1.2125 -0.0523
 1925TIP3    H227335   6.216   6.210   2.698  1.2435 -1.9032  1.0554
 1926TIP3   OH227336   1.031   3.485   7.877 -0.2070 -0.1608  0.1499
 1926TIP3    H127337   1.072   3.522   7.955 -1.6249  1.8435 -0.0074
 1926TIP3    H227338   1.036   3.390   7.891 -0.9480  0.1244  2.9749
 1927TIP3   OH227339   5.587   4.060   2.990 -0.2456 -0.0953  0.7513
 1927TIP3    H127340   5.569   4.143   2.945  0.6149 -1.0391 -1.4493
 1927TIP3    H227341   5.518   4.001   2.959  0.9642 -1.0540 -0.1805
 1928TIP3   OH227342   0.502   1.434   0.546  0.1587  0.0495 -0.6955
 1928TIP3    H127343   0.481   1.515   0.499 -1.8459 -0.9783 -1.6729
 1928TIP3    H227344   0.596   1.423   0.534  0.8401  3.0809  0.8943
 1929TIP3   OH227345   6.270   1.374   0.232 -0.0456  0.1928  0.8423
 1929TIP3    H127346   6.204   1.415   0.287 -0.3177  0.2039  0.5105
 1929TIP3    H227347   6.259   1.415   0.146  0.8723  0.7199  0.9655
 1930TIP3   OH227348   1.420   6.326   1.935  0.9308  0.1618  0.0297
 1930TIP3    H127349   1.451   6.283   2.014  0.7512  1.9154  1.1108
 1930TIP3    H227350   1.325   6.331   1.945  0.8089 -0.4394 -0.7514
 1931TIP3   OH227351   0.126   2.531   0.003  0.0514  0.1180 -0.6154
 1931TIP3    H127352   0.189   2.586   0.051 -1.1335  1.2731 -0.3392
 1931TIP3    H227353   0.082   2.592  -0.056 -0.6139 -0.7250 -1.0015
 1932TIP3   OH227354   3.202   3.570   7.138 -0.3627  0.1212 -0.1283
 1932TIP3    H127355   3.209   3.478   7.113 -0.0484 -0.3849  1.6543
 1932TIP3    H227356   3.183   3.616   7.057 -1.3376 -1.6151 -0.9402
 1933TIP3   OH227357   2.219   6.246   8.724  0.5767  0.0436 -0.2710
 1933TIP3    H127358   2.247   6.186   8.793  0.1816  0.0154 -0.1344
 1933TIP3    H227359   2.288   6.312   8.721  1.1055 -0.5068 -0.5386
 1934TIP3   OH227360   4.899   0.995   0.239 -0.6634  0.0817  0.1075
 1934TIP3    H127361   4.813   0.996   0.197  0.0592 -0.9379 -1.5295
 1934TIP3    H227362   4.918   0.902   0.254  0.5302  0.2145 -0.4468
 1935TIP3   OH227363   1.440   3.588   1.608 -0.2644  0.3609  0.1661
 1935TIP3    H127364   1.350   3.560   1.596 -0.1969  0.3708 -0.3682
 1935TIP3    H227365   1.461   3.637   1.529 -0.6733  2.7365  1.4237
 1936TIP3   OH227366   1.693   3.173   6.496 -0.4165  0.2760 -0.6244
 1936TIP3    H127367   1.710   3.262   6.527 -0.4736  0.5425 -1.3414
 1936TIP3    H227368   1.763   3.120   6.534 -1.1351  0.3702  0.9087
 1937TIP3   OH227369   3.353   6.706   8.385  0.0965 -0.6138 -0.4428
 1937TIP3    H127370   3.420   6.773   8.373 -0.4757  0.2990  1.2674
 1937TIP3    H227371   3.390   6.627   8.344  2.0775 -0.0553  0.2074
 1938TIP3   OH227372   5.857   2.696   1.957 -0.1426 -0.7162 -0.0653
 1938TIP3    H127373   5.824   2.785   1.966  1.0555 -0.1988 -0.5349
 1938TIP3    H227374   5.780   2.644   1.931 -0.5530  0.4844 -1.3758
 1939TIP3   OH227375   2.221   5.490   0.556  0.0284  0.1430 -0.2722
 1939TIP3    H127376   2.142   5.537   0.531 -0.0182  0.0875 -0.2299
 1939TIP3    H227377   2.274   5.488   0.476  0.1239  0.4538 -0.2188
 1940TIP3   OH227378   6.155   1.124   0.786 -0.5600  0.0594  0.7468
 1940TIP3    H127379   6.173   1.217   0.778 -2.3071  0.4169  0.4324
 1940TIP3    H227380   6.240   1.083   0.799  0.1127  1.8337  2.2929
 1941TIP3   OH227381   0.594   2.688   1.588  0.1790 -0.1420  0.3228
 1941TIP3    H127382   0.534   2.641   1.646 -0.9552  0.6526 -0.1731
 1941TIP3    H227383   0.679   2.648   1.605 -0.4108 -1.0404  1.3270
 1942TIP3   OH227384   2.315   5.955   8.110 -0.1764 -0.1971  0.2726
 1942TIP3    H127385   2.302   5.860   8.103  2.0086 -0.5576  0.2776
 1942TIP3    H227386   2.396   5.964   8.161  0.1484  1.6507 -0.4840
 1943TIP3   OH227387   0.402   6.733   8.780 -0.1660 -0.2668  0.4877
 1943TIP3    H127388   0.380   6.640   8.789 -1.6508  0.0548  0.4423
 1943TIP3    H227389   0.378   6.754   8.690 -1.4680  0.5454  0.9981
 1944TIP3   OH227390   4.241   0.918   0.924 -0.3691  0.4826 -0.3088
 1944TIP3    H127391   4.149   0.894   0.910  0.2194 -2.3769  0.0865
 1944TIP3    H227392   4.290   0.861   0.865  1.2407  0.4650  0.9804
 1945TIP3   OH227393   5.891   3.975   0.052  0.2229  0.4399  0.8026
 1945TIP3    H127394   5.971   3.923   0.052  0.1881  0.3855  0.8836
 1945TIP3    H227395   5.906   4.042  -0.015 -0.6803 -1.1331 -1.0526
 1946TIP3   OH227396   1.484   5.080   1.798 -0.7069  0.2321  0.3803
 1946TIP3    H127397   1.557   5.132   1.765  0.5378 -1.2093  0.7407
 1946TIP3    H227398   1.431   5.142   1.848  1.2668  0.9920  1.6413
 1947TIP3   OH227399   1.360   5.960   8.566  0.1281 -0.0462  0.3077
 1947TIP3    H127400   1.412   6.039   8.585 -1.1075  0.8535  0.0757
 1947TIP3    H227401   1.312   5.943   8.647  1.3557 -1.3694  0.8020
 1948TIP3   OH227402   6.144   6.042   8.536 -0.3704 -0.1303  0.1363
 1948TIP3    H127403   6.142   6.135   8.516  0.8539 -0.3141 -0.9310
 1948TIP3    H227404   6.118   6.037   8.628  1.7684  1.4830  0.9079
 1949TIP3   OH227405   1.281   4.533   0.614 -0.4513  0.3221  0.5376
 1949TIP3    H127406   1.271   4.502   0.524  0.3880 -0.9882  0.8617
 1949TIP3    H227407   1.376   4.532   0.629 -0.5691  0.7572  1.3670
 1950TIP3   OH227408   0.208   1.571   7.509  0.4453 -0.0056 -1.1388
 1950TIP3    H127409   0.115   1.585   7.526  0.4316 -0.0485 -1.1784
 1950TIP3    H227410   0.226   1.619   7.428  0.0995 -1.3029 -2.0124
 1951TIP3   OH227411   4.785   4.359   7.555  0.0488  0.2044  0.1154
 1951TIP3    H127412   4.866   4.369   7.604  1.8766 -1.1330 -2.4041
 1951TIP3    H227413   4.758   4.268   7.572  0.2645 -0.0200 -0.7151
 1952TIP3   OH227414   0.992   0.176   1.503 -0.1585  0.5007  0.0631
 1952TIP3    H127415   1.008   0.096   1.554  0.5560 -0.1405 -1.1039
 1952TIP3    H227416   0.961   0.240   1.567 -1.8807 -1.0257  0.8510
 1953TIP3   OH227417   1.313   5.173   0.669 -0.4186 -0.1326 -0.0769
 1953TIP3    H127418   1.323   5.079   0.654 -1.2117 -0.1480 -0.5827
 1953TIP3    H227419   1.325   5.184   0.763 -2.2983 -1.0343  0.3111
 1954TIP3   OH227420   3.084   6.722   8.179 -0.2273  0.5344  0.1965
 1954TIP3    H127421   3.133   6.662   8.235  1.7518 -0.0966 -2.0124
 1954TIP3    H227422   3.144   6.796   8.165 -0.1860  0.1843 -1.8374
 1955TIP3   OH227423   6.708   6.043   1.621  0.4554 -0.0140  0.9602
 1955TIP3    H127424   6.715   6.078   1.709  0.1493  2.7135 -0.0243
 1955TIP3    H227425   6.619   6.067   1.592  0.3290 -1.3798  0.1022
 1956TIP3   OH227426   1.378   1.422   0.505 -0.1331  0.1680  0.0703
 1956TIP3    H127427   1.378   1.507   0.549  2.5637 -0.1663  0.9159
 1956TIP3    H227428   1.327   1.436   0.425 -0.7539  2.2288  0.7706
 1957TIP3   OH227429   5.552   4.963   1.319  0.6176 -0.4873 -0.6769
 1957TIP3    H127430   5.561   4.954   1.414 -1.4546  0.6052 -0.3310
 1957TIP3    H227431   5.502   4.885   1.292  0.4070 -0.3369 -0.7243
 1958TIP3   OH227432   3.303   0.657   1.481 -0.0414 -0.7553 -0.9930
 1958TIP3    H127433   3.307   0.623   1.392 -1.2368 -0.6805 -1.0963
 1958TIP3    H227434   3.230   0.719   1.479  0.4693 -0.1105 -0.1704
 1959TIP3   OH227435   6.738   2.772   6.990  0.3932 -0.1407 -0.1822
 1959TIP3    H127436   6.747   2.867   7.002  1.6745 -0.1617 -0.8091
 1959TIP3    H227437   6.694   2.763   6.906  0.1578 -0.1115 -0.0643
 1960TIP3   OH227438   4.318   2.995   2.210  0.2161  0.1574  0.3145
 1960TIP3    H127439   4.411   3.016   2.217  0.6810 -1.7060  0.1560
 1960TIP3    H227440   4.314   2.900   2.218 -1.5642  0.0825 -0.8825
 1961TIP3   OH227441   3.829   0.143   8.401 -0.0753 -0.4380  0.4624
 1961TIP3    H127442   3.830   0.211   8.469  2.7780 -0.9563  1.0583
 1961TIP3    H227443   3.909   0.158   8.351 -0.6609 -1.8495 -0.9708
 1962TIP3   OH227444   5.994   5.898   7.944  0.3088  0.1772 -0.5146
 1962TIP3    H127445   5.984   5.871   7.853 -0.9724  1.0290 -0.6547
 1962TIP3    H227446   5.963   5.989   7.945 -0.2518 -0.0080  0.8797
 1963TIP3   OH227447   3.649   1.658   1.875 -0.0653 -0.2299 -0.2209
 1963TIP3    H127448   3.727   1.677   1.823  0.1471  2.0544  0.7999
 1963TIP3    H227449   3.630   1.566   1.858  3.1815 -1.0487 -0.0612
 1964TIP3   OH227450   3.249   4.710   2.445 -0.0024 -0.8681  0.1531
 1964TIP3    H127451   3.221   4.648   2.377  0.4371 -0.2419 -0.6216
 1964TIP3    H227452   3.173   4.766   2.460  0.4009  0.0587 -1.0670
 1965TIP3   OH227453   2.104   4.232   8.143 -0.3595  0.3191  0.3216
 1965TIP3    H127454   2.078   4.201   8.056 -0.9147 -0.3779  0.7231
 1965TIP3    H227455   2.082   4.326   8.142 -1.9808 -0.0277  0.2747
 1966TIP3   OH227456   3.921   1.032   7.993  0.3153  0.0735  0.3998
 1966TIP3    H127457   3.942   1.084   8.071 -0.4317 -1.2279  1.5302
 1966TIP3    H227458   3.861   0.965   8.025  0.1738 -0.6473 -1.2750
 1967TIP3   OH227459   4.326   1.385   7.248  0.0057 -0.5578  0.0761
 1967TIP3    H127460   4.326   1.308   7.191  0.2622 -1.9814  1.9033
 1967TIP3    H227461   4.307   1.458   7.189  0.3041 -1.9217 -1.8283
 1968TIP3   OH227462   0.650   4.372   7.894  0.2587 -0.3759  0.3366
 1968TIP3    H127463   0.605   4.403   7.972 -2.4932 -0.1780 -1.2015
 1968TIP3    H227464   0.635   4.278   7.893 -0.4800 -0.2564 -0.3891
 1969TIP3   OH227465   0.793   5.058   7.284  0.3845  0.9582  0.3999
 1969TIP3    H127466   0.858   5.090   7.348 -1.4589  0.8389  2.4386
 1969TIP3    H227467   0.737   4.999   7.335 -0.9347  0.5486 -1.4516
 1970TIP3   OH227468   2.897   5.608   8.410 -0.0625  0.1019  0.1443
 1970TIP3    H127469   2.959   5.541   8.380  2.7260  1.8184  1.6285
 1970TIP3    H227470   2.854   5.569   8.486  0.8350 -0.3727  0.4227
 1971TIP3   OH227471   4.415   3.817   6.569  0.1633 -0.2839  0.3284
 1971TIP3    H127472   4.357   3.860   6.632 -1.3887  2.3608 -2.6268
 1971TIP3    H227473   4.361   3.749   6.528  0.3019 -0.2089  0.0147
 1972TIP3   OH227474   4.027   2.562   0.036 -0.1255  0.3711  0.1761
 1972TIP3    H127475   4.076   2.584   0.116 -1.2406 -0.8968  1.2599
 1972TIP3    H227476   4.092   2.522  -0.021  0.9336  2.2663 -0.0358
 1973TIP3   OH227477   1.445   6.657   7.881  0.0662  0.2801 -0.2810
 1973TIP3    H127478   1.529   6.649   7.925 -0.6820  0.6081  1.2792
 1973TIP3    H227479   1.451   6.739   7.831  1.2239 -0.5253 -1.5391
 1974TIP3   OH227480   0.163   1.285   2.369 -0.0453 -0.2078 -0.0553
 1974TIP3    H127481   0.085   1.230   2.367 -0.5837  0.4686  1.1028
 1974TIP3    H227482   0.188   1.286   2.462  0.8781  0.2205 -0.3042
 1975TIP3   OH227483   4.945   5.723   8.184 -0.0442  0.4282  0.0467
 1975TIP3    H127484   5.014   5.674   8.140  0.4921 -0.0130  1.3327
 1975TIP3    H227485   4.880   5.740   8.115  0.1118 -1.4050 -0.6016
 1976TIP3   OH227486   4.935   2.315   1.172  0.6028  0.5133 -1.1638
 1976TIP3    H127487   4.865   2.368   1.133 -0.5789  0.2491  0.4880
 1976TIP3    H227488   4.904   2.225   1.164  0.7944  0.3852 -0.5053
 1977TIP3   OH227489   1.333   0.908   1.047 -0.2960  0.2491  0.0012
 1977TIP3    H127490   1.345   0.858   0.966 -0.7819 -1.0810  0.7297
 1977TIP3    H227491   1.379   0.857   1.114 -0.1218  1.1991  0.6288
 1978TIP3   OH227492   0.275   0.131   2.174  0.1167 -0.1692  0.2359
 1978TIP3    H127493   0.184   0.108   2.191 -0.1597 -0.5474 -1.5175
 1978TIP3    H227494   0.305   0.173   2.254 -1.6355  0.0706  0.8069
 1979TIP3   OH227495   3.050   2.666   8.307  0.2836  0.2761 -0.4222
 1979TIP3    H127496   3.099   2.614   8.244  0.3613 -0.5499  0.3115
 1979TIP3    H227497   3.008   2.602   8.365 -0.6705  0.9943 -0.2835
 1980TIP3   OH227498   1.477   5.949   2.206  0.1027  0.1085 -0.0447
 1980TIP3    H127499   1.401   5.961   2.262 -0.2600  0.0388 -0.5190
 1980TIP3    H227500   1.545   5.915   2.265 -0.8807 -1.9990 -0.0240
 1981TIP3   OH227501   6.530   4.956   2.173  0.1256 -0.2045  0.2950
 1981TIP3    H127502   6.612   4.909   2.162 -0.3208 -1.4124  1.7535
 1981TIP3    H227503   6.530   5.022   2.104  2.4956  0.1047  0.5341
 1982TIP3   OH227504   6.033   0.960   1.317 -0.5819  0.2802 -0.6511
 1982TIP3    H127505   6.118   0.952   1.274  0.1598  1.4229  0.5246
 1982TIP3    H227506   5.985   1.026   1.266 -1.0282 -0.7813 -1.6599
 1983TIP3   OH227507   0.166   3.760   1.249  0.0182  0.3628 -0.4624
 1983TIP3    H127508   0.225   3.815   1.198  2.6001 -2.6421 -1.0422
 1983TIP3    H227509   0.099   3.731   1.187  1.6420 -1.1720 -1.5974
 1984TIP3   OH227510   5.139   0.272   1.487  0.6751 -0.3185 -0.2058
 1984TIP3    H127511   5.139   0.187   1.531  1.7870 -0.4756 -0.4597
 1984TIP3    H227512   5.227   0.306   1.502 -0.4640  1.9486  2.0031
 1985TIP3   OH227513   3.438   5.566   8.429 -0.3810 -0.3597 -0.0207
 1985TIP3    H127514   3.502   5.585   8.361 -1.8985 -0.5513 -1.5568
 1985TIP3    H227515   3.440   5.643   8.486 -0.7109  0.8804 -1.6051
 1986TIP3   OH227516   4.840   5.366   2.727 -0.0511  0.3647 -0.1719
 1986TIP3    H127517   4.756   5.405   2.752  0.2373 -0.2150  1.9023
 1986TIP3    H227518   4.842   5.282   2.774  0.8475 -0.5757 -1.7850
 1987TIP3   OH227519   6.397   3.145   8.679 -0.1749  0.0240 -0.2065
 1987TIP3    H127520   6.422   3.057   8.706  0.5578  0.0599 -0.7476
 1987TIP3    H227521   6.480   3.192   8.669 -0.4946  0.3899 -1.2482
 1988TIP3   OH227522   2.318   4.045   1.049 -0.0549 -0.0766 -0.1139
 1988TIP3    H127523   2.289   4.106   0.981 -1.9462 -0.4639  0.2677
 1988TIP3    H227524   2.262   3.968   1.037  0.5756 -0.7272  0.9724
 1989TIP3   OH227525   1.349   0.362   0.670  0.0839  0.1776 -0.8844
 1989TIP3    H127526   1.363   0.371   0.764 -0.8625  0.9738 -0.8042
 1989TIP3    H227527   1.432   0.392   0.631  0.2625  0.4365 -0.3202
 1990TIP3   OH227528   5.057   3.083   1.377 -0.0596  0.1314  0.3271
 1990TIP3    H127529   5.118   3.032   1.429  0.3330  0.2918  0.0259
 1990TIP3    H227530   5.094   3.083   1.289 -0.1294  0.8043  0.2921
 1991TIP3   OH227531   5.007   4.653   8.503 -0.7110  0.1643  0.0607
 1991TIP3    H127532   5.020   4.560   8.522 -0.9017  0.0988 -0.1237
 1991TIP3    H227533   4.928   4.676   8.552 -0.2629  0.4055  0.6780
 1992TIP3   OH227534   5.560   4.287   2.565 -0.5688  0.0367 -0.4954
 1992TIP3    H127535   5.538   4.331   2.483  0.0600  0.0990 -0.6353
 1992TIP3    H227536   5.546   4.194   2.547 -1.4296  0.1275 -0.3484
 1993TIP3   OH227537   3.001   0.764   0.649  0.6523  0.0454  0.4227
 1993TIP3    H127538   3.088   0.724   0.643  1.0333  0.0762  3.8830
 1993TIP3    H227539   2.990   0.785   0.742 -2.6008  1.1356 -0.0710
 1994TIP3   OH227540   1.950   2.329   8.782  0.6376  0.0338  0.0373
 1994TIP3    H127541   2.024   2.383   8.757  1.2897 -1.0182 -0.3833
 1994TIP3    H227542   1.975   2.240   8.756  0.8994 -1.0235  3.3471
 1995TIP3   OH227543   2.083   5.134   1.056  0.1642 -0.2163 -0.0448
 1995TIP3    H127544   2.027   5.113   0.981 -0.6780  3.5516 -0.6422
 1995TIP3    H227545   2.166   5.161   1.017  0.2573  0.2783  0.4889
 1996TIP3   OH227546   0.449   2.006   0.142  0.1231  0.3365  0.1006
 1996TIP3    H127547   0.370   2.046   0.177  0.3324  0.9667 -0.1399
 1996TIP3    H227548   0.421   1.962   0.062  0.2050  1.4763 -0.5737
 1997TIP3   OH227549   1.090   1.285   7.759 -0.3886 -0.1173 -0.1030
 1997TIP3    H127550   1.031   1.290   7.683 -3.6962  0.8732  2.2839
 1997TIP3    H227551   1.173   1.318   7.727 -1.9273  1.3298 -3.0423
 1998TIP3   OH227552   2.809   0.621   7.760 -0.1797  0.4325 -0.1479
 1998TIP3    H127553   2.864   0.675   7.703  0.6539 -0.0048  0.2290
 1998TIP3    H227554   2.869   0.590   7.828 -0.8821 -0.1200  0.2242
 1999TIP3   OH227555   4.027   6.792   7.008 -0.2568 -0.4670 -0.2763
 1999TIP3    H127556   3.986   6.817   6.926  1.5604  1.5921 -0.6222
 1999TIP3    H227557   3.994   6.856   7.072  0.6251 -0.2220 -0.0612
 2000TIP3   OH227558   3.072   3.522   1.775 -0.3999 -0.4680  0.0297
 2000TIP3    H127559   2.980   3.528   1.801 -0.0769 -2.0759  1.7728
 2000TIP3    H227560   3.084   3.429   1.753  0.3244  0.1169 -2.2901
 2001TIP3   OH227561   6.137   1.513   1.733  1.1424 -0.0391  0.5159
 2001TIP3    H127562   6.173   1.512   1.821 -0.5697  0.5301  1.2690
 2001TIP3    H227563   6.092   1.428   1.725 -0.0007  0.5182  0.7953
 2002TIP3   OH227564   4.499   1.506   2.788 -0.0651 -0.1849  0.1034
 2002TIP3    H127565   4.569   1.572   2.791 -0.7603  0.6344 -0.8133
 2002TIP3    H227566   4.529   1.443   2.723 -0.0930  0.0830 -0.1764
 2003TIP3   OH227567   3.866   3.810   1.022  0.3284 -0.3418  0.4908
 2003TIP3    H127568   3.871   3.888   0.968 -0.6596  0.0651  0.9629
 2003TIP3    H227569   3.904   3.836   1.106 -0.2418 -0.2748  0.7357
 2004TIP3   OH227570   4.503   2.855   1.689  0.2973 -0.0198 -0.1892
 2004TIP3    H127571   4.426   2.860   1.633  0.3036 -1.3256 -0.3428
 2004TIP3    H227572   4.550   2.937   1.673 -0.5295  0.3345 -0.8672
 2005TIP3   OH227573   1.034   3.289   2.176 -0.3025 -0.1212  0.2197
 2005TIP3    H127574   0.951   3.316   2.136 -0.1860 -0.0479  0.0289
 2005TIP3    H227575   1.087   3.257   2.103 -0.1469 -0.1307  0.3361
 2006TIP3   OH227576   0.800   2.538   0.956 -0.3221 -0.8157  0.9549
 2006TIP3    H127577   0.729   2.531   0.892  1.0796  1.6403 -1.0820
 2006TIP3    H227578   0.765   2.596   1.024  0.0122  1.3955 -0.6573
 2007TIP3   OH227579   5.521   1.327   0.664 -0.2883 -0.4473 -0.1625
 2007TIP3    H127580   5.448   1.277   0.702 -2.4452  1.4827 -1.4928
 2007TIP3    H227581   5.507   1.322   0.570  1.7759 -0.5805 -0.5117
 2008TIP3   OH227582   2.307   2.635   1.493 -0.4533 -0.1712  0.1174
 2008TIP3    H127583   2.242   2.610   1.427 -0.3707  0.9379 -0.4147
 2008TIP3    H227584   2.392   2.625   1.448 -0.4073  0.7675 -0.0171
 2009TIP3   OH227585   4.374   0.256   0.038  0.0464  0.0609  0.1271
 2009TIP3    H127586   4.417   0.224  -0.042  2.3208  2.3379  0.3145
 2009TIP3    H227587   4.296   0.300   0.006  0.0686 -0.4525 -0.6761
 2010TIP3   OH227588   5.680   3.565   0.080 -0.3371 -0.2671 -0.1268
 2010TIP3    H127589   5.645   3.653   0.067  0.5083  0.3223  1.4304
 2010TIP3    H227590   5.764   3.578   0.124 -0.1284 -1.8487  0.0101
 2011TIP3   OH227591   3.601   4.297   1.417  0.3553  0.2918 -0.1287
 2011TIP3    H127592   3.528   4.285   1.357  0.5814  0.4484 -0.4372
 2011TIP3    H227593   3.605   4.392   1.431 -1.2562  0.1313  2.0838
 2012TIP3   OH227594   2.991   0.611   7.972 -0.4229  0.3207  1.2804
 2012TIP3    H127595   3.035   0.691   7.943 -0.0824 -0.4850 -0.6074
 2012TIP3    H227596   3.058   0.543   7.963 -0.8769 -0.2889  2.2940
 2013TIP3   OH227597   1.250   5.851   6.611 -0.4338 -0.2592 -0.8059
 2013TIP3    H127598   1.226   5.758   6.607  2.5713 -1.3797  1.9094
 2013TIP3    H227599   1.192   5.888   6.678 -0.9177 -0.4580 -1.1115
 2014TIP3   OH227600   0.414   5.713   8.115  0.1158  0.1857  0.5033
 2014TIP3    H127601   0.427   5.702   8.209 -1.4475  2.8809  1.1395
 2014TIP3    H227602   0.489   5.764   8.085  0.4204 -0.3423  0.3670
 2015TIP3   OH227603   6.511   0.264   8.086  0.0370  0.4422 -0.4577
 2015TIP3    H127604   6.593   0.233   8.125 -1.0368 -1.1982  0.6276
 2015TIP3    H227605   6.526   0.357   8.069  0.9340  1.1298  3.1432
 2016TIP3   OH227606   4.608   0.114   7.366 -0.0516  0.0278 -0.0101
 2016TIP3    H127607   4.600   0.128   7.461 -0.4256 -0.3875  0.0245
 2016TIP3    H227608   4.662   0.036   7.358  1.8713  1.3058 -0.1976
 2017TIP3   OH227609   6.650   3.786   0.399 -0.0469  0.4649 -0.2638
 2017TIP3    H127610   6.647   3.785   0.304 -1.2722 -1.1887 -0.2595
 2017TIP3    H227611   6.564   3.819   0.425  0.4150  1.2784  0.2967
 2018TIP3   OH227612   4.232   2.883   1.420 -0.7009  0.0063 -0.4713
 2018TIP3    H127613   4.210   2.825   1.346 -1.0973  2.6179 -2.5433
 2018TIP3    H227614   4.307   2.933   1.389 -0.8321  1.1225  0.9369
 2019TIP3   OH227615   6.241   5.269   8.796 -0.2569  0.6611  0.1154
 2019TIP3    H127616   6.293   5.320   8.733  1.1086  1.1846  1.5967
 2019TIP3    H227617   6.243   5.321   8.876  2.4520 -2.2265  2.1838
 2020TIP3   OH227618   4.956   0.057   7.181 -0.6188 -0.2589  0.2684
 2020TIP3    H127619   4.993   0.105   7.107  0.6448 -2.1940 -0.4391
 2020TIP3    H227620   4.888   0.114   7.216  0.9407  2.1208 -0.3632
 2021TIP3   OH227621   1.167   3.119   1.061 -0.5945  0.0587 -0.9286
 2021TIP3    H127622   1.205   3.149   1.144 -0.2916 -0.0431 -1.0289
 2021TIP3    H227623   1.168   3.196   1.005  0.8250 -0.2864 -1.4176
 2022TIP3   OH227624   0.857   2.983   2.005 -0.1501 -0.3141  0.7573
 2022TIP3    H127625   0.858   3.055   1.942 -2.4842 -0.3940  0.5348
 2022TIP3    H227626   0.850   2.904   1.951 -1.9552 -0.3949  1.0256
 2023TIP3   OH227627   1.685   1.260   0.261 -0.9236  0.2367 -0.5286
 2023TIP3    H127628   1.739   1.335   0.284 -1.7226  0.7353 -0.2648
 2023TIP3    H227629   1.678   1.264   0.165  0.6177 -0.6164 -0.7113
 2024TIP3   OH227630   0.562   3.209   8.149 -0.3122  0.3235  0.1720
 2024TIP3    H127631   0.496   3.261   8.196 -0.1313  0.9675 -0.2744
 2024TIP3    H227632   0.564   3.247   8.061 -0.2271 -0.4920 -0.1885
 2025TIP3   OH227633   5.001   1.173   8.629 -0.2391 -0.1185  0.0496
 2025TIP3    H127634   4.919   1.133   8.601 -0.3138  0.5203 -0.6879
 2025TIP3    H227635   5.016   1.244   8.566  0.7708 -0.0926  0.2988
 2026TIP3   OH227636   4.993   4.253   8.175 -0.2826 -0.5530  0.5300
 2026TIP3    H127637   4.902   4.225   8.173  0.3061 -2.6265 -0.2708
 2026TIP3    H227638   5.043   4.171   8.167  1.6389  0.5642  0.5188
 2027TIP3   OH227639   5.150   4.504   7.112 -0.4053 -0.0789 -0.1627
 2027TIP3    H127640   5.148   4.584   7.058 -0.7273 -0.3708 -0.5870
 2027TIP3    H227641   5.242   4.498   7.140  0.3045 -1.0756 -2.4631
 2028TIP3   OH227642   3.836   0.509   8.157 -0.0488 -0.4798 -0.3020
 2028TIP3    H127643   3.886   0.563   8.218 -0.2454 -1.2834  0.5782
 2028TIP3    H227644   3.902   0.451   8.117  0.1776  0.4266 -1.3121
 2029TIP3   OH227645   5.134   5.055   2.844  0.2825 -0.6609 -0.2832
 2029TIP3    H127646   5.143   5.019   2.932  0.6054 -1.8413 -0.7840
 2029TIP3    H227647   5.070   4.999   2.800 -0.7215  0.5836 -0.4750
 2030TIP3   OH227648   1.020   6.478   2.649 -0.2847  0.3244  0.0887
 2030TIP3    H127649   1.105   6.503   2.611 -0.2932 -1.5690 -1.3359
 2030TIP3    H227650   0.994   6.554   2.701  1.4638  1.6373 -0.8299
 2031TIP3   OH227651   0.097   2.195   1.309 -0.5978 -0.0026  0.4656
 2031TIP3    H127652   0.021   2.205   1.367 -2.2883 -1.9576 -1.2572
 2031TIP3    H227653   0.075   2.247   1.232 -1.5216 -2.6046 -1.1599
 2032TIP3   OH227654   0.645   0.475   2.782 -0.2610 -0.1528  0.6591
 2032TIP3    H127655   0.707   0.501   2.849 -0.1946  1.3699  0.0369
 2032TIP3    H227656   0.691   0.488   2.699 -0.4246 -1.7648  0.2628
 2033TIP3   OH227657   2.602   5.626   8.330 -0.3179 -0.1874 -0.0797
 2033TIP3    H127658   2.695   5.638   8.348 -0.5565  0.8352  0.5923
 2033TIP3    H227659   2.585   5.534   8.347  0.6820 -0.5184 -0.7775
 2034TIP3   OH227660   3.584   6.692   2.312 -0.0988 -0.0251 -0.2293
 2034TIP3    H127661   3.514   6.739   2.358 -0.8028  0.1868 -1.4838
 2034TIP3    H227662   3.539   6.641   2.245  0.9440  0.1244 -1.0745
 2035TIP3   OH227663   1.334   6.051   0.370 -0.1332 -0.2420  0.2482
 2035TIP3    H127664   1.371   6.056   0.282  0.7859  0.3002  0.6527
 2035TIP3    H227665   1.294   6.137   0.384  0.9549  0.1689  0.8850
 2036TIP3   OH227666   0.789   5.732   0.055  0.1372  0.1707  0.5785
 2036TIP3    H127667   0.770   5.822   0.028 -1.8911 -0.3049  0.2568
 2036TIP3    H227668   0.798   5.737   0.150 -1.2294  0.5719  0.7177
 2037TIP3   OH227669   0.213   5.365   2.166 -0.6776 -0.2766 -0.0231
 2037TIP3    H127670   0.248   5.330   2.248  1.4909 -1.0425 -1.2027
 2037TIP3    H227671   0.161   5.293   2.130  0.4497 -0.8945 -0.4889
 2038TIP3   OH227672   4.759   1.955   7.713 -0.5225  0.3909 -0.4881
 2038TIP3    H127673   4.696   1.961   7.641 -3.1313 -0.1318  1.5898
 2038TIP3    H227674   4.777   2.046   7.737 -1.1068  0.5479 -0.6303
 2039TIP3   OH227675   5.427   1.521   0.901 -0.0293 -0.1506 -0.6500
 2039TIP3    H127676   5.337   1.522   0.868 -0.6301  3.0713  0.7279
 2039TIP3    H227677   5.426   1.456   0.971 -1.2947 -0.1429 -0.6488
 2040TIP3   OH227678   3.422   1.101   0.319 -0.3572  0.1112 -0.1026
 2040TIP3    H127679   3.490   1.034   0.325  0.0099  0.4909  0.0567
 2040TIP3    H227680   3.349   1.058   0.274 -0.4604 -0.6693  0.7612
 2041TIP3   OH227681   6.358   6.531   0.347 -0.0872  0.1454 -0.4085
 2041TIP3    H127682   6.385   6.621   0.362  1.2157  0.0716 -1.9340
 2041TIP3    H227683   6.423   6.497   0.285 -0.2323 -2.0103  0.5288
 2042TIP3   OH227684   1.206   6.486   7.270  0.0250  0.2720 -0.5324
 2042TIP3    H127685   1.161   6.411   7.233  1.0652 -1.7579  2.0309
 2042TIP3    H227686   1.144   6.522   7.334 -0.4647  1.6998 -1.7342
 2043TIP3   OH227687   0.726   1.278   8.665 -0.5709  0.4536 -0.2059
 2043TIP3    H127688   0.745   1.325   8.746 -0.5642  0.3988 -0.1761
 2043TIP3    H227689   0.802   1.294   8.610 -1.4892  2.3033 -1.0481
 2044TIP3   OH227690   4.876   6.519   7.553 -0.4329 -0.1109 -0.2501
 2044TIP3    H127691   4.922   6.438   7.532  1.1066 -0.0887  2.5041
 2044TIP3    H227692   4.799   6.491   7.603  0.3192  0.0537  1.0661
 2045TIP3   OH227693   5.597   1.046   6.938 -0.1812  0.1883 -0.1113
 2045TIP3    H127694   5.688   1.075   6.931 -0.3125  0.7890  0.5664
 2045TIP3    H227695   5.570   1.029   6.848  0.0485  1.7511 -0.5015
 2046TIP3   OH227696   4.626   2.143   0.664 -0.1639 -0.0527  0.1457
 2046TIP3    H127697   4.574   2.070   0.631  1.4950 -0.0332 -2.8857
 2046TIP3    H227698   4.571   2.220   0.651 -0.2312 -0.2748 -1.0135
 2047TIP3   OH227699   1.096   0.053   1.238  0.3370 -0.6591 -0.1021
 2047TIP3    H127700   1.016   0.018   1.199  0.2220 -0.7650  0.2263
 2047TIP3    H227701   1.067   0.123   1.296  0.2187 -2.3092  1.9503
 2048TIP3   OH227702   2.161   5.377   8.672 -0.0530  0.5026 -0.0633
 2048TIP3    H127703   2.178   5.297   8.722  3.2357  2.0100  1.5320
 2048TIP3    H227704   2.133   5.346   8.586 -0.3259 -2.3005  0.9222
 2049TIP3   OH227705   5.781   1.259   3.092 -0.4779 -0.1824  0.1293
 2049TIP3    H127706   5.768   1.243   2.999 -2.2022  0.2491  0.2651
 2049TIP3    H227707   5.857   1.318   3.096 -0.1283 -0.5355 -0.9550
 2050TIP3   OH227708   6.656   3.103   1.532 -0.2846 -0.6617 -0.6627
 2050TIP3    H127709   6.674   3.158   1.456  0.2712  0.0876  0.0112
 2050TIP3    H227710   6.561   3.087   1.527 -0.2156 -0.8332 -1.6455
 2051TIP3   OH227711   3.988   3.701   7.111  0.3035  0.2653  0.1357
 2051TIP3    H127712   4.063   3.752   7.142 -0.0168  1.1121 -0.4284
 2051TIP3    H227713   3.970   3.737   7.024 -2.4272  1.9789  1.2894
 2052TIP3   OH227714   5.881   3.218   7.930 -0.1641  0.0852 -0.2451
 2052TIP3    H127715   5.790   3.193   7.946 -0.5330  2.4758  2.1917
 2052TIP3    H227716   5.875   3.303   7.885  0.8199  0.7846  0.8915
 2053TIP3   OH227717   6.635   0.925   2.180 -0.7070  0.3189 -0.0391
 2053TIP3    H127718   6.614   0.979   2.104 -1.6375 -1.3062 -0.9986
 2053TIP3    H227719   6.552   0.881   2.200 -0.9047  1.7577  2.8498
 2054TIP3   OH227720   0.374   2.162   1.371  0.1168  0.1060  0.4764
 2054TIP3    H127721   0.380   2.067   1.378  0.1519  0.1726  1.3996
 2054TIP3    H227722   0.280   2.180   1.360 -0.0519  0.0458  1.7204
 2055TIP3   OH227723   0.738   5.251   6.496 -0.2172  0.5107 -0.0647
 2055TIP3    H127724   0.649   5.219   6.511  0.0378  0.1221  0.6867
 2055TIP3    H227725   0.751   5.316   6.566  0.2786  0.1650  0.1689
 2056TIP3   OH227726   4.098   1.182   1.008  0.0971  0.2866  0.5316
 2056TIP3    H127727   4.100   1.213   0.917  1.8655  0.3096  0.5497
 2056TIP3    H227728   4.008   1.153   1.021 -0.5331  1.4794 -0.8192
 2057TIP3   OH227729   3.627   6.476   3.084  0.3199  0.1143 -0.0600
 2057TIP3    H127730   3.547   6.444   3.042  0.3308 -0.0939  0.0733
 2057TIP3    H227731   3.624   6.571   3.072  2.6437 -0.1321 -4.7467
 2058TIP3   OH227732   0.437   5.001   7.052  0.2175 -0.4469  0.2225
 2058TIP3    H127733   0.459   5.042   6.968 -1.7053  0.3720  0.0733
 2058TIP3    H227734   0.498   4.927   7.059  2.0652  0.8929 -0.7202
 2059TIP3   OH227735   3.002   0.458   1.248 -0.3397  0.3770  0.2333
 2059TIP3    H127736   2.949   0.415   1.316 -3.3948  0.3237 -1.9853
 2059TIP3    H227737   2.949   0.533   1.222  1.2140  0.9400 -1.4313
 2060TIP3   OH227738   4.313   0.625   8.602  0.5040  0.0630  0.1716
 2060TIP3    H127739   4.322   0.630   8.698 -2.2389  0.8175  0.4579
 2060TIP3    H227740   4.230   0.581   8.588  0.9776 -0.2534 -1.9152
 2061TIP3   OH227741   4.237   3.449   1.340 -0.3930 -0.2736  0.1321
 2061TIP3    H127742   4.190   3.500   1.406 -0.0939  0.3887 -0.1497
 2061TIP3    H227743   4.173   3.386   1.307 -0.6931 -0.2634  0.6817
 2062TIP3   OH227744   0.274   3.171   0.794 -0.0975 -0.4350  0.1787
 2062TIP3    H127745   0.293   3.119   0.872 -0.4321  1.3363  1.5090
 2062TIP3    H227746   0.220   3.244   0.826  1.7282  1.6702 -1.2392
 2063TIP3   OH227747   6.257   1.763   7.435  0.7221  0.2415 -0.4518
 2063TIP3    H127748   6.192   1.781   7.368 -0.7392 -1.5928  0.3931
 2063TIP3    H227749   6.340   1.754   7.387 -0.1941 -0.5523 -1.9286
 2064TIP3   OH227750   2.513   3.067   8.724 -0.0709 -0.1782  0.3385
 2064TIP3    H127751   2.524   3.118   8.643  2.2808  0.2365  0.8429
 2064TIP3    H227752   2.531   3.130   8.794  0.7376 -1.1873  1.0612
 2065TIP3   OH227753   3.781   5.186   8.165  0.0044 -0.1142  0.1731
 2065TIP3    H127754   3.858   5.223   8.209  0.9287 -0.0179 -1.4301
 2065TIP3    H227755   3.761   5.107   8.214 -1.0919  1.6574  2.7720
 2066TIP3   OH227756   5.007   0.093   0.950 -0.3244 -0.0815 -0.3832
 2066TIP3    H127757   4.928   0.128   0.909  0.0564  0.2014 -0.8977
 2066TIP3    H227758   4.976   0.026   1.011 -0.9323 -0.2495 -0.8697
 2067TIP3   OH227759   3.502   0.108   1.732  0.2948  0.0947  0.4137
 2067TIP3    H127760   3.455   0.092   1.650 -0.4305  1.0275  0.6325
 2067TIP3    H227761   3.455   0.180   1.773 -0.5778 -1.6263  2.6123
 2068TIP3   OH227762   2.053   6.811   7.398  0.1031 -0.4232 -0.1466
 2068TIP3    H127763   2.113   6.865   7.347 -1.0495  1.0202 -0.0218
 2068TIP3    H227764   1.985   6.786   7.336  0.0389 -0.8114  0.0749
 2069TIP3   OH227765   4.347   6.215   0.267 -0.1034 -0.2184 -0.0207
 2069TIP3    H127766   4.431   6.168   0.271  0.3557  0.6254  0.4608
 2069TIP3    H227767   4.307   6.200   0.353 -0.6691 -1.0058 -0.4117
 2070TIP3   OH227768   2.353   0.121   8.351 -0.7913  0.5990  0.2548
 2070TIP3    H127769   2.387   0.209   8.362  1.4547 -0.4189  2.2548
 2070TIP3    H227770   2.429   0.064   8.361 -2.4681 -1.6632  1.0286
 2071TIP3   OH227771   2.675   6.541   8.571  0.1057 -0.2901 -0.1101
 2071TIP3    H127772   2.672   6.592   8.652 -0.4966  1.7306 -1.3271
 2071TIP3    H227773   2.594   6.490   8.571  1.1187 -2.0310  1.5350
 2072TIP3   OH227774   4.139   6.702   2.423 -0.0840 -0.0630 -0.0794
 2072TIP3    H127775   4.215   6.761   2.425 -1.2002  1.4194 -0.2276
 2072TIP3    H227776   4.113   6.700   2.331 -1.1252  0.6627  0.1795
 2073TIP3   OH227777   0.718   1.284   0.263 -0.4282  0.1815  0.5138
 2073TIP3    H127778   0.626   1.261   0.270 -0.0799 -1.1956  1.0465
 2073TIP3    H227779   0.738   1.330   0.344 -0.5291  0.0141  0.6333
 2074TIP3   OH227780   5.136   0.429   0.656  0.3537  0.3793  0.2501
 2074TIP3    H127781   5.108   0.338   0.644 -0.2223  0.7312 -1.2399
 2074TIP3    H227782   5.224   0.422   0.692 -0.1949 -0.7574  1.4727
 2075TIP3   OH227783   4.856   5.203   0.179 -0.5656 -0.2125 -0.2363
 2075TIP3    H127784   4.843   5.282   0.127 -0.6282  0.1274  0.2915
 2075TIP3    H227785   4.771   5.158   0.174 -1.1196  0.6622  0.9617
 2076TIP3   OH227786   0.440   0.827   7.303  0.1041 -0.0297 -0.1171
 2076TIP3    H127787   0.441   0.799   7.395  0.7812 -0.3442 -0.2170
 2076TIP3    H227788   0.363   0.784   7.266 -1.4386  1.7449  0.7895
 2077TIP3   OH227789   2.552   3.815   1.185  0.0494 -0.3347 -0.5594
 2077TIP3    H127790   2.459   3.838   1.182 -0.2231 -1.0599  1.0413
 2077TIP3    H227791   2.598   3.899   1.191 -0.6002 -0.0139 -0.0117
 2078TIP3   OH227792   0.071   1.296   1.771 -0.0780  0.5468 -0.4000
 2078TIP3    H127793   0.128   1.309   1.695 -0.8590 -0.6265 -1.2236
 2078TIP3    H227794  -0.013   1.268   1.734 -0.9611  1.4495  0.8352
 2079TIP3   OH227795   2.165   1.228   1.850  0.4264 -0.1096 -0.0076
 2079TIP3    H127796   2.146   1.321   1.838 -2.1622  0.0549  3.6495
 2079TIP3    H227797   2.244   1.213   1.799 -0.1317  3.5855 -2.3583
 2080TIP3   OH227798   1.225   2.658   0.580  0.5530  0.0851  0.3575
 2080TIP3    H127799   1.200   2.734   0.633  0.4558 -1.2430  2.3530
 2080TIP3    H227800   1.260   2.695   0.499 -1.6257  2.1765  0.2501
 2081TIP3   OH227801   4.446   4.692   2.565  0.0855 -0.3467 -0.3135
 2081TIP3    H127802   4.437   4.757   2.634  0.4981 -0.0418 -0.5376
 2081TIP3    H227803   4.484   4.615   2.608 -0.9539 -0.6591  0.0712
 2082TIP3   OH227804   0.192   2.054   7.683  0.4819  0.1634 -0.2324
 2082TIP3    H127805   0.126   2.007   7.631  1.7142 -0.3762 -1.3909
 2082TIP3    H227806   0.194   2.007   7.766 -0.1857 -0.1757 -0.3985
 2083TIP3   OH227807   4.687   0.567   0.092 -0.2397  0.2825  0.0652
 2083TIP3    H127808   4.738   0.488   0.111  0.6192  0.8983  0.4106
 2083TIP3    H227809   4.677   0.567  -0.003 -2.2521 -1.4299  0.2165
 2084TIP3   OH227810   1.690   5.220   1.713 -0.1227  0.0376 -0.0674
 2084TIP3    H127811   1.784   5.218   1.697  0.4064 -0.7552  2.6825
 2084TIP3    H227812   1.665   5.311   1.700  1.5086  0.7503  1.4230
 2085TIP3   OH227813   0.634   4.134   0.117  0.3028  0.0431  0.9305
 2085TIP3    H127814   0.642   4.039   0.109  0.6730  0.1070  0.4683
 2085TIP3    H227815   0.548   4.148   0.156 -0.3131 -0.4258 -0.2382
 2086TIP3   OH227816   6.332   6.506   0.653 -0.3626  0.2484 -0.9034
 2086TIP3    H127817   6.351   6.532   0.563 -0.9858 -2.0914 -1.7980
 2086TIP3    H227818   6.237   6.503   0.658 -0.3286 -0.1834 -0.3559
 2087TIP3   OH227819   4.249   2.104   8.749 -0.0085 -0.2038 -0.3198
 2087TIP3    H127820   4.334   2.095   8.706  0.2314 -0.8339  0.2647
 2087TIP3    H227821   4.197   2.031   8.715 -0.6021  0.6602 -1.3050
 2088TIP3   OH227822   4.655   2.391   8.282 -0.0545  0.3018 -0.2323
 2088TIP3    H127823   4.676   2.433   8.366  0.6801  1.0351 -0.7629
 2088TIP3    H227824   4.741   2.368   8.246 -0.4060 -3.2978  0.7916
 2089TIP3   OH227825   5.096   3.517   7.720  0.1196  0.4789 -0.4666
 2089TIP3    H127826   5.021   3.477   7.675  0.1629  1.5471 -1.5126
 2089TIP3    H227827   5.135   3.444   7.769 -0.3468 -0.5669 -1.5846
 2090TIP3   OH227828   1.272   1.479   8.766 -0.6166 -0.4798  0.8176
 2090TIP3    H127829   1.218   1.401   8.777 -0.2214 -0.5859  2.2665
 2090TIP3    H227830   1.354   1.448   8.730 -1.5318 -0.2949 -1.5834
 2091TIP3   OH227831   0.684   4.956   1.575 -0.6889 -0.3494 -0.2752
 2091TIP3    H127832   0.741   5.032   1.585  0.2758 -1.3160  2.5051
 2091TIP3    H227833   0.701   4.925   1.486  1.6455  0.5674 -0.2217
 2092TIP3   OH227834   3.007   3.517   6.881  0.0888 -0.2376  0.4775
 2092TIP3    H127835   3.084   3.528   6.825 -0.1789 -1.4534 -0.1741
 2092TIP3    H227836   2.966   3.436   6.850  0.1690 -1.2113  2.7206
 2093TIP3   OH227837   6.206   1.359   7.825 -0.1488 -0.0164  0.3207
 2093TIP3    H127838   6.252   1.373   7.908 -2.4828 -2.2106  2.1572
 2093TIP3    H227839   6.134   1.422   7.827  0.6440  0.9435 -0.7925
 2094TIP3   OH227840   0.181   4.782   7.681 -0.2937 -0.0680  0.0638
 2094TIP3    H127841   0.139   4.793   7.595 -0.8543 -0.9823  0.2126
 2094TIP3    H227842   0.179   4.688   7.697  3.0774 -0.3399 -0.5183
 2095TIP3   OH227843   1.943   2.030   0.837 -0.2172 -0.5468 -0.2809
 2095TIP3    H127844   1.860   1.984   0.823 -0.9253 -0.1596  2.1640
 2095TIP3    H227845   1.927   2.118   0.804 -1.2467 -0.1347  1.1765
 2096TIP3   OH227846   0.055   1.573   2.309 -0.1107 -0.1351 -0.0429
 2096TIP3    H127847   0.064   1.573   2.404  2.4789 -1.5540 -0.1889
 2096TIP3    H227848   0.066   1.481   2.284  0.7114  0.3972 -1.7959
 2097TIP3   OH227849   5.085   0.657   1.217 -0.5849 -0.1068  0.2369
 2097TIP3    H127850   5.128   0.579   1.183 -0.3808 -0.0557  0.3734
 2097TIP3    H227851   5.131   0.676   1.299  2.1255  2.4662 -1.6437
 2098TIP3   OH227852   2.626   4.753   0.166 -0.5186  0.0248  0.3609
 2098TIP3    H127853   2.696   4.715   0.112  0.8321  1.3766  1.0795
 2098TIP3    H227854   2.547   4.741   0.114  0.4984 -0.0863 -1.2275
 2099TIP3   OH227855   1.064   6.251   7.441 -0.4227  0.0716  0.2890
 2099TIP3    H127856   1.111   6.254   7.358 -2.9156  0.9423 -1.1731
 2099TIP3    H227857   1.022   6.336   7.449 -0.1416  0.0832  2.5758
 2100TIP3   OH227858   1.157   0.732   1.758 -0.2036  0.3670 -0.3119
 2100TIP3    H127859   1.078   0.727   1.812  0.0492 -2.7544 -0.0727
 2100TIP3    H227860   1.148   0.814   1.710 -3.0970  0.5917  0.4322
 2101TIP3   OH227861   6.791   2.108   8.575 -0.2499  0.2828 -0.0255
 2101TIP3    H127862   6.774   2.040   8.640  0.7814 -1.3612 -1.4059
 2101TIP3    H227863   6.709   2.157   8.569 -0.1866  0.9561  2.9644
 2102TIP3   OH227864   4.723   3.373   1.954  0.3502 -0.0754 -0.0970
 2102TIP3    H127865   4.657   3.352   2.020  0.9358  2.0452  1.2405
 2102TIP3    H227866   4.682   3.348   1.871 -2.7386  2.2299  0.5261
 2103TIP3   OH227867   5.805   5.056   0.969  0.4133  0.1833 -0.1075
 2103TIP3    H127868   5.860   5.089   1.040  1.0372 -1.8897  0.4613
 2103TIP3    H227869   5.839   5.098   0.890  1.1359  0.8639  0.5471
 2104TIP3   OH227870   4.779   2.866   7.149  0.1394  0.1909 -0.3329
 2104TIP3    H127871   4.726   2.941   7.177  0.5386  0.5625 -0.5496
 2104TIP3    H227872   4.869   2.894   7.164  0.2485 -1.0375  1.5346
 2105TIP3   OH227873   5.357   0.764   7.746 -0.2188 -0.6483 -0.9164
 2105TIP3    H127874   5.277   0.754   7.798 -0.3536  1.3668 -0.6576
 2105TIP3    H227875   5.364   0.682   7.697 -2.4582 -0.8902 -0.9428
 2106TIP3   OH227876   3.887   4.500   0.331 -0.5214 -0.9385  0.3886
 2106TIP3    H127877   3.799   4.468   0.351 -1.1299 -0.2340 -0.9805
 2106TIP3    H227878   3.936   4.422   0.305 -1.7275 -0.9952 -2.0339
 2107TIP3   OH227879   6.290   3.285   1.719  0.1842  0.3387  0.0585
 2107TIP3    H127880   6.362   3.231   1.688  1.3220  0.1362  2.7719
 2107TIP3    H227881   6.298   3.367   1.669  1.9077  0.0741 -0.1623
 2108TIP3   OH227882   5.810   1.503   0.721  0.0923 -0.0739 -0.2089
 2108TIP3    H127883   5.868   1.538   0.788 -1.4448  1.8893  0.2041
 2108TIP3    H227884   5.841   1.413   0.706 -0.1448 -1.0444  3.9256
 2109TIP3   OH227885   6.061   2.325   0.043 -0.2448  0.3364  0.2893
 2109TIP3    H127886   6.099   2.372  -0.031  1.5995  0.9965  1.6042
 2109TIP3    H227887   5.966   2.329   0.027  0.0537  1.3436 -1.4901
 2110TIP3   OH227888   4.133   1.063   2.822 -0.8226  0.9539  0.0481
 2110TIP3    H127889   4.069   0.991   2.821  2.1755 -1.9750  0.7245
 2110TIP3    H227890   4.108   1.116   2.898 -1.2375 -1.3847  1.6587
 2111TIP3   OH227891   4.392   3.193   7.178  0.4314 -0.0184  0.2019
 2111TIP3    H127892   4.328   3.124   7.195  0.1271  0.2497  0.1372
 2111TIP3    H227893   4.341   3.268   7.149  0.8986 -0.3823 -1.7240
 2112TIP3   OH227894   2.999   2.001   2.665 -0.3354 -0.4525 -0.8267
 2112TIP3    H127895   2.944   1.932   2.628 -0.8344 -0.7188  0.3542
 2112TIP3    H227896   3.048   1.957   2.734 -3.0510  0.9262  2.2422
 2113TIP3   OH227897   6.188   4.846   1.567  0.1194  0.2634  0.2900
 2113TIP3    H127898   6.164   4.758   1.538 -0.9440  0.5973  0.1088
 2113TIP3    H227899   6.280   4.839   1.593  0.4556 -0.5624 -1.0666
 2114TIP3   OH227900   5.878   5.464   0.053 -0.2867  0.3452  0.2063
 2114TIP3    H127901   5.918   5.499  -0.027  1.7067 -1.7304  0.1802
 2114TIP3    H227902   5.914   5.518   0.123  0.1068  0.4553 -0.0772
 2115TIP3   OH227903   4.478   4.688   0.372  0.2333  0.1612 -0.0359
 2115TIP3    H127904   4.561   4.732   0.392  0.2411 -0.1721  0.6947
 2115TIP3    H227905   4.504   4.597   0.354  0.2567  0.4728 -1.8387
 2116TIP3   OH227906   1.769   3.872   0.109 -0.2043  0.4159 -0.1843
 2116TIP3    H127907   1.856   3.893   0.141 -0.6344 -0.4969  1.7563
 2116TIP3    H227908   1.783   3.836   0.022  1.5114 -0.8959  0.5791
 2117TIP3   OH227909   0.793   3.992   1.576 -0.7858 -0.3972 -0.7032
 2117TIP3    H127910   0.788   3.901   1.548 -1.3998 -0.7401  0.4569
 2117TIP3    H227911   0.841   4.036   1.506 -0.4176 -1.6179 -1.2419
 2118TIP3   OH227912   1.769   0.627   0.622  0.4571 -0.1589  0.0944
 2118TIP3    H127913   1.775   0.638   0.527 -0.2076 -0.4466  0.0135
 2118TIP3    H227914   1.772   0.717   0.656 -0.1310  0.0019 -0.2568
 2119TIP3   OH227915   3.633   0.487   1.148  0.5863 -0.2740  0.3026
 2119TIP3    H127916   3.600   0.419   1.208  0.0310 -0.3699 -0.1119
 2119TIP3    H227917   3.701   0.531   1.199 -0.5362  0.2883  1.3803
 2120TIP3   OH227918   6.171   5.128   7.332  0.0079 -0.0860  0.0969
 2120TIP3    H127919   6.124   5.208   7.356  1.1308  1.0281 -1.2086
 2120TIP3    H227920   6.210   5.148   7.247  1.9250 -1.3256  0.6194
 2121TIP3   OH227921   5.915   3.932   7.082  0.6469 -0.1438  0.3165
 2121TIP3    H127922   5.990   3.883   7.118  0.6902  0.4374  1.0520
 2121TIP3    H227923   5.879   3.874   7.015  0.5438 -1.3043  1.3347
 2122TIP3   OH227924   5.887   5.823   1.840  0.5053  0.7468 -0.0048
 2122TIP3    H127925   5.934   5.882   1.781  0.0278  0.6726 -0.4650
 2122TIP3    H227926   5.795   5.847   1.830  0.5773  2.4123  2.5702
 2123TIP3   OH227927   6.088   4.866   8.280  0.6474 -0.0221  0.5084
 2123TIP3    H127928   6.034   4.946   8.279  4.4216  2.8126 -0.3603
 2123TIP3    H227929   6.073   4.825   8.195  1.4464  2.0126 -0.6931
 2124TIP3   OH227930   6.450   3.132   2.138  0.0358  0.7100  0.4209
 2124TIP3    H127931   6.468   3.041   2.116 -1.1239  0.7283 -0.6989
 2124TIP3    H227932   6.369   3.129   2.190 -0.8650  1.1836 -0.8939
 2125TIP3   OH227933   6.196   5.924   0.995  0.6910 -0.2689  0.2385
 2125TIP3    H127934   6.222   6.012   1.021 -0.1070 -0.2230  0.9137
 2125TIP3    H227935   6.165   5.883   1.075 -2.0520 -0.0560 -0.5916
 2126TIP3   OH227936   4.088   0.245   8.302  0.3715 -0.2334  0.0646
 2126TIP3    H127937   4.137   0.319   8.339 -0.3008  0.2266  0.0680
 2126TIP3    H227938   4.088   0.262   8.207  0.7755 -0.5799  0.0030
 2127TIP3   OH227939   2.768   0.541   0.134  0.1787  0.1536 -0.2773
 2127TIP3    H127940   2.798   0.559   0.045 -0.1772  0.7850 -0.2799
 2127TIP3    H227941   2.801   0.615   0.185  0.7303 -0.4161  0.1985
 2128TIP3   OH227942   0.416   2.453   7.865 -0.2040 -0.2701 -0.3491
 2128TIP3    H127943   0.350   2.387   7.884  0.0282 -0.8163 -1.3648
 2128TIP3    H227944   0.371   2.536   7.877 -0.5017 -0.5963  0.9542
 2129TIP3   OH227945   2.009   1.489   8.372 -0.6041  0.1293 -0.1550
 2129TIP3    H127946   2.026   1.583   8.382 -1.7868  0.2378  1.1531
 2129TIP3    H227947   2.094   1.447   8.384 -0.0719  1.0117 -0.7037
 2130TIP3   OH227948   3.057   6.814   2.102 -0.5462  0.5735  0.3753
 2130TIP3    H127949   3.039   6.808   2.008  1.1689  0.1917  0.0435
 2130TIP3    H227950   3.050   6.724   2.134  0.8884  0.3854  0.1997
 2131TIP3   OH227951   3.850   0.402   0.237  0.1312  0.2860  0.0043
 2131TIP3    H127952   3.839   0.484   0.285  2.7844  0.7038  0.0757
 2131TIP3    H227953   3.945   0.392   0.229 -0.1365 -2.3927 -0.7078
 2132TIP3   OH227954   0.116   4.608   0.213  0.7755  0.1561  0.0117
 2132TIP3    H127955   0.180   4.558   0.162  1.1805  0.6093  0.0693
 2132TIP3    H227956   0.031   4.574   0.184  1.0479 -1.1270  0.6341
 2133TIP3   OH227957   6.249   5.554   6.977 -0.1176  0.6964 -0.0270
 2133TIP3    H127958   6.330   5.600   7.002  0.1687  0.6293 -0.8051
 2133TIP3    H227959   6.181   5.622   6.982  0.1339  0.9626 -0.2139
 2134TIP3   OH227960   6.457   5.925   6.932  0.2165 -0.6355  0.4442
 2134TIP3    H127961   6.552   5.934   6.943  0.2955 -1.5448  0.5682
 2134TIP3    H227962   6.431   5.859   6.996 -0.7031  0.4529  1.2298
 2135TIP3   OH227963   1.183   5.504   1.639  0.2444  0.1057 -0.2726
 2135TIP3    H127964   1.112   5.555   1.600 -0.5538 -0.2108  0.7110
 2135TIP3    H227965   1.262   5.555   1.620 -0.2450  0.5002 -1.3313
 2136TIP3   OH227966   4.080   6.670   0.413 -0.3643 -0.0613  0.1516
 2136TIP3    H127967   3.992   6.668   0.375 -0.8793  0.1999  1.2962
 2136TIP3    H227968   4.070   6.719   0.495  1.4597  2.9772 -1.2329
 2137TIP3   OH227969   0.728   2.690   1.234  0.3752 -0.4536 -0.1068
 2137TIP3    H127970   0.787   2.761   1.256 -1.2595  0.3548  1.9864
 2137TIP3    H227971   0.772   2.611   1.264  0.1272  0.2106  2.1566
 2138TIP3   OH227972   5.762   1.898   8.535 -0.4975  0.0002 -0.0640
 2138TIP3    H127973   5.775   1.852   8.618 -0.3884 -1.2803 -0.7635
 2138TIP3    H227974   5.709   1.975   8.558 -2.2906 -1.4255  0.8997
 2139TIP3   OH227975   1.377   2.057   1.319  0.2054 -0.2065 -0.4492
 2139TIP3    H127976   1.402   2.129   1.260 -0.7517  0.8744  0.4274
 2139TIP3    H227977   1.410   1.978   1.275  1.3820  0.7656 -1.3772
 2140TIP3   OH227978   3.985   4.621   1.377 -0.6751  1.0112 -0.1515
 2140TIP3    H127979   3.989   4.545   1.436 -1.6559  0.9078 -0.2112
 2140TIP3    H227980   3.929   4.593   1.305 -0.7301  1.6653 -0.3696
 2141TIP3   OH227981   5.107   6.156   0.177  0.0477  0.3658 -0.3917
 2141TIP3    H127982   5.103   6.096   0.252  1.5908 -0.0854 -0.6209
 2141TIP3    H227983   5.087   6.101   0.101  3.1374 -0.3767 -0.8044
 2142TIP3   OH227984   6.408   2.374   1.247  0.0238  0.5681  0.5081
 2142TIP3    H127985   6.325   2.326   1.239 -0.4764  0.8881  3.1211
 2142TIP3    H227986   6.417   2.418   1.162 -2.2799  0.2358 -0.0002
 2143TIP3   OH227987   6.626   1.719   1.634 -0.1950  1.1053  0.3793
 2143TIP3    H127988   6.692   1.734   1.702 -0.6323  0.1314  1.0412
 2143TIP3    H227989   6.658   1.643   1.585 -0.9690  0.4059  0.9236
 2144TIP3   OH227990   0.498   4.208   7.201  0.4966 -0.2455  0.4405
 2144TIP3    H127991   0.580   4.172   7.234  0.0877 -0.3474  1.3779
 2144TIP3    H227992   0.525   4.283   7.147  1.1951 -0.2056  0.8308
 2145TIP3   OH227993   0.363   4.146   8.018 -0.0599 -0.0541 -0.0892
 2145TIP3    H127994   0.322   4.178   7.938  1.8307 -0.2948 -1.2024
 2145TIP3    H227995   0.316   4.065   8.039 -1.6172  0.8274 -0.0123
 2146TIP3   OH227996   1.417   1.204   7.688  0.0116  0.0985  0.2039
 2146TIP3    H127997   1.488   1.204   7.752  1.5536  0.3343 -1.4206
 2146TIP3    H227998   1.401   1.296   7.669  0.8590  0.0194 -1.0498
 2147TIP3   OH227999   1.546   4.431   7.873 -0.2503 -0.3826 -0.1826
 2147TIP3    H128000   1.594   4.363   7.826  1.2991 -0.2841  1.1656
 2147TIP3    H228001   1.581   4.513   7.839 -0.6101 -0.2757 -0.3029
 2148TIP3   OH228002   5.923   4.630   0.687  0.2321 -0.3432  0.2880
 2148TIP3    H128003   5.984   4.558   0.669  0.3636  0.2984 -2.3938
 2148TIP3    H228004   5.980   4.704   0.712  0.4236 -0.2736 -0.3228
 2149TIP3   OH228005   3.954   3.882   1.294  0.1090  0.7663  0.3933
 2149TIP3    H128006   3.916   3.962   1.330 -0.0760  0.6753  0.4005
 2149TIP3    H228007   4.040   3.876   1.335 -0.5929 -0.0211  1.8353
 2150TIP3   OH228008   6.789   3.412   0.270 -0.6320 -0.2298 -0.3423
 2150TIP3    H128009   6.837   3.442   0.193  0.1767  0.8576  0.5619
 2150TIP3    H228010   6.717   3.359   0.235  2.8673 -4.7181 -1.7952
 2151TIP3   OH228011   0.202   0.981   0.972 -0.2424 -0.0487  0.1516
 2151TIP3    H128012   0.278   1.026   0.935 -1.2796  0.6996 -1.1319
 2151TIP3    H228013   0.176   1.036   1.046 -0.5588  0.6483 -0.4645
 2152TIP3   OH228014   6.357   1.473   8.000 -0.0242 -0.9503  0.4703
 2152TIP3    H128015   6.411   1.464   8.079  0.0275 -1.0177  0.4267
 2152TIP3    H228016   6.324   1.563   8.005 -0.4503 -1.1245  0.8428
 2153TIP3   OH228017   4.333   6.045   8.579  0.0596 -0.2883 -0.3188
 2153TIP3    H128018   4.355   6.125   8.532 -1.0045 -0.1735 -0.6401
 2153TIP3    H228019   4.370   5.975   8.525 -1.9353 -0.2225 -1.8739
 2154TIP3   OH228020   5.481   6.023   2.462 -0.2456 -0.1073 -0.3889
 2154TIP3    H128021   5.403   6.050   2.413 -0.7707 -1.5481 -0.3986
 2154TIP3    H228022   5.545   6.091   2.444 -1.0137  0.3365 -1.6059
 2155TIP3   OH228023   0.582   5.885   7.419  0.0367 -0.0130  0.7925
 2155TIP3    H128024   0.505   5.829   7.420 -1.9277  2.4870 -0.3344
 2155TIP3    H228025   0.638   5.850   7.489 -0.7021 -3.6959 -0.2609
 2156TIP3   OH228026   1.319   5.035   7.590  0.4581 -0.2477  0.4771
 2156TIP3    H128027   1.303   5.119   7.547  0.5288 -1.2723 -1.6801
 2156TIP3    H228028   1.414   5.032   7.603  0.6001 -0.4635 -0.5308
 2157TIP3   OH228029   1.652   5.084   6.977 -0.4346  0.2851  0.4041
 2157TIP3    H128030   1.582   5.103   6.915  0.1536  0.7815 -0.1215
 2157TIP3    H228031   1.730   5.124   6.938  0.0767  0.0155  1.1326
 2158TIP3   OH228032   5.474   1.661   2.484 -0.6308  0.0857 -0.0633
 2158TIP3    H128033   5.428   1.745   2.479  1.7472  1.5611  1.2056
 2158TIP3    H228034   5.430   1.615   2.556 -0.2730  1.4338  1.0811
 2159TIP3   OH228035   3.588   2.050   3.119 -0.2146 -0.4265  0.2739
 2159TIP3    H128036   3.545   2.066   3.204  0.8279  0.8616  0.5909
 2159TIP3    H228037   3.516   2.048   3.056 -0.9982 -1.2706  1.1645
 2160TIP3   OH228038   2.399   3.420   0.003 -0.0787 -0.1082 -0.4637
 2160TIP3    H128039   2.316   3.375  -0.013 -0.4176  0.5357 -0.6053
 2160TIP3    H228040   2.374   3.501   0.048  0.4396  0.2288 -0.7637
 2161TIP3   OH228041   1.893   4.388   8.441  0.2035  0.5306 -0.8385
 2161TIP3    H128042   1.816   4.373   8.385 -0.6490  0.2023  0.3692
 2161TIP3    H228043   1.886   4.480   8.467 -1.5068 -0.1866  1.6367
 2162TIP3   OH228044   4.766   1.954   1.417 -0.1989 -0.1834  0.3322
 2162TIP3    H128045   4.732   1.988   1.500  2.9400  0.9035  1.3272
 2162TIP3    H228046   4.764   2.028   1.357  0.5513 -0.0344  0.4767
 2163TIP3   OH228047   1.548   3.848   1.983  0.5876  0.2979  0.1804
 2163TIP3    H128048   1.605   3.776   2.010 -0.6482 -1.1582 -0.8328
 2163TIP3    H228049   1.480   3.852   2.050  0.5357  0.3568  0.1257
 2164TIP3   OH228050   1.045   2.434   0.633 -0.4476 -0.2033 -0.4591
 2164TIP3    H128051   0.961   2.410   0.593 -0.5811 -1.3125  0.4258
 2164TIP3    H228052   1.064   2.521   0.599 -0.0433 -1.4070 -3.7036
 2165TIP3   OH228053   0.553   4.971   1.803  0.1707  0.0867  0.0061
 2165TIP3    H128054   0.514   4.888   1.831 -3.4157  0.3149 -3.4803
 2165TIP3    H228055   0.624   4.945   1.743  3.7197 -0.2662  3.8735
 2166TIP3   OH228056   4.741   1.378   1.499  0.0222 -0.2578 -0.4382
 2166TIP3    H128057   4.699   1.461   1.520 -0.4478 -0.5032 -0.3844
 2166TIP3    H228058   4.715   1.361   1.408 -1.1609 -1.0876  0.0275
 2167TIP3   OH228059   4.627   4.107   2.398  0.3451  0.2701 -0.4009
 2167TIP3    H128060   4.627   4.124   2.492 -2.9839  3.9816 -0.7874
 2167TIP3    H228061   4.691   4.169   2.362  0.8339 -0.3800 -0.6587
 2168TIP3   OH228062   6.755   1.068   8.362  0.4686 -0.3745 -0.2352
 2168TIP3    H128063   6.790   0.980   8.374  1.8810 -0.0852 -1.8888
 2168TIP3    H228064   6.825   1.126   8.390 -0.5879  0.2693  1.1970
 2169TIP3   OH228065   0.803   2.579   2.180  0.6011  0.2684  0.2206
 2169TIP3    H128066   0.782   2.578   2.087  2.2053  1.6550 -0.1961
 2169TIP3    H228067   0.721   2.554   2.223 -0.4829  0.6980 -1.5089
 2170TIP3   OH228068   0.741   4.975   8.345 -0.0630 -0.5840  0.0045
 2170TIP3    H128069   0.773   5.058   8.379  3.3225 -1.0762 -1.6383
 2170TIP3    H228070   0.689   4.999   8.268 -0.0482  0.0553  0.1883
 2171TIP3   OH228071   5.774   0.832   1.953 -0.7914  0.3369 -0.7943
 2171TIP3    H128072   5.841   0.845   2.020 -1.2724 -0.0546 -0.2248
 2171TIP3    H228073   5.714   0.906   1.966 -0.7956  0.3503 -0.8957
 2172TIP3   OH228074   2.328   4.004   2.063  0.0634 -0.3042  0.0550
 2172TIP3    H128075   2.260   4.072   2.064  0.4315  0.1211  2.2284
 2172TIP3    H228076   2.300   3.943   1.995 -1.0769  1.2388 -0.9161
 2173TIP3   OH228077   4.179   2.387   1.589 -0.4763 -0.1205  0.7333
 2173TIP3    H128078   4.238   2.433   1.650  2.3940 -2.0615 -0.3808
 2173TIP3    H228079   4.228   2.382   1.508 -3.2761  0.2887 -1.1122
 2174TIP3   OH228080   4.655   5.999   2.245  0.4792 -0.1303  0.1365
 2174TIP3    H128081   4.621   5.911   2.229  0.1211 -0.2749  1.5500
 2174TIP3    H228082   4.691   5.994   2.334  1.0669  0.9701 -0.0279
 2175TIP3   OH228083   4.180   3.755   1.899 -0.9030  0.2702  0.0815
 2175TIP3    H128084   4.239   3.830   1.887 -0.2141  0.1692  2.3488
 2175TIP3    H228085   4.237   3.679   1.891 -1.1362  0.0825  0.2140
 2176TIP3   OH228086   5.536   6.733   2.440 -0.2098 -0.0233 -0.7064
 2176TIP3    H128087   5.609   6.756   2.498 -0.1520 -2.3358  0.2503
 2176TIP3    H228088   5.463   6.716   2.500 -0.8859  0.0161 -1.5108
 2177TIP3   OH228089   4.363   2.462   2.115 -0.2844 -0.0612 -0.1106
 2177TIP3    H128090   4.444   2.467   2.063  0.0345 -0.9069  0.2896
 2177TIP3    H228091   4.393   2.440   2.203 -1.0764 -3.5301 -0.5640
 2178TIP3   OH228092   3.916   0.018   8.102 -0.3738 -0.5682 -0.2815
 2178TIP3    H128093   3.903   0.110   8.080 -0.4251 -0.2180  1.0891
 2178TIP3    H228094   3.888   0.011   8.194 -1.8648 -2.2768 -0.7928
 2179TIP3   OH228095   5.427   0.711   7.228  0.6409  0.1696 -0.5985
 2179TIP3    H128096   5.445   0.676   7.141 -0.0188 -0.9723 -0.2978
 2179TIP3    H228097   5.375   0.644   7.271 -0.1274  1.2646  0.2494
 2180TIP3   OH228098   1.450   0.784   7.538 -0.4868  0.0684  0.2200
 2180TIP3    H128099   1.468   0.765   7.446 -0.7313 -2.7039  0.6669
 2180TIP3    H228100   1.401   0.866   7.535 -0.3489  0.1556 -2.1021
 2181TIP3   OH228101   6.594   2.290   8.571 -0.0882  0.1158 -0.0039
 2181TIP3    H128102   6.499   2.288   8.555  0.1811 -0.8043 -1.7316
 2181TIP3    H228103   6.608   2.369   8.623 -1.9373 -0.3532  1.3025
 2182TIP3   OH228104   2.586   3.355   2.565  0.1343 -0.0445 -0.0957
 2182TIP3    H128105   2.634   3.365   2.647  1.1052  0.0497 -0.6612
 2182TIP3    H228106   2.588   3.442   2.525 -2.1548  0.4608  0.7201
 2183TIP3   OH228107   2.335   3.197   7.792  0.1504 -0.0068 -0.8129
 2183TIP3    H128108   2.426   3.176   7.769  0.3440 -1.4673  1.0605
 2183TIP3    H228109   2.297   3.113   7.818 -0.6147  1.0857  2.0018
 2184TIP3   OH228110   4.309   3.339   2.361 -0.1479 -0.2179  0.1357
 2184TIP3    H128111   4.392   3.377   2.391  0.9561 -1.0223 -1.6665
 2184TIP3    H228112   4.279   3.398   2.292 -1.2054  0.1785  0.9182
 2185TIP3   OH228113   1.885   5.174   7.851  0.1611  0.0613  0.5545
 2185TIP3    H128114   1.898   5.258   7.807 -1.3382  0.6449  1.1773
 2185TIP3    H228115   1.803   5.184   7.899 -0.3053 -1.9207  0.2547
 2186TIP3   OH228116   1.797   3.751   7.698 -0.0192 -0.0170 -0.4965
 2186TIP3    H128117   1.796   3.817   7.628  2.3401  1.0718  0.3794
 2186TIP3    H228118   1.802   3.803   7.779  1.9763 -1.1893  0.2185
 2187TIP3   OH228119   3.572   1.637   1.536  0.4431  0.1209 -0.1358
 2187TIP3    H128120   3.482   1.671   1.528 -0.5274 -2.4313 -1.1733
 2187TIP3    H228121   3.571   1.586   1.618  1.0520  0.3264  0.0042
 2188TIP3   OH228122   6.224   1.045   8.695 -0.4810 -0.0881 -0.0274
 2188TIP3    H128123   6.222   0.952   8.719  0.4655 -0.0271  0.3151
 2188TIP3    H228124   6.297   1.052   8.634  0.9281  0.8407  1.7027
 2189TIP3   OH228125   2.099   5.712   1.154  0.1367  0.3782  0.3902
 2189TIP3    H128126   2.158   5.761   1.211  2.7660 -1.2807 -0.6911
 2189TIP3    H228127   2.145   5.629   1.138 -2.6094 -1.1136 -0.4419
 2190TIP3   OH228128   5.500   0.251   7.747  0.4230  0.5208  0.8080
 2190TIP3    H128129   5.509   0.335   7.701  1.3806 -0.1629 -0.2983
 2190TIP3    H228130   5.453   0.195   7.685 -1.3544  0.5883  2.0344
 2191TIP3   OH228131   3.943   1.350   7.099 -0.2232  0.3161 -0.3628
 2191TIP3    H128132   4.009   1.328   7.033 -0.3299 -0.9240 -0.0809
 2191TIP3    H228133   3.968   1.299   7.176 -0.1692  1.6581  0.5255
 2192TIP3   OH228134   3.658   5.362   2.053  0.1943  0.1582  0.2491
 2192TIP3    H128135   3.638   5.375   1.961  1.4875  0.9396  0.0578
 2192TIP3    H228136   3.696   5.274   2.057 -0.2161 -0.0291  0.1092
 2193TIP3   OH228137   6.107   4.518   8.695 -0.0112 -0.4369  0.5655
 2193TIP3    H128138   6.128   4.577   8.767 -0.5463  0.5592 -0.0685
 2193TIP3    H228139   6.190   4.504   8.650  0.3396 -1.1199  1.3908
 2194TIP3   OH228140   5.866   2.150   1.840 -0.3228  0.4785  0.3522
 2194TIP3    H128141   5.863   2.147   1.936  0.2739  0.5099  0.3783
 2194TIP3    H228142   5.828   2.068   1.812 -0.5783  0.5047  0.6157
 2195TIP3   OH228143   1.433   0.096   8.383  0.1843 -0.4563  0.1394
 2195TIP3    H128144   1.503   0.051   8.431  0.0270  0.7034  1.5138
 2195TIP3    H228145   1.463   0.097   8.292  2.3861  0.7587  0.8153
 2196TIP3   OH228146   4.444   5.821   1.290 -0.5499 -0.2912 -0.0883
 2196TIP3    H128147   4.476   5.731   1.283 -1.7497 -0.7955  0.6434
 2196TIP3    H228148   4.523   5.874   1.296  0.2321 -1.1129 -2.1500
 2197TIP3   OH228149   4.877   1.595   0.584 -0.4158  1.1287  0.1797
 2197TIP3    H128150   4.786   1.623   0.569 -1.1566  0.4034  2.8142
 2197TIP3    H228151   4.891   1.526   0.520 -1.9874  0.7710  0.1705
 2198TIP3   OH228152   2.993   2.315   8.429  0.4055 -0.4312  0.2822
 2198TIP3    H128153   2.916   2.371   8.420  0.2388 -0.7363 -0.2220
 2198TIP3    H228154   2.966   2.245   8.489  0.1985 -0.6885 -0.1057
 2199TIP3   OH228155   6.555   3.194   1.037  0.0409 -0.2308  0.0564
 2199TIP3    H128156   6.619   3.254   1.074 -1.1522  1.9825 -1.2653
 2199TIP3    H228157   6.471   3.223   1.074 -0.7786  0.0807 -1.9104
 2200TIP3   OH228158   6.012   2.856   2.570  0.0247  0.0836 -0.4811
 2200TIP3    H128159   6.094   2.835   2.614  0.2300 -2.4702 -1.8987
 2200TIP3    H228160   5.945   2.848   2.638  0.6497 -0.6234  0.0606
 2201TIP3   OH228161   1.272   2.467   7.574  0.0823  0.3986 -0.2356
 2201TIP3    H128162   1.312   2.398   7.627  0.3125  1.3062  0.8328
 2201TIP3    H228163   1.230   2.524   7.638 -0.6803  0.8839 -1.1494
 2202TIP3   OH228164   2.405   3.811   1.882 -0.2903  0.0626  0.0878
 2202TIP3    H128165   2.434   3.883   1.825  0.7673  0.7191  1.3942
 2202TIP3    H228166   2.486   3.771   1.913 -0.8520 -2.0165 -0.9285
 2203TIP3   OH228167   3.906   4.025   1.670  0.0074 -0.3359  0.4345
 2203TIP3    H128168   3.864   3.964   1.732 -1.2261  1.6563  1.6633
 2203TIP3    H228169   3.838   4.046   1.607  0.6518 -0.7488 -0.4193
 2204TIP3   OH228170   1.618   6.413   1.773  0.4393 -0.0432 -0.1979
 2204TIP3    H128171   1.588   6.497   1.739 -1.1085 -0.8354 -0.8721
 2204TIP3    H228172   1.542   6.376   1.817  1.3084 -0.7887  0.7449
 2205TIP3   OH228173   1.577   6.680   6.961  0.0350 -0.1694 -0.1775
 2205TIP3    H128174   1.536   6.670   6.876 -1.9844  1.8198  0.4639
 2205TIP3    H228175   1.666   6.647   6.949 -0.9142 -2.1624 -2.3586
 2206TIP3   OH228176   0.751   1.356   2.048 -0.1359  0.6448  0.4918
 2206TIP3    H128177   0.728   1.306   1.969  2.4433  2.1918 -1.4225
 2206TIP3    H228178   0.830   1.312   2.081 -0.9414  0.2831  2.0095
 2207TIP3   OH228179   2.717   1.777   7.873  0.1910 -0.0174 -0.0060
 2207TIP3    H128180   2.701   1.858   7.826  0.0366  0.6544  1.1542
 2207TIP3    H228181   2.645   1.719   7.848  0.5066  0.0561 -1.1284
 2208TIP3   OH228182   5.151   3.931   2.561 -0.5527 -0.4982 -0.1233
 2208TIP3    H128183   5.069   3.938   2.610  0.5064  0.3675  1.6391
 2208TIP3    H228184   5.205   3.871   2.613  1.0835  1.4693  0.5772
 2209TIP3   OH228185   1.963   4.048   2.617  0.0924  0.3732 -0.0872
 2209TIP3    H128186   1.964   4.143   2.628 -0.8023  0.3850 -0.0201
 2209TIP3    H228187   2.053   4.020   2.635  0.5549  1.2878 -0.8984
 2210TIP3   OH228188   2.572   3.627   1.992  0.0157  0.1640 -0.3397
 2210TIP3    H128189   2.577   3.540   1.954  0.2128 -0.5520  1.2515
 2210TIP3    H228190   2.513   3.617   2.067  0.1436  1.3717 -0.0509
 2211TIP3   OH228191   3.907   2.175   0.310 -0.1254  0.0146 -0.2668
 2211TIP3    H128192   3.934   2.177   0.218  2.0967  1.7359  0.3238
 2211TIP3    H228193   3.824   2.128   0.310 -1.0710  1.4159 -3.3916
 2212TIP3   OH228194   5.779   0.131   2.380  0.1590  0.9110  0.5607
 2212TIP3    H128195   5.778   0.036   2.367  1.3481  1.1454 -1.6759
 2212TIP3    H228196   5.725   0.165   2.309 -0.1571  1.9371  1.2766
 2213TIP3   OH228197   5.080   5.522   0.527  0.7502 -0.5282 -0.2239
 2213TIP3    H128198   5.163   5.557   0.560  0.6873 -0.8088  0.2329
 2213TIP3    H228199   5.057   5.581   0.455 -0.0472  1.2329  1.3895
 2214TIP3   OH228200   2.663   2.344   2.552 -0.4499 -0.2591 -0.1337
 2214TIP3    H128201   2.676   2.433   2.585 -0.3823 -0.5387  0.6118
 2214TIP3    H228202   2.703   2.345   2.465  1.6390 -0.1752  0.7648
 2215TIP3   OH228203   4.041   3.174   2.204 -0.0090 -0.3595  0.4032
 2215TIP3    H128204   3.956   3.160   2.246  0.9437 -0.8155  2.2702
 2215TIP3    H228205   4.022   3.234   2.131 -1.9966 -0.8532  0.4566
 2216TIP3   OH228206   5.923   1.191   1.202  0.0554  0.1862 -0.8154
 2216TIP3    H128207   5.934   1.227   1.114  0.0699 -0.6646 -1.1782
 2216TIP3    H228208   5.958   1.258   1.260  3.3478 -0.6205 -1.6665
 2217TIP3   OH228209   6.125   4.303   8.448 -0.2842 -0.2290 -0.1374
 2217TIP3    H128210   6.147   4.246   8.521 -2.2405 -1.3743 -0.3547
 2217TIP3    H228211   6.038   4.273   8.420 -0.2079  1.1178 -2.0038
 2218TIP3   OH228212   1.909   2.884   1.221 -0.2758 -0.7480 -0.2636
 2218TIP3    H128213   1.876   2.967   1.254 -1.8882 -1.5565  0.2741
 2218TIP3    H228214   2.002   2.899   1.207 -0.3189  0.8244  0.8611
 2219TIP3   OH228215   5.982   4.559   1.850  0.1215  1.0160 -0.0007
 2219TIP3    H128216   6.007   4.469   1.830 -1.4933  0.6284 -0.3754
 2219TIP3    H228217   6.053   4.612   1.813  0.4137 -0.0276 -0.9887
 2220TIP3   OH228218   1.110   0.361   0.559  0.1742  0.0587  0.5168
 2220TIP3    H128219   1.138   0.283   0.511  0.3859  0.9750 -0.9272
 2220TIP3    H228220   1.186   0.386   0.612  0.3771 -0.2597  0.3775
 2221TIP3   OH228221   1.574   1.458   8.262 -0.3354 -0.8713  0.0263
 2221TIP3    H128222   1.649   1.517   8.260 -0.8608 -0.0545  1.9274
 2221TIP3    H228223   1.612   1.371   8.273  0.3570 -0.5935 -0.1192
 2222TIP3   OH228224   4.656   3.620   0.491 -0.2172  0.5513 -0.2294
 2222TIP3    H128225   4.651   3.716   0.498  1.5698  0.8548 -1.9958
 2222TIP3    H228226   4.749   3.603   0.476 -0.3706 -1.5774  0.9079
 2223TIP3   OH228227   6.441   3.495   0.949 -0.9810  0.0342 -0.5528
 2223TIP3    H128228   6.466   3.583   0.921 -0.1169 -0.1962 -0.5359
 2223TIP3    H228229   6.478   3.437   0.882  0.5946 -0.4779  0.6834
 2224TIP3   OH228230   1.051   1.312   0.541 -1.0508 -0.1452  0.5124
 2224TIP3    H128231   1.137   1.278   0.564 -0.7740  1.2283  1.6569
 2224TIP3    H228232   1.063   1.407   0.537 -2.3757  0.0264  0.0593
 2225TIP3   OH228233   4.994   4.840   3.159 -0.3956  0.4133 -0.3052
 2225TIP3    H128234   5.009   4.816   3.251 -0.7382  1.3388 -0.0021
 2225TIP3    H228235   5.081   4.857   3.124 -0.1739 -0.8000 -0.4151
 2226TIP3   OH228236   5.283   4.742   1.547 -0.2040 -0.2336  0.4174
 2226TIP3    H128237   5.366   4.789   1.535  0.0451 -0.9037 -0.6043
 2226TIP3    H228238   5.306   4.650   1.534 -1.3798 -0.3080 -1.5845
 2227TIP3   OH228239   4.980   2.919   7.901  0.6372 -0.1271  0.0516
 2227TIP3    H128240   4.933   2.961   7.973 -1.2341  1.9690 -2.2225
 2227TIP3    H228241   4.931   2.839   7.884 -0.1546  0.3889 -0.1563
 2228TIP3   OH228242   4.005   1.646   8.566 -0.0403  0.5523  0.3361
 2228TIP3    H128243   3.971   1.715   8.508  1.1416  0.0264 -1.0560
 2228TIP3    H228244   3.974   1.565   8.527  0.4277  0.2052  0.6839
 2229TIP3   OH228245   6.630   2.576   8.606  0.2524  0.0881 -0.0103
 2229TIP3    H128246   6.603   2.654   8.556 -0.6267  0.2217  0.6465
 2229TIP3    H228247   6.603   2.595   8.696 -1.9519 -1.8309 -0.1640
 2230TIP3   OH228248   0.479   5.883   7.002 -0.4646  0.6437  0.3434
 2230TIP3    H128249   0.510   5.973   7.012  1.7533 -0.1339  1.2223
 2230TIP3    H228250   0.491   5.863   6.909  1.5272  0.4976  0.5825
 2231TIP3   OH228251   0.148   5.953   8.171  0.6281  0.4511 -0.0471
 2231TIP3    H128252   0.143   5.936   8.077  0.8248 -0.9151  0.1728
 2231TIP3    H228253   0.189   5.875   8.208 -0.9183  0.2439  1.3717
 2232TIP3   OH228254   6.667   6.033   3.185  0.0117 -0.1199  0.3918
 2232TIP3    H128255   6.716   6.077   3.116  0.3772  2.9981  2.4111
 2232TIP3    H228256   6.599   6.096   3.209 -0.5727 -1.4155  2.3277
 2233TIP3   OH228257   0.974   5.401   8.339  0.2540 -0.1076 -0.1460
 2233TIP3    H128258   1.014   5.446   8.265 -0.8311  0.7482 -0.2437
 2233TIP3    H228259   1.002   5.450   8.416  0.1204 -0.0428 -0.1376
 2234TIP3   OH228260   4.515   3.271   2.097  0.4353 -0.0836 -0.2097
 2234TIP3    H128261   4.512   3.181   2.132  0.7127  0.4780  1.3364
 2234TIP3    H228262   4.531   3.326   2.174  0.9012  1.2494 -1.2239
 2235TIP3   OH228263   5.176   4.898   1.756 -0.0490 -0.0665  0.3235
 2235TIP3    H128264   5.211   4.828   1.700  0.5787  1.1639 -0.8857
 2235TIP3    H228265   5.252   4.951   1.778 -0.3688 -0.2615  2.0093
 2236TIP3   OH228266   0.571   3.724   7.683  0.2635 -0.0443  0.3136
 2236TIP3    H128267   0.644   3.726   7.621 -0.3227  0.4322 -0.3915
 2236TIP3    H228268   0.577   3.808   7.729  0.4361 -0.2054  0.5827
 2237TIP3   OH228269   5.056   2.645   0.216 -0.1619 -0.1205 -0.1868
 2237TIP3    H128270   5.130   2.640   0.276  0.6079  2.5954 -0.7677
 2237TIP3    H228271   5.096   2.656   0.129 -1.2238  0.9486 -0.5664
 2238TIP3   OH228272   2.929   0.497   8.714 -0.6060 -0.2696 -0.1047
 2238TIP3    H128273   2.885   0.416   8.740 -0.7732  0.1902  1.1094
 2238TIP3    H228274   3.011   0.468   8.674 -0.4418 -1.0384  0.7481
 2239TIP3   OH228275   5.360   5.262   8.777  0.1251 -0.0357  0.0390
 2239TIP3    H128276   5.281   5.228   8.734 -0.3166  1.1327 -0.1038
 2239TIP3    H228277   5.432   5.218   8.732 -0.4367 -1.4106  0.4298
 2240TIP3   OH228278   0.089   5.402   8.037  0.5465  0.0579  0.3031
 2240TIP3    H128279   0.144   5.328   8.011  1.4521  1.2128 -1.1733
 2240TIP3    H228280   0.148   5.477   8.042 -0.6254  1.0291  0.2105
 2241TIP3   OH228281   5.749   2.328   0.908  0.2359  0.0511 -0.3392
 2241TIP3    H128282   5.738   2.248   0.857 -2.3088  0.4343 -0.5498
 2241TIP3    H228283   5.770   2.298   0.996 -1.9940 -0.9925 -0.0881
 2242TIP3   OH228284   4.282   1.388   0.297 -0.9965 -0.1610 -0.7822
 2242TIP3    H128285   4.202   1.405   0.246 -0.3068  0.1057 -1.8030
 2242TIP3    H228286   4.261   1.417   0.386 -2.0655 -0.1905 -1.0154
 2243TIP3   OH228287   3.905   5.353   0.611 -0.5006  0.5862  0.0982
 2243TIP3    H128288   3.875   5.350   0.520  0.2499  0.5418 -0.1585
 2243TIP3    H228289   3.857   5.426   0.650 -0.3914  0.9817 -0.4954
 2244TIP3   OH228290   2.981   0.759   7.603  0.5129  0.5035 -0.1467
 2244TIP3    H128291   3.010   0.822   7.537  1.9814  0.0504  0.0275
 2244TIP3    H228292   3.061   0.737   7.651 -0.4649  0.5973  1.6028
 2245TIP3   OH228293   2.216   3.440   7.752  0.4253  0.7233 -0.0478
 2245TIP3    H128294   2.269   3.360   7.762  0.7074  0.9648  0.4244
 2245TIP3    H228295   2.210   3.453   7.658 -1.4160 -1.0479 -0.2532
 2246TIP3   OH228296   3.212   0.978   0.190  0.3434  0.2492 -0.8932
 2246TIP3    H128297   3.196   0.896   0.237 -0.5838 -0.3771 -2.2245
 2246TIP3    H228298   3.134   0.990   0.135  0.3956  2.1086 -0.6278
 2247TIP3   OH228299   6.373   2.442   8.060 -0.5018 -0.9221 -0.5039
 2247TIP3    H128300   6.288   2.473   8.028 -0.0530  0.5949 -0.3422
 2247TIP3    H228301   6.364   2.347   8.064 -1.0672 -1.1216 -3.7383
 2248TIP3   OH228302   6.117   2.094   2.081  0.2633  0.0509 -0.2633
 2248TIP3    H128303   6.056   2.167   2.063 -0.5396 -0.4866  0.2107
 2248TIP3    H228304   6.116   2.086   2.176 -0.2970 -1.1018 -0.3525
 2249TIP3   OH228305   4.108   1.718   1.584 -0.1428  0.0402  0.2192
 2249TIP3    H128306   4.128   1.625   1.597  0.7754  0.1083 -0.5326
 2249TIP3    H228307   4.165   1.763   1.647 -0.8829  0.0908  0.8681
 2250TIP3   OH228308   3.440   3.114   0.781 -0.0411 -0.1524  0.5240
 2250TIP3    H128309   3.366   3.155   0.825  0.6985  1.1456  0.6147
 2250TIP3    H228310   3.514   3.172   0.800  0.8726 -1.0823 -0.0795
 2251TIP3   OH228311   4.161   5.053   2.048  0.2499  0.3534 -0.2579
 2251TIP3    H128312   4.175   5.050   1.953  1.7873 -3.2300 -0.0648
 2251TIP3    H228313   4.242   5.090   2.084 -0.1322  1.2265 -0.2526
 2252TIP3   OH228314   5.309   4.874   2.221  0.3450 -0.4712  0.3168
 2252TIP3    H128315   5.262   4.843   2.144  1.5544 -1.3802 -0.0898
 2252TIP3    H228316   5.337   4.962   2.199  0.8519 -0.7991 -0.3612
 2253TIP3   OH228317   0.126   0.266   8.570  0.1523  0.1958 -1.0264
 2253TIP3    H128318   0.030   0.267   8.566  0.0500 -0.1322  0.6114
 2253TIP3    H228319   0.149   0.173   8.566  0.3541  0.2371 -0.8709
 2254TIP3   OH228320   0.253   5.060   0.456  0.7371 -0.0013  0.7218
 2254TIP3    H128321   0.305   5.041   0.377  0.1934  0.3448  0.2726
 2254TIP3    H228322   0.303   5.020   0.527  1.3800 -0.0854  0.2397
 2255TIP3   OH228323   4.859   6.105   0.875 -0.3465 -0.5641  0.1445
 2255TIP3    H128324   4.822   6.029   0.831 -0.1203 -0.0119 -1.0437
 2255TIP3    H228325   4.880   6.166   0.804 -2.2875  1.4269  1.1705
 2256TIP3   OH228326   6.474   1.359   1.091  0.1582  0.6505 -0.3148
 2256TIP3    H128327   6.510   1.416   1.023 -2.1585 -1.1457 -3.3027
 2256TIP3    H228328   6.413   1.414   1.140  0.8394  1.6420 -0.5556
 2257TIP3   OH228329   3.724   1.773   8.046  0.0912 -0.2271 -0.5744
 2257TIP3    H128330   3.720   1.720   8.125 -0.6465  1.1651  0.3515
 2257TIP3    H228331   3.648   1.744   7.994 -0.0630 -0.3630 -0.2758
 2258TIP3   OH228332   4.123   0.985   7.683  0.2677  0.8012 -0.3624
 2258TIP3    H128333   4.059   0.961   7.616  0.5585  0.9193 -0.6788
 2258TIP3    H228334   4.200   0.932   7.664  0.4484  1.0373 -0.2829
 2259TIP3   OH228335   5.643   6.793   2.704  0.2290 -0.7795  0.3487
 2259TIP3    H128336   5.649   6.741   2.784  1.0187 -0.5635  0.4398
 2259TIP3    H228337   5.727   6.839   2.699  0.7640 -1.8198 -1.2832
 2260TIP3   OH228338   3.894   2.141   7.332  0.8924  0.3426  0.0172
 2260TIP3    H128339   3.903   2.101   7.418  3.1662  4.1494  1.8138
 2260TIP3    H228340   3.800   2.137   7.314  0.3403 -0.5876  2.6716
 2261TIP3   OH228341   5.529   1.296   0.131  0.6778  0.1411 -0.1750
 2261TIP3    H128342   5.619   1.283   0.100  0.5471  0.9042 -0.8777
 2261TIP3    H228343   5.533   1.272   0.224  1.8496  1.1979  0.0684
 2262TIP3   OH228344   5.927   3.746   0.482 -0.1451  0.7611  0.2759
 2262TIP3    H128345   6.014   3.778   0.457  0.4640 -0.7741  0.3447
 2262TIP3    H228346   5.897   3.696   0.406 -0.2889 -0.0109  0.8249
 2263TIP3   OH228347   6.777   1.843   7.648 -0.5738  0.4774  0.1012
 2263TIP3    H128348   6.683   1.863   7.655 -0.7172 -0.1807  0.1269
 2263TIP3    H228349   6.780   1.761   7.598 -0.2025 -1.1842  2.6581
 2264TIP3   OH228350   5.266   4.394   3.177  0.7140 -0.3105 -0.2676
 2264TIP3    H128351   5.352   4.393   3.218  1.5352  0.4976 -1.8583
 2264TIP3    H228352   5.272   4.462   3.109 -1.2899  0.0126 -0.1985
 2265TIP3   OH228353   5.408   4.734   1.214  0.3723  0.0453  0.2542
 2265TIP3    H128354   5.492   4.693   1.193  0.6660  0.5337  0.4610
 2265TIP3    H228355   5.361   4.668   1.265  0.7715 -0.0975  0.4374
 2266TIP3   OH228356   0.491   3.703   8.134  0.2314 -0.2384 -0.4017
 2266TIP3    H128357   0.580   3.691   8.101 -0.1090  0.1840 -1.5425
 2266TIP3    H228358   0.441   3.630   8.098 -0.0843  0.0631 -0.5937
 2267TIP3   OH228359   6.333   5.125   0.931  0.1084  0.0675 -0.2029
 2267TIP3    H128360   6.349   5.217   0.911  0.4836 -0.3697 -2.1227
 2267TIP3    H228361   6.243   5.110   0.904  0.1068 -0.1661 -0.0662
 2268TIP3   OH228362   3.130   6.674   1.453  0.6642 -0.2092 -0.5273
 2268TIP3    H128363   3.122   6.631   1.537  1.5501  1.1115  0.2785
 2268TIP3    H228364   3.169   6.608   1.396  0.5578 -0.9491  0.2431
 2269TIP3   OH228365   4.257   1.660   0.899  0.0639  0.5280  0.7989
 2269TIP3    H128366   4.269   1.623   0.986  0.6183 -1.0647  0.0845
 2269TIP3    H228367   4.167   1.638   0.876 -0.0648  0.8997  0.9452
 2270TIP3   OH228368   6.776   0.520   0.258 -0.0857 -0.1994  0.1432
 2270TIP3    H128369   6.790   0.549   0.168 -1.7142 -0.1633 -0.1402
 2270TIP3    H228370   6.845   0.563   0.309  1.5467 -1.0987 -1.2175
 2271TIP3   OH228371   2.993   5.096   7.917 -0.1010  0.0764 -0.1779
 2271TIP3    H128372   3.002   5.007   7.885  0.4562 -0.1386  0.5212
 2271TIP3    H228373   3.052   5.100   7.993 -0.5218  0.8776  0.1260
 2272TIP3   OH228374   4.575   3.063   2.697  0.0046  0.2167  0.5089
 2272TIP3    H128375   4.585   3.032   2.787  0.8247 -1.5724 -0.1528
 2272TIP3    H228376   4.592   3.157   2.702 -0.2171  0.1937  2.2475
 2273TIP3   OH228377   6.375   2.872   8.726 -0.0035  0.1453 -0.2879
 2273TIP3    H128378   6.437   2.825   8.783 -0.6109  0.5030  0.6959
 2273TIP3    H228379   6.400   2.847   8.637  0.7180 -0.7523  0.1513
 2274TIP3   OH228380   1.821   3.428   0.427 -0.2270 -0.0508  0.0526
 2274TIP3    H128381   1.816   3.360   0.361  0.6732  1.1951 -1.3603
 2274TIP3    H228382   1.759   3.495   0.398 -0.7007 -0.0062  1.1200
 2275TIP3   OH228383   3.254   3.863   1.981  0.2122  0.5252  0.3839
 2275TIP3    H128384   3.225   3.951   1.956 -0.0927  0.4634  0.5280
 2275TIP3    H228385   3.175   3.810   1.980  0.5206  0.0692 -0.4792
 2276TIP3   OH228386   5.635   0.247   2.179  0.1235  0.0667  0.2829
 2276TIP3    H128387   5.592   0.180   2.124  0.7149 -0.4396  0.4323
 2276TIP3    H228388   5.562   0.294   2.220 -0.3058 -0.2508 -0.0994
 2277TIP3   OH228389   0.368   6.805   7.745 -0.2460 -0.4030  0.2794
 2277TIP3    H128390   0.306   6.867   7.784 -0.5279 -1.5372  1.7339
 2277TIP3    H228391   0.375   6.833   7.654 -1.8805  0.5728  0.4006
 2278TIP3   OH228392   5.687   1.658   0.521 -0.3576  0.5940  0.1476
 2278TIP3    H128393   5.701   1.619   0.435 -1.6267 -0.1394  0.2538
 2278TIP3    H228394   5.759   1.721   0.530  0.7336 -0.4553 -0.7595
 2279TIP3   OH228395   0.054   0.198   1.131  0.1271  0.0604  0.0214
 2279TIP3    H128396   0.126   0.226   1.188  1.4393  1.4320 -2.1933
 2279TIP3    H228397   0.006   0.134   1.184  1.1575  1.3529  2.7010
 2280TIP3   OH228398   1.612   0.575   1.263  0.1967  0.0674 -0.3737
 2280TIP3    H128399   1.599   0.488   1.301 -0.5093 -0.3400 -1.4961
 2280TIP3    H228400   1.690   0.566   1.209  0.7641  0.4493  0.3519
 2281TIP3   OH228401   5.896   1.217   0.910 -0.0961 -0.3189  0.0845
 2281TIP3    H128402   5.991   1.228   0.904 -0.0726 -0.6556 -0.1615
 2281TIP3    H228403   5.872   1.168   0.832 -0.4666 -0.2955  0.1798
 2282TIP3   OH228404   6.528   2.040   6.892 -0.2826 -0.3883  0.4673
 2282TIP3    H128405   6.529   2.072   6.982  1.6455  3.4596 -0.7383
 2282TIP3    H228406   6.619   2.017   6.874 -0.6408 -1.0613 -0.5342
 2283TIP3   OH228407   1.391   6.245   2.373  0.2000  0.2360  0.0214
 2283TIP3    H128408   1.317   6.202   2.329 -0.9921  1.0091  1.2134
 2283TIP3    H228409   1.423   6.180   2.436  0.8638 -0.2681 -0.8086
 2284TIP3   OH228410   6.226   6.505   2.062 -0.1350  0.1215  0.0722
 2284TIP3    H128411   6.254   6.414   2.056 -1.8556 -0.4371  0.0522
 2284TIP3    H228412   6.196   6.526   1.974  1.2845  1.1087 -0.2226
 2285TIP3   OH228413   0.998   6.035   0.680 -0.0503 -0.6941  0.2237
 2285TIP3    H128414   1.091   6.019   0.666  0.0179 -1.6377  1.6409
 2285TIP3    H228415   0.981   6.115   0.631  1.8115  0.2656  1.0304
 2286TIP3   OH228416   1.120   1.443   1.865 -0.4232 -0.4645  0.5128
 2286TIP3    H128417   1.202   1.409   1.830 -1.6842 -3.1069 -0.1295
 2286TIP3    H228418   1.139   1.463   1.957  1.4433  1.0955 -0.1413
 2287TIP3   OH228419   1.412   2.302   1.168 -0.4329  0.2583 -0.3293
 2287TIP3    H128420   1.498   2.268   1.142  0.8658  2.8599  0.2822
 2287TIP3    H228421   1.402   2.383   1.119 -3.2618 -0.6758 -1.4956
 2288TIP3   OH228422   4.177   1.480   1.117 -0.5265 -0.0147 -0.3096
 2288TIP3    H128423   4.253   1.422   1.121 -0.4040  0.1849  0.2478
 2288TIP3    H228424   4.103   1.422   1.136 -0.5570 -0.2701 -1.1397
 2289TIP3   OH228425   3.731   6.696   7.172 -0.1711  0.0327  0.3032
 2289TIP3    H128426   3.720   6.791   7.159 -0.0395  0.1777  1.1735
 2289TIP3    H228427   3.656   6.657   7.128  1.0615  0.3556 -2.2661
 2290TIP3   OH228428   4.533   2.928   0.534  0.1313  0.3261 -0.6249
 2290TIP3    H128429   4.628   2.931   0.524  0.0012 -0.3996 -2.4932
 2290TIP3    H228430   4.500   2.988   0.468 -0.7338  1.0045  0.3794
 2291TIP3   OH228431   4.198   3.553   7.941  0.2557 -0.0437 -0.2174
 2291TIP3    H128432   4.143   3.500   7.884 -0.1338  1.4434 -1.2872
 2291TIP3    H228433   4.166   3.535   8.029 -0.5126 -0.8264 -0.6414
 2292TIP3   OH228434   5.212   0.201   2.219 -0.0118 -0.0947  0.3348
 2292TIP3    H128435   5.126   0.197   2.178  0.3947  0.0391 -0.5456
 2292TIP3    H228436   5.196   0.236   2.307 -0.9046 -0.4916  0.3337
 2293TIP3   OH228437   2.621   3.429   1.014  0.1325 -0.0510 -0.1480
 2293TIP3    H128438   2.651   3.393   0.931 -0.2663 -1.0382  0.1202
 2293TIP3    H228439   2.659   3.371   1.080  0.5381  0.7878  0.3728
 2294TIP3   OH228440   6.076   3.053   1.694  0.0184  0.1901  0.2162
 2294TIP3    H128441   6.137   3.049   1.620  0.4022 -1.7831  0.5876
 2294TIP3    H228442   6.001   3.101   1.660  1.1098  1.3049 -0.7336
 2295TIP3   OH228443   3.063   4.418   8.625 -0.0992 -0.1460 -0.2342
 2295TIP3    H128444   3.144   4.367   8.625  0.0320  0.0067  1.2296
 2295TIP3    H228445   3.013   4.384   8.700 -0.7001  0.7861 -0.1917
 2296TIP3   OH228446   2.373   4.424   0.484  0.1303 -0.3478 -0.1372
 2296TIP3    H128447   2.450   4.390   0.438 -0.7347 -1.0087 -1.1443
 2296TIP3    H228448   2.306   4.358   0.470 -0.4727 -0.0423  1.2045
 2297TIP3   OH228449   6.636   4.056   8.174 -0.0321  0.1440  0.4427
 2297TIP3    H128450   6.655   4.068   8.267  0.4458  0.0602  0.3548
 2297TIP3    H228451   6.708   4.002   8.141 -1.3688 -1.7617  0.5070
 2298TIP3   OH228452   0.422   2.655   8.586  0.1798 -0.7670  0.5298
 2298TIP3    H128453   0.328   2.656   8.571 -0.0975 -1.4777  2.0329
 2298TIP3    H228454   0.447   2.747   8.587  0.2873 -0.5223 -3.9156
 2299TIP3   OH228455   3.613   6.087   1.305  0.5115 -0.7284 -0.0868
 2299TIP3    H128456   3.582   6.058   1.219 -0.6216 -0.4387  0.2035
 2299TIP3    H228457   3.625   6.182   1.295  3.2454 -1.0644 -0.7482
 2300TIP3   OH228458   4.944   5.814   0.852  0.0756  0.0446  0.3476
 2300TIP3    H128459   4.954   5.775   0.766  1.3245  0.8519  0.1039
 2300TIP3    H228460   5.002   5.762   0.909  1.2467  1.1125  0.1526
 2301TIP3   OH228461   3.070   1.602   2.333  0.5029 -0.4230  0.2437
 2301TIP3    H128462   3.002   1.585   2.267 -1.2834 -0.4421  2.0092
 2301TIP3    H228463   3.063   1.530   2.395  3.2666 -1.2932 -0.3215
 2302TIP3   OH228464   2.028   4.267   1.133  0.6590  0.3037 -0.3612
 2302TIP3    H128465   2.105   4.299   1.179  1.1152  0.2771 -1.1031
 2302TIP3    H228466   2.040   4.173   1.127 -0.3755  0.0294  1.2465
 2303TIP3   OH228467   4.425   5.099   7.284  0.0387 -0.4283  0.3818
 2303TIP3    H128468   4.348   5.056   7.322  0.1721  0.1894  1.3854
 2303TIP3    H228469   4.400   5.117   7.193 -0.2777 -1.9596  0.1459
 2304TIP3   OH228470   4.954   0.692   0.106  0.1644 -0.4617  0.0595
 2304TIP3    H128471   4.863   0.662   0.111  0.3670 -0.9359  1.0522
 2304TIP3    H228472   5.002   0.614   0.077  0.5215 -0.8050  1.4887
 2305TIP3   OH228473   4.641   1.713   0.603 -0.3523  0.1223  0.5123
 2305TIP3    H128474   4.564   1.712   0.546  0.6882  0.1804 -0.9492
 2305TIP3    H228475   4.605   1.727   0.691 -1.8999  1.6664 -0.3008
 2306TIP3   OH228476   0.510   0.789   1.844 -0.0064 -0.0731  0.5495
 2306TIP3    H128477   0.462   0.716   1.804 -0.0360  1.0780 -1.6561
 2306TIP3    H228478   0.450   0.825   1.908 -1.6872  0.5312 -1.2569
 2307TIP3   OH228479   3.292   3.723   2.655  0.4588 -0.1456 -0.1895
 2307TIP3    H128480   3.237   3.796   2.684  3.6287  0.8983  4.1779
 2307TIP3    H228481   3.274   3.653   2.717  2.4376 -0.5232  0.0128
 2308TIP3   OH228482   2.703   1.288   0.859 -0.2833 -0.1866 -0.0559
 2308TIP3    H128483   2.719   1.358   0.795  0.0074  0.6897  0.9498
 2308TIP3    H228484   2.643   1.228   0.814 -0.5533  0.7191 -0.9384
 2309TIP3   OH228485   1.630   1.612   0.380 -0.1184 -0.1847  0.2006
 2309TIP3    H128486   1.570   1.538   0.390 -0.5290  0.0371 -0.4833
 2309TIP3    H228487   1.704   1.577   0.331 -0.8436  0.1019 -1.1577
 2310TIP3   OH228488   3.772   1.517   0.157  0.3001 -0.1458 -0.1211
 2310TIP3    H128489   3.725   1.525   0.240 -1.3223  2.1328 -1.1507
 2310TIP3    H228490   3.705   1.489   0.095  0.6192  1.5759 -1.3041
 2311TIP3   OH228491   0.927   2.693   7.960  0.1108 -0.2391  0.4051
 2311TIP3    H128492   0.890   2.756   8.022 -0.1238  0.7624 -0.7236
 2311TIP3    H228493   0.895   2.721   7.874  0.0261 -1.8866 -0.1428
 2312TIP3   OH228494   1.475   5.533   0.284 -0.3729 -0.1876  0.5496
 2312TIP3    H128495   1.545   5.537   0.349 -0.6902  0.4501  0.8538
 2312TIP3    H228496   1.427   5.615   0.295 -1.7408 -1.0176  0.9944
 2313TIP3   OH228497   5.274   4.242   8.754 -0.2257  0.2156  0.2899
 2313TIP3    H128498   5.244   4.333   8.757  1.0832  0.8066 -1.8989
 2313TIP3    H228499   5.227   4.203   8.680  0.1645 -0.5127  0.4128
 2314TIP3   OH228500   4.671   4.323   8.116 -0.8471 -0.2707 -0.5873
 2314TIP3    H128501   4.694   4.306   8.025  0.8002  0.1870 -0.2945
 2314TIP3    H228502   4.696   4.244   8.163  0.0136  0.1618 -0.2899
 2315TIP3   OH228503   4.116   2.685   0.371  0.4378 -0.5976  0.4188
 2315TIP3    H128504   4.038   2.675   0.425  0.3374 -0.6996  0.2544
 2315TIP3    H228505   4.161   2.601   0.377  0.5534 -0.5282  0.5402
 2316TIP3   OH228506   3.294   4.102   0.872 -0.1624 -0.0935 -0.2271
 2316TIP3    H128507   3.222   4.164   0.861 -1.0724 -1.0789  0.0826
 2316TIP3    H228508   3.255   4.016   0.858  0.5373 -0.7835  1.6776
 2317TIP3   OH228509   2.802   4.609   8.777  0.2360  0.7149 -0.2734
 2317TIP3    H128510   2.746   4.632   8.703 -1.2080 -0.1560  0.5095
 2317TIP3    H228511   2.827   4.518   8.760  0.7926  0.8606 -0.2346
 2318TIP3   OH228512   6.025   2.704   1.112 -1.0791  0.2065 -0.2271
 2318TIP3    H128513   5.963   2.666   1.050 -1.3784 -0.0705  0.2375
 2318TIP3    H228514   6.104   2.721   1.059 -1.0529 -0.7529 -0.5222
 2319TIP3   OH228515   0.575   2.890   8.584 -0.1138  0.0441 -0.1280
 2319TIP3    H128516   0.536   2.952   8.646 -1.2955 -1.1276  0.3514
 2319TIP3    H228517   0.669   2.899   8.597 -0.3081  0.8055  0.8581
 2320TIP3   OH228518   1.159   6.384   2.084 -0.5843  0.0891 -0.4132
 2320TIP3    H128519   1.203   6.458   2.125 -0.0040 -0.7757  0.5833
 2320TIP3    H228520   1.155   6.317   2.153 -2.2317 -0.3646 -0.8898
 2321TIP3   OH228521   4.082   6.692   1.402 -0.5320 -0.8463 -0.3100
 2321TIP3    H128522   4.168   6.727   1.426 -1.2472  0.7922  0.0087
 2321TIP3    H228523   4.098   6.599   1.385  1.0700 -0.8519  0.9409
 2322TIP3   OH228524   5.525   0.499   8.622  0.1777  0.1793 -0.3917
 2322TIP3    H128525   5.527   0.428   8.558  1.2502 -0.9054  0.7844
 2322TIP3    H228526   5.617   0.522   8.636 -0.0450  0.4881  0.6528
 2323TIP3   OH228527   2.987   1.652   7.904 -0.4634 -0.0335  0.1484
 2323TIP3    H128528   2.909   1.706   7.889 -1.8137 -1.8355  0.2247
 2323TIP3    H228529   3.010   1.669   7.996 -0.7777  0.5045  0.1322
 2324TIP3   OH228530   0.103   4.003   7.188 -0.4659  0.2149 -0.3443
 2324TIP3    H128531   0.071   3.921   7.224 -0.1469  0.1610 -0.1731
 2324TIP3    H228532   0.196   4.005   7.213 -1.1857  2.1936  2.6673
 2325TIP3   OH228533   0.938   4.134   1.400 -0.2162  0.5350  0.4896
 2325TIP3    H128534   1.000   4.165   1.466 -0.1044  0.2921  0.4999
 2325TIP3    H228535   0.910   4.214   1.354  1.5712  0.4896 -0.8013
 2326TIP3   OH228536   5.494   2.895   1.343 -0.2565 -0.3581 -0.2164
 2326TIP3    H128537   5.473   2.957   1.274 -0.5452  2.1124  1.9234
 2326TIP3    H228538   5.550   2.944   1.403 -1.2740 -1.8369  2.0905
 2327TIP3   OH228539   4.884   2.174   6.811  0.1042  0.3933  0.4939
 2327TIP3    H128540   4.893   2.128   6.728 -3.1423  2.9727 -1.5464
 2327TIP3    H228541   4.937   2.254   6.800  0.1586  0.4601  1.1786
 2328TIP3   OH228542   6.734   6.127   0.135 -0.3084  0.0379 -0.2367
 2328TIP3    H128543   6.777   6.074   0.068 -0.8311 -0.6034 -0.0731
 2328TIP3    H228544   6.778   6.105   0.216  0.2376  0.7183 -0.3400
 2329TIP3   OH228545   2.054   5.648   6.961 -0.4578 -0.1469  0.0604
 2329TIP3    H128546   2.006   5.565   6.955  0.9532 -1.0839  1.1656
 2329TIP3    H228547   2.002   5.701   7.022  0.0319 -1.2662  1.4972
 2330TIP3   OH228548   0.798   0.249   0.192 -0.4807 -0.5520 -0.0681
 2330TIP3    H128549   0.821   0.187   0.261 -1.7469 -0.2111  0.6909
 2330TIP3    H228550   0.825   0.206   0.111 -0.5604 -1.7268  0.5140
 2331TIP3   OH228551   1.438   0.719   6.770 -0.2178  0.6248 -0.5127
 2331TIP3    H128552   1.440   0.671   6.853  0.5506 -0.4766 -1.1301
 2331TIP3    H228553   1.365   0.681   6.722  0.3547  0.0776 -0.9797
 2332TIP3   OH228554   4.233   6.800   8.316  0.0032 -0.0543 -0.0720
 2332TIP3    H128555   4.266   6.878   8.273 -1.7206  0.2146 -0.9890
 2332TIP3    H228556   4.226   6.824   8.408 -0.4304  0.8507 -0.3344
 2333TIP3   OH228557   5.288   1.160   8.539  0.1409 -0.8688  0.5500
 2333TIP3    H128558   5.267   1.076   8.581 -1.1232 -0.6061  0.4784
 2333TIP3    H228559   5.211   1.215   8.554  0.2835 -0.2540 -0.7943
 2334TIP3   OH228560   0.564   4.324   1.351  0.6280 -0.5744 -0.3042
 2334TIP3    H128561   0.528   4.412   1.350 -1.7819 -1.4720 -0.2199
 2334TIP3    H228562   0.563   4.299   1.444  1.4576 -0.6530 -0.3076
 2335TIP3   OH228563   4.561   0.153   7.645  0.5061  0.8380 -0.4854
 2335TIP3    H128564   4.551   0.116   7.733 -1.0887  1.7697 -0.2447
 2335TIP3    H228565   4.636   0.211   7.652 -0.0534  1.4737  0.4856
 2336TIP3   OH228566   0.313   2.996   1.013  0.3946  0.5796  0.1516
 2336TIP3    H128567   0.241   2.961   1.066  0.1777 -1.1544 -1.1738
 2336TIP3    H228568   0.389   2.944   1.040  0.3167 -0.2007 -1.0513
 2337TIP3   OH228569   4.796   6.638   2.467  0.1445 -0.2312  0.0963
 2337TIP3    H128570   4.890   6.621   2.455  0.1984  0.9886 -1.4576
 2337TIP3    H228571   4.787   6.659   2.560  1.6101  0.7556  0.0401
 2338TIP3   OH228572   0.685   4.618   1.279  0.2533  0.7319 -0.3797
 2338TIP3    H128573   0.759   4.634   1.337 -0.6191  0.7144  0.7791
 2338TIP3    H228574   0.724   4.596   1.194  1.5377  1.6790 -0.0465
 2339TIP3   OH228575   2.162   0.276   1.207  0.0498 -0.7364 -0.1821
 2339TIP3    H128576   2.133   0.187   1.224  1.0772 -1.0896 -0.2426
 2339TIP3    H228577   2.122   0.299   1.124  1.4540 -1.9194 -1.2373
 2340TIP3   OH228578   2.162   5.385   2.022 -0.4015 -0.3306  0.1197
 2340TIP3    H128579   2.097   5.452   2.044 -0.4861 -0.1397 -0.6564
 2340TIP3    H228580   2.247   5.428   2.035 -0.4121 -0.7122  1.5353
 2341TIP3   OH228581   0.976   2.803   1.339  0.3633  0.0010 -0.2699
 2341TIP3    H128582   0.968   2.885   1.388 -0.5218  1.5032 -2.7626
 2341TIP3    H228583   1.059   2.811   1.292 -0.0327 -0.2022 -1.0257
 2342TIP3   OH228584   2.235   3.237   2.735 -0.5678  0.1239  0.1150
 2342TIP3    H128585   2.300   3.299   2.769 -0.1998 -0.4126  0.3886
 2342TIP3    H228586   2.164   3.241   2.799  0.7461 -1.9933  1.8411
 2343TIP3   OH228587   0.949   6.572   1.966 -0.1412 -0.1325 -0.8566
 2343TIP3    H128588   1.010   6.510   1.925  0.7563  0.7403 -0.8925
 2343TIP3    H228589   0.904   6.614   1.893  0.7583  0.7282 -0.9372
 2344TIP3   OH228590   0.495   5.933   8.728  1.1038  0.5693 -0.1781
 2344TIP3    H128591   0.441   5.977   8.793  0.1242 -0.1826 -0.4694
 2344TIP3    H228592   0.580   5.922   8.771  0.8660  1.2306  0.4946
 2345TIP3   OH228593   3.843   1.239   1.891  0.2335 -0.4614 -0.3350
 2345TIP3    H128594   3.883   1.321   1.861  0.5742 -0.8191 -0.8719
 2345TIP3    H228595   3.912   1.195   1.940 -0.0428 -0.2957  0.2081
 2346TIP3   OH228596   5.791   2.102   7.346 -0.3499 -0.0542 -0.2519
 2346TIP3    H128597   5.823   2.122   7.434 -0.0289  0.2099 -0.4281
 2346TIP3    H228598   5.792   2.006   7.342  2.4261 -0.0996 -0.9530
 2347TIP3   OH228599   3.550   2.738   2.046 -0.2447  0.6830  0.5328
 2347TIP3    H128600   3.478   2.798   2.029 -0.3389  0.6554  0.8356
 2347TIP3    H228601   3.509   2.656   2.069 -0.1147  0.6043  0.4888
 2348TIP3   OH228602   4.601   5.080   7.480 -0.5967  0.0570 -0.4287
 2348TIP3    H128603   4.550   5.116   7.408 -0.5454 -0.0701 -0.5301
 2348TIP3    H228604   4.658   5.015   7.439  0.0784  0.6299 -0.4069
 2349TIP3   OH228605   1.740   3.813   1.576  0.4144  0.0972 -0.2532
 2349TIP3    H128606   1.749   3.751   1.648  0.1413 -0.1228 -0.4102
 2349TIP3    H228607   1.774   3.896   1.612  1.2960 -0.2638 -0.2197
 2350TIP3   OH228608   4.680   1.335   1.007  0.2357  0.3435 -0.6608
 2350TIP3    H128609   4.768   1.324   0.971  0.9740  2.8765  0.1096
 2350TIP3    H228610   4.635   1.392   0.943 -0.3311  0.2896 -0.3198
 2351TIP3   OH228611   4.763   6.739   7.446 -0.2498  0.3126  0.4115
 2351TIP3    H128612   4.808   6.801   7.504 -0.2924  1.3862 -0.6682
 2351TIP3    H228613   4.784   6.653   7.482  1.6398  0.8424  0.6781
 2352TIP3   OH228614   6.209   0.051   8.627  0.1689  0.1354  0.3607
 2352TIP3    H128615   6.209  -0.040   8.657 -0.8019 -0.0183 -0.0563
 2352TIP3    H228616   6.301   0.077   8.627  0.8427 -1.7863 -2.3190
 2353TIP3   OH228617   5.461   1.828   1.705 -0.1110 -0.3596 -0.8390
 2353TIP3    H128618   5.451   1.762   1.636 -2.0060 -0.5604 -0.4437
 2353TIP3    H228619   5.382   1.882   1.698  1.8921  2.6634 -1.9001
 2354TIP3   OH228620   0.722   5.369   1.918  0.4708 -0.5998 -0.4167
 2354TIP3    H128621   0.689   5.302   1.978 -2.2436  2.2285  1.4989
 2354TIP3    H228622   0.816   5.374   1.938 -0.1827 -0.3145  3.1613
 2355TIP3   OH228623   0.312   3.962   0.506 -0.3033 -0.1039  0.2921
 2355TIP3    H128624   0.304   4.053   0.478  0.2981 -0.6193 -1.6682
 2355TIP3    H228625   0.333   3.968   0.600  1.1909  1.8132 -0.1106
 2356TIP3   OH228626   3.590   4.866   8.076  0.3160 -0.0361 -0.0928
 2356TIP3    H128627   3.626   4.887   7.990 -2.1924  0.2845 -1.1480
 2356TIP3    H228628   3.497   4.851   8.060 -0.1911 -0.1701  2.5535
 2357TIP3   OH228629   4.995   4.928   2.252 -0.1334  0.5358 -0.0302
 2357TIP3    H128630   4.971   5.018   2.277 -0.2427 -0.4051  3.9449
 2357TIP3    H228631   5.080   4.914   2.294  0.0126 -1.1415 -0.8330
 2358TIP3   OH228632   6.391   6.773   2.142 -0.6570  0.5716 -0.3516
 2358TIP3    H128633   6.440   6.696   2.111 -1.0257  0.9683 -2.0039
 2358TIP3    H228634   6.307   6.737   2.172  0.3797 -0.0418  1.9901
 2359TIP3   OH228635   4.655   1.002   2.165 -0.2025 -0.3955  0.1755
 2359TIP3    H128636   4.616   0.951   2.236 -0.5145  0.5689  0.7266
 2359TIP3    H228637   4.639   1.093   2.190  1.4997  0.0168 -0.1021
 2360TIP3   OH228638   2.693   5.388   7.506 -0.1123  0.2437 -0.4480
 2360TIP3    H128639   2.675   5.389   7.600 -0.1739 -0.7400 -0.4485
 2360TIP3    H228640   2.781   5.425   7.498  1.2745 -2.6613  0.3133
 2361TIP3   OH228641   2.220   5.632   8.104 -0.3029 -0.4072 -0.5798
 2361TIP3    H128642   2.241   5.570   8.034 -1.8840 -0.8531 -0.6945
 2361TIP3    H228643   2.225   5.580   8.185  1.8590  0.1845 -0.2576
 2362TIP3   OH228644   2.747   6.601   6.890 -0.0866  0.6671  0.4001
 2362TIP3    H128645   2.839   6.607   6.864  0.2036  1.2767  1.4856
 2362TIP3    H228646   2.732   6.681   6.941 -1.6150  1.2743 -0.9033
 2363TIP3   OH228647   5.958   3.918   2.317 -0.1652  0.1685 -0.1125
 2363TIP3    H128648   5.901   3.982   2.360  2.4535  1.2362  2.0503
 2363TIP3    H228649   5.899   3.849   2.288 -2.5403  1.1714  2.0125
 2364TIP3   OH228650   4.777   4.425   0.867 -0.6072 -0.5392  0.4943
 2364TIP3    H128651   4.872   4.434   0.858 -0.6785 -0.4577 -0.2444
 2364TIP3    H228652   4.745   4.515   0.876 -0.6624 -0.5195  0.1420
 2365TIP3   OH228653   5.225   1.989   1.506  0.1828  0.0512 -0.1820
 2365TIP3    H128654   5.201   2.078   1.481 -0.1295 -0.5144 -2.0456
 2365TIP3    H228655   5.287   2.000   1.578 -2.0942  1.6935  1.7150
 2366TIP3   OH228656   1.066   2.955   8.203 -0.3686 -0.2236  0.6337
 2366TIP3    H128657   1.028   2.879   8.247 -0.9868 -1.1292 -1.3527
 2366TIP3    H228658   0.991   3.008   8.176  0.0368  0.8369  1.4903
 2367TIP3   OH228659   1.485   4.056   2.866 -0.0996 -0.2479  0.0596
 2367TIP3    H128660   1.553   4.099   2.917 -0.7022  2.6791 -1.3829
 2367TIP3    H228661   1.532   4.006   2.799  0.6871  0.9332 -0.3006
 2368TIP3   OH228662   1.069   6.287   8.721 -0.2434 -0.6497  0.0448
 2368TIP3    H128663   1.164   6.297   8.728 -0.0916 -1.2708 -1.0015
 2368TIP3    H228664   1.051   6.291   8.627 -1.1304 -1.5704  0.1629
 2369TIP3   OH228665   6.251   5.057   8.622  0.3519  0.0557  0.3417
 2369TIP3    H128666   6.246   5.122   8.692 -2.2933 -0.1799  0.4696
 2369TIP3    H228667   6.315   4.993   8.652 -2.6845 -1.5999  3.9997
 2370TIP3   OH228668   4.923   4.931   0.240 -0.3599 -0.6656 -0.3877
 2370TIP3    H128669   4.882   4.896   0.319  0.5823 -1.5382 -0.2498
 2370TIP3    H228670   4.972   5.007   0.269 -0.4942 -0.6388 -0.2362
 2371TIP3   OH228671   5.620   0.345   0.598 -0.7253  0.0916 -0.3010
 2371TIP3    H128672   5.574   0.386   0.671 -0.0158 -0.8472  0.6990
 2371TIP3    H228673   5.590   0.394   0.521 -0.5496  1.9223  0.7233
 2372TIP3   OH228674   1.924   5.156   6.919 -0.1429  0.1056  0.0783
 2372TIP3    H128675   1.934   5.180   6.827 -0.5155  0.5338  0.1447
 2372TIP3    H228676   2.013   5.143   6.951  0.0620  1.0629 -0.0592
 2373TIP3   OH228677   1.271   2.197   8.755  0.2351 -0.5486  0.1159
 2373TIP3    H128678   1.340   2.173   8.694  0.9655  1.0587  0.2470
 2373TIP3    H228679   1.193   2.209   8.700  0.6429 -0.0855 -0.3670
 2374TIP3   OH228680   4.552   3.627   2.080 -0.0746  0.4072  0.3795
 2374TIP3    H128681   4.468   3.581   2.073 -0.8090  1.5474  1.4356
 2374TIP3    H228682   4.616   3.557   2.093 -0.8737 -0.4629 -0.2383
 2375TIP3   OH228683   2.063   5.885   8.479 -0.1260  0.1073  0.3843
 2375TIP3    H128684   2.080   5.791   8.491  1.6599  0.5748  1.9522
 2375TIP3    H228685   2.068   5.897   8.384  1.4314 -1.1079  0.2539
 2376TIP3   OH228686   2.288   1.589   1.311  0.3132 -0.7814  0.1479
 2376TIP3    H128687   2.377   1.621   1.323 -0.0525  0.0249  0.8487
 2376TIP3    H228688   2.239   1.626   1.385 -0.4491 -1.7880  0.1618
 2377TIP3   OH228689   3.058   3.675   0.947  0.2228  0.1594 -0.0015
 2377TIP3    H128690   2.967   3.684   0.973  0.1141 -1.9834  0.5242
 2377TIP3    H228691   3.063   3.588   0.907  1.7962  0.7125 -1.0901
 2378TIP3   OH228692   0.424   2.622   1.009  0.5477  0.0903 -0.3645
 2378TIP3    H128693   0.450   2.713   1.020 -4.2684  1.9062 -1.4389
 2378TIP3    H228694   0.381   2.598   1.091  0.2788 -0.6085 -0.6948
 2379TIP3   OH228695   5.257   0.474   1.760  0.1212 -0.7496  0.1808
 2379TIP3    H128696   5.247   0.382   1.786 -0.5066 -1.0906 -1.1238
 2379TIP3    H228697   5.289   0.469   1.670 -0.9761  0.2813 -0.2941
 2380TIP3   OH228698   6.624   4.973   7.721 -0.1192 -0.6747 -0.0752
 2380TIP3    H128699   6.648   4.880   7.717  0.7848 -0.4411 -0.5082
 2380TIP3    H228700   6.627   4.995   7.814 -2.9077 -1.6792  0.3470
 2381TIP3   OH228701   3.641   4.622   1.946 -0.1388 -0.4305  0.2106
 2381TIP3    H128702   3.603   4.608   2.033  1.0394  0.7139  0.9539
 2381TIP3    H228703   3.610   4.709   1.921 -0.6103 -0.8258 -0.6128
 2382TIP3   OH228704   3.038   2.206   7.064 -0.3872 -0.1506  0.1306
 2382TIP3    H128705   3.125   2.166   7.062 -1.0351 -1.9689  2.6011
 2382TIP3    H228706   3.009   2.206   6.973  1.7148 -0.6122 -0.5889
 2383TIP3   OH228707   5.942   3.592   0.199  0.0737  0.1462 -0.1777
 2383TIP3    H128708   5.978   3.513   0.239 -0.2536  0.6646  1.2182
 2383TIP3    H228709   5.975   3.591   0.109  4.4061  1.0365  1.1518
 2384TIP3   OH228710   3.156   5.761   0.880 -0.1521 -0.2973  0.1060
 2384TIP3    H128711   3.161   5.839   0.935  1.6887 -0.0398 -0.3721
 2384TIP3    H228712   3.210   5.696   0.925  1.0391 -0.2152 -1.1305
 2385TIP3   OH228713   6.057   1.459   7.063 -0.7169  0.3620 -0.0435
 2385TIP3    H128714   6.019   1.403   7.131 -1.4524 -0.1007 -0.8091
 2385TIP3    H228715   5.985   1.473   7.001 -0.2001  1.1863 -0.4684
 2386TIP3   OH228716   5.435   2.178   6.997 -0.3507 -0.2365 -0.7727
 2386TIP3    H128717   5.520   2.134   6.996 -0.1905  0.0413 -2.6717
 2386TIP3    H228718   5.455   2.268   7.024 -0.2156 -0.4586 -0.1120
 2387TIP3   OH228719   5.393   4.086   8.137  0.0423 -0.0803 -0.0963
 2387TIP3    H128720   5.341   4.119   8.064  0.6439 -0.0797 -0.5286
 2387TIP3    H228721   5.448   4.160   8.162  1.6805 -0.8461 -1.3227
 2388TIP3   OH228722   1.310   1.710   0.254  0.0825  0.0181 -0.6717
 2388TIP3    H128723   1.242   1.744   0.196 -2.4453 -1.1751  1.3815
 2388TIP3    H228724   1.263   1.655   0.317  3.2997 -3.5306 -0.9614
 2389TIP3   OH228725   5.807   0.541   8.652 -0.6507 -0.4327 -0.3410
 2389TIP3    H128726   5.879   0.508   8.598 -0.4491 -1.1662  0.3551
 2389TIP3    H228727   5.821   0.635   8.657  0.4407 -0.6058  0.0508
 2390TIP3   OH228728   1.519   2.481   0.908 -0.0742  0.2719 -0.0144
 2390TIP3    H128729   1.478   2.566   0.897  0.3686  0.2183 -3.0265
 2390TIP3    H228730   1.587   2.478   0.840  1.7775 -1.4498  1.7578
 2391TIP3   OH228731   2.965   6.545   2.065  0.4375 -0.3899 -0.0492
 2391TIP3    H128732   3.002   6.463   2.033  0.0885 -0.4685 -0.2673
 2391TIP3    H228733   2.938   6.527   2.155  2.5522  0.1872  0.7420
 2392TIP3   OH228734   2.833   6.155   8.231 -0.2231 -0.1348 -1.0020
 2392TIP3    H128735   2.760   6.183   8.287  2.3346  0.5221  2.3627
 2392TIP3    H228736   2.849   6.064   8.258  0.7145 -0.0010 -1.1049
 2393TIP3   OH228737   3.464   6.312   7.582  0.0720  0.1055  0.4985
 2393TIP3    H128738   3.451   6.297   7.488  0.8059  0.5696  0.3096
 2393TIP3    H228739   3.377   6.334   7.615 -0.1102  0.4418 -0.1762
 2394TIP3   OH228740   0.205   5.856   2.325  0.0729  0.4594  0.0172
 2394TIP3    H128741   0.226   5.777   2.274 -1.7369 -1.0385  1.4392
 2394TIP3    H228742   0.264   5.852   2.400 -0.5340  0.0182  0.4790
 2395TIP3   OH228743   3.594   0.109   7.469  0.7505  0.7651  0.2316
 2395TIP3    H128744   3.529   0.065   7.414  0.9651  0.7051  0.0252
 2395TIP3    H228745   3.544   0.175   7.517  0.4918  0.5522  0.2605
 2396TIP3   OH228746   0.484   4.549   0.373  0.8574  0.5720  0.0941
 2396TIP3    H128747   0.545   4.621   0.355  0.7513  0.6598  0.0917
 2396TIP3    H228748   0.433   4.578   0.447 -0.4988  1.3042 -1.0828
 2397TIP3   OH228749   5.719   1.036   0.250  0.2891  0.0578 -0.3998
 2397TIP3    H128750   5.741   0.963   0.308  0.3207 -0.4083 -0.9772
 2397TIP3    H228751   5.761   1.013   0.167  0.8381  1.0539 -0.4099
 2398TIP3   OH228752   1.209   5.312   8.564 -0.3043  0.1802 -0.0624
 2398TIP3    H128753   1.227   5.337   8.654  2.5199  0.1240 -0.5206
 2398TIP3    H228754   1.195   5.395   8.518 -0.7369  0.2697  0.2270
 2399TIP3   OH228755   1.619   2.736   0.104 -0.4194 -0.2951  0.0872
 2399TIP3    H128756   1.562   2.677   0.055 -0.7235 -0.9755  1.2139
 2399TIP3    H228757   1.708   2.708   0.081 -0.4638  1.2965 -2.3061
 2400TIP3   OH228758   5.820   4.953   1.267  0.3649  0.3692  0.0567
 2400TIP3    H128759   5.725   4.967   1.258  0.3982  0.2727 -0.5026
 2400TIP3    H228760   5.857   5.041   1.269  0.4111  0.4246 -1.5753
 2401TIP3   OH228761   2.823   6.346   8.047  0.2861  0.1360  0.0186
 2401TIP3    H128762   2.827   6.422   8.105 -0.9661  0.5302 -0.3716
 2401TIP3    H228763   2.836   6.271   8.104 -1.4557  0.4823  0.9362
 2402TIP3   OH228764   0.134   3.210   3.029  0.4666  0.0358 -0.4667
 2402TIP3    H128765   0.120   3.302   3.007 -0.5888 -0.1190 -0.4922
 2402TIP3    H228766   0.084   3.161   2.964 -0.0142 -0.5150  0.2921
 2403TIP3   OH228767   4.544   3.460   2.582  0.0046 -0.0836  0.0064
 2403TIP3    H128768   4.554   3.419   2.668  0.7456 -0.9661 -0.5005
 2403TIP3    H228769   4.541   3.554   2.602  0.9967 -0.2284  0.9212
 2404TIP3   OH228770   5.214   5.119   8.553  0.1489 -0.1601 -0.2467
 2404TIP3    H128771   5.164   5.050   8.511 -0.0012  0.5746 -1.3072
 2404TIP3    H228772   5.207   5.194   8.494  1.8140  0.2161 -0.0279
 2405TIP3   OH228773   6.690   0.804   8.136  0.0217  0.5192  0.2605
 2405TIP3    H128774   6.595   0.814   8.147 -0.3839 -1.9349 -0.2999
 2405TIP3    H228775   6.708   0.714   8.165  1.5877 -0.2473 -2.6841
 2406TIP3   OH228776   1.106   3.624   8.744  0.1928 -0.3486 -0.5458
 2406TIP3    H128777   1.049   3.565   8.695 -0.0787 -1.3056  0.8663
 2406TIP3    H228778   1.190   3.619   8.700 -0.3583 -0.2130 -1.6509
 2407TIP3   OH228779   1.901   2.573   8.065 -0.1291  0.3181  0.3744
 2407TIP3    H128780   1.925   2.509   7.998  0.1023  1.9235 -1.1529
 2407TIP3    H228781   1.858   2.522   8.133  1.7783 -1.7281  0.1370
 2408TIP3   OH228782   1.195   3.855   7.058 -1.0122  0.2151  0.1642
 2408TIP3    H128783   1.135   3.784   7.081  0.5510 -1.3961 -0.4543
 2408TIP3    H228784   1.282   3.819   7.076 -0.0912  1.4943 -1.4189
 2409TIP3   OH228785   2.975   2.189   1.522  0.3899 -0.1416 -0.3046
 2409TIP3    H128786   3.062   2.231   1.516  0.8647 -1.2305 -1.4138
 2409TIP3    H228787   2.946   2.182   1.431  0.6950 -2.9044 -0.2753
 2410TIP3   OH228788   1.022   4.408   8.674 -0.1272 -0.3095  0.0516
 2410TIP3    H128789   0.989   4.357   8.601 -1.7751 -0.6068  0.9579
 2410TIP3    H228790   0.963   4.483   8.680  0.1253 -0.1683  0.9308
 2411TIP3   OH228791   4.664   6.356   8.424 -0.4456 -0.0089 -0.1090
 2411TIP3    H128792   4.726   6.355   8.496 -0.8391  0.8604  0.2593
 2411TIP3    H228793   4.702   6.417   8.360 -0.2224 -0.5790 -0.5297
 2412TIP3   OH228794   3.006   0.978   7.433 -0.2089 -0.6069 -0.5345
 2412TIP3    H128795   2.940   0.995   7.366 -0.8421 -0.2744  0.1570
 2412TIP3    H228796   3.079   0.940   7.385  0.4028  1.9986 -1.8187
 2413TIP3   OH228797   0.369   4.056   6.862 -0.9224 -0.2031  0.1635
 2413TIP3    H128798   0.464   4.054   6.849 -0.8587  1.4753  0.2116
 2413TIP3    H228799   0.350   3.972   6.903  0.4677 -0.7798 -0.2817
 2414TIP3   OH228800   3.562   1.871   0.687 -0.3590  0.6136 -0.6300
 2414TIP3    H128801   3.655   1.861   0.667 -0.2978  0.5033 -0.3067
 2414TIP3    H228802   3.528   1.927   0.618  0.1521  1.4387 -0.2291
 2415TIP3   OH228803   1.634   4.181   0.163  0.0342  0.8369  0.8402
 2415TIP3    H128804   1.709   4.212   0.214 -1.1341  1.9471  1.9510
 2415TIP3    H228805   1.586   4.123   0.222  1.2580 -1.8912 -0.6652
 2416TIP3   OH228806   1.179   0.239   2.261  0.2837  0.4121 -0.1753
 2416TIP3    H128807   1.264   0.235   2.305  0.6127 -1.2210 -0.8577
 2416TIP3    H228808   1.126   0.297   2.314  1.6930  1.0916  0.5207
 2417TIP3   OH228809   3.498   2.621   7.804  0.1700  0.3190  0.5255
 2417TIP3    H128810   3.444   2.694   7.772 -0.9474 -0.2680  1.0145
 2417TIP3    H228811   3.444   2.543   7.790  0.5594 -0.2013  1.7884
 2418TIP3   OH228812   2.361   4.464   1.041 -0.6501  0.0272 -0.1861
 2418TIP3    H128813   2.300   4.503   1.104 -2.3060 -1.7192 -0.6371
 2418TIP3    H228814   2.312   4.459   0.960  0.1230 -1.3231 -0.6058
 2419TIP3   OH228815   4.669   0.003   8.713 -0.3324  0.3819  0.6039
 2419TIP3    H128816   4.668   0.087   8.669 -3.4215  0.5513  0.7510
 2419TIP3    H228817   4.722   0.017   8.792  0.9798  1.5070 -0.4296
 2420TIP3   OH228818   2.952   3.353   8.723  0.0932  0.2886  0.5096
 2420TIP3    H128819   2.893   3.401   8.665 -1.6036 -1.1760  0.9332
 2420TIP3    H228820   2.990   3.420   8.780 -1.7634  1.2344  0.7194
 2421TIP3   OH228821   5.854   0.309   1.765 -0.4404  0.0705 -0.1941
 2421TIP3    H128822   5.813   0.372   1.824 -0.4008 -0.7238  0.7058
 2421TIP3    H228823   5.921   0.359   1.719  0.6373  0.3806  1.6088
 2422TIP3   OH228824   0.328   1.860   8.330  0.4217 -0.4930 -0.3129
 2422TIP3    H128825   0.421   1.884   8.322  0.8395 -2.0250 -0.3972
 2422TIP3    H228826   0.330   1.767   8.353 -1.0883 -0.3027  0.6842
 2423TIP3   OH228827   4.598   0.640   2.792 -0.2097  0.2548 -0.1986
 2423TIP3    H128828   4.596   0.699   2.716 -0.6868  1.3343  0.6142
 2423TIP3    H228829   4.656   0.569   2.766 -0.8910  0.2458 -1.8184
 2424TIP3   OH228830   5.723   3.371   1.179 -0.1667  0.0427  0.4455
 2424TIP3    H128831   5.698   3.401   1.267  0.1181 -0.4892  0.7148
 2424TIP3    H228832   5.700   3.443   1.121 -0.5793  0.3033  0.9313
 2425TIP3   OH228833   5.109   0.372   7.644  0.2305  0.0555  0.1119
 2425TIP3    H128834   5.067   0.412   7.720 -2.1158  0.2662 -1.2026
 2425TIP3    H228835   5.037   0.332   7.595  1.6025  0.2475 -2.1976
 2426TIP3   OH228836   1.575   3.533   0.310  0.1037 -0.0125  0.5905
 2426TIP3    H128837   1.524   3.614   0.314  0.1260  0.1205 -1.1821
 2426TIP3    H228838   1.509   3.463   0.309 -0.1376  0.1704 -2.0548
 2427TIP3   OH228839   6.364   0.143   2.380 -0.2822  0.7238 -0.2403
 2427TIP3    H128840   6.347   0.076   2.313  0.2847  0.7748 -0.4394
 2427TIP3    H228841   6.427   0.102   2.439 -2.2186 -0.0819  1.4291
 2428TIP3   OH228842   3.523   3.175   1.105  0.5889  0.2000 -0.1429
 2428TIP3    H128843   3.570   3.091   1.106 -0.1480 -0.2165  0.2547
 2428TIP3    H228844   3.432   3.152   1.121  0.4983  1.1572  0.8442
 2429TIP3   OH228845   1.138   1.172   0.058 -0.2578 -0.2632  0.0759
 2429TIP3    H128846   1.233   1.168   0.072 -0.3376  0.9168  1.1238
 2429TIP3    H228847   1.127   1.161  -0.036  0.6413 -4.2280  0.2577
 2430TIP3   OH228848   5.690   5.203   2.048 -0.4075  0.1962  0.3563
 2430TIP3    H128849   5.618   5.266   2.050  0.8067  1.6391  0.0757
 2430TIP3    H228850   5.702   5.183   1.955 -0.2050  0.2247  0.3764
 2431TIP3   OH228851   6.372   0.860   0.459 -0.4771 -0.3304 -0.0848
 2431TIP3    H128852   6.426   0.791   0.418 -0.5543 -0.8265  0.6301
 2431TIP3    H228853   6.434   0.928   0.483 -0.4705  0.1332 -1.3308
 2432TIP3   OH228854   5.273   4.671   8.438 -0.5129  0.3125  0.0716
 2432TIP3    H128855   5.180   4.672   8.459 -0.4610 -0.5650  0.3777
 2432TIP3    H228856   5.315   4.713   8.514 -0.5058 -0.9969  0.8210
 2433TIP3   OH228857   5.934   3.023   0.623 -0.0459  0.1990  0.1831
 2433TIP3    H128858   5.955   3.113   0.599  1.1620 -0.4518 -1.3600
 2433TIP3    H228859   6.008   2.995   0.678  1.1531 -0.7720 -1.8296
 2434TIP3   OH228860   2.428   6.319   1.190  0.0035 -0.3413  0.5245
 2434TIP3    H128861   2.485   6.357   1.122 -1.0432  0.4102  0.0315
 2434TIP3    H228862   2.400   6.235   1.153 -0.6980  0.1401 -0.0754
 2435TIP3   OH228863   0.276   5.842   1.926 -0.2174 -0.2161 -0.9011
 2435TIP3    H128864   0.264   5.776   1.994 -2.1886 -0.6675 -1.6076
 2435TIP3    H228865   0.190   5.883   1.917  0.4499  1.0430 -1.9155
 2436TIP3   OH228866   5.990   1.606   0.305  0.9083 -0.0500 -0.1009
 2436TIP3    H128867   5.903   1.587   0.270 -1.4305  0.6638  4.4520
 2436TIP3    H228868   6.044   1.626   0.229 -2.8597 -0.5621 -3.2012
 2437TIP3   OH228869   4.963   4.138   0.785  0.3159  0.3299 -0.5626
 2437TIP3    H128870   4.977   4.083   0.862 -0.2156  1.3249  0.2806
 2437TIP3    H228871   4.869   4.131   0.767  0.5135 -0.2564 -1.4168
 2438TIP3   OH228872   3.234   0.403   0.968 -0.1620  0.2689  0.3037
 2438TIP3    H128873   3.308   0.464   0.972  0.9253 -1.0565  3.0366
 2438TIP3    H228874   3.273   0.317   0.988 -1.9471 -1.0457 -1.5062
 2439TIP3   OH228875   0.385   0.266   1.656  0.2617 -0.1365 -0.1544
 2439TIP3    H128876   0.322   0.197   1.639 -1.0401  0.2860  2.3912
 2439TIP3    H228877   0.389   0.272   1.752  1.0685  2.6115 -0.2564
 2440TIP3   OH228878   4.704   1.528   7.835 -0.2211 -0.2196 -0.4188
 2440TIP3    H128879   4.743   1.609   7.868 -0.8395 -0.6276  1.4317
 2440TIP3    H228880   4.778   1.475   7.808  0.3815 -0.0909  0.9207
 2441TIP3   OH228881   5.460   5.105   2.231 -0.5785  0.2872 -0.6124
 2441TIP3    H128882   5.405   5.140   2.301  0.8270 -1.9846  1.8044
 2441TIP3    H228883   5.549   5.108   2.267  0.2353 -0.7639 -2.3922
 2442TIP3   OH228884   3.900   1.142   1.483  0.6159 -0.0040 -0.0573
 2442TIP3    H128885   3.869   1.231   1.463  1.2589 -0.1412 -1.8630
 2442TIP3    H228886   3.933   1.148   1.573  1.9970  2.0058 -0.6297
 2443TIP3   OH228887   4.648   2.188   1.267  0.3294 -0.5201  0.1174
 2443TIP3    H128888   4.591   2.167   1.193  0.8246 -0.2376 -0.3513
 2443TIP3    H228889   4.631   2.280   1.286 -0.1273 -0.7114  0.6524
 2444TIP3   OH228890   0.680   5.117   0.183 -0.3456 -0.6335 -0.6788
 2444TIP3    H128891   0.728   5.046   0.140  1.0436  0.7947 -1.6502
 2444TIP3    H228892   0.610   5.139   0.122  1.3841  1.1212 -2.2221
 2445TIP3   OH228893   0.682   2.735   7.747  0.2408 -0.1279  0.1370
 2445TIP3    H128894   0.653   2.665   7.688 -1.5267  1.3559 -0.8734
 2445TIP3    H228895   0.731   2.795   7.690 -0.1490  0.5484  0.5079
 2446TIP3   OH228896   0.209   0.761   0.600  0.4867  0.3336  0.5361
 2446TIP3    H128897   0.285   0.793   0.552  1.2968 -2.8310 -0.5471
 2446TIP3    H228898   0.165   0.702   0.538 -1.6635  0.4450  1.8575
 2447TIP3   OH228899   2.975   4.820   1.632  0.1420 -0.4850 -0.6630
 2447TIP3    H128900   2.922   4.885   1.587 -1.0518 -0.1928  1.0735
 2447TIP3    H228901   3.028   4.780   1.563  0.5498  1.9544 -1.8699
 2448TIP3   OH228902   1.883   5.907   1.903 -0.7113 -0.3132  0.1225
 2448TIP3    H128903   1.926   5.822   1.910  0.1603  0.0374 -0.7006
 2448TIP3    H228904   1.791   5.890   1.925 -0.6242 -1.5317 -0.3927
 2449TIP3   OH228905   6.200   1.482   8.747  0.3470 -0.2823 -0.4143
 2449TIP3    H128906   6.107   1.464   8.764  0.3251 -0.6925 -0.9466
 2449TIP3    H228907   6.221   1.430   8.670  1.0433 -0.2500 -0.2562
 2450TIP3   OH228908   2.129   2.149   2.654  0.2008  0.0197  0.6066
 2450TIP3    H128909   2.093   2.101   2.728 -0.8690 -0.6831 -0.3313
 2450TIP3    H228910   2.096   2.238   2.665  0.0589 -0.0794  0.9792
 2451TIP3   OH228911   2.950   4.688   8.108 -0.3641  0.4820 -0.0825
 2451TIP3    H128912   2.928   4.602   8.145 -0.5111  0.7667  0.4981
 2451TIP3    H228913   2.865   4.726   8.085 -0.2588  0.1905 -0.9920
 2452TIP3   OH228914   1.765   5.930   8.305 -0.7147 -0.4678  0.2967
 2452TIP3    H128915   1.730   6.014   8.275  1.4802 -0.1760 -1.7157
 2452TIP3    H228916   1.859   5.943   8.308 -0.4283 -2.4068  1.5722
 2453TIP3   OH228917   4.962   0.138   7.480  0.1917  0.3923  0.3956
 2453TIP3    H128918   4.952   0.213   7.422  0.8329  0.3409  0.2141
 2453TIP3    H228919   5.038   0.091   7.447  0.0136 -0.1459  0.7242
 2454TIP3   OH228920   4.066   3.736   2.247 -0.4094 -0.2997  0.0652
 2454TIP3    H128921   4.120   3.809   2.217 -1.2903  0.2966 -0.1039
 2454TIP3    H228922   3.976   3.765   2.233 -0.8016 -0.8823  1.2422
 2455TIP3   OH228923   1.133   4.208   2.111  0.1676 -1.0838 -0.0477
 2455TIP3    H128924   1.155   4.301   2.103 -1.4077 -0.7022 -0.2236
 2455TIP3    H228925   1.171   4.168   2.033 -1.5739 -0.0740 -1.4782
 2456TIP3   OH228926   4.258   3.962   1.696 -1.0191  0.4906 -0.2474
 2456TIP3    H128927   4.345   3.930   1.674 -0.5893  1.4877 -0.0407
 2456TIP3    H228928   4.200   3.919   1.632 -0.0219  1.9991 -2.2849
 2457TIP3   OH228929   4.962   0.234   1.934 -0.0263 -0.1328  0.3168
 2457TIP3    H128930   4.953   0.169   1.864  2.5561  0.1290 -0.3679
 2457TIP3    H228931   4.947   0.186   2.015 -3.6553 -0.3277 -0.3410
 2458TIP3   OH228932   1.004   2.863   0.461  0.1496 -0.0190  0.2555
 2458TIP3    H128933   0.932   2.924   0.479  2.6557  2.5676  2.5957
 2458TIP3    H228934   1.055   2.907   0.393 -0.1523 -1.6233 -1.0712
 2459TIP3   OH228935   4.311   0.203   7.545 -0.0039  0.4719  0.2218
 2459TIP3    H128936   4.404   0.185   7.559 -0.7949 -5.3449  0.4431
 2459TIP3    H228937   4.279   0.233   7.630  1.5355  2.6246  0.1163
 2460TIP3   OH228938   2.521   5.272   1.304 -0.2281 -0.0081  0.5520
 2460TIP3    H128939   2.564   5.317   1.231  2.3390 -0.9031  1.4075
 2460TIP3    H228940   2.445   5.228   1.264 -0.8208  2.1925 -0.9025
 2461TIP3   OH228941   5.168   5.642   7.684  0.5059  0.0454  0.8725
 2461TIP3    H128942   5.113   5.688   7.747  0.6783  1.2885  0.1503
 2461TIP3    H228943   5.113   5.635   7.605  0.2438 -1.6058  1.1567
 2462TIP3   OH228944   6.616   5.050   1.265 -0.1115 -0.3274 -0.1248
 2462TIP3    H128945   6.700   5.017   1.233  0.1912  2.5643 -2.8867
 2462TIP3    H228946   6.550   5.003   1.213  0.1423  0.6886 -1.4467
 2463TIP3   OH228947   2.023   0.989   0.953  0.4136 -0.5318  0.4154
 2463TIP3    H128948   2.031   1.060   0.889  0.4241 -0.5979  0.3437
 2463TIP3    H228949   2.111   0.952   0.959  0.0539 -1.6441 -0.8152
 2464TIP3   OH228950   4.083   3.550   1.540 -0.4583  0.2329 -0.0928
 2464TIP3    H128951   4.104   3.597   1.621  0.3263 -0.2259 -0.0164
 2464TIP3    H228952   4.005   3.594   1.507  1.2244  2.8119 -0.9832
 2465TIP3   OH228953   4.774   4.059   8.170  0.5606 -0.1068 -0.6647
 2465TIP3    H128954   4.697   4.003   8.174  0.4554  0.1301  1.2504
 2465TIP3    H228955   4.848   3.999   8.181  0.4682  0.0288  0.9088
 2466TIP3   OH228956   5.264   2.669   1.025  0.2097 -0.0185  0.1099
 2466TIP3    H128957   5.170   2.668   1.007  0.2600 -0.1672 -0.1458
 2466TIP3    H228958   5.289   2.762   1.017 -0.2063  0.2532  1.7203
 2467TIP3   OH228959   5.226   0.712   1.459 -0.0572  0.3753 -0.5958
 2467TIP3    H128960   5.175   0.685   1.535  0.7141  0.4502 -0.0534
 2467TIP3    H228961   5.278   0.786   1.489 -1.4257  1.9194 -1.8065
 2468TIP3   OH228962   2.800   4.136   8.597  0.2245  0.2197  0.1856
 2468TIP3    H128963   2.843   4.120   8.513  0.3839 -1.5139  0.5579
 2468TIP3    H228964   2.746   4.213   8.582  1.8598  1.2043 -0.8941
 2469TIP3   OH228965   4.875   4.635   2.182  0.3927 -0.7180 -0.1942
 2469TIP3    H128966   4.871   4.551   2.136  1.2567 -0.4615 -0.7720
 2469TIP3    H228967   4.826   4.621   2.263  2.4817 -2.5285  0.8698
 2470TIP3   OH228968   6.375   6.394   7.812  0.5519  0.0020  0.8782
 2470TIP3    H128969   6.299   6.433   7.855 -0.2815 -1.9476  1.2549
 2470TIP3    H228970   6.342   6.315   7.771  1.6678  0.9647 -2.1044
 2471TIP3   OH228971   5.504   5.989   2.966 -0.0198 -0.3858  0.3511
 2471TIP3    H128972   5.543   5.973   2.880  0.1613 -0.1945  0.3974
 2471TIP3    H228973   5.533   5.915   3.019  0.2520 -0.2641  0.3755
 2472TIP3   OH228974   3.516   2.954   8.748  0.6748  0.8042 -0.3812
 2472TIP3    H128975   3.508   2.874   8.799  0.5338  0.2276 -1.2831
 2472TIP3    H228976   3.591   2.999   8.787  3.2510 -1.5628 -2.1414
 2473TIP3   OH228977   1.137   2.243   2.282  0.0980 -0.5126 -0.3899
 2473TIP3    H128978   1.099   2.171   2.232 -2.1142  0.1425  0.2549
 2473TIP3    H228979   1.122   2.321   2.228  1.1995 -0.3008 -0.4298
 2474TIP3   OH228980   3.520   0.954   8.104  0.1647 -0.0292 -0.1102
 2474TIP3    H128981   3.593   0.895   8.085 -1.9476 -2.4349 -1.2963
 2474TIP3    H228982   3.528   1.024   8.039  1.3612 -0.2767 -0.2507
 2475TIP3   OH228983   0.025   4.269   1.507  0.6330 -0.0839 -0.1129
 2475TIP3    H128984  -0.002   4.250   1.417  1.6469 -4.7314  0.3136
 2475TIP3    H228985   0.109   4.315   1.498  0.6039 -0.2591 -1.5304
 2476TIP3   OH228986   2.554   6.249   7.350 -0.1730  0.1098  0.2253
 2476TIP3    H128987   2.618   6.302   7.398 -0.3695  2.9275 -2.3022
 2476TIP3    H228988   2.606   6.179   7.310  0.6767  0.2081  1.1192
 2477TIP3   OH228989   2.482   0.366   8.414 -0.0934 -0.2425 -0.2635
 2477TIP3    H128990   2.523   0.430   8.356  1.3160 -1.1467 -0.3167
 2477TIP3    H228991   2.554   0.307   8.438 -1.0465 -0.9481  0.9391
 2478TIP3   OH228992   3.957   1.316   2.283 -0.1123  0.1337 -0.4006
 2478TIP3    H128993   3.872   1.325   2.241  0.1738  1.1207 -0.7864
 2478TIP3    H228994   3.938   1.277   2.368 -0.7782 -1.1429 -1.0937
 2479TIP3   OH228995   6.743   1.181   8.085 -0.1638  0.2505 -0.1502
 2479TIP3    H128996   6.836   1.194   8.064 -0.7206  0.1137 -3.0840
 2479TIP3    H228997   6.742   1.173   8.180  2.7380  0.9414  0.0603
 2480TIP3   OH228998   5.697   2.267   8.671  0.0621 -0.4421 -0.4547
 2480TIP3    H128999   5.743   2.196   8.716  0.2065 -0.8541 -1.2452
 2480TIP3    H229000   5.622   2.286   8.728 -0.4265 -1.7708 -0.6159
 2481TIP3   OH229001   0.258   0.783   8.770 -0.3054 -0.3120  0.2785
 2481TIP3    H129002   0.297   0.721   8.832  0.2004  0.2136  0.4928
 2481TIP3    H229003   0.165   0.761   8.769 -0.1103 -1.1734  0.2365
 2482TIP3   OH229004   2.839   3.169   7.474 -0.0480  0.5765 -0.2552
 2482TIP3    H129005   2.874   3.203   7.392 -0.8668 -0.5407 -1.0914
 2482TIP3    H229006   2.800   3.085   7.451  0.5690 -0.2360  1.4634
 2483TIP3   OH229007   0.606   3.012   7.094  0.5070  0.5039 -0.0000
 2483TIP3    H129008   0.580   2.921   7.081 -2.0823  0.6639  2.8109
 2483TIP3    H229009   0.602   3.051   7.007 -0.6711 -1.5596 -0.9312
 2484TIP3   OH229010   0.841   5.901   7.229 -0.1823  0.4576 -0.8234
 2484TIP3    H129011   0.748   5.921   7.241 -0.4026 -0.1545 -1.4290
 2484TIP3    H229012   0.874   5.973   7.175 -0.1545  0.9991 -0.0984
 2485TIP3   OH229013   5.664   5.507   7.593  0.1869 -0.3289 -0.1734
 2485TIP3    H129014   5.658   5.555   7.676  0.4013 -2.2022  0.9722
 2485TIP3    H229015   5.756   5.481   7.587 -0.1763 -1.7021 -0.0918
 2486TIP3   OH229016   2.336   1.093   1.324  0.1043  0.1279  0.2801
 2486TIP3    H129017   2.246   1.094   1.293  0.4885  1.2335 -0.9114
 2486TIP3    H229018   2.363   1.185   1.324  1.4308 -0.2331 -0.0241
 2487TIP3   OH229019   4.742   4.091   7.644 -0.0100 -0.3857 -0.0443
 2487TIP3    H129020   4.818   4.046   7.606  0.3507  2.0302 -2.5317
 2487TIP3    H229021   4.667   4.039   7.617  0.4430  0.0135 -2.2562
 2488TIP3   OH229022   3.697   1.626   8.306 -0.3583 -0.0674 -0.2157
 2488TIP3    H129023   3.727   1.537   8.289 -0.6690 -0.1958 -0.0953
 2488TIP3    H229024   3.604   1.625   8.284 -0.4147  0.1664  0.0062
 2489TIP3   OH229025   0.013   3.431   2.035 -0.7215  0.2418  0.1806
 2489TIP3    H129026  -0.055   3.424   2.102  1.2178 -0.3330  2.1983
 2489TIP3    H229027   0.064   3.507   2.060 -0.4865  0.5589 -1.2031
 2490TIP3   OH229028   1.787   4.636   8.450 -0.2204  0.2026 -0.3413
 2490TIP3    H129029   1.692   4.632   8.445 -0.3342  1.4500  0.6405
 2490TIP3    H229030   1.806   4.694   8.523  1.3045 -0.2309 -0.3512
 2491TIP3   OH229031   3.502   3.140   8.557 -0.3011 -0.2810  0.3985
 2491TIP3    H129032   3.517   3.081   8.631 -1.2278 -1.7525 -0.5302
 2491TIP3    H229033   3.420   3.184   8.578 -1.8467 -2.4094 -0.6991
 2492TIP3   OH229034   2.913   0.605   0.941 -0.4988  0.0890  0.8162
 2492TIP3    H129035   3.005   0.632   0.935 -0.6865  0.4795 -0.7153
 2492TIP3    H229036   2.892   0.616   1.034  0.4074  2.0682  0.8530
 2493TIP3   OH229037   4.189   3.474   8.397 -0.4840 -0.2329  0.1933
 2493TIP3    H129038   4.173   3.543   8.461 -0.4379  0.1921 -0.2459
 2493TIP3    H229039   4.284   3.459   8.401 -0.1497  1.2136 -1.1794
 2494TIP3   OH229040   5.611   2.261   0.321  0.0109 -0.3748 -0.0169
 2494TIP3    H129041   5.549   2.332   0.331 -1.0940 -1.1461 -1.1402
 2494TIP3    H229042   5.590   2.200   0.392 -1.4876 -1.2950 -1.1951
 2495TIP3   OH229043   1.469   3.989   1.765 -0.1341 -0.1822  0.2018
 2495TIP3    H129044   1.507   3.913   1.810 -2.2149 -1.0825  0.5264
 2495TIP3    H229045   1.397   4.017   1.822 -1.8235 -0.3568 -1.7592
 2496TIP3   OH229046   1.149   0.689   1.073 -0.2620  0.2008 -0.1763
 2496TIP3    H129047   1.170   0.773   1.033  0.4865  0.4315  0.6958
 2496TIP3    H229048   1.141   0.629   0.998  3.2580  0.1324 -0.6859
 2497TIP3   OH229049   4.801   1.027   0.908 -0.4969  0.0077  0.2554
 2497TIP3    H129050   4.717   1.043   0.951 -0.7958 -0.6919 -0.0481
 2497TIP3    H229051   4.806   0.932   0.899 -0.4555  0.1172 -1.2488
 2498TIP3   OH229052   2.606   0.291   2.074  0.0141 -0.0847 -0.0824
 2498TIP3    H129053   2.510   0.289   2.075  0.0218 -0.6972 -0.0808
 2498TIP3    H229054   2.631   0.303   2.165 -0.0755  1.9940 -0.2821
 2499TIP3   OH229055   3.999   3.060   8.306 -0.2641 -0.0668 -0.7201
 2499TIP3    H129056   3.945   3.019   8.374  0.2479 -0.2404 -0.4154
 2499TIP3    H229057   3.957   3.034   8.224 -0.5314 -0.3704 -0.4902
 2500TIP3   OH229058   3.771   6.347   7.207 -0.4610  0.7943 -0.1842
 2500TIP3    H129059   3.834   6.412   7.172  1.8896 -0.5812  1.2410
 2500TIP3    H229060   3.726   6.314   7.129  1.5099  0.9377 -1.4584
 2501TIP3   OH229061   4.077   5.497   2.195 -1.1875  0.3971  0.4296
 2501TIP3    H129062   4.068   5.495   2.291  1.9378  2.6443  0.9213
 2501TIP3    H229063   4.093   5.589   2.175  1.0378 -0.3990 -1.8987
 2502TIP3   OH229064   2.204   5.108   7.663 -0.5341  0.0624  0.8123
 2502TIP3    H129065   2.193   5.050   7.587 -1.6457  1.4962 -0.1860
 2502TIP3    H229066   2.162   5.061   7.735 -1.1000 -0.5384  0.1132
 2503TIP3   OH229067   5.949   1.943   2.909 -0.2811 -0.0856  0.2231
 2503TIP3    H129068   6.039   1.971   2.894 -0.4734 -0.0750 -0.9889
 2503TIP3    H229069   5.895   2.008   2.864 -0.8893 -0.1631  0.8222
 2504TIP3   OH229070   0.025   1.066   1.986 -0.7248  0.0182  0.4449
 2504TIP3    H129071  -0.008   1.118   2.060 -0.2276  0.1610  0.5770
 2504TIP3    H229072   0.062   1.131   1.926 -1.9307 -0.0200 -0.3708
 2505TIP3   OH229073   3.257   4.337   0.006  0.4553 -0.0364 -0.2626
 2505TIP3    H129074   3.314   4.411  -0.017  2.0539 -0.7380  1.1999
 2505TIP3    H229075   3.224   4.358   0.093  0.5562 -0.8365 -0.0246
 2506TIP3   OH229076   4.491   2.792   8.392 -0.5929  0.1908  0.4265
 2506TIP3    H129077   4.569   2.842   8.417 -1.1177  1.2447  0.0106
 2506TIP3    H229078   4.509   2.763   8.302  0.1279 -1.2523  0.9995
 2507TIP3   OH229079   6.768   3.738   0.691  0.1915 -0.1846  0.3817
 2507TIP3    H129080   6.677   3.757   0.715 -0.2097 -1.9424  0.3773
 2507TIP3    H229081   6.820   3.803   0.739 -0.9593 -0.1367  1.6021
 2508TIP3   OH229082   2.709   0.289   0.748 -0.4022  0.2629  0.2820
 2508TIP3    H129083   2.715   0.238   0.667  1.2258  1.8168 -0.6470
 2508TIP3    H229084   2.799   0.313   0.768 -0.9206  1.0613  1.8161
 2509TIP3   OH229085   3.287   3.469   1.022  0.1657 -0.7057  0.4569
 2509TIP3    H129086   3.298   3.552   0.976  2.7123 -1.4280 -0.4130
 2509TIP3    H229087   3.293   3.491   1.115  0.2248  0.1556  0.2558
 2510TIP3   OH229088   5.746   6.345   8.263  0.4809 -0.2785  0.0373
 2510TIP3    H129089   5.745   6.257   8.300 -0.3184  0.4604  1.8916
 2510TIP3    H229090   5.674   6.345   8.201  0.0271 -0.7300  0.5506
 2511TIP3   OH229091   0.565   3.332   7.912  0.0172  0.4939 -0.9151
 2511TIP3    H129092   0.497   3.308   7.850  1.2705 -2.1056 -1.3834
 2511TIP3    H229093   0.632   3.375   7.860  0.8064 -1.1701 -1.3305
 2512TIP3   OH229094   2.586   1.074   7.832 -0.6231  0.1891 -0.2924
 2512TIP3    H129095   2.509   1.129   7.821 -1.5428 -1.1693 -0.9484
 2512TIP3    H229096   2.567   0.995   7.781  0.6753 -0.7125  0.5445
 2513TIP3   OH229097   5.463   3.172   1.949 -0.2726 -0.0350  0.4052
 2513TIP3    H129098   5.429   3.257   1.921  2.3891  0.7077 -0.8810
 2513TIP3    H229099   5.538   3.193   2.005  0.1049 -1.5281  0.5107
 2514TIP3   OH229100   5.646   1.994   0.764  0.0464  0.0620  0.2263
 2514TIP3    H129101   5.740   2.008   0.775  0.0235 -1.1303  2.1935
 2514TIP3    H229102   5.628   1.911   0.808 -1.9634  0.3647  0.0550
 2515TIP3   OH229103   4.571   2.196   7.770 -0.5145  0.0558  0.1379
 2515TIP3    H129104   4.502   2.228   7.712  1.3214  2.5252 -0.8628
 2515TIP3    H229105   4.549   2.232   7.856 -1.1877 -0.3617  0.1462
 2516TIP3   OH229106   3.130   3.769   0.278 -0.1509  0.3247 -0.3436
 2516TIP3    H129107   3.189   3.801   0.346 -0.0825  0.1974 -0.3428
 2516TIP3    H229108   3.042   3.794   0.309 -0.0042  1.8679 -1.0797
 2517TIP3   OH229109   2.800   4.979   0.589  0.1303 -0.0160 -0.4215
 2517TIP3    H129110   2.837   4.945   0.671 -0.1660 -0.7867 -0.5891
 2517TIP3    H229111   2.861   5.045   0.559  1.1780 -0.9984 -0.5059
 2518TIP3   OH229112   1.430   4.257   2.067 -0.1913 -0.5739 -0.5701
 2518TIP3    H129113   1.496   4.209   2.117  1.2385  1.6508 -0.1900
 2518TIP3    H229114   1.347   4.234   2.109  0.7828 -0.1897  1.7267
 2519TIP3   OH229115   5.350   4.975   0.817  0.1377  0.4949 -0.5239
 2519TIP3    H129116   5.383   4.970   0.907 -2.8614  0.0132  0.6741
 2519TIP3    H229117   5.422   5.013   0.767  2.6586 -1.1109  1.6414
 2520TIP3   OH229118   0.073   5.146   2.055  0.2490 -0.7275 -0.0379
 2520TIP3    H129119  -0.022   5.147   2.053  0.2568  0.5307 -0.8694
 2520TIP3    H229120   0.098   5.073   1.999 -0.2230 -0.3629 -0.7380
 2521TIP3   OH229121   2.069   0.861   8.446 -0.3083 -0.0328  0.5109
 2521TIP3    H129122   2.060   0.768   8.465 -0.9995  0.3003  1.9952
 2521TIP3    H229123   2.160   0.881   8.470  0.0353 -0.4361 -0.4155
 2522TIP3   OH229124   1.932   1.758   0.228 -0.2348 -0.0142  0.5123
 2522TIP3    H129125   1.924   1.771   0.133  0.9214  0.8973  0.5152
 2522TIP3    H229126   1.907   1.666   0.242  1.4532 -0.7594 -0.9532
 2523TIP3   OH229127   0.648   0.893   0.291 -0.6385 -0.4448 -0.4418
 2523TIP3    H129128   0.614   0.936   0.212 -1.6154 -0.3627  0.0045
 2523TIP3    H229129   0.743   0.900   0.283 -0.7454  1.4411 -0.5967
 2524TIP3   OH229130   6.451   6.356   7.463  0.0702  0.0592 -0.4325
 2524TIP3    H129131   6.439   6.435   7.516  0.6716 -1.6463  2.4114
 2524TIP3    H229132   6.494   6.388   7.384 -0.9545  2.7517 -0.0322
 2525TIP3   OH229133   4.130   3.238   8.147 -0.2302 -0.4951 -0.8247
 2525TIP3    H129134   4.088   3.164   8.190 -0.3381 -1.6315 -2.7564
 2525TIP3    H229135   4.067   3.266   8.080 -0.0084  1.0854 -0.4187
 2526TIP3   OH229136   3.762   3.240   2.236  0.1384  0.2914 -0.6475
 2526TIP3    H129137   3.682   3.290   2.224 -0.5507 -0.3169  1.0165
 2526TIP3    H229138   3.732   3.151   2.256  1.2696 -0.2848 -1.3959
 2527TIP3   OH229139   4.013   5.942   0.863  0.1501  0.0598 -0.8900
 2527TIP3    H129140   3.941   5.998   0.836  0.0589 -0.5327 -1.9260
 2527TIP3    H229141   3.978   5.891   0.936  0.4890  1.8784  0.5986
 2528TIP3   OH229142   2.385   6.507   0.241  0.5978 -0.1901  0.6825
 2528TIP3    H129143   2.428   6.424   0.259 -0.7291 -1.4988 -1.7878
 2528TIP3    H229144   2.314   6.511   0.305  1.1156 -0.5496  1.3008
 2529TIP3   OH229145   0.765   3.289   1.608  0.3264 -0.5612  0.2155
 2529TIP3    H129146   0.787   3.343   1.684 -1.8985 -1.1243  1.3553
 2529TIP3    H229147   0.834   3.307   1.544 -0.0705  3.3024  0.6699
 2530TIP3   OH229148   3.498   1.687   0.384  0.0807  0.3929  0.2176
 2530TIP3    H129149   3.552   1.612   0.409  0.4761  0.8136  0.6238
 2530TIP3    H229150   3.469   1.725   0.467  1.1304  1.5947  0.0584
 2531TIP3   OH229151   2.130   0.790   7.324 -0.1859  0.0914 -0.6591
 2531TIP3    H129152   2.209   0.805   7.273  0.4836 -1.0805 -0.0212
 2531TIP3    H229153   2.059   0.824   7.269  0.8464  2.3079 -0.6944
 2532TIP3   OH229154   2.805   4.338   0.022  0.1407 -0.2599 -0.6016
 2532TIP3    H129155   2.710   4.347   0.032  0.3152  1.5163 -0.3291
 2532TIP3    H229156   2.828   4.266   0.081 -1.1689 -1.6322 -1.6603
 2533TIP3   OH229157   3.910   0.318   2.922  0.4912 -0.3363  0.2161
 2533TIP3    H129158   3.848   0.308   2.851  0.7669 -0.0730 -0.0658
 2533TIP3    H229159   3.878   0.260   2.991  0.9018 -1.5489 -0.5789
 2534TIP3   OH229160   2.308   0.324   0.699 -0.3347  0.1657  0.4375
 2534TIP3    H129161   2.300   0.343   0.793 -2.5028  1.5091  0.0608
 2534TIP3    H229162   2.390   0.367   0.673 -0.9576  1.9609  1.2780
 2535TIP3   OH229163   4.450   5.412   0.927 -0.5788  0.0402  0.3919
 2535TIP3    H129164   4.525   5.412   0.868  1.4773  0.1141  2.8059
 2535TIP3    H229165   4.440   5.503   0.954 -1.6175  0.0401  0.0798
 2536TIP3   OH229166   5.971   5.256   1.413 -0.2881 -0.2726 -0.3396
 2536TIP3    H129167   6.014   5.245   1.497 -0.4230 -1.0560 -0.3625
 2536TIP3    H229168   6.027   5.315   1.364 -0.4999  0.6572  0.4993
 2537TIP3   OH229169   2.258   3.768   1.234 -0.4805  0.0245 -0.6021
 2537TIP3    H129170   2.190   3.712   1.274 -0.1362 -0.4261 -0.6395
 2537TIP3    H229171   2.257   3.744   1.142  0.9584 -1.3176 -0.3236
 2538TIP3   OH229172   3.244   3.197   0.937  0.0435  0.6023  0.0437
 2538TIP3    H129173   3.185   3.237   0.873 -0.6925 -0.2336  0.1724
 2538TIP3    H229174   3.287   3.270   0.979  0.1461  1.1892 -1.0392
 2539TIP3   OH229175   6.804   4.758   8.204 -0.6391 -0.8725  0.2476
 2539TIP3    H129176   6.761   4.732   8.123 -0.0323  0.4649 -0.5208
 2539TIP3    H229177   6.747   4.826   8.241  0.5128  0.5851 -0.5501
 2540TIP3   OH229178   2.579   4.027   1.756 -0.2743  0.7332  0.0579
 2540TIP3    H129179   2.587   4.052   1.848 -0.7605  2.2419 -0.2691
 2540TIP3    H229180   2.667   3.998   1.731  0.2232  1.6694  0.6520
 2541TIP3   OH229181   0.017   6.298   2.073 -0.0469 -0.3477 -0.3888
 2541TIP3    H129182   0.037   6.382   2.031  0.4828 -0.9830 -1.4602
 2541TIP3    H229183  -0.078   6.297   2.083 -0.0710  0.2980 -0.5580
 2542TIP3   OH229184   4.865   2.959   7.500  0.3488 -0.4566 -0.5101
 2542TIP3    H129185   4.811   3.037   7.503 -1.9351 -1.9163 -1.0325
 2542TIP3    H229186   4.908   2.963   7.415  0.8652  0.5703 -0.2192
 2543TIP3   OH229187   0.754   4.723   7.579 -0.1713 -0.2650  0.3235
 2543TIP3    H129188   0.831   4.765   7.619 -0.8898 -0.2117  1.7260
 2543TIP3    H229189   0.740   4.772   7.498  0.1288  0.9989  1.0053
 2544TIP3   OH229190   1.136   4.180   1.054 -1.0055  0.2286 -0.1820
 2544TIP3    H129191   1.185   4.247   1.007  1.6772 -1.2414  0.3238
 2544TIP3    H229192   1.176   4.178   1.142 -1.5017 -1.4680  0.0518
 2545TIP3   OH229193   1.238   2.813   7.482  0.6234 -0.3805  0.4434
 2545TIP3    H129194   1.285   2.803   7.565 -0.0637 -0.6756  0.8040
 2545TIP3    H229195   1.158   2.860   7.506  1.6046  1.9070 -0.4659
 2546TIP3   OH229196   2.738   4.971   0.321  0.1232 -0.2393  0.0885
 2546TIP3    H129197   2.700   4.895   0.276  1.0817 -1.2730  0.9655
 2546TIP3    H229198   2.756   4.940   0.409  0.4501  1.0538  0.4992
 2547TIP3   OH229199   5.141   6.678   2.919  0.1361  0.4207  0.0646
 2547TIP3    H129200   5.154   6.602   2.864  1.0208 -0.4099  1.3565
 2547TIP3    H229201   5.229   6.711   2.936 -0.1151  0.6857  0.9163
 2548TIP3   OH229202   6.689   5.999   7.054 -0.0209 -0.0577  0.8577
 2548TIP3    H129203   6.669   5.948   7.133  3.2049  0.1286  1.9607
 2548TIP3    H229204   6.695   6.089   7.085  1.2261  0.0236  0.4303
 2549TIP3   OH229205   0.020   0.430   2.012 -0.1793 -0.1709  0.0726
 2549TIP3    H129206   0.111   0.457   2.025 -0.6501  0.9846  1.2573
 2549TIP3    H229207  -0.030   0.511   2.022 -1.3457 -0.7789 -0.5981
 2550TIP3   OH229208   3.360   1.726   1.887 -0.3291 -0.1693 -0.0442
 2550TIP3    H129209   3.451   1.695   1.881  0.4808  0.6672  4.2930
 2550TIP3    H229210   3.308   1.655   1.850  1.9885 -1.4684 -1.0239
 2551TIP3   OH229211   5.040   6.614   7.213 -0.1884 -0.3584  0.0031
 2551TIP3    H129212   5.133   6.609   7.189  0.0441 -0.9903  1.0156
 2551TIP3    H229213   5.022   6.708   7.214 -0.0474 -0.2706 -1.9604
 2552TIP3   OH229214   3.305   5.114   2.358 -0.1853 -0.3600  0.0560
 2552TIP3    H129215   3.358   5.160   2.294  0.3199 -1.2506 -0.1766
 2552TIP3    H229216   3.220   5.102   2.315 -0.4763  0.7427  0.2928
 2553TIP3   OH229217   6.102   0.431   1.720 -0.5496 -0.7328  0.8925
 2553TIP3    H129218   6.184   0.383   1.704 -0.1195  0.5907 -1.2832
 2553TIP3    H229219   6.130   0.517   1.750 -1.1499 -0.4845  0.7528
 2554TIP3   OH229220   0.498   4.716   1.933 -0.5025 -0.1628 -0.3198
 2554TIP3    H129221   0.519   4.694   2.023  1.4819  0.8445 -0.4649
 2554TIP3    H229222   0.420   4.665   1.912 -0.3969 -1.1886  1.6220
 2555TIP3   OH229223   2.098   0.212   7.868 -0.8998 -0.3905  0.2093
 2555TIP3    H129224   2.004   0.221   7.884 -0.9243 -0.5892  0.1786
 2555TIP3    H229225   2.134   0.187   7.953 -0.9950 -1.1852  0.0226
 2556TIP3   OH229226   2.384   3.535   1.607 -0.2256  0.1142 -0.3880
 2556TIP3    H129227   2.345   3.491   1.682 -2.8160  0.8993 -1.1620
 2556TIP3    H229228   2.337   3.619   1.601 -0.3320 -0.0536 -3.0278
 2557TIP3   OH229229   6.604   1.353   7.641  0.2200 -0.1622  0.2462
 2557TIP3    H129230   6.537   1.292   7.671 -0.9696  0.0953 -1.7138
 2557TIP3    H229231   6.594   1.356   7.546 -0.5391  3.8736  0.2777
 2558TIP3   OH229232   4.948   1.082   1.943  0.3116 -0.2082 -0.0372
 2558TIP3    H129233   4.980   0.992   1.946 -2.8530 -1.4838 -0.8970
 2558TIP3    H229234   4.903   1.095   2.026  0.9678  0.7199  0.1963
 2559TIP3   OH229235   3.911   4.802   0.419 -0.0376  0.2445  0.2911
 2559TIP3    H129236   3.896   4.722   0.368  1.0372  0.7425 -0.8702
 2559TIP3    H229237   3.993   4.785   0.466  0.3656  0.7747 -0.2121
 2560TIP3   OH229238   6.798   5.485   0.456  0.0524 -0.4813 -0.2377
 2560TIP3    H129239   6.768   5.397   0.479 -1.6620  0.5350  1.8156
 2560TIP3    H229240   6.740   5.513   0.385 -1.2746 -0.0251  0.9890
 2561TIP3   OH229241   6.123   5.258   8.504  0.1067  0.6721  0.6219
 2561TIP3    H129242   6.106   5.316   8.579 -2.0701 -0.6630  1.2269
 2561TIP3    H229243   6.181   5.190   8.539 -0.3240  0.4512  0.9130
 2562TIP3   OH229244   4.401   1.716   8.280  0.2287 -0.2885  0.0150
 2562TIP3    H129245   4.340   1.642   8.271  0.0861 -0.2851  0.8779
 2562TIP3    H229246   4.355   1.789   8.238 -0.6677 -0.1290  1.2192
 2563TIP3   OH229247   4.621   2.030   1.895 -0.2841 -0.3555 -0.8437
 2563TIP3    H129248   4.686   2.086   1.854  0.4314  0.6204  1.4615
 2563TIP3    H229249   4.539   2.050   1.850  0.2408  1.4780 -1.0260
 2564TIP3   OH229250   0.286   0.557   7.922  0.1204  0.1165  0.0199
 2564TIP3    H129251   0.356   0.509   7.965 -1.5287 -0.8127  1.8392
 2564TIP3    H229252   0.289   0.644   7.961  0.6418  0.2782 -0.3725
 2565TIP3   OH229253   6.425   0.105   1.132  0.1502  0.1545 -0.0193
 2565TIP3    H129254   6.443   0.122   1.224  0.5793  0.1137 -0.0960
 2565TIP3    H229255   6.454   0.184   1.086  2.1876 -0.7504 -0.3828
 2566TIP3   OH229256   2.681   1.349   2.548  0.4450 -0.0818  0.2464
 2566TIP3    H129257   2.748   1.347   2.480  0.3928 -0.1367  0.1956
 2566TIP3    H229258   2.603   1.313   2.505 -0.3160  2.2519 -0.4405
 2567TIP3   OH229259   3.206   3.860   7.733 -0.5801  0.1157  0.0730
 2567TIP3    H129260   3.273   3.895   7.675 -0.7113  1.1543  0.5328
 2567TIP3    H229261   3.125   3.866   7.682 -0.3004 -1.4770 -0.6193
 2568TIP3   OH229262   4.916   4.356   3.087  0.8317 -0.4360  0.3048
 2568TIP3    H129263   4.843   4.295   3.093  2.0015 -1.9083  0.2827
 2568TIP3    H229264   4.983   4.318   3.144  1.6424  0.7821  0.1978
 2569TIP3   OH229265   3.171   4.911   0.075  0.4412 -0.3450 -0.1674
 2569TIP3    H129266   3.249   4.856   0.066  1.8596  1.4889  0.3195
 2569TIP3    H229267   3.163   4.955  -0.009 -0.0275 -0.4938 -0.1979
 2570TIP3   OH229268   4.158   1.454   1.615  0.1991 -0.0444 -0.4013
 2570TIP3    H129269   4.230   1.410   1.661  0.4339  1.5420  0.8637
 2570TIP3    H229270   4.085   1.452   1.677 -0.5795 -0.8292 -1.3139
 2571TIP3   OH229271   5.395   3.533   2.196 -0.1727 -0.6741  0.0112
 2571TIP3    H129272   5.392   3.559   2.104 -2.6016 -4.0010 -1.0387
 2571TIP3    H229273   5.485   3.503   2.209  0.6621  1.3242 -0.7083
 2572TIP3   OH229274   0.369   3.050   8.747  0.0165 -0.1744 -0.0604
 2572TIP3    H129275   0.409   3.067   8.832 -1.5707 -1.4410  1.0005
 2572TIP3    H229276   0.406   3.116   8.689  0.7463  1.0519  1.7316
 2573TIP3   OH229277   4.319   0.619   8.299 -0.3900  0.0281  0.0017
 2573TIP3    H129278   4.231   0.629   8.263 -0.6720 -1.5099  0.1745
 2573TIP3    H229279   4.305   0.609   8.393 -0.1495 -1.2865 -0.0846
 2574TIP3   OH229280   3.533   6.547   7.024  1.0736  0.0342 -0.1876
 2574TIP3    H129281   3.518   6.457   7.053  1.2479  1.1073  3.7855
 2574TIP3    H229282   3.460   6.565   6.965  0.3852 -2.3136 -0.1608
 2575TIP3   OH229283   3.932   1.050   7.212  0.0277  0.5691 -0.3739
 2575TIP3    H129284   4.012   1.068   7.162  0.2250 -0.0166 -0.2764
 2575TIP3    H229285   3.878   0.997   7.154  0.4781 -0.5531  0.2108
 2576TIP3   OH229286   4.981   4.334   7.735  0.3965  0.0835  0.1914
 2576TIP3    H129287   4.987   4.240   7.751 -1.3351 -0.0471  0.2112
 2576TIP3    H229288   4.952   4.371   7.818 -0.0420  0.4988 -0.1410
 2577TIP3   OH229289   5.858   3.484   7.498  0.2699 -0.1979  0.1905
 2577TIP3    H129290   5.857   3.574   7.528  1.2900  0.3052 -1.1485
 2577TIP3    H229291   5.933   3.444   7.543 -0.2725 -0.4225  0.8965
 2578TIP3   OH229292   2.805   1.063   8.632  0.2514  0.1754  0.2346
 2578TIP3    H129293   2.851   1.127   8.578  0.7962  0.2304  0.7518
 2578TIP3    H229294   2.734   1.031   8.576  0.6567  0.4020 -0.4238
 2579TIP3   OH229295   4.926   2.548   7.974 -0.4836 -0.5946  0.1741
 2579TIP3    H129296   4.843   2.540   7.927 -0.6531  0.8244  0.1637
 2579TIP3    H229297   4.974   2.468   7.953 -1.1630 -0.6751 -1.2171
 2580TIP3   OH229298   6.170   0.688   1.213  0.1633  0.0269  0.4779
 2580TIP3    H129299   6.235   0.754   1.237 -1.4898  2.4373 -1.1753
 2580TIP3    H229300   6.184   0.673   1.120 -0.2753 -1.0387  0.5701
 2581TIP3   OH229301   2.106   0.388   0.352 -0.0401  0.1903  0.4061
 2581TIP3    H129302   2.190   0.431   0.373  0.6843 -0.2642 -1.3476
 2581TIP3    H229303   2.131   0.312   0.301 -1.4949 -0.6401  0.8817
 2582TIP3   OH229304   2.067   1.847   0.994 -0.4242  0.2091 -0.4000
 2582TIP3    H129305   2.041   1.760   0.966 -0.7681 -0.0563  0.7080
 2582TIP3    H229306   2.016   1.906   0.938 -0.0899 -0.2909 -1.2397
 2583TIP3   OH229307   2.622   4.519   8.222 -0.1894 -0.5436  0.2556
 2583TIP3    H129308   2.582   4.475   8.147 -0.1678  0.2583 -0.2323
 2583TIP3    H229309   2.649   4.605   8.189 -0.5071 -0.0306  1.2700
 2584TIP3   OH229310   1.261   0.973   0.318  0.2462  0.2402 -0.9825
 2584TIP3    H129311   1.351   1.004   0.316  0.4617 -0.3053 -0.2955
 2584TIP3    H229312   1.241   0.964   0.411 -0.3328 -0.1434 -1.1371
 2585TIP3   OH229313   0.109   5.729   0.458  0.0828  0.3311  0.4130
 2585TIP3    H129314   0.062   5.646   0.470 -0.0415  0.3284 -0.0720
 2585TIP3    H229315   0.149   5.722   0.371 -1.4901  1.5106 -0.4810
 2586TIP3   OH229316   0.921   0.775   7.485 -0.2827  1.0696  0.8752
 2586TIP3    H129317   0.944   0.831   7.410  1.9703 -0.4508  0.3046
 2586TIP3    H229318   0.989   0.792   7.550  0.6709 -1.1170  0.5585
 2587TIP3   OH229319   3.768   2.693   7.879 -0.4756 -0.1339 -0.2739
 2587TIP3    H129320   3.681   2.674   7.844 -0.4295  2.6818 -2.2266
 2587TIP3    H229321   3.827   2.638   7.827 -0.9416 -1.5385  0.6002
 2588TIP3   OH229322   1.031   6.715   0.491  0.1192 -0.2569  0.5800
 2588TIP3    H129323   1.125   6.696   0.496  0.1445 -0.3174 -0.0343
 2588TIP3    H229324   0.996   6.644   0.437  0.0986  1.0529 -1.1829
 2589TIP3   OH229325   3.549   6.507   1.272 -0.6096 -0.4413 -0.2367
 2589TIP3    H129326   3.611   6.575   1.247 -0.3479 -1.7289 -3.6000
 2589TIP3    H229327   3.596   6.454   1.337  0.0969  1.0932  0.5536
 2590TIP3   OH229328   3.862   0.929   0.104 -1.3477 -0.5256  0.2412
 2590TIP3    H129329   3.879   0.960   0.193 -0.4050 -1.4463  0.4032
 2590TIP3    H229330   3.925   0.976   0.050 -3.0748  1.3586 -0.2462
 2591TIP3   OH229331   3.933   4.522   7.491 -0.2030  0.0080  0.2915
 2591TIP3    H129332   3.881   4.602   7.485  0.3882  0.3650 -0.1209
 2591TIP3    H229333   4.006   4.545   7.548 -0.0063 -0.2195  0.1344
 2592TIP3   OH229334   1.795   2.215   0.450  0.2398  0.2203  0.2203
 2592TIP3    H129335   1.868   2.254   0.402  1.1453 -1.6639 -0.0217
 2592TIP3    H229336   1.832   2.190   0.534 -0.4817  0.4479  0.6144
 2593TIP3   OH229337   2.059   2.786   8.038 -0.0049 -0.1903  0.1793
 2593TIP3    H129338   2.018   2.854   8.092  2.9176 -0.0113  2.4290
 2593TIP3    H229339   2.000   2.711   8.045 -1.7435  1.0965  0.1931
 2594TIP3   OH229340   3.122   5.827   0.365 -0.0509 -0.2532  0.5010
 2594TIP3    H129341   3.142   5.813   0.272 -2.3817 -0.7646  0.0132
 2594TIP3    H229342   3.168   5.907   0.388  0.0283  0.2517 -1.2772
 2595TIP3   OH229343   5.266   0.214   0.890  0.1995  0.4237  0.3088
 2595TIP3    H129344   5.328   0.197   0.961 -0.2961  0.0173  0.6536
 2595TIP3    H229345   5.180   0.199   0.929 -0.0475 -0.9492 -0.6777
 2596TIP3   OH229346   2.185   0.705   0.724  0.3243  0.2456  0.7057
 2596TIP3    H129347   2.201   0.659   0.806  1.7616 -0.8628 -0.1426
 2596TIP3    H229348   2.217   0.645   0.656  0.1577  1.5615 -0.5978
 2597TIP3   OH229349   6.296   3.849   8.406 -0.2278  0.6688 -0.2052
 2597TIP3    H129350   6.311   3.758   8.381 -0.3316  0.5669  0.0975
 2597TIP3    H229351   6.207   3.868   8.376 -0.4588  0.4572  0.3441
 2598TIP3   OH229352   5.752   4.494   2.014  0.4193  0.0639 -0.3939
 2598TIP3    H129353   5.834   4.515   1.971  0.2928 -0.5688 -0.9581
 2598TIP3    H229354   5.708   4.433   1.955 -0.2153 -0.0277  0.1522
 2599TIP3   OH229355   6.318   1.660   0.761 -0.0150  0.5435  0.2206
 2599TIP3    H129356   6.413   1.657   0.757  0.0296  1.9841 -0.1788
 2599TIP3    H229357   6.291   1.703   0.680 -0.9278  1.3951  0.9565
 2600TIP3   OH229358   1.974   0.011   8.422 -0.9024 -0.0454 -0.3331
 2600TIP3    H129359   1.902   0.004   8.485 -0.3872 -0.8246  0.1979
 2600TIP3    H229360   2.001   0.102   8.425 -1.8390  0.2416 -0.5078
 2601TIP3   OH229361   0.816   1.352   8.030  0.2585 -0.1272  0.0417
 2601TIP3    H129362   0.753   1.406   8.077  1.1130  1.8618 -0.9696
 2601TIP3    H229363   0.899   1.399   8.039  1.0601 -1.3161 -0.8481
 2602TIP3   OH229364   5.611   1.281   2.626  0.2615 -0.2893  0.0938
 2602TIP3    H129365   5.536   1.339   2.624  0.2215 -0.3575 -0.4903
 2602TIP3    H229366   5.577   1.196   2.601  0.6793 -0.1444 -1.0177
 2603TIP3   OH229367   1.587   1.061   7.286 -0.1504  0.1939  0.9905
 2603TIP3    H129368   1.535   0.981   7.288  0.9404 -0.5330  0.7279
 2603TIP3    H229369   1.651   1.047   7.217 -0.3133  1.5382  0.5394
 2604TIP3   OH229370   5.114   5.796   8.550 -0.2647  0.0722 -0.6581
 2604TIP3    H129371   5.187   5.743   8.583  0.1458  1.1801  0.2739
 2604TIP3    H229372   5.067   5.737   8.491 -0.0226 -1.4549  0.5916
 2605TIP3   OH229373   2.213   3.298   0.364 -0.0551 -0.4793 -0.1306
 2605TIP3    H129374   2.292   3.351   0.366 -0.4200  0.2524 -2.3118
 2605TIP3    H229375   2.243   3.210   0.387  0.7567  0.3621  2.3475
 2606TIP3   OH229376   0.521   5.673   7.197  0.2898 -0.5494  0.0242
 2606TIP3    H129377   0.546   5.762   7.173 -0.5495 -0.7651 -1.8091
 2606TIP3    H229378   0.427   5.677   7.212  0.3794 -0.9730  0.7839
 2607TIP3   OH229379   1.831   4.814   8.738  0.0531  0.6747 -0.2405
 2607TIP3    H129380   1.866   4.878   8.800 -0.8797  0.7359  0.2529
 2607TIP3    H229381   1.754   4.857   8.700  1.5924  1.3536 -2.8243
 2608TIP3   OH229382   5.405   5.747   8.217  0.0796  0.3197 -0.4786
 2608TIP3    H129383   5.473   5.735   8.283 -0.4412 -0.3455 -0.0480
 2608TIP3    H229384   5.446   5.720   8.135 -0.1069 -1.6343  0.0101
 2609TIP3   OH229385   0.649   2.291   0.761 -0.4162  0.4337  0.0781
 2609TIP3    H129386   0.632   2.232   0.834 -0.7895 -0.3092 -0.6013
 2609TIP3    H229387   0.614   2.376   0.791 -2.6385 -0.3622 -0.0933
 2610TIP3   OH229388   5.671   2.665   7.665  0.1368 -0.2926  0.1427
 2610TIP3    H129389   5.732   2.721   7.615  0.0434 -1.4940 -1.4068
 2610TIP3    H229390   5.601   2.725   7.692  0.4650  0.5158 -0.7218
 2611TIP3   OH229391   2.250   4.086   2.847  0.6426 -0.1967 -0.4665
 2611TIP3    H129392   2.230   4.172   2.810  0.5493 -0.2728 -0.5935
 2611TIP3    H229393   2.259   4.028   2.771  1.5236 -0.1306 -0.4219
 2612TIP3   OH229394   4.860   5.763   7.747 -0.1393 -0.3281  0.3641
 2612TIP3    H129395   4.795   5.831   7.733 -0.4830 -0.7538 -0.1566
 2612TIP3    H229396   4.826   5.713   7.821  1.1588  1.2973  2.1549
 2613TIP3   OH229397   0.992   3.868   1.844  0.0215 -0.3272  0.4371
 2613TIP3    H129398   0.940   3.894   1.769 -0.3545  1.3269  1.2173
 2613TIP3    H229399   1.066   3.819   1.807  0.0115  0.7048 -1.0149
 2614TIP3   OH229400   1.105   4.485   2.230  0.4622  0.2662  0.1594
 2614TIP3    H129401   1.150   4.554   2.181  1.3061  0.1594  0.7731
 2614TIP3    H229402   1.017   4.520   2.243 -0.5344 -0.5653 -3.2561
 2615TIP3   OH229403   1.841   3.866   2.077  0.5654  0.4915  0.3390
 2615TIP3    H129404   1.780   3.798   2.105  0.3339  0.2311 -0.7380
 2615TIP3    H229405   1.794   3.948   2.089  1.1055  0.5703  2.3489
 2616TIP3   OH229406   4.628   3.705   7.598  0.8307 -0.6012 -0.2233
 2616TIP3    H129407   4.714   3.668   7.576  0.9268 -1.5707  1.5734
 2616TIP3    H229408   4.575   3.629   7.622 -0.1424  0.1145 -0.0463
 2617TIP3   OH229409   4.269   6.039   2.663  0.2053  0.0145  0.2209
 2617TIP3    H129410   4.285   5.979   2.736  0.5766  0.6478  0.6684
 2617TIP3    H229411   4.183   6.013   2.630  0.5473 -1.0427  0.1248
 2618TIP3   OH229412   2.194   0.022   1.298  0.0698 -0.0875  0.2625
 2618TIP3    H129413   2.151  -0.061   1.318 -0.9715 -0.1347 -1.9170
 2618TIP3    H229414   2.271  -0.003   1.246 -0.6969  0.3237 -1.1037
 2619TIP3   OH229415   2.593   5.890   7.829  0.2090 -0.1899  0.3584
 2619TIP3    H129416   2.525   5.876   7.895 -1.0528 -1.4297 -1.1107
 2619TIP3    H229417   2.565   5.969   7.782  0.3493 -0.1099  0.4085
 2620TIP3   OH229418   6.431   4.000   0.417 -0.2806  0.3643 -0.5474
 2620TIP3    H129419   6.404   4.077   0.467 -4.0807  1.0896 -3.3107
 2620TIP3    H229420   6.471   4.035   0.337  0.6423 -0.6455 -0.5635
 2621TIP3   OH229421   4.506   3.836   6.904  0.0707 -0.0603  0.2704
 2621TIP3    H129422   4.464   3.918   6.880  1.1876  0.6977  0.8238
 2621TIP3    H229423   4.521   3.791   6.821  1.2512  1.2168 -0.2523
 2622TIP3   OH229424   5.963   2.305   2.708 -0.9760 -0.6826  0.4625
 2622TIP3    H129425   6.022   2.371   2.672  0.0754 -0.2590  2.7474
 2622TIP3    H229426   5.879   2.350   2.715 -0.2112  0.5969  2.2444
 2623TIP3   OH229427   0.696   2.351   1.501  0.3677 -0.3247  0.0880
 2623TIP3    H129428   0.634   2.328   1.432 -1.1529  0.9751  0.9437
 2623TIP3    H229429   0.747   2.271   1.516 -1.3724 -1.5773 -0.3806
 2624TIP3   OH229430   1.952   5.718   0.076  0.1294 -0.1097 -0.3028
 2624TIP3    H129431   1.906   5.678   0.002 -1.8360  0.3796  0.6031
 2624TIP3    H229432   1.884   5.762   0.126  1.6660  1.0458  0.8788
 2625TIP3   OH229433   4.128   0.658   1.620  0.0992  0.4326  0.8712
 2625TIP3    H129434   4.212   0.701   1.605 -0.4019  1.1694  0.0549
 2625TIP3    H229435   4.121   0.650   1.715  1.7127 -0.9382  0.9215
 2626TIP3   OH229436   5.564   4.906   2.489  0.3798 -0.0028 -0.0782
 2626TIP3    H129437   5.620   4.976   2.455  1.8836 -1.2347 -0.2159
 2626TIP3    H229438   5.624   4.835   2.511 -0.7591 -0.2319  2.8219
 2627TIP3   OH229439   0.095   0.532   0.972  0.0426  0.5839 -0.1769
 2627TIP3    H129440   0.139   0.447   0.975 -0.3273  0.2637 -2.1786
 2627TIP3    H229441   0.006   0.512   0.943 -0.4959  1.5236  0.7594
 2628TIP3   OH229442   0.572   0.597   0.681 -0.2608  0.2469 -0.6242
 2628TIP3    H129443   0.518   0.674   0.697  0.4421  0.9006 -1.3316
 2628TIP3    H229444   0.584   0.595   0.586  1.5313  0.5378 -0.4392
 2629TIP3   OH229445   5.255   4.482   1.283  0.3846 -0.3559  0.2379
 2629TIP3    H129446   5.265   4.410   1.220  1.0649  0.2760 -0.3955
 2629TIP3    H229447   5.161   4.499   1.284  0.2439 -1.0588  0.1807
 2630TIP3   OH229448   5.474   5.790   0.462  0.3167 -0.0248 -0.3078
 2630TIP3    H129449   5.564   5.805   0.492  0.8352 -2.6976 -0.2700
 2630TIP3    H229450   5.468   5.838   0.379  2.0811 -0.4317 -0.7157
 2631TIP3   OH229451   5.346   5.049   7.876  0.3521  0.1460 -0.0257
 2631TIP3    H129452   5.423   5.070   7.822  0.9283 -0.7555  0.4195
 2631TIP3    H229453   5.383   5.022   7.960 -0.4753  0.0853  0.3212
 2632TIP3   OH229454   4.979   2.639   2.798 -0.0227  0.4478  0.3660
 2632TIP3    H129455   4.929   2.692   2.860  0.4919  0.6801  0.5883
 2632TIP3    H229456   5.052   2.604   2.850  1.8959  2.6713 -0.6007
 2633TIP3   OH229457   0.974   6.221   2.588  0.2941  0.3087 -0.0980
 2633TIP3    H129458   0.993   6.308   2.623 -0.1304  0.8932 -1.2560
 2633TIP3    H229459   0.879   6.222   2.574  0.2959 -0.3286 -0.1791
 2634TIP3   OH229460   3.678   0.754   1.567 -0.6955  0.4539 -0.0810
 2634TIP3    H129461   3.704   0.661   1.563  2.0711  1.1810 -2.2996
 2634TIP3    H229462   3.734   0.790   1.636  0.0707  0.9029 -0.9138
 2635TIP3   OH229463   2.757   6.640   7.447  0.6443 -0.0043 -0.0281
 2635TIP3    H129464   2.736   6.696   7.372  0.3821  0.2238  0.2147
 2635TIP3    H229465   2.696   6.567   7.439  1.2017 -0.4246 -0.5254
 2636TIP3   OH229466   0.090   1.835   0.504 -0.0956 -0.0544  0.1859
 2636TIP3    H129467   0.025   1.904   0.511  0.4465  0.4317  0.5636
 2636TIP3    H229468   0.041   1.753   0.515 -0.6948  0.2805  0.0340
 2637TIP3   OH229469   3.319   5.467   2.459 -0.2200  0.3412 -0.3644
 2637TIP3    H129470   3.337   5.495   2.370  1.8870  0.2792 -0.0163
 2637TIP3    H229471   3.368   5.385   2.469  0.0164  0.6268  1.0050
 2638TIP3   OH229472   4.837   4.976   7.890  0.0487 -0.2285  0.1735
 2638TIP3    H129473   4.830   4.885   7.919 -0.0376 -0.2244  0.1648
 2638TIP3    H229474   4.917   5.008   7.932  0.0391 -0.2861  0.2370
 2639TIP3   OH229475   4.522   5.825   2.568  0.0295  0.6243  0.1741
 2639TIP3    H129476   4.432   5.859   2.569  0.1378  0.9105  1.4779
 2639TIP3    H229477   4.576   5.899   2.541 -0.0358  0.6503  0.1130
 2640TIP3   OH229478   5.191   0.773   0.291  0.4166 -0.3467 -0.6638
 2640TIP3    H129479   5.149   0.768   0.205 -0.3802  1.2000 -0.3916
 2640TIP3    H229480   5.120   0.756   0.354  1.3148 -3.2280 -0.2868
 2641TIP3   OH229481   2.088   0.349   1.825 -0.7564 -0.2717 -0.2958
 2641TIP3    H129482   2.157   0.415   1.817 -0.3466 -0.6221  0.2964
 2641TIP3    H229483   2.105   0.288   1.753  1.0118 -1.6712  1.2206
 2642TIP3   OH229484   3.903   0.772   7.307 -0.5434 -0.9333 -0.6519
 2642TIP3    H129485   3.906   0.676   7.313 -0.6578 -1.0131 -1.7191
 2642TIP3    H229486   3.867   0.789   7.220  1.4537  0.0894 -1.3349
 2643TIP3   OH229487   0.733   0.828   1.058  0.9113  0.2011  0.0351
 2643TIP3    H129488   0.638   0.842   1.057  1.1158  1.6843 -0.4610
 2643TIP3    H229489   0.749   0.772   0.982  0.2754 -1.4467  1.0543
 2644TIP3   OH229490   3.454   5.106   8.717  1.0573  0.1335 -0.3608
 2644TIP3    H129491   3.466   5.197   8.688  0.4124  1.1188  2.2411
 2644TIP3    H229492   3.542   5.076   8.741  1.2394  0.1049 -1.0298
 2645TIP3   OH229493   3.463   3.119   2.432 -0.1859 -0.0133 -0.9468
 2645TIP3    H129494   3.482   3.155   2.345  0.8586 -0.3275 -0.8739
 2645TIP3    H229495   3.506   3.179   2.493 -0.6319  0.0229 -0.6658
 2646TIP3   OH229496   2.789   2.147   7.971  0.0450 -0.0258 -0.3044
 2646TIP3    H129497   2.762   2.202   7.898 -1.0098 -1.6364 -1.1935
 2646TIP3    H229498   2.879   2.122   7.951  1.1294  2.5922  0.9281
 2647TIP3   OH229499   5.886   5.248   0.781 -0.1140  0.3332 -0.3503
 2647TIP3    H129500   5.944   5.319   0.805  1.5671 -0.3381 -2.1545
 2647TIP3    H229501   5.817   5.290   0.729 -0.1139  0.8601  0.0719
 2648TIP3   OH229502   1.416   5.413   6.598  0.4245  0.1809 -0.3073
 2648TIP3    H129503   1.415   5.463   6.516  1.0754  1.0245  0.1739
 2648TIP3    H229504   1.328   5.377   6.606  0.2674  0.3401 -1.2296
 2649TIP3   OH229505   3.313   0.982   8.709  0.4031  0.7847 -0.4796
 2649TIP3    H129506   3.326   0.958   8.800 -0.4994 -0.8168 -0.7389
 2649TIP3    H229507   3.319   0.900   8.661  0.3358  1.5255 -1.8121
 2650TIP3   OH229508   1.205   6.438   1.149 -0.3504 -0.1176 -0.0695
 2650TIP3    H129509   1.144   6.370   1.120  0.2773  0.2124 -2.3071
 2650TIP3    H229510   1.291   6.406   1.123  0.0926  0.9630  0.0199
 2651TIP3   OH229511   0.495   6.193   2.316  0.2352 -0.2544  0.6010
 2651TIP3    H129512   0.425   6.185   2.252  0.2807  1.2892  0.3197
 2651TIP3    H229513   0.460   6.151   2.395 -0.4042 -0.8247  0.0244
 2652TIP3   OH229514   3.990   5.656   8.797  0.2072  0.3684  0.9108
 2652TIP3    H129515   4.077   5.628   8.826  1.0780 -0.2738 -1.9954
 2652TIP3    H229516   3.930   5.603   8.849  1.5505  0.2582  2.4379
 2653TIP3   OH229517   0.359   5.784   0.759 -0.3821 -0.0882  0.1500
 2653TIP3    H129518   0.308   5.859   0.789 -1.6127 -0.0052 -1.9647
 2653TIP3    H229519   0.297   5.710   0.761  0.3493 -0.7029  0.6495
 2654TIP3   OH229520   6.654   1.921   0.627 -0.1399 -0.1298 -0.0158
 2654TIP3    H129521   6.629   1.860   0.697 -1.4366  1.6893  1.1745
 2654TIP3    H229522   6.704   1.989   0.672  1.3013 -0.2656 -1.3287
 2655TIP3   OH229523   2.237   2.282   7.271 -0.4366  0.0750  0.0073
 2655TIP3    H129524   2.278   2.273   7.185  1.3456  0.6548  0.7588
 2655TIP3    H229525   2.216   2.192   7.296 -0.6574 -0.1338 -0.8740
 2656TIP3   OH229526   4.011   6.602   1.068 -0.1776  0.0057  0.4132
 2656TIP3    H129527   3.975   6.676   1.019  0.5977  0.0978 -0.0271
 2656TIP3    H229528   3.963   6.526   1.035  1.7580 -0.2462 -2.0732
 2657TIP3   OH229529   3.555   6.094   7.748  0.3316  0.0312  0.9653
 2657TIP3    H129530   3.649   6.108   7.758  0.3585  0.6849  0.0070
 2657TIP3    H229531   3.525   6.172   7.701 -0.2867 -1.1796 -0.7746
 2658TIP3   OH229532   1.233   3.870   7.380 -0.1331 -0.3275 -0.2810
 2658TIP3    H129533   1.233   3.965   7.373  1.8712 -0.1587  1.1419
 2658TIP3    H229534   1.325   3.847   7.396 -0.6817 -2.4439  0.1319
 2659TIP3   OH229535   3.308   4.286   8.413  0.3557  0.0576  0.3983
 2659TIP3    H129536   3.260   4.288   8.331 -1.5420 -0.4677  1.4407
 2659TIP3    H229537   3.336   4.195   8.422  0.5470  0.1113  0.3584
 2660TIP3   OH229538   3.088   1.986   0.799 -0.1023  0.3254  0.5612
 2660TIP3    H129539   3.125   2.025   0.878 -0.2295  0.7732  0.4025
 2660TIP3    H229540   3.072   2.060   0.740 -0.9202  0.1086  0.4890
 2661TIP3   OH229541   3.420   0.720   7.472  0.1317  0.0673  0.3391
 2661TIP3    H129542   3.495   0.691   7.525  1.5776  0.5468 -1.3217
 2661TIP3    H229543   3.429   0.672   7.390 -0.1263  1.6834 -0.6876
 2662TIP3   OH229544   5.331   1.510   2.659 -0.5709  0.1376  0.0617
 2662TIP3    H129545   5.291   1.556   2.733  0.1067  0.7572  0.0533
 2662TIP3    H229546   5.316   1.417   2.677 -0.5114  0.2899  0.9190
 2663TIP3   OH229547   0.314   6.154   7.119 -0.1374  0.7292 -0.4274
 2663TIP3    H129548   0.371   6.229   7.102  0.1710  0.4297 -0.7072
 2663TIP3    H229549   0.372   6.089   7.159 -0.1996  0.2775 -1.0715
 2664TIP3   OH229550   0.716   1.822   7.582 -0.1281  0.2902  0.0758
 2664TIP3    H129551   0.787   1.758   7.588 -0.0033  0.1296 -2.2221
 2664TIP3    H229552   0.637   1.769   7.573 -0.3727  0.4791  0.9913
 2665TIP3   OH229553   2.101   4.774   2.611 -0.4096  0.1769 -0.1234
 2665TIP3    H129554   2.085   4.680   2.604 -0.9581  0.1811  0.8174
 2665TIP3    H229555   2.030   4.814   2.560 -0.5124  0.0832 -0.0555
 2666TIP3   OH229556   1.622   5.940   1.991  0.0393 -0.3335  0.2319
 2666TIP3    H129557   1.572   5.910   1.915 -1.7674  2.6789  0.0633
 2666TIP3    H229558   1.560   5.937   2.064  0.5017  0.5941  0.6896
 2667TIP3   OH229559   0.462   3.782   1.651 -0.0667  0.2825  0.5679
 2667TIP3    H129560   0.480   3.876   1.642  3.9824 -0.4385 -1.2214
 2667TIP3    H229561   0.428   3.756   1.566  0.7190 -0.1382  0.3702
 2668TIP3   OH229562   3.755   2.692   2.568 -0.4360  0.0522  0.2725
 2668TIP3    H129563   3.834   2.648   2.600 -1.0712 -1.0812  0.3435
 2668TIP3    H229564   3.776   2.785   2.570  1.2687 -0.2821 -0.7077
 2669TIP3   OH229565   1.832   6.311   1.907 -0.1887  0.6139 -0.6614
 2669TIP3    H129566   1.757   6.358   1.871  0.5132  1.7601 -0.6957
 2669TIP3    H229567   1.801   6.278   1.991 -0.2879  2.4966  0.1075
 2670TIP3   OH229568   5.131   2.299   1.751  0.3941  0.3144  0.5536
 2670TIP3    H129569   5.065   2.233   1.728  0.7867 -0.0948  0.5936
 2670TIP3    H229570   5.082   2.364   1.801 -0.5101  1.3177 -1.5273
 2671TIP3   OH229571   1.570   6.628   0.142  0.2415  0.3341 -0.7968
 2671TIP3    H129572   1.607   6.694   0.083 -1.0027  0.1056 -1.8842
 2671TIP3    H229573   1.611   6.546   0.114 -0.3247  0.2305 -1.3191
 2672TIP3   OH229574   5.399   6.744   1.170  0.0475  0.7041  0.4239
 2672TIP3    H129575   5.491   6.724   1.153 -0.1210  0.3866 -0.1571
 2672TIP3    H229576   5.351   6.673   1.128 -0.4832  1.1570  0.2513
 2673TIP3   OH229577   6.198   4.953   2.942  0.0330 -0.3718  0.0808
 2673TIP3    H129578   6.292   4.955   2.926 -0.2124 -0.7979 -1.6265
 2673TIP3    H229579   6.168   4.872   2.900 -1.3477  0.7093 -1.1159
 2674TIP3   OH229580   2.025   1.730   2.958 -0.0140 -0.7203 -0.4751
 2674TIP3    H129581   2.079   1.688   3.025 -1.7651 -0.4100  1.1901
 2674TIP3    H229582   1.949   1.673   2.949 -0.1670 -0.3554 -1.6795
 2675TIP3   OH229583   6.397   5.726   1.029 -0.1032 -0.5549  0.0724
 2675TIP3    H129584   6.310   5.739   0.992  0.2207 -0.4540 -0.6782
 2675TIP3    H229585   6.446   5.805   1.005  0.3671 -0.8733 -0.0486
 2676TIP3   OH229586   4.222   2.376   6.837  0.1470 -0.8152 -0.4470
 2676TIP3    H129587   4.316   2.381   6.817  0.4002 -1.7710  0.4116
 2676TIP3    H229588   4.207   2.447   6.899  0.3810 -0.8761 -0.3194
 2677TIP3   OH229589   1.319   1.388   2.084  0.0941 -0.8148 -1.0403
 2677TIP3    H129590   1.393   1.369   2.027  1.0234 -1.3297  0.3052
 2677TIP3    H229591   1.356   1.438   2.156 -0.7436 -1.5643 -0.0597
 2678TIP3   OH229592   6.156   2.487   2.328 -0.2615  0.2892 -0.1029
 2678TIP3    H129593   6.247   2.514   2.318  0.1950 -1.4270 -0.8779
 2678TIP3    H229594   6.107   2.545   2.269  0.0730  2.2167  1.3973
 2679TIP3   OH229595   6.595   2.599   0.547 -0.1053 -0.4882 -0.0446
 2679TIP3    H129596   6.565   2.654   0.620  1.3738 -2.0906  1.9135
 2679TIP3    H229597   6.683   2.630   0.528 -0.5605  0.0633 -1.3751
 2680TIP3   OH229598   2.319   6.690   0.649  0.6272  0.6261  0.0531
 2680TIP3    H129599   2.339   6.768   0.599 -0.4769  0.7833 -0.1704
 2680TIP3    H229600   2.392   6.681   0.710 -0.4028  3.2998  1.8728
 2681TIP3   OH229601   0.797   2.426   0.555  0.1775 -0.0002  0.2315
 2681TIP3    H129602   0.727   2.402   0.494 -0.4436 -0.1175  0.9785
 2681TIP3    H229603   0.769   2.390   0.639  1.5433 -0.7879  0.3815
 2682TIP3   OH229604   2.586   1.971   7.722 -0.0143 -0.0820  0.2589
 2682TIP3    H129605   2.613   2.058   7.753  3.2216 -0.6712 -0.5725
 2682TIP3    H229606   2.499   1.985   7.684  0.9996  3.1289 -1.1771
 2683TIP3   OH229607   3.236   5.381   8.593  0.3120  0.3469  0.2006
 2683TIP3    H129608   3.315   5.328   8.584 -0.5950 -0.9659 -0.4191
 2683TIP3    H229609   3.202   5.388   8.503 -1.2140 -0.6678  0.6518
 2684TIP3   OH229610   0.549   5.594   1.988 -0.1888  0.4933 -0.7731
 2684TIP3    H129611   0.608   5.524   1.961 -0.9280 -0.1542 -0.7662
 2684TIP3    H229612   0.523   5.636   1.905 -0.0455  0.5113 -0.8096
 2685TIP3   OH229613   5.320   3.294   2.582 -0.1119  0.0675 -0.0241
 2685TIP3    H129614   5.273   3.232   2.639 -0.4682  0.7621  0.4560
 2685TIP3    H229615   5.391   3.242   2.544 -0.7318 -0.7811 -0.0644
 2686TIP3   OH229616   5.399   6.526   1.612  0.3758  0.2938  0.2627
 2686TIP3    H129617   5.379   6.537   1.519 -0.2582  2.0158  0.5503
 2686TIP3    H229618   5.314   6.505   1.653  0.7776 -1.2071  0.3796
 2687TIP3   OH229619   1.291   4.143   0.232  0.2059 -0.2710  0.3076
 2687TIP3    H129620   1.239   4.198   0.173 -0.6710 -1.5166 -0.1228
 2687TIP3    H229621   1.349   4.094   0.174  0.5514 -0.2595  0.6379
 2688TIP3   OH229622   2.601   5.503   0.163 -0.1982  0.3745 -0.0657
 2688TIP3    H129623   2.538   5.491   0.092  0.3927  0.4945 -0.6209
 2688TIP3    H229624   2.618   5.415   0.196  0.8457  0.1039 -1.2510
 2689TIP3   OH229625   5.154   0.903   1.132  0.2861 -0.1558 -0.8419
 2689TIP3    H129626   5.154   0.909   1.036 -2.6357  0.1180 -0.9304
 2689TIP3    H229627   5.115   0.817   1.150 -1.5466  0.8004  0.0098
 2690TIP3   OH229628   5.545   2.066   0.506 -0.1785 -0.2577 -0.0286
 2690TIP3    H129629   5.560   2.031   0.594  0.0517 -0.4378 -0.1386
 2690TIP3    H229630   5.526   1.989   0.453  3.0280 -0.6057 -0.8735
 2691TIP3   OH229631   2.191   2.840   6.816  0.0585 -0.3477  0.4345
 2691TIP3    H129632   2.167   2.924   6.855  0.2592 -0.5126  0.9158
 2691TIP3    H229633   2.113   2.814   6.767  0.5371  0.9006 -1.0920
 2692TIP3   OH229634   1.134   1.869   0.596  0.6402 -0.0115  1.0836
 2692TIP3    H129635   1.186   1.943   0.564  2.3439 -1.1828  0.9971
 2692TIP3    H229636   1.066   1.909   0.649  1.4250  1.6318  0.9195
 2693TIP3   OH229637   4.921   3.876   7.632  0.2289  0.0667 -0.3714
 2693TIP3    H129638   4.890   3.835   7.713  0.9671 -0.9755 -0.5978
 2693TIP3    H229639   4.989   3.817   7.600  0.6589  0.9953 -1.2181
 2694TIP3   OH229640   1.193   0.547   0.358 -0.5913  0.5125 -0.1059
 2694TIP3    H129641   1.282   0.543   0.392 -0.3638 -0.3832 -0.7753
 2694TIP3    H229642   1.148   0.473   0.398 -0.0415 -1.1871 -2.4077
 2695TIP3   OH229643   2.249   3.758   6.862  0.0158  0.3469 -0.3694
 2695TIP3    H129644   2.206   3.733   6.944 -0.8414 -1.6220 -1.3386
 2695TIP3    H229645   2.302   3.681   6.839 -0.3633  0.5570 -2.0311
 2696TIP3   OH229646   4.056   3.162   1.714 -0.3438 -0.2316  0.0535
 2696TIP3    H129647   4.099   3.188   1.796 -1.7238  0.3226  0.6408
 2696TIP3    H229648   4.010   3.241   1.686 -1.3968 -0.9415 -0.2587
 2697TIP3   OH229649   1.253   4.017   8.781  0.1074 -0.5919  0.0641
 2697TIP3    H129650   1.286   4.037   8.694 -0.6413 -1.6584 -0.4891
 2697TIP3    H229651   1.160   4.000   8.768 -0.8811  2.7222  1.6388
 2698TIP3   OH229652   6.417   1.405   7.043 -0.3848 -0.1033 -0.0300
 2698TIP3    H129653   6.488   1.358   7.085  2.0623  1.7805 -1.7635
 2698TIP3    H229654   6.433   1.395   6.949 -0.8350  2.4668 -0.4655
 2699TIP3   OH229655   6.301   3.611   0.608  0.0498  0.2031 -0.0461
 2699TIP3    H129656   6.252   3.530   0.623 -0.3899  0.3265 -0.8171
 2699TIP3    H229657   6.280   3.666   0.684 -1.0284  0.2657 -0.3847
 2700TIP3   OH229658   1.191   5.223   7.963 -0.1271 -0.3091 -0.0273
 2700TIP3    H129659   1.253   5.269   7.907 -1.5395  1.8365  0.0459
 2700TIP3    H229660   1.232   5.221   8.049 -0.7273  2.5253  0.4036
 2701TIP3   OH229661   5.927   6.815   7.522 -0.3978  1.0359  0.4916
 2701TIP3    H129662   5.960   6.740   7.571 -0.5681  0.4961 -0.2065
 2701TIP3    H229663   5.832   6.813   7.537 -0.5284  0.5075 -0.3313
 2702TIP3   OH229664   0.421   0.800   2.120  0.5263  0.5522 -0.5494
 2702TIP3    H129665   0.445   0.718   2.162 -1.0565  0.0308 -0.6180
 2702TIP3    H229666   0.409   0.862   2.192  0.9328  0.5289 -0.4550
 2703TIP3   OH229667   3.801   1.872   0.553 -0.0995 -0.1655  0.5324
 2703TIP3    H129668   3.882   1.866   0.502 -0.9683  0.5336 -1.0169
 2703TIP3    H229669   3.817   1.945   0.614 -0.4549  1.8098 -1.6003
 2704TIP3   OH229670   3.423   3.219   0.184  0.4347 -0.1680  0.8817
 2704TIP3    H129671   3.373   3.296   0.209  1.0726 -0.5580  3.6278
 2704TIP3    H229672   3.358   3.151   0.168 -0.0503  0.4379  0.2443
 2705TIP3   OH229673   0.463   1.070   7.951  0.3250 -0.0236  0.1349
 2705TIP3    H129674   0.554   1.083   7.925 -0.3486  1.1877 -1.7674
 2705TIP3    H229675   0.425   1.015   7.883 -1.0147  1.6897 -0.5866
 2706TIP3   OH229676   3.270   0.515   2.208  0.1611  0.0682  0.2335
 2706TIP3    H129677   3.182   0.496   2.175 -0.6675  0.3898  2.0908
 2706TIP3    H229678   3.304   0.583   2.149  0.2008 -1.7681 -1.9791
 2707TIP3   OH229679   2.917   0.919   1.017 -0.2493 -0.1825  0.0553
 2707TIP3    H129680   2.903   0.855   1.087  0.5338  2.2438  2.6429
 2707TIP3    H229681   2.993   0.887   0.969 -0.5960 -1.7482  0.4836
 2708TIP3   OH229682   6.538   1.063   0.589  0.3901  0.3832  0.0434
 2708TIP3    H129683   6.533   1.140   0.533 -0.8490 -0.0615 -0.5013
 2708TIP3    H229684   6.627   1.031   0.579 -0.3232 -0.9570 -3.4790
 2709TIP3   OH229685   2.928   5.096   0.188 -0.2570  0.0759  0.2602
 2709TIP3    H129686   2.880   5.107   0.107 -1.3713  0.3380  0.9447
 2709TIP3    H229687   2.870   5.044   0.244  0.2144  0.4632  1.1304
 2710TIP3   OH229688   2.895   3.464   8.472 -0.0997 -0.2188 -0.0138
 2710TIP3    H129689   2.860   3.466   8.383 -0.0994 -0.0514 -0.0096
 2710TIP3    H229690   2.863   3.544   8.513 -0.9609 -0.7933  0.4671
 2711TIP3   OH229691   0.163   2.001   7.320  0.0039 -0.4161 -0.6000
 2711TIP3    H129692   0.115   1.918   7.313  0.1012 -0.4568 -0.8051
 2711TIP3    H229693   0.107   2.064   7.275 -1.5417  0.2916  2.1343
 2712TIP3   OH229694   3.415   3.355   7.934 -0.2582  0.7035  0.0449
 2712TIP3    H129695   3.358   3.322   7.864  0.3374 -0.6157  0.1671
 2712TIP3    H229696   3.385   3.310   8.013  2.0600 -1.4047 -0.1814
 2713TIP3   OH229697   1.527   5.113   1.472 -0.6947 -0.5251  0.3772
 2713TIP3    H129698   1.449   5.136   1.423  0.1693 -0.4390 -1.0352
 2713TIP3    H229699   1.592   5.180   1.448  0.5609 -1.9777 -0.4862
 2714TIP3   OH229700   5.871   0.584   0.634  0.1072 -0.1979 -0.2618
 2714TIP3    H129701   5.789   0.625   0.662  1.0947  0.5821  1.6264
 2714TIP3    H229702   5.859   0.572   0.539 -1.9435  0.4218 -0.1478
 2715TIP3   OH229703   0.347   1.862   1.512  0.2596  0.1084  0.3420
 2715TIP3    H129704   0.286   1.896   1.577  0.5973  2.1196 -0.3068
 2715TIP3    H229705   0.425   1.838   1.562 -0.0402  0.2049  0.8569
 2716TIP3   OH229706   3.579   0.111   0.877  0.7087  0.2164 -0.6977
 2716TIP3    H129707   3.628   0.029   0.881  0.9021  0.3306 -0.7012
 2716TIP3    H229708   3.646   0.179   0.879  0.5338  0.3848 -0.2994
 2717TIP3   OH229709   3.437   1.628   7.736  0.4095  0.2491 -0.6050
 2717TIP3    H129710   3.503   1.591   7.677  0.3996 -0.9352  0.0925
 2717TIP3    H229711   3.413   1.711   7.696  2.7999  1.0550 -0.5388
 2718TIP3   OH229712   0.949   0.941   7.226 -0.6495 -0.1854 -0.0894
 2718TIP3    H129713   0.930   0.875   7.159  0.9469 -0.7271 -0.0400
 2718TIP3    H229714   0.967   1.021   7.177 -1.8739  0.0556 -0.1789
 2719TIP3   OH229715   1.803   5.746   1.527  0.5986  0.0490 -0.4024
 2719TIP3    H129716   1.855   5.826   1.530 -2.2432  2.0289  0.4135
 2719TIP3    H229717   1.774   5.739   1.436  0.2360  0.3866 -0.3139
 2720TIP3   OH229718   6.000   5.658   0.229 -0.2136  1.1559 -0.2654
 2720TIP3    H129719   6.064   5.660   0.301  0.0414 -0.7270 -0.4104
 2720TIP3    H229720   5.979   5.751   0.214  1.7638  1.7652  0.4218
 2721TIP3   OH229721   3.688   3.100   6.555  0.0768  0.2166  0.2623
 2721TIP3    H129722   3.627   3.122   6.626 -0.6762  1.3541 -0.7007
 2721TIP3    H229723   3.744   3.177   6.548  0.8843 -0.3566  0.3631
 2722TIP3   OH229724   5.833   4.102   0.319  0.6520  0.7559  0.6981
 2722TIP3    H129725   5.859   4.107   0.227  2.5576  0.6972  1.2007
 2722TIP3    H229726   5.758   4.161   0.325 -0.3270 -0.1949 -1.1335
 2723TIP3   OH229727   4.361   0.837   7.344  0.4001 -0.6316  0.4363
 2723TIP3    H129728   4.351   0.792   7.260  1.8769 -1.8611  0.8898
 2723TIP3    H229729   4.454   0.858   7.349 -0.2532  3.0530  0.0043
 2724TIP3   OH229730   2.587   5.827   8.135  0.4253  0.2802 -0.6415
 2724TIP3    H129731   2.582   5.746   8.185  1.6111  0.5512 -0.0547
 2724TIP3    H229732   2.643   5.806   8.060  0.6382  0.5169 -0.5509
 2725TIP3   OH229733   4.386   4.375   1.074  0.7350 -0.6003  0.4113
 2725TIP3    H129734   4.325   4.393   1.146 -0.5628 -1.3537 -0.4546
 2725TIP3    H229735   4.444   4.451   1.072 -0.9858  0.7902  0.4609
 2726TIP3   OH229736   5.675   1.389   1.198  0.0631  0.4534  0.1134
 2726TIP3    H129737   5.728   1.310   1.210  0.4291  0.5388 -0.8249
 2726TIP3    H229738   5.584   1.357   1.199  0.2121  0.0018 -0.3871
 2727TIP3   OH229739   6.177   1.477   1.994  0.0429  0.2055  0.3656
 2727TIP3    H129740   6.123   1.404   2.021  0.3122  0.4709  1.7072
 2727TIP3    H229741   6.141   1.553   2.041  0.6444  0.6576  0.1159
 2728TIP3   OH229742   3.551   2.330   1.634  0.2777 -0.4556  0.4112
 2728TIP3    H129743   3.490   2.262   1.606 -0.3050  1.1095 -2.5460
 2728TIP3    H229744   3.630   2.315   1.582  0.1973  0.9872 -0.1699
 2729TIP3   OH229745   0.138   2.766   2.491 -0.0906 -0.2125  0.1150
 2729TIP3    H129746   0.137   2.770   2.587  0.5734  1.9240  0.0985
 2729TIP3    H229747   0.053   2.802   2.465  0.3419  0.7107 -0.0748
 2730TIP3   OH229748   0.603   6.345   1.078 -0.1496 -0.0946 -0.1286
 2730TIP3    H129749   0.623   6.438   1.089 -0.8787  0.1609 -0.8590
 2730TIP3    H229750   0.507   6.341   1.075 -0.2194 -1.0827  1.6689
 2731TIP3   OH229751   1.083   6.812   1.727  0.8495 -0.4106  0.4291
 2731TIP3    H129752   1.150   6.747   1.745  0.9237 -0.6628 -0.6884
 2731TIP3    H229753   1.122   6.896   1.752  2.5707 -0.2299 -2.3971
 2732TIP3   OH229754   3.871   1.803   2.812 -0.1133  0.2966  0.2039
 2732TIP3    H129755   3.927   1.871   2.773  0.8646 -0.6405 -0.0615
 2732TIP3    H229756   3.862   1.829   2.903  1.0001  0.3272  0.3209
 2733TIP3   OH229757   5.274   3.273   8.313  0.5311  0.0164 -0.4042
 2733TIP3    H129758   5.354   3.297   8.360  0.5255  0.4570 -0.6153
 2733TIP3    H229759   5.241   3.356   8.278  0.7237 -0.3430 -1.4816
 2734TIP3   OH229760   4.929   4.492   0.028  0.1347  0.7083 -0.1764
 2734TIP3    H129761   4.976   4.524   0.105  1.2937 -1.8324  0.2473
 2734TIP3    H229762   4.923   4.397   0.040 -0.6184  0.3538 -2.7096
 2735TIP3   OH229763   1.290   1.471   2.654 -0.1782  0.2634 -0.1753
 2735TIP3    H129764   1.310   1.560   2.682  0.1475 -0.0988  0.7872
 2735TIP3    H229765   1.275   1.423   2.735 -1.8892 -0.2182 -0.7396
 2736TIP3   OH229766   3.901   5.261   0.247 -0.0128 -0.0537 -0.3631
 2736TIP3    H129767   3.841   5.201   0.290 -0.5566  0.5193 -0.3109
 2736TIP3    H229768   3.984   5.249   0.294 -0.4438  0.1428  0.4694
 2737TIP3   OH229769   5.272   0.241   1.931 -0.3375  0.2459 -0.2695
 2737TIP3    H129770   5.277   0.234   2.026 -1.6335 -1.3719 -0.2780
 2737TIP3    H229771   5.179   0.235   1.911  0.0160 -1.1344 -1.7300
 2738TIP3   OH229772   4.965   3.636   0.912 -0.0775 -0.0368 -0.8619
 2738TIP3    H129773   4.993   3.609   0.999  0.0548 -1.0141 -1.2011
 2738TIP3    H229774   5.045   3.666   0.869 -0.1309  0.3770 -0.6788
 2739TIP3   OH229775   3.187   3.503   8.413  0.3916 -0.6462  0.6050
 2739TIP3    H129776   3.162   3.499   8.321  0.1592 -1.4265  0.6939
 2739TIP3    H229777   3.110   3.471   8.460  0.6904 -0.7486  1.0300
 2740TIP3   OH229778   2.940   5.904   7.662 -0.1590  0.2456 -0.2401
 2740TIP3    H129779   2.854   5.910   7.619 -0.8615 -0.6424  0.9607
 2740TIP3    H229780   2.927   5.947   7.746  0.5649  0.0387 -0.0213
 2741TIP3   OH229781   6.617   4.006   0.729  0.7366 -0.7518 -0.1042
 2741TIP3    H129782   6.700   4.053   0.728 -0.0819  0.8056  0.2597
 2741TIP3    H229783   6.551   4.075   0.742 -0.6406 -1.8804 -0.7862
 2742TIP3   OH229784   0.129   2.353   8.222 -0.0909  0.7126  0.0055
 2742TIP3    H129785   0.084   2.361   8.306 -0.9809 -0.8551 -0.2806
 2742TIP3    H229786   0.190   2.280   8.235  2.3621  2.6787  0.3379
 2743TIP3   OH229787   2.510   0.645   1.200 -0.1039 -0.1572  0.0118
 2743TIP3    H129788   2.534   0.560   1.238 -2.0596 -0.9287 -0.3876
 2743TIP3    H229789   2.547   0.644   1.112  0.7981 -0.1235  0.3782
 2744TIP3   OH229790   0.005   0.969   8.727  0.5329 -0.3738 -0.2123
 2744TIP3    H129791   0.009   1.061   8.700 -0.6026 -0.3387 -0.3049
 2744TIP3    H229792   0.028   0.920   8.648 -0.6662 -0.2029 -0.7023
 2745TIP3   OH229793   0.355   0.747   8.510 -0.1810  0.2644 -0.0365
 2745TIP3    H129794   0.375   0.784   8.596  0.9350 -0.1643 -0.0885
 2745TIP3    H229795   0.263   0.767   8.496 -0.6368 -0.4406  1.6557
 2746TIP3   OH229796   1.735   5.065   0.864 -0.5959  0.7666  0.1423
 2746TIP3    H129797   1.694   5.074   0.777 -0.7497 -0.1294  0.1118
 2746TIP3    H229798   1.807   5.128   0.863  0.8532 -0.7869 -1.5191
 2747TIP3   OH229799   2.507   6.172   7.018 -0.0497  0.3656  0.2940
 2747TIP3    H129800   2.509   6.125   6.934 -0.6285  2.0461 -0.7069
 2747TIP3    H229801   2.597   6.164   7.051 -0.1816 -1.5920  0.2797
 2748TIP3   OH229802   4.489   4.224   0.575 -0.1322 -0.1433 -0.2797
 2748TIP3    H129803   4.430   4.191   0.507  0.0808 -1.1027 -0.0023
 2748TIP3    H229804   4.440   4.296   0.616 -1.0911 -0.8775 -0.1032
 2749TIP3   OH229805   1.119   6.284   2.347  0.2450  0.1775 -0.5498
 2749TIP3    H129806   1.180   6.341   2.393 -0.0320  1.4681 -1.6909
 2749TIP3    H229807   1.064   6.246   2.416  2.5784 -1.4015  0.5501
 2750TIP3   OH229808   2.736   6.473   7.810  0.1280  0.0559  0.3379
 2750TIP3    H129809   2.672   6.442   7.745  0.1125 -0.2088  0.4783
 2750TIP3    H229810   2.722   6.417   7.886 -0.8575  1.3138  1.1224
 2751TIP3   OH229811   3.887   6.522   0.756  0.1285  0.1540 -0.0139
 2751TIP3    H129812   3.970   6.474   0.762  0.4409  0.7469  0.5984
 2751TIP3    H229813   3.839   6.496   0.834  0.7052  1.5480  0.8457
 2752TIP3   OH229814   3.139   1.320   8.548  0.1212 -0.0819 -0.0032
 2752TIP3    H129815   3.152   1.230   8.519  0.4729  0.1364 -0.5456
 2752TIP3    H229816   3.072   1.314   8.616 -0.0944 -0.7129 -0.2633
 2753TIP3   OH229817   4.669   2.280   7.143  0.5017 -0.3581 -0.3767
 2753TIP3    H129818   4.575   2.263   7.134  0.4732 -0.3812 -0.0690
 2753TIP3    H229819   4.676   2.328   7.226  0.5061  1.7684 -1.5445
 2754TIP3   OH229820   0.781   5.405   0.892  0.0565 -0.2088 -0.2097
 2754TIP3    H129821   0.719   5.467   0.931  0.0428 -0.0338 -0.5047
 2754TIP3    H229822   0.861   5.416   0.944  0.7032  1.4861 -1.4423
 2755TIP3   OH229823   3.717   5.024   8.677 -0.0783  0.1260 -0.1599
 2755TIP3    H129824   3.801   5.053   8.713 -0.1287 -1.0708  1.0054
 2755TIP3    H229825   3.733   5.016   8.583  0.6008  1.5653 -0.1955
 2756TIP3   OH229826   3.045   4.769   1.026  0.3530 -0.4704  0.1981
 2756TIP3    H129827   3.036   4.757   0.932 -0.2060 -0.8312  0.2921
 2756TIP3    H229828   3.107   4.701   1.053  0.6797 -0.2320  0.0684
 2757TIP3   OH229829   5.054   6.486   8.043 -0.3338 -0.7965  0.3337
 2757TIP3    H129830   5.145   6.479   8.073 -0.0461 -1.7152 -0.7092
 2757TIP3    H229831   5.049   6.429   7.967 -1.3433  0.6206 -0.7099
 2758TIP3   OH229832   6.241   5.739   8.344 -0.4743 -0.1432  0.0940
 2758TIP3    H129833   6.175   5.753   8.276 -0.1229  2.1727  0.1350
 2758TIP3    H229834   6.313   5.798   8.321  0.3682 -0.5161  1.5920
 2759TIP3   OH229835   3.796   1.760   0.017  0.1564 -0.1252  0.6665
 2759TIP3    H129836   3.825   1.673   0.045 -0.8825 -0.4540  0.7327
 2759TIP3    H229837   3.733   1.788   0.083  0.4009  0.6446  0.5877
 2760TIP3   OH229838   5.795   1.207   2.829  0.1255 -0.0372  0.4499
 2760TIP3    H129839   5.879   1.183   2.790  0.1929  0.2300  0.4292
 2760TIP3    H229840   5.738   1.225   2.755  0.2314  0.3947  0.4744
 2761TIP3   OH229841   3.510   3.956   0.268  0.1308 -0.3879  0.0469
 2761TIP3    H129842   3.544   3.867   0.260  0.2221 -0.5008  1.4968
 2761TIP3    H229843   3.572   4.009   0.217  0.8255 -0.9776  0.2610
 2762TIP3   OH229844   0.678   6.610   2.092  0.0006  0.5686  0.2453
 2762TIP3    H129845   0.770   6.587   2.083  0.3873  1.0890  2.2743
 2762TIP3    H229846   0.678   6.704   2.108 -0.8047  0.4609  0.9650
 2763TIP3   OH229847   2.159   3.896   8.155 -0.3022 -0.1884  0.4477
 2763TIP3    H129848   2.182   3.858   8.069 -1.0606  3.0467 -1.3259
 2763TIP3    H229849   2.084   3.952   8.137 -1.0740 -0.0890  3.4932
 2764TIP3   OH229850   5.240   3.763   8.769 -0.1201 -0.2172 -0.2899
 2764TIP3    H129851   5.169   3.812   8.810 -0.7635 -1.0352 -0.3921
 2764TIP3    H229852   5.264   3.697   8.835  0.0914 -0.3622 -0.5110
 2765TIP3   OH229853   1.259   6.516   2.520  0.1824  0.3023  0.0439
 2765TIP3    H129854   1.341   6.485   2.558  0.0666 -2.4881 -1.7198
 2765TIP3    H229855   1.273   6.514   2.426 -1.4921  1.1201 -0.2665
 2766TIP3   OH229856   6.494   4.600   7.899 -0.1521  0.0395  0.0420
 2766TIP3    H129857   6.488   4.555   7.815 -3.3439 -3.0250  1.6533
 2766TIP3    H229858   6.414   4.653   7.904 -0.3928 -0.4137  1.3921
 2767TIP3   OH229859   2.562   5.404   1.529  0.6637 -0.0591 -0.2739
 2767TIP3    H129860   2.656   5.408   1.511  0.7698 -1.0388 -0.0034
 2767TIP3    H229861   2.525   5.356   1.455  0.4321  0.0079 -0.2027
 2768TIP3   OH229862   6.709   1.904   7.222  0.2329  0.3590 -0.0343
 2768TIP3    H129863   6.743   1.985   7.184  0.9968  0.3954  0.6995
 2768TIP3    H229864   6.722   1.838   7.154  0.9615  0.5602 -0.1036
 2769TIP3   OH229865   4.952   2.936   3.099 -0.4986 -0.4459  0.0576
 2769TIP3    H129866   4.885   2.868   3.087 -0.3111 -0.1791 -4.0371
 2769TIP3    H229867   5.029   2.902   3.052  0.3413  1.6223 -0.1608
 2770TIP3   OH229868   2.117   6.259   0.891  0.5798 -0.5184 -0.3074
 2770TIP3    H129869   2.140   6.243   0.982 -0.1127  2.3809  0.4715
 2770TIP3    H229870   2.023   6.243   0.887  0.2741  1.0960 -0.0304
 2771TIP3   OH229871   3.782   4.810   1.418 -0.6094 -0.0980 -0.0908
 2771TIP3    H129872   3.712   4.749   1.439  0.3139 -0.7589  1.2450
 2771TIP3    H229873   3.860   4.755   1.407  0.4325  0.8280  2.0323
 2772TIP3   OH229874   0.413   4.222   0.227 -0.4844 -0.5437 -0.4306
 2772TIP3    H129875   0.424   4.223   0.322 -0.5077  1.9901 -0.3970
 2772TIP3    H229876   0.328   4.179   0.213 -0.1755 -1.5501  0.6213
 2773TIP3   OH229877   4.198   2.862   0.165  0.2119  0.4824 -0.0598
 2773TIP3    H129878   4.160   2.810   0.236 -2.6123  1.9265 -0.3486
 2773TIP3    H229879   4.175   2.952   0.187  0.9134  1.1406 -1.8636
 2774TIP3   OH229880   4.197   0.920   7.999  0.1090  1.1033 -0.4271
 2774TIP3    H129881   4.223   0.959   8.083 -1.4586  0.6915  0.2766
 2774TIP3    H229882   4.133   0.853   8.022 -0.1284  0.7802 -1.9413
 2775TIP3   OH229883   3.958   2.239   0.049 -0.0992  0.4393 -0.0558
 2775TIP3    H129884   3.888   2.302   0.036 -1.0792 -0.5025  0.4625
 2775TIP3    H229885   4.012   2.246  -0.031 -1.3410  0.4969 -0.9158
 2776TIP3   OH229886   0.352   6.469   1.921  0.7458  0.4863 -0.1391
 2776TIP3    H129887   0.424   6.466   1.858  2.6282 -0.3822  1.9067
 2776TIP3    H229888   0.371   6.545   1.977  0.2905  0.0255  0.6702
 2777TIP3   OH229889   5.137   5.125   3.189 -0.2909 -0.4403  0.3349
 2777TIP3    H129890   5.070   5.074   3.235 -0.9979 -1.6980 -1.9496
 2777TIP3    H229891   5.178   5.063   3.129  1.8066  0.7163  0.4587
 2778TIP3   OH229892   2.334   5.550   0.317  0.1694  0.0841 -0.2550
 2778TIP3    H129893   2.247   5.544   0.278 -1.4723  0.2675  3.0423
 2778TIP3    H229894   2.373   5.465   0.300 -0.6123 -0.0189 -1.7744
 2779TIP3   OH229895   2.632   4.341   0.452 -0.0681 -0.0455 -0.1632
 2779TIP3    H129896   2.658   4.347   0.544  0.0487 -0.1781 -0.1873
 2779TIP3    H229897   2.648   4.428   0.416  0.3030 -0.1158 -0.1685
 2780TIP3   OH229898   4.178   4.566   7.672 -0.7761 -0.1069  0.3828
 2780TIP3    H129899   4.200   4.623   7.745 -2.4595  1.3586 -0.1798
 2780TIP3    H229900   4.262   4.549   7.629  0.0188  0.2996  1.7226
 2781TIP3   OH229901   1.785   5.833   7.511 -0.3063 -0.1559 -1.2511
 2781TIP3    H129902   1.863   5.783   7.490 -0.5049 -0.9620 -0.1568
 2781TIP3    H229903   1.796   5.916   7.465  0.9977 -0.4116 -1.4274
 2782TIP3   OH229904   3.431   2.574   1.717 -0.7890  0.0092 -0.1538
 2782TIP3    H129905   3.482   2.495   1.697 -0.2906  0.2290  0.2282
 2782TIP3    H229906   3.357   2.542   1.769 -0.8156 -0.2601 -0.3547
 2783TIP3   OH229907   3.021   2.567   1.286  0.1132 -0.5685  0.5620
 2783TIP3    H129908   3.034   2.651   1.243 -0.9144 -0.7642 -0.1495
 2783TIP3    H229909   3.039   2.502   1.218  1.8558 -0.9846  1.3551
 2784TIP3   OH229910   0.821   6.526   7.869 -0.1005 -0.1010 -0.4572
 2784TIP3    H129911   0.786   6.534   7.780 -1.0940 -0.2161 -0.0921
 2784TIP3    H229912   0.874   6.447   7.867  0.1179  0.0532 -1.0186
 2785TIP3   OH229913   2.135   4.680   8.044  0.4252 -0.3388  0.2881
 2785TIP3    H129914   2.053   4.703   8.001 -0.2636 -0.9984  1.2079
 2785TIP3    H229915   2.202   4.697   7.978 -0.5060 -0.4255 -0.7085
 2786TIP3   OH229916   0.303   3.467   8.720 -0.1644  0.1661 -0.4065
 2786TIP3    H129917   0.366   3.398   8.702 -0.5383 -0.4763  0.6098
 2786TIP3    H229918   0.330   3.541   8.665 -0.3115 -1.0893 -2.2203
 2787TIP3   OH229919   0.072   3.845   8.281  0.0368  0.3413 -0.2020
 2787TIP3    H129920   0.111   3.760   8.301 -0.1106  0.2165 -0.4309
 2787TIP3    H229921  -0.015   3.841   8.321  0.1662  0.5211  0.0927
 2788TIP3   OH229922   2.978   1.888   7.391 -0.2138  0.0377 -0.2351
 2788TIP3    H129923   2.928   1.821   7.345  0.3955 -0.7940  0.3037
 2788TIP3    H229924   3.065   1.886   7.351 -0.3282  0.8497 -0.5445
 2789TIP3   OH229925   2.221   3.931   0.741 -0.1112 -0.2086  0.0298
 2789TIP3    H129926   2.260   3.899   0.660  0.9053 -0.8647  0.7562
 2789TIP3    H229927   2.229   4.026   0.736  0.3113 -0.2660 -0.4667
 2790TIP3   OH229928   3.083   2.472   8.044  0.3979 -0.3638 -0.0098
 2790TIP3    H129929   3.039   2.396   8.080 -0.2031  1.1886  2.7797
 2790TIP3    H229930   3.162   2.482   8.097  0.7875  0.6196 -0.7389
 2791TIP3   OH229931   2.324   6.074   0.090 -0.7513 -0.5965 -0.1144
 2791TIP3    H129932   2.255   6.025   0.136 -0.1234  0.4917  2.1206
 2791TIP3    H229933   2.377   6.007   0.047 -2.6153 -1.5140 -1.1252
 2792TIP3   OH229934   0.828   5.018   6.871 -0.1120  0.5089  0.3760
 2792TIP3    H129935   0.737   4.986   6.868 -0.0560  0.0778  2.0115
 2792TIP3    H229936   0.823   5.107   6.838 -1.6551  1.4658  2.9025
 2793TIP3   OH229937   0.796   5.607   2.135 -0.3961  1.1533  0.2144
 2793TIP3    H129938   0.816   5.526   2.182 -0.7521 -1.2396 -3.3507
 2793TIP3    H229939   0.712   5.591   2.094  1.4293  1.4114 -4.1358
 2794TIP3   OH229940   0.865   1.980   2.895  0.4861  0.4260 -0.2405
 2794TIP3    H129941   0.927   2.050   2.871  0.8849 -0.0073 -0.4829
 2794TIP3    H229942   0.783   2.026   2.912  1.3086  1.2191  1.8247
 2795TIP3   OH229943   5.293   0.450   1.187  0.7363 -0.3367 -0.2236
 2795TIP3    H129944   5.223   0.386   1.175  1.9754 -1.8011  0.0811
 2795TIP3    H229945   5.350   0.412   1.253  2.7825 -0.0588 -1.7167
 2796TIP3   OH229946   0.248   3.343   1.416 -0.1370 -0.0861 -0.5766
 2796TIP3    H129947   0.318   3.312   1.473 -0.5125 -1.4821 -0.8564
 2796TIP3    H229948   0.285   3.339   1.328 -0.4992 -0.6644 -0.7070
 2797TIP3   OH229949   6.154   5.813   7.069  0.4553  0.0562 -0.8533
 2797TIP3    H129950   6.186   5.903   7.076 -1.1628  0.5705  0.9071
 2797TIP3    H229951   6.170   5.775   7.156 -0.6641 -0.6766 -0.9385
 2798TIP3   OH229952   5.820   2.582   0.979  0.0178 -0.1922 -1.5175
 2798TIP3    H129953   5.827   2.511   0.916 -3.3345 -0.7303 -1.4469
 2798TIP3    H229954   5.739   2.564   1.028  1.7603  0.8869  2.1189
 2799TIP3   OH229955   2.059   6.685   0.727 -0.3167 -0.1533  0.1691
 2799TIP3    H129956   2.134   6.700   0.670 -0.6862  1.2546  0.0079
 2799TIP3    H229957   2.054   6.764   0.781 -1.5275 -0.3315  0.3536
 2800TIP3   OH229958   5.087   1.202   1.748  0.3803  0.2139  0.3140
 2800TIP3    H129959   5.073   1.289   1.712 -0.4815  0.1569  0.4986
 2800TIP3    H229960   5.019   1.193   1.815  0.7328 -0.4367  0.5894
 2801TIP3   OH229961   4.585   0.677   1.807 -0.0482  0.6817  0.2565
 2801TIP3    H129962   4.667   0.636   1.781 -0.0853  1.3175 -0.9315
 2801TIP3    H229963   4.578   0.659   1.901  1.1781  0.1686  0.2683
 2802TIP3   OH229964   2.505   1.290   0.210 -0.0286  0.4329 -0.1610
 2802TIP3    H129965   2.489   1.307   0.117  0.1809 -1.0856 -0.4926
 2802TIP3    H229966   2.456   1.210   0.229 -2.0550  2.0109  1.6677
 2803TIP3   OH229967   5.660   4.910   2.047 -0.1242 -0.0141  0.0491
 2803TIP3    H129968   5.650   4.877   2.136  2.2318  1.5147  0.9719
 2803TIP3    H229969   5.642   5.004   2.054 -2.6632 -0.2593 -1.7231
 2804TIP3   OH229970   1.375   3.211   1.957  0.3358  0.3659 -0.0986
 2804TIP3    H129971   1.286   3.177   1.964  0.6099 -0.6403 -1.2305
 2804TIP3    H229972   1.428   3.151   2.009  0.4353  0.6658  0.1502
 2805TIP3   OH229973   4.606   0.661   7.783 -0.2721 -0.1635  0.4195
 2805TIP3    H129974   4.585   0.754   7.775 -0.0785 -0.0941  0.6833
 2805TIP3    H229975   4.573   0.636   7.869  0.8030 -0.0191  0.8972
 2806TIP3   OH229976   6.166   4.939   2.155 -0.2846  0.2102 -0.0515
 2806TIP3    H129977   6.105   4.913   2.086 -0.5956  0.8025 -0.0016
 2806TIP3    H229978   6.229   4.866   2.159 -0.1387  0.2611 -1.1027
 2807TIP3   OH229979   3.168   0.108   2.741  0.4618  0.1529 -0.0669
 2807TIP3    H129980   3.099   0.042   2.744  0.0187  0.5817  3.4174
 2807TIP3    H229981   3.245   0.061   2.708 -1.0845 -0.5737 -3.0287
 2808TIP3   OH229982   3.923   3.861   2.588  0.3425 -0.0589 -0.3994
 2808TIP3    H129983   3.933   3.894   2.499 -2.4205  0.9482 -0.4251
 2808TIP3    H229984   3.829   3.846   2.598  0.2562  1.7872  2.9821
 2809TIP3   OH229985   1.089   4.531   7.549 -0.1360  0.2001  1.0943
 2809TIP3    H129986   1.052   4.454   7.593 -0.0577 -0.0845  0.6608
 2809TIP3    H229987   1.069   4.519   7.456  2.0818 -0.5691  0.6535
 2810TIP3   OH229988   3.511   0.334   7.858  0.1013 -0.1617 -0.5112
 2810TIP3    H129989   3.528   0.331   7.953 -1.5324  1.6745 -0.0724
 2810TIP3    H229990   3.598   0.337   7.818  0.8426  0.5169  1.0464
 2811TIP3   OH229991   0.248   1.938   1.208  0.0663  0.3219  0.2520
 2811TIP3    H129992   0.177   2.002   1.203 -0.1171  0.0839 -0.1883
 2811TIP3    H229993   0.236   1.895   1.293 -1.1142 -0.6353 -0.3741
 2812TIP3   OH229994   5.353   1.393   1.681  0.0267 -0.1674  0.4828
 2812TIP3    H129995   5.357   1.355   1.593  2.6378 -0.0469  0.4777
 2812TIP3    H229996   5.300   1.472   1.670 -1.3870 -1.1904 -0.5165
 2813TIP3   OH229997   1.006   3.722   8.300  0.0336  0.4126 -0.1494
 2813TIP3    H129998   1.027   3.781   8.228  1.6806 -1.0657 -0.9411
 2813TIP3    H229999   1.073   3.741   8.366 -0.0446  0.1268  0.0118
 2814TIP3   OH230000   0.517   4.553   0.708  0.0259  0.7468  0.4159
 2814TIP3    H130001   0.563   4.617   0.762  1.0863  0.6234 -0.3094
 2814TIP3    H230002   0.565   4.471   0.722 -1.9423 -0.2125  2.1679
 2815TIP3   OH230003   4.087   2.160   6.950  0.3328  0.2456 -0.3815
 2815TIP3    H130004   4.119   2.237   6.903 -3.0619  0.0076 -3.5869
 2815TIP3    H230005   4.156   2.094   6.937  1.0740  1.2764 -2.0440
 2816TIP3   OH230006   2.037   3.753   8.571 -0.7312  0.2942  0.3814
 2816TIP3    H130007   1.969   3.686   8.580  0.8981 -1.7299 -1.3810
 2816TIP3    H230008   2.080   3.732   8.489  2.0966  1.4387  1.4648
 2817TIP3   OH230009   2.468   5.913   1.945  0.1245  0.4682 -0.5476
 2817TIP3    H130010   2.485   5.986   2.004  1.6328  1.4822 -2.1363
 2817TIP3    H230011   2.412   5.854   1.995  1.6538  1.0456  2.0583
 2818TIP3   OH230012   1.376   3.605   8.604  0.0039 -0.6040  0.4391
 2818TIP3    H130013   1.402   3.662   8.677  1.0448 -0.2354 -0.1899
 2818TIP3    H230014   1.412   3.520   8.626 -1.2107 -0.9565  1.1879
 2819TIP3   OH230015   5.735   0.487   1.090  0.1410  0.5663 -0.3778
 2819TIP3    H130016   5.767   0.567   1.047  0.2567 -0.7636 -3.0034
 2819TIP3    H230017   5.814   0.440   1.116  0.0957  0.9400  0.4359
 2820TIP3   OH230018   6.511   5.523   1.390 -0.4323 -0.7191 -0.2956
 2820TIP3    H130019   6.421   5.532   1.421 -0.5952 -0.5094 -0.8089
 2820TIP3    H230020   6.562   5.580   1.447 -1.0135  1.2383 -1.6093
 2821TIP3   OH230021   6.783   5.670   1.785 -0.1904 -0.3035  0.4817
 2821TIP3    H130022   6.822   5.741   1.837  1.7624 -0.5660 -0.5182
 2821TIP3    H230023   6.815   5.590   1.828 -0.8276 -0.5599  0.4820
 2822TIP3   OH230024   1.122   6.055   8.403 -0.2948 -0.8186 -0.5127
 2822TIP3    H130025   1.111   5.974   8.453  0.8653 -0.8350 -0.2751
 2822TIP3    H230026   1.042   6.105   8.422 -0.7809 -1.6790 -0.2451
 2823TIP3   OH230027   4.455   3.459   0.565 -0.2290 -0.0136 -0.5248
 2823TIP3    H130028   4.399   3.499   0.632  0.0785 -1.6207  0.7408
 2823TIP3    H230029   4.532   3.516   0.563 -0.5571  0.4679 -0.0575
 2824TIP3   OH230030   0.659   6.523   8.080 -0.2278 -0.0671 -0.5697
 2824TIP3    H130031   0.617   6.609   8.086 -2.4949 -1.0731 -0.8151
 2824TIP3    H230032   0.719   6.530   8.005  0.7553  1.6913  0.3241
 2825TIP3   OH230033   3.957   0.642   0.072  0.1967  0.0471 -0.2953
 2825TIP3    H130034   3.938   0.735   0.065 -0.7301 -0.2360 -2.1434
 2825TIP3    H230035   3.871   0.600   0.075  0.5985 -0.7758  0.3074
 2826TIP3   OH230036   5.240   5.190   1.956 -0.2823 -0.2494  0.0318
 2826TIP3    H130037   5.319   5.241   1.974 -0.0714 -0.3212 -0.6534
 2826TIP3    H230038   5.213   5.218   1.868  0.1414 -1.6903 -0.5888
 2827TIP3   OH230039   3.306   3.626   2.201  0.2338  0.2589 -0.1981
 2827TIP3    H130040   3.280   3.683   2.274  2.2006  1.3142 -0.2448
 2827TIP3    H230041   3.227   3.577   2.179 -0.9857  1.5055  1.2009
 2828TIP3   OH230042   6.206   3.864   1.526 -0.0530  0.4107  0.0251
 2828TIP3    H130043   6.121   3.881   1.566 -0.4475  1.9325 -1.3483
 2828TIP3    H230044   6.192   3.786   1.473  0.4219 -1.4999  2.5398
 2829TIP3   OH230045   2.726   5.164   8.791  0.0176 -0.2620 -0.9248
 2829TIP3    H130046   2.667   5.089   8.795  0.6710 -0.7564  0.3360
 2829TIP3    H230047   2.725   5.200   8.880 -1.2025  1.9991 -1.7951
 2830TIP3   OH230048   4.468   0.552   7.547 -0.0980  0.0381 -0.1675
 2830TIP3    H130049   4.417   0.538   7.627 -0.9817  2.6281 -0.1649
 2830TIP3    H230050   4.557   0.568   7.577  0.4338 -2.7322 -0.0418
 2831TIP3   OH230051   4.220   4.930   0.685 -0.2400 -0.5223  0.6326
 2831TIP3    H130052   4.133   4.905   0.716 -0.3810  0.9338  1.5465
 2831TIP3    H230053   4.213   5.024   0.668  0.7458 -0.6668 -0.8048
 2832TIP3   OH230054   4.601   0.357   8.394 -0.0858 -0.0031  0.0636
 2832TIP3    H130055   4.689   0.332   8.366  0.4100  0.5520  1.0677
 2832TIP3    H230056   4.575   0.425   8.333 -0.2796 -0.9359 -0.9181
 2833TIP3   OH230057   0.405   1.617   0.024  0.1685 -0.2528 -0.3174
 2833TIP3    H130058   0.389   1.606   0.118  0.5172 -1.7953 -0.4195
 2833TIP3    H230059   0.366   1.702   0.003 -3.5414 -1.5825  0.4040
 2834TIP3   OH230060   5.284   0.534   8.265  0.1872  0.4214  0.2623
 2834TIP3    H130061   5.349   0.467   8.249  0.1300  0.4392 -0.0548
 2834TIP3    H230062   5.333   0.616   8.264  0.0902  0.4834 -0.5070
 2835TIP3   OH230063   0.902   0.156   7.650  0.0048 -0.5067 -0.1589
 2835TIP3    H130064   0.889   0.222   7.718 -0.8037  0.0237 -0.8079
 2835TIP3    H230065   0.826   0.098   7.658  0.8035 -1.4955  0.5325
 2836TIP3   OH230066   6.112   6.010   8.796 -0.1144  0.2288  0.5112
 2836TIP3    H130067   6.113   6.070   8.871 -1.6496  0.2693  0.5230
 2836TIP3    H230068   6.071   5.930   8.830 -2.2266  0.7616 -0.6149
 2837TIP3   OH230069   4.349   2.716   7.276 -0.2811 -0.2139  0.1609
 2837TIP3    H130070   4.445   2.714   7.284 -0.2812 -1.5754  0.1284
 2837TIP3    H230071   4.320   2.634   7.317 -1.2449 -0.9405 -1.8136
 2838TIP3   OH230072   3.681   5.967   2.083  0.2120  0.2605 -0.3542
 2838TIP3    H130073   3.734   5.991   2.159  0.3576  2.5872 -1.1104
 2838TIP3    H230074   3.598   6.013   2.096 -0.3437 -0.5614 -0.8705
 2839TIP3   OH230075   1.005   1.775   7.580 -0.0144  0.3347  0.2005
 2839TIP3    H130076   0.977   1.867   7.582  0.1792  0.3784  1.1081
 2839TIP3    H230077   1.022   1.753   7.671  1.4536 -0.1442 -0.1619
 2840TIP3   OH230078   5.624   0.601   8.301 -0.3022  0.2972 -0.1671
 2840TIP3    H130079   5.614   0.656   8.379 -1.3680  1.5411 -1.1437
 2840TIP3    H230080   5.575   0.522   8.321 -1.3136  0.9765  0.0917
 2841TIP3   OH230081   4.072   0.658   8.007 -0.2689  0.6310 -0.0373
 2841TIP3    H130082   4.015   0.675   7.932  1.0408  2.0367 -0.7807
 2841TIP3    H230083   4.064   0.565   8.024  0.0002  0.1100 -2.4643
 2842TIP3   OH230084   1.940   4.140   6.656  0.2567 -0.3138 -0.5134
 2842TIP3    H130085   1.869   4.205   6.664  1.0574  0.7353 -1.6669
 2842TIP3    H230086   1.895   4.059   6.630 -0.7124 -0.1372  0.5327
 2843TIP3   OH230087   1.907   6.450   7.930  0.2271  0.5018  0.0353
 2843TIP3    H130088   1.909   6.516   7.999  0.5414 -0.8877  1.4052
 2843TIP3    H230089   1.983   6.471   7.875  0.7369  0.8736  0.8555
 2844TIP3   OH230090   0.410   4.855   0.256 -0.3748  0.3204 -0.3755
 2844TIP3    H130091   0.402   4.874   0.163 -0.7065  0.0902 -0.3944
 2844TIP3    H230092   0.501   4.826   0.267  0.1115  1.7956 -0.3577
 2845TIP3   OH230093   4.375   2.357   1.370 -0.4626 -0.2143  0.4572
 2845TIP3    H130094   4.333   2.296   1.308  2.5468 -1.8514 -0.1776
 2845TIP3    H230095   4.443   2.400   1.318  0.1610  0.6305  1.9252
 2846TIP3   OH230096   4.628   5.037   8.481  0.1597 -0.0464 -0.1136
 2846TIP3    H130097   4.549   5.090   8.488 -0.6565 -1.3097  0.8034
 2846TIP3    H230098   4.614   4.982   8.404  0.2072 -0.1832 -0.0250
 2847TIP3   OH230099   1.310   4.567   7.697 -0.1974 -0.5133  0.0956
 2847TIP3    H130100   1.263   4.609   7.769  0.1060  0.5850 -0.3262
 2847TIP3    H230101   1.244   4.559   7.627 -0.0017  0.2252 -0.1857
 2848TIP3   OH230102   3.078   6.255   8.430  0.1125 -0.5213 -0.2280
 2848TIP3    H130103   3.051   6.336   8.473 -0.4879  0.3705 -2.1556
 2848TIP3    H230104   3.173   6.258   8.431  0.1337 -0.7119  1.2873
 2849TIP3   OH230105   0.483   3.024   0.418  0.2862  0.1051  0.1329
 2849TIP3    H130106   0.475   2.929   0.423 -2.0516  0.3080  2.5397
 2849TIP3    H230107   0.509   3.051   0.506  0.4100  1.7413 -0.3622
 2850TIP3   OH230108   3.255   1.772   3.279  0.2378  0.0619 -0.1630
 2850TIP3    H130109   3.175   1.795   3.326 -0.5449 -1.6797 -0.5606
 2850TIP3    H230110   3.258   1.832   3.205  0.4626  1.5528  1.0208
 2851TIP3   OH230111   2.045   3.533   8.209 -0.3888  0.1952  0.3114
 2851TIP3    H130112   1.965   3.547   8.158 -0.5936 -0.0884  0.5510
 2851TIP3    H230113   2.088   3.460   8.164  0.3098  1.0748 -0.4988
 2852TIP3   OH230114   0.818   5.909   0.843  0.3506  0.0914 -0.0374
 2852TIP3    H130115   0.896   5.933   0.793  0.5042 -2.3978 -1.1312
 2852TIP3    H230116   0.841   5.925   0.934  0.8658  2.6173 -0.5404
 2853TIP3   OH230117   6.349   2.136   1.887  0.1715  0.0036 -0.1247
 2853TIP3    H130118   6.275   2.196   1.895 -0.0995 -0.5246  1.6353
 2853TIP3    H230119   6.310   2.049   1.893  1.0049 -0.2854  2.1909
 2854TIP3   OH230120   6.548   5.278   8.218  0.4161 -0.0920  0.4931
 2854TIP3    H130121   6.520   5.209   8.279  1.2217  0.4503  1.5275
 2854TIP3    H230122   6.495   5.354   8.242 -0.7028 -0.4162 -0.8626
 2855TIP3   OH230123   6.553   1.673   8.210  0.5276 -0.6262 -0.2524
 2855TIP3    H130124   6.502   1.688   8.289  1.0485  0.9282 -0.1734
 2855TIP3    H230125   6.526   1.743   8.151  1.8099 -0.3954 -0.5887
 2856TIP3   OH230126   3.393   4.576   8.799 -0.1589 -0.1934 -0.0518
 2856TIP3    H130127   3.392   4.599   8.706 -1.7698  0.4997  0.0932
 2856TIP3    H230128   3.435   4.651   8.842 -2.3514  1.0593  0.0663
 2857TIP3   OH230129   0.260   1.713   7.284  0.1370 -0.0402 -0.5423
 2857TIP3    H130130   0.225   1.801   7.290 -0.5860 -0.4388  2.0500
 2857TIP3    H230131   0.348   1.725   7.247  0.2126  1.7937  0.1519
 2858TIP3   OH230132   1.606   1.730   0.042  0.2853  1.0088  0.9051
 2858TIP3    H130133   1.690   1.748   0.000  0.2671  0.9932  0.8616
 2858TIP3    H230134   1.543   1.733  -0.029  0.5768 -1.6808  0.4323
 2859TIP3   OH230135   5.003   4.065   2.211  0.1498  0.2305  0.3728
 2859TIP3    H130136   4.966   3.999   2.152  2.1553  0.1498 -0.8768
 2859TIP3    H230137   4.927   4.114   2.242 -1.3356 -2.1020  0.6992
 2860TIP3   OH230138   6.144   3.216   2.579  0.6161  0.4671  0.2037
 2860TIP3    H130139   6.107   3.304   2.582 -1.9673 -0.4723 -0.6206
 2860TIP3    H230140   6.191   3.206   2.661  0.2896  2.3431  0.6578
 2861TIP3   OH230141   3.001   0.068   0.944  0.4632 -0.1781  0.2051
 2861TIP3    H130142   3.023   0.131   1.013  0.5432 -0.3811  0.3662
 2861TIP3    H230143   2.986   0.122   0.866 -2.0817  0.3182  0.9310
 2862TIP3   OH230144   3.703   1.813   2.114 -0.5549  0.7559 -0.0394
 2862TIP3    H130145   3.671   1.767   2.036  0.4965  1.3824 -0.8625
 2862TIP3    H230146   3.783   1.767   2.138 -0.0496  1.5059 -0.2541
 2863TIP3   OH230147   1.158   1.888   1.839 -0.1552  0.4521  0.2844
 2863TIP3    H130148   1.205   1.971   1.837 -0.9131  0.9469  1.5298
 2863TIP3    H230149   1.182   1.844   1.757  1.5204  1.1772  0.3544
 2864TIP3   OH230150   5.674   5.334   1.545 -0.2846 -0.2751  0.5151
 2864TIP3    H130151   5.730   5.411   1.560  0.5832 -0.4840 -1.3459
 2864TIP3    H230152   5.731   5.272   1.500 -2.1077 -0.2641 -2.0506
 2865TIP3   OH230153   2.445   6.387   7.732 -0.3237  0.2309 -0.4467
 2865TIP3    H130154   2.478   6.330   7.802 -0.5087  0.2758 -0.3237
 2865TIP3    H230155   2.445   6.474   7.771  2.4812  0.7829 -1.4351
 2866TIP3   OH230156   4.926   3.071   2.811 -0.1031  0.1387  0.4346
 2866TIP3    H130157   4.943   3.058   2.904 -1.3728 -0.8179  0.5591
 2866TIP3    H230158   4.836   3.105   2.807 -0.2913 -0.4079 -0.4552
 2867TIP3   OH230159   0.822   5.370   7.722 -0.8012  0.2919 -0.3405
 2867TIP3    H130160   0.773   5.378   7.804  0.6918 -1.3077  0.7910
 2867TIP3    H230161   0.913   5.389   7.747 -0.4401  0.6237 -1.8176
 2868TIP3   OH230162   3.761   6.658   7.921 -0.0986  0.3706 -0.3042
 2868TIP3    H130163   3.836   6.714   7.900 -1.5567  1.6633 -2.4849
 2868TIP3    H230164   3.736   6.620   7.837 -1.2954 -0.8129  0.5573
 2869TIP3   OH230165   3.642   0.898   8.469  0.0445 -0.4240  0.0150
 2869TIP3    H130166   3.633   0.818   8.416 -0.0535 -0.8282  0.6342
 2869TIP3    H230167   3.575   0.957   8.435  0.5391 -0.3566 -0.8783
 2870TIP3   OH230168   3.385   1.405   8.515 -0.2353 -0.1019  0.2317
 2870TIP3    H130169   3.419   1.333   8.568  0.2888  0.5554  0.8172
 2870TIP3    H230170   3.290   1.401   8.527 -0.2411 -0.9221 -0.0532
 2871TIP3   OH230171   6.117   6.549   6.894 -0.3578 -0.1461  0.1490
 2871TIP3    H130172   6.087   6.618   6.834  0.2758 -0.4226 -0.5027
 2871TIP3    H230173   6.196   6.585   6.934  1.2768 -1.3111 -1.8613
 2872TIP3   OH230174   6.559   3.844   2.659  0.1402  0.3957 -0.2790
 2872TIP3    H130175   6.534   3.900   2.733  0.4547 -0.0593  0.1818
 2872TIP3    H230176   6.601   3.903   2.597  0.4805  0.6744  0.2039
 2873TIP3   OH230177   6.569   5.183   8.692 -0.1456  0.6610 -0.2011
 2873TIP3    H130178   6.579   5.180   8.597  0.3327  0.8014 -0.1584
 2873TIP3    H230179   6.575   5.277   8.713 -1.9539  0.8070 -0.2058
 2874TIP3   OH230180   6.443   0.703   0.201 -0.3611  0.0402 -0.6781
 2874TIP3    H130181   6.398   0.624   0.231  0.6091  0.0725  0.9785
 2874TIP3    H230182   6.492   0.675   0.123  0.2872 -1.1094  0.1170
 2875TIP3   OH230183   5.288   5.436   3.222 -0.4655 -0.2344 -0.3261
 2875TIP3    H130184   5.234   5.390   3.285 -0.6433  0.5005  0.0683
 2875TIP3    H230185   5.246   5.521   3.212  0.2526  0.1065 -0.5039
 2876TIP3   OH230186   5.692   6.085   0.970  0.0866  0.5045  0.2040
 2876TIP3    H130187   5.723   6.000   0.937  0.0907  0.0604  1.3105
 2876TIP3    H230188   5.743   6.150   0.921 -0.4580 -0.1035 -1.1960
 2877TIP3   OH230189   5.092   1.136   0.093  0.2795  0.1265 -0.5283
 2877TIP3    H130190   5.072   1.132  -0.000 -0.5899  0.9715 -0.3954
 2877TIP3    H230191   5.038   1.067   0.133 -1.0442  1.2148 -0.3936
 2878TIP3   OH230192   5.579   0.333   0.927 -0.0380  0.3826  0.3327
 2878TIP3    H130193   5.524   0.293   0.995 -1.2266  1.3338 -0.0134
 2878TIP3    H230194   5.628   0.401   0.974  1.8986 -1.3026  0.8983
 2879TIP3   OH230195   3.279   0.339   8.720  0.5599  0.0286  0.2256
 2879TIP3    H130196   3.248   0.308   8.805 -0.5355  0.2443 -0.0772
 2879TIP3    H230197   3.297   0.432   8.734 -2.4086  0.8287 -0.4175
 2880TIP3   OH230198   1.572   0.695   0.246 -0.6498  0.2333  0.0687
 2880TIP3    H130199   1.535   0.744   0.320 -0.4037  0.3357  0.1258
 2880TIP3    H230200   1.568   0.757   0.173  0.2964  0.5914  0.3004
 2881TIP3   OH230201   2.628   3.107   7.943  0.7543 -0.0159  0.2562
 2881TIP3    H130202   2.611   3.069   7.857 -2.1805 -1.5238  1.3649
 2881TIP3    H230203   2.718   3.141   7.937  2.0012 -3.2485 -2.2438
 2882TIP3   OH230204   1.893   0.123   8.070  0.3893  0.1004  0.1267
 2882TIP3    H130205   1.967   0.127   8.131  0.1698 -3.0501  0.7806
 2882TIP3    H230206   1.824   0.174   8.112  1.4316  1.1435  0.6203
 2883TIP3   OH230207   4.607   5.647   2.932 -0.2150  0.0193  0.2058
 2883TIP3    H130208   4.700   5.625   2.932 -0.3506 -0.6146 -0.6746
 2883TIP3    H230209   4.598   5.715   2.999  0.6486 -0.8637  1.2502
 2884TIP3   OH230210   1.631   0.328   7.350 -0.3802  0.4376  0.2347
 2884TIP3    H130211   1.583   0.391   7.296 -1.8942  0.4199  1.5097
 2884TIP3    H230212   1.626   0.246   7.301  1.0815  1.0976 -1.1347
 2885TIP3   OH230213   3.689   1.506   0.435 -0.4127  0.0566 -0.2804
 2885TIP3    H130214   3.658   1.433   0.488  1.4410 -0.6763 -0.1049
 2885TIP3    H230215   3.756   1.548   0.489  0.2383  0.4072 -1.3257
 2886TIP3   OH230216   6.056   3.441   8.327  0.0663 -0.3856 -0.4552
 2886TIP3    H130217   6.151   3.454   8.322 -0.0904  0.7195 -1.0843
 2886TIP3    H230218   6.020   3.515   8.278 -1.1236 -0.7869 -0.2133
 2887TIP3   OH230219   0.562   2.388   8.621  0.1426 -0.3717  0.0512
 2887TIP3    H130220   0.581   2.478   8.594 -0.6088  0.2449  1.4804
 2887TIP3    H230221   0.471   2.374   8.594  0.6241 -1.1759 -1.2818
 2888TIP3   OH230222   4.736   6.562   8.653  0.3728 -0.0458 -0.2314
 2888TIP3    H130223   4.700   6.642   8.690 -0.5148 -0.4797 -0.1467
 2888TIP3    H230224   4.804   6.593   8.592  2.3740  0.6590  2.2124
 2889TIP3   OH230225   5.854   3.587   1.615  0.6159  0.4951  0.2416
 2889TIP3    H130226   5.943   3.609   1.643  0.7282 -1.2641  1.4382
 2889TIP3    H230227   5.798   3.615   1.688  0.6018 -1.4537  1.0578
 2890TIP3   OH230228   6.745   4.682   1.464 -0.4637  0.3153 -0.0725
 2890TIP3    H130229   6.712   4.593   1.459  0.3699 -0.0749  1.0799
 2890TIP3    H230230   6.828   4.680   1.416 -1.0037  0.7759 -1.0701
 2891TIP3   OH230231   0.474   4.529   1.519 -0.4979 -0.6552  0.4205
 2891TIP3    H130232   0.408   4.590   1.551  0.0870 -0.3085  0.9969
 2891TIP3    H230233   0.549   4.543   1.576  0.3175 -0.5558 -0.6465
 2892TIP3   OH230234   2.979   1.110   1.313 -0.1237  0.0910 -0.0974
 2892TIP3    H130235   3.037   1.037   1.292  0.6253  0.1719  1.5444
 2892TIP3    H230236   3.008   1.181   1.257  0.6743 -0.1868 -0.0421
 2893TIP3   OH230237   5.624   3.515   8.199  0.3077  0.3575  0.3301
 2893TIP3    H130238   5.581   3.571   8.134 -0.6829  0.3710  0.9607
 2893TIP3    H230239   5.664   3.576   8.261 -0.5560  0.3858  0.8789
 2894TIP3   OH230240   1.587   5.551   7.077  0.7061  0.2240 -0.2451
 2894TIP3    H130241   1.561   5.630   7.029  0.9230 -0.8282 -2.1734
 2894TIP3    H230242   1.659   5.514   7.026  0.9834 -0.9391  0.9268
 2895TIP3   OH230243   6.591   1.557   0.228  0.2716  0.4369 -0.4724
 2895TIP3    H130244   6.559   1.637   0.269 -0.2428  0.1587 -0.3138
 2895TIP3    H230245   6.657   1.586   0.166  0.0795  0.9855 -0.4250
 2896TIP3   OH230246   4.378   4.513   7.474 -0.2180  0.0495 -0.4985
 2896TIP3    H130247   4.355   4.583   7.412 -2.4831 -0.7245 -0.6503
 2896TIP3    H230248   4.346   4.433   7.432 -0.0223 -0.7515  0.8144
 2897TIP3   OH230249   0.825   0.547   0.072 -0.5542  0.5771  0.3473
 2897TIP3    H130250   0.857   0.628   0.033 -1.9124  0.3909 -1.2765
 2897TIP3    H230251   0.859   0.548   0.162  1.1111  1.9492 -0.2414
 2898TIP3   OH230252   2.482   6.659   2.576  0.7843  0.2194 -0.4617
 2898TIP3    H130253   2.484   6.592   2.508  0.3914  1.5645 -1.8494
 2898TIP3    H230254   2.495   6.742   2.529 -1.9539  1.4449  0.7495
 2899TIP3   OH230255   1.289   6.045   7.900 -0.1854  0.3531  0.1088
 2899TIP3    H130256   1.268   5.997   7.820  0.7656  1.0407 -0.5774
 2899TIP3    H230257   1.229   6.010   7.966 -1.6201  0.4093 -1.1206
 2900TIP3   OH230258   3.905   1.159   2.513 -0.2938 -0.4205 -0.2177
 2900TIP3    H130259   3.874   1.077   2.552 -0.7974  0.8385  2.2118
 2900TIP3    H230260   3.827   1.214   2.507  0.2400  0.3015 -0.7271
 2901TIP3   OH230261   4.700   6.043   7.065  0.1799 -0.2387 -0.1978
 2901TIP3    H130262   4.713   6.068   6.973 -1.5101  0.6808 -0.2113
 2901TIP3    H230263   4.614   6.078   7.088  0.2311 -1.1434  1.5162
 2902TIP3   OH230264   4.827   6.702   2.739 -0.0765 -0.3357 -0.1713
 2902TIP3    H130265   4.878   6.630   2.775  4.0092  2.3682  0.1041
 2902TIP3    H230266   4.775   6.733   2.813  0.2499 -1.2548  0.4673
 2903TIP3   OH230267   6.294   0.326   8.723  0.3326 -0.3483  0.4646
 2903TIP3    H130268   6.214   0.321   8.671  0.2033  0.7057  0.5331
 2903TIP3    H230269   6.264   0.319   8.814  0.0150  2.2073  0.6330
 2904TIP3   OH230270   3.947   5.627   7.961  0.0240 -0.2538 -0.3849
 2904TIP3    H130271   4.019   5.682   7.989 -0.0988 -1.4918  2.7916
 2904TIP3    H230272   3.873   5.656   8.015 -1.4791 -0.0531 -2.4483
 2905TIP3   OH230273   5.863   3.999   6.633  0.4362 -0.0357 -0.2886
 2905TIP3    H130274   5.795   4.031   6.692  0.1149 -0.1282 -0.6086
 2905TIP3    H230275   5.868   3.905   6.650 -0.8786 -0.3859 -1.6282
 2906TIP3   OH230276   1.331   0.733   0.818  0.0330 -0.3957  0.5077
 2906TIP3    H130277   1.273   0.688   0.757  1.4226  0.3849 -1.5177
 2906TIP3    H230278   1.383   0.664   0.857 -0.2511 -0.8523  0.0910
 2907TIP3   OH230279   6.027   2.955   8.319 -0.0046  0.2415  0.4481
 2907TIP3    H130280   6.008   3.041   8.281 -1.8693 -0.2448  0.1890
 2907TIP3    H230281   6.026   2.970   8.413 -4.0734 -0.0690  0.6252
 2908TIP3   OH230282   2.746   6.611   1.687 -0.0339 -0.2680  0.0178
 2908TIP3    H130283   2.732   6.601   1.781  1.9476 -1.3406  0.2632
 2908TIP3    H230284   2.675   6.561   1.647  1.3856 -3.4248  1.0788
 2909TIP3   OH230285   5.198   5.712   2.439 -0.1815  0.0772 -0.4516
 2909TIP3    H130286   5.269   5.690   2.499  0.4576  1.7820 -0.5309
 2909TIP3    H230287   5.143   5.773   2.488 -0.2749  0.6158 -1.2080
 2910TIP3   OH230288   3.025   1.442   6.895  0.1613  0.0615 -0.2021
 2910TIP3    H130289   3.013   1.356   6.853  4.9649 -1.2860  0.6609
 2910TIP3    H230290   2.960   1.443   6.965 -2.2875 -1.2926 -2.2560
 2911TIP3   OH230291   5.400   4.626   2.437 -0.0026  0.4412  0.0186
 2911TIP3    H130292   5.495   4.634   2.434 -0.0496  0.7879 -0.5808
 2911TIP3    H230293   5.382   4.542   2.394 -0.1708  1.9235 -3.0438
 2912TIP3   OH230294   3.669   2.726   3.154 -0.5944  0.4099  0.0817
 2912TIP3    H130295   3.722   2.647   3.140 -0.8324  0.4778 -1.3956
 2912TIP3    H230296   3.712   2.772   3.225  0.7006 -0.0831 -0.3639
 2913TIP3   OH230297   0.456   0.544   2.202 -0.1836  0.1200 -0.2423
 2913TIP3    H130298   0.385   0.504   2.252 -0.2024 -0.3311 -0.6233
 2913TIP3    H230299   0.532   0.488   2.220 -0.7547 -1.6233 -2.7265
 2914TIP3   OH230300   3.081   1.712   0.840  0.0125  0.8792  0.3371
 2914TIP3    H130301   3.023   1.707   0.916  2.5685  1.1484  2.4207
 2914TIP3    H230302   3.084   1.805   0.819  0.9962  1.0902  1.3387
 2915TIP3   OH230303   6.220   0.357   2.505 -0.5991  0.5313 -0.3980
 2915TIP3    H130304   6.241   0.268   2.477 -0.5234  0.2357  0.5501
 2915TIP3    H230305   6.131   0.372   2.474 -0.4105  0.3292 -1.0365
 2916TIP3   OH230306   1.246   0.536   8.311 -0.7257 -0.7076 -0.4401
 2916TIP3    H130307   1.296   0.568   8.387  1.1656 -2.2232 -0.9391
 2916TIP3    H230308   1.168   0.496   8.349 -0.6910  0.1225  0.5481
 2917TIP3   OH230309   6.609   6.740   0.633 -0.3720 -0.4731  0.1369
 2917TIP3    H130310   6.612   6.813   0.695 -0.8714 -1.0816  0.9002
 2917TIP3    H230311   6.615   6.662   0.688 -0.0942 -1.0165 -0.6464
 2918TIP3   OH230312   2.306   2.025   7.632  0.0968  0.0855  0.2508
 2918TIP3    H130313   2.260   1.995   7.554  1.1666 -0.8645 -0.0499
 2918TIP3    H230314   2.297   2.120   7.632 -0.4431  0.0339 -0.6893
 2919TIP3   OH230315   4.642   4.951   7.144 -0.0730  0.0807  0.4462
 2919TIP3    H130316   4.566   4.976   7.092 -0.7674 -1.3641  0.7009
 2919TIP3    H230317   4.673   5.033   7.183 -1.8929  0.6379  0.8344
 2920TIP3   OH230318   4.245   2.967   7.184  0.0612 -0.3843  0.3408
 2920TIP3    H130319   4.276   2.891   7.234  0.8259 -0.3326 -0.0339
 2920TIP3    H230320   4.217   2.930   7.100  0.3064 -0.2705  0.2082
 2921TIP3   OH230321   6.409   1.146   7.698  0.5721 -0.6728  0.2965
 2921TIP3    H130322   6.430   1.099   7.779 -1.4778 -2.0748  0.0843
 2921TIP3    H230323   6.352   1.218   7.726  1.7522  0.2902  0.3260
 2922TIP3   OH230324   1.281   2.699   2.531  0.2982  0.0984  0.0829
 2922TIP3    H130325   1.199   2.736   2.499 -0.3206 -1.2511  0.0739
 2922TIP3    H230326   1.280   2.715   2.625 -0.5484 -0.9713  0.2690
 2923TIP3   OH230327   3.454   5.568   7.999 -0.4954  0.3088  0.3448
 2923TIP3    H130328   3.362   5.550   7.986 -0.5343  0.6836  0.0813
 2923TIP3    H230329   3.498   5.483   7.992 -0.6825  0.2977 -0.7010
 2924TIP3   OH230330   5.644   6.518   7.851  0.0445  0.1486 -0.2395
 2924TIP3    H130331   5.600   6.573   7.786 -1.6369 -0.8054  0.0170
 2924TIP3    H230332   5.729   6.497   7.812 -1.5338 -1.8113 -2.9854
 2925TIP3   OH230333   4.377   3.282   8.337 -0.7067  0.4684 -0.4535
 2925TIP3    H130334   4.303   3.272   8.277  0.5422 -3.9699 -1.6701
 2925TIP3    H230335   4.369   3.209   8.398  0.8052  1.9526  1.6796
 2926TIP3   OH230336   4.892   3.456   0.714  0.2381 -0.2082 -0.7068
 2926TIP3    H130337   4.818   3.416   0.759 -0.2688  2.1419  0.7673
 2926TIP3    H230338   4.936   3.509   0.781 -0.7774  3.8395 -2.8454
 2927TIP3   OH230339   2.361   2.317   7.694 -0.8105 -0.2120 -0.2665
 2927TIP3    H130340   2.291   2.362   7.646 -1.1996 -0.1635  0.3368
 2927TIP3    H230341   2.431   2.308   7.630 -1.8030 -1.3411 -1.2382
 2928TIP3   OH230342   1.471   2.022   0.709  0.0525  0.2800 -0.1380
 2928TIP3    H130343   1.395   2.047   0.762 -0.3059 -0.4049 -0.3306
 2928TIP3    H230344   1.526   2.101   0.709  0.7812 -0.1356  2.5075
 2929TIP3   OH230345   1.213   4.383   0.883  0.2848 -0.1816 -0.2272
 2929TIP3    H130346   1.272   4.418   0.950 -0.5321 -0.4539  0.6582
 2929TIP3    H230347   1.236   4.431   0.803  2.1656 -0.7680 -0.0775
 2930TIP3   OH230348   0.426   1.265   8.686  0.1120 -0.1321 -0.6386
 2930TIP3    H130349   0.424   1.310   8.601  0.9226  2.4187  0.5843
 2930TIP3    H230350   0.512   1.222   8.687  0.1958  0.0171 -1.0308
 2931TIP3   OH230351   1.658   5.664   2.066 -0.9669  0.1932  0.0327
 2931TIP3    H130352   1.737   5.666   2.120 -1.6027  1.4428  0.9545
 2931TIP3    H230353   1.622   5.752   2.073 -2.1208 -0.1874 -0.8706
 2932TIP3   OH230354   1.452   3.265   1.229  1.0474  0.0451  0.0160
 2932TIP3    H130355   1.527   3.294   1.282  0.2168 -0.0810  1.3171
 2932TIP3    H230356   1.448   3.329   1.158  2.6664 -0.2244 -0.3719
 2933TIP3   OH230357   3.294   1.773   1.565 -0.3057  0.2392 -0.1781
 2933TIP3    H130358   3.240   1.802   1.491 -0.2282 -0.4198 -0.4970
 2933TIP3    H230359   3.273   1.835   1.635 -2.9932 -1.1408  0.3521
 2934TIP3   OH230360   0.562   3.815   0.914 -0.9079  0.1034  0.2884
 2934TIP3    H130361   0.635   3.753   0.923 -0.5556  0.5960  0.8935
 2934TIP3    H230362   0.524   3.795   0.829 -1.4284 -1.6264  0.8887
 2935TIP3   OH230363   5.535   6.087   1.594 -0.2930  0.1165  0.5700
 2935TIP3    H130364   5.449   6.091   1.552  1.3294  0.8814 -3.1325
 2935TIP3    H230365   5.567   6.178   1.592  1.4816 -0.4728 -0.4217
 2936TIP3   OH230366   6.637   1.054   0.308 -0.0833  0.0804 -0.6563
 2936TIP3    H130367   6.630   1.142   0.346  0.4767  0.3280 -1.0968
 2936TIP3    H230368   6.578   1.056   0.233 -0.8119 -0.2458 -0.1013
 2937TIP3   OH230369   2.583   2.127   2.170  0.3115 -0.0462 -0.0047
 2937TIP3    H130370   2.522   2.104   2.240  0.4446 -2.6625 -0.6214
 2937TIP3    H230371   2.613   2.215   2.192 -2.3490  0.6412  1.2318
 2938TIP3   OH230372   2.152   3.445   0.687 -0.4270  0.2629 -0.0585
 2938TIP3    H130373   2.142   3.482   0.775  0.6519 -0.0610  0.2075
 2938TIP3    H230374   2.246   3.435   0.675 -0.6432 -2.3611 -0.1253
 2939TIP3   OH230375   2.822   4.058   0.201  0.4072 -0.4318 -0.3459
 2939TIP3    H130376   2.822   4.074   0.295 -0.1826 -0.5528 -0.3228
 2939TIP3    H230377   2.901   4.102   0.169  0.1180  0.4094  0.0713
 2940TIP3   OH230378   5.514   2.550   1.082  0.1181 -0.3162  0.1772
 2940TIP3    H130379   5.492   2.467   1.124 -1.9137 -0.8382 -1.6990
 2940TIP3    H230380   5.430   2.595   1.072  0.8296  0.7969 -1.1685
 2941TIP3   OH230381   5.213   3.331   0.743 -0.3282 -0.2361 -0.2899
 2941TIP3    H130382   5.181   3.421   0.747 -1.0431 -0.5079  0.2514
 2941TIP3    H230383   5.154   3.282   0.800  1.5696 -0.6052  1.5024
 2942TIP3   OH230384   6.527   0.644   0.815  0.3517 -0.0849 -0.6746
 2942TIP3    H130385   6.482   0.630   0.898 -0.8679  0.2741 -1.2537
 2942TIP3    H230386   6.476   0.594   0.751  0.0398  1.3113 -1.5572
 2943TIP3   OH230387   6.529   2.077   1.198 -0.3261  0.0126  0.0891
 2943TIP3    H130388   6.542   2.172   1.190 -3.2051  0.8558  2.8275
 2943TIP3    H230389   6.546   2.059   1.291 -2.0360 -1.6432  0.1400
 2944TIP3   OH230390   5.284   1.234   2.725 -0.4169 -0.4992 -0.0225
 2944TIP3    H130391   5.319   1.162   2.671  1.9378  0.3317  0.2750
 2944TIP3    H230392   5.277   1.197   2.813 -0.4544 -0.7159 -0.1155
 2945TIP3   OH230393   2.104   1.586   7.059  0.1774 -0.3588  0.5931
 2945TIP3    H130394   2.098   1.520   7.128  1.9061  0.0017  1.1212
 2945TIP3    H230395   2.061   1.664   7.095 -0.3508 -0.6557  0.6191
 2946TIP3   OH230396   0.653   1.179   7.413  0.3175 -0.0784  0.1694
 2946TIP3    H130397   0.620   1.220   7.333 -0.1765  0.1248  0.4714
 2946TIP3    H230398   0.585   1.197   7.478  0.1046 -1.3385  0.3149
 2947TIP3   OH230399   4.271   0.857   0.089 -0.7027 -0.0540 -0.1950
 2947TIP3    H130400   4.298   0.946   0.063 -0.6399 -0.3930 -1.3231
 2947TIP3    H230401   4.214   0.828   0.019 -1.4587 -0.5758  0.6189
 2948TIP3   OH230402   6.355   3.350   8.210  0.5689 -0.9781 -0.5678
 2948TIP3    H130403   6.299   3.384   8.140 -0.8899 -1.6274  0.2409
 2948TIP3    H230404   6.377   3.261   8.182 -1.8354 -2.0736  0.7224
 2949TIP3   OH230405   1.018   1.432   2.283 -0.5793 -0.3241  0.0655
 2949TIP3    H130406   1.097   1.428   2.337 -0.8331  3.5848  1.0278
 2949TIP3    H230407   1.036   1.373   2.209  1.6131 -2.4246  2.1016
 2950TIP3   OH230408   2.993   0.885   2.510 -0.4114  0.4158  0.7683
 2950TIP3    H130409   2.906   0.864   2.477  0.5819 -0.1241 -1.7104
 2950TIP3    H230410   2.994   0.981   2.517 -1.2685  0.4055  1.1097
 2951TIP3   OH230411   6.364   2.678   1.941  0.0926  0.2541 -0.1912
 2951TIP3    H130412   6.310   2.713   1.870 -0.1815 -0.6295 -0.4210
 2951TIP3    H230413   6.383   2.588   1.915  1.0570  0.3211  0.2453
 2952TIP3   OH230414   0.387   0.196   2.444 -0.4785  0.1016 -0.6950
 2952TIP3    H130415   0.358   0.286   2.460  0.1994  0.8946 -3.5051
 2952TIP3    H230416   0.478   0.195   2.473 -0.9709 -0.2408  0.9720
 2953TIP3   OH230417   6.246   2.424   0.557 -0.2076 -0.0090 -0.2216
 2953TIP3    H130418   6.319   2.362   0.555 -1.2266 -1.3573  1.3737
 2953TIP3    H230419   6.217   2.430   0.467 -0.5010 -2.4433 -0.3630
 2954TIP3   OH230420   1.854   3.867   8.186  0.0557 -0.3040  0.4435
 2954TIP3    H130421   1.841   3.929   8.258 -1.6988 -0.3883  0.2392
 2954TIP3    H230422   1.917   3.804   8.219 -1.0725 -0.6104  2.1089
 2955TIP3   OH230423   0.903   2.449   8.062 -0.3806 -0.0151 -0.3304
 2955TIP3    H130424   0.912   2.528   8.008  0.1798  1.3394  1.6227
 2955TIP3    H230425   0.817   2.457   8.103 -0.4547 -0.5877 -0.3656
 2956TIP3   OH230426   3.622   1.171   7.372 -0.7308 -0.0733 -0.6592
 2956TIP3    H130427   3.632   1.251   7.320 -0.0142 -0.2782 -0.8544
 2956TIP3    H230428   3.658   1.102   7.316 -1.2424 -0.5143 -0.4462
 2957TIP3   OH230429   4.343   5.637   7.115  0.3540 -0.3665  0.0969
 2957TIP3    H130430   4.295   5.689   7.180  1.2869 -1.0670  1.4156
 2957TIP3    H230431   4.280   5.570   7.088  0.4233 -1.0693  1.5481
 2958TIP3   OH230432   2.781   6.751   7.924 -0.2995  0.1754  0.7253
 2958TIP3    H130433   2.795   6.658   7.942  1.2904  0.2793  0.1403
 2958TIP3    H230434   2.761   6.754   7.830 -1.7785  0.3162  1.0106
 2959TIP3   OH230435   5.901   2.088   0.879  0.4411  0.0433 -0.4292
 2959TIP3    H130436   5.888   2.041   0.961  0.4925 -0.3835 -0.6613
 2959TIP3    H230437   5.984   2.134   0.891  0.7244 -0.4505 -0.4357
 2960TIP3   OH230438   0.398   6.101   1.420 -0.3098 -0.9697  0.1593
 2960TIP3    H130439   0.396   6.196   1.410  1.6974 -0.9840 -0.8585
 2960TIP3    H230440   0.311   6.072   1.395 -0.4436  0.4721 -1.1672
 2961TIP3   OH230441   2.552   5.543   0.554 -0.2904  0.1967 -0.4421
 2961TIP3    H130442   2.458   5.550   0.571 -0.1455  1.2630  0.0104
 2961TIP3    H230443   2.561   5.549   0.459 -0.6384  0.6883 -0.4451
 2962TIP3   OH230444   5.877   4.931   0.601 -0.3116 -0.4933 -0.6151
 2962TIP3    H130445   5.832   4.946   0.518  0.0877 -1.4635 -1.0277
 2962TIP3    H230446   5.807   4.919   0.665 -0.8257  4.8730  0.2805
 2963TIP3   OH230447   3.578   5.039   0.276  0.2887  0.2978 -0.7558
 2963TIP3    H130448   3.666   5.069   0.299 -0.0146  0.7316 -0.1199
 2963TIP3    H230449   3.555   4.978   0.346 -0.4602  1.2692 -0.1248
 2964TIP3   OH230450   3.658   5.587   8.725 -0.0719  0.4062  0.1472
 2964TIP3    H130451   3.571   5.556   8.751  0.2462 -1.7132 -1.1162
 2964TIP3    H230452   3.714   5.569   8.801 -0.1587 -1.0743 -0.1108
 2965TIP3   OH230453   6.026   6.247   8.237  0.2226 -0.0867  0.5225
 2965TIP3    H130454   6.024   6.342   8.240 -2.2441  0.0609 -1.4736
 2965TIP3    H230455   6.001   6.219   8.325 -0.5989  1.1882  0.7210
 2966TIP3   OH230456   6.586   4.577   6.933  0.5941 -0.0568 -0.3544
 2966TIP3    H130457   6.625   4.645   6.987  0.1904 -0.2298  0.1622
 2966TIP3    H230458   6.656   4.514   6.918  0.1585 -1.1360  1.8222
 2967TIP3   OH230459   1.748   0.822   0.012  0.4292  0.0402 -0.3083
 2967TIP3    H130460   1.796   0.867   0.082 -1.8232 -0.6796  1.8519
 2967TIP3    H230461   1.656   0.841   0.030 -0.3541 -1.9281 -1.8438
 2968TIP3   OH230462   6.098   3.828   0.176 -0.1618  0.1417  0.0427
 2968TIP3    H130463   6.062   3.743   0.198 -1.1248 -0.3170 -2.8957
 2968TIP3    H230464   6.182   3.832   0.223 -0.3780 -2.1328  0.7140
 2969TIP3   OH230465   4.627   2.699   2.579 -0.0903  0.0336 -0.3533
 2969TIP3    H130466   4.571   2.738   2.646 -0.0222  0.5725 -0.6001
 2969TIP3    H230467   4.714   2.736   2.595  0.3324 -1.2023  0.3538
 2970TIP3   OH230468   4.385   4.569   0.103  0.0336  0.6222 -0.0949
 2970TIP3    H130469   4.297   4.601   0.083 -0.8695 -0.2352  2.1970
 2970TIP3    H230470   4.423   4.636   0.159 -1.1037 -1.1401  3.0230
 2971TIP3   OH230471   6.351   5.425   8.591  0.0179 -0.5721  0.3742
 2971TIP3    H130472   6.350   5.430   8.495  1.1462  2.1954  0.4254
 2971TIP3    H230473   6.438   5.456   8.616 -0.0754 -1.7003  2.3308
 2972TIP3   OH230474   5.181   3.722   7.580 -0.2386 -0.0280  0.1249
 2972TIP3    H130475   5.143   3.649   7.628 -0.8608 -0.1750 -0.5732
 2972TIP3    H230476   5.200   3.687   7.493  1.7036 -0.0129  0.5044
 2973TIP3   OH230477   4.395   5.879   1.579 -0.6700 -0.2140 -0.0494
 2973TIP3    H130478   4.451   5.903   1.504  1.0826 -1.3816  0.8104
 2973TIP3    H230479   4.400   5.784   1.582  0.5448 -0.1449  2.4048
 2974TIP3   OH230480   3.310   5.126   8.439 -0.2920  0.2896 -0.0610
 2974TIP3    H130481   3.305   5.213   8.399  2.5020  0.7293  0.3448
 2974TIP3    H230482   3.395   5.125   8.484 -0.6556 -2.3287  0.7427
 2975TIP3   OH230483   1.798   3.644   8.739 -0.1912 -0.1159  0.6926
 2975TIP3    H130484   1.872   3.590   8.765 -0.8220 -0.0523  2.9252
 2975TIP3    H230485   1.722   3.599   8.776 -0.8438  1.6806  1.6816
 2976TIP3   OH230486   6.115   3.891   8.631 -0.1480 -0.7180  0.4835
 2976TIP3    H130487   6.073   3.818   8.676  0.4227 -2.1221 -1.1520
 2976TIP3    H230488   6.189   3.851   8.584  1.2060  1.1930  0.8757
 2977TIP3   OH230489   3.940   1.603   0.590 -0.4295  0.2148 -0.3009
 2977TIP3    H130490   3.924   1.697   0.576 -0.7773  0.0048 -1.3771
 2977TIP3    H230491   3.968   1.597   0.681  2.6922  1.8034 -0.9903
 2978TIP3   OH230492   2.407   3.664   0.165 -0.4552  0.6403  0.4519
 2978TIP3    H130493   2.469   3.733   0.190  1.3537 -0.6283 -0.3049
 2978TIP3    H230494   2.362   3.699   0.089 -0.4803  1.4856  0.8390
 2979TIP3   OH230495   1.154   1.916   1.155 -0.4142  0.1125 -0.7016
 2979TIP3    H130496   1.221   1.944   1.218  1.7514 -0.3154 -2.6432
 2979TIP3    H230497   1.150   1.988   1.092 -0.2397 -0.7639 -1.7308
 2980TIP3   OH230498   2.553   6.790   2.124  0.0900 -0.2097 -0.3079
 2980TIP3    H130499   2.566   6.702   2.161  0.0363 -0.1772 -0.2103
 2980TIP3    H230500   2.598   6.848   2.185  0.5657 -0.2174 -0.6484
 2981TIP3   OH230501   5.546   5.047   0.619  0.3589 -0.5768  0.3474
 2981TIP3    H130502   5.513   5.132   0.589  1.4142  0.1699  1.2184
 2981TIP3    H230503   5.523   4.986   0.548  0.6437  0.6597 -0.8624
 2982TIP3   OH230504   2.414   1.215   8.189  0.3430  0.4257  0.5376
 2982TIP3    H130505   2.470   1.274   8.240  0.7057  1.3868 -0.8920
 2982TIP3    H230506   2.381   1.270   8.118 -0.5565 -0.7298  0.0358
 2983TIP3   OH230507   1.115   1.498   1.018  0.1968 -0.1641  0.1513
 2983TIP3    H130508   1.181   1.567   1.023 -0.7962  0.7123  1.7437
 2983TIP3    H230509   1.107   1.465   1.107 -0.6348 -1.1065 -0.2505
 2984TIP3   OH230510   4.627   1.531   2.541  0.1612  0.0917  0.4271
 2984TIP3    H130511   4.672   1.599   2.591  0.3488 -0.1304  0.5665
 2984TIP3    H230512   4.695   1.495   2.484  0.2335 -0.4173  0.8179
 2985TIP3   OH230513   3.510   6.022   7.353  0.2013  0.1552  0.2458
 2985TIP3    H130514   3.427   6.070   7.350 -1.6809 -2.8287 -1.3572
 2985TIP3    H230515   3.497   5.949   7.292  3.4259 -1.4150  1.2153
 2986TIP3   OH230516   4.456   5.787   2.205 -0.3567  0.0377  0.6794
 2986TIP3    H130517   4.421   5.698   2.200 -3.0595  1.0453 -0.6367
 2986TIP3    H230518   4.419   5.822   2.286 -0.2499  0.3412  0.5966
 2987TIP3   OH230519   2.621   5.509   7.242 -0.3774  0.1631 -0.0222
 2987TIP3    H130520   2.548   5.553   7.285 -0.7183 -0.3594 -0.0650
 2987TIP3    H230521   2.654   5.448   7.307 -1.7550 -1.6195 -0.9245
 2988TIP3   OH230522   5.618   1.834   0.119  0.9126  0.2410 -0.2176
 2988TIP3    H130523   5.656   1.747   0.132  0.7118  0.3221  1.0753
 2988TIP3    H230524   5.693   1.894   0.119  0.9397  0.2221  0.5802
 2989TIP3   OH230525   0.287   5.386   1.116  0.4050 -0.1872 -0.1835
 2989TIP3    H130526   0.359   5.372   1.055 -0.8320 -0.1009 -1.7397
 2989TIP3    H230527   0.293   5.479   1.139  1.8128 -0.5753  1.0979
 2990TIP3   OH230528   3.797   0.299   2.650  0.5359  0.1681 -0.2479
 2990TIP3    H130529   3.874   0.284   2.596 -1.4352 -0.5340 -3.1248
 2990TIP3    H230530   3.750   0.370   2.606 -0.7475  0.1968  1.0873
 2991TIP3   OH230531   5.150   1.473   0.886 -0.6973 -0.1922 -1.2270
 2991TIP3    H130532   5.081   1.428   0.934 -0.2343  0.5838  0.2211
 2991TIP3    H230533   5.117   1.561   0.871  0.3504  0.5435  0.4631
 2992TIP3   OH230534   1.315   5.756   0.299 -0.0854  0.2876 -0.6607
 2992TIP3    H130535   1.226   5.730   0.322  1.1739 -2.8033  1.5101
 2992TIP3    H230536   1.326   5.842   0.338 -1.8057  0.2816 -0.0750
 2993TIP3   OH230537   4.265   4.075   7.151 -0.8688 -0.0005 -0.2315
 2993TIP3    H130538   4.334   4.118   7.100 -0.7825  1.2378  0.8981
 2993TIP3    H230539   4.184   4.096   7.105 -0.7289  0.5634 -0.2221
 2994TIP3   OH230540   2.066   4.190   7.517  0.2674  0.3644  0.1818
 2994TIP3    H130541   1.980   4.201   7.475  0.6583  2.2742 -0.2263
 2994TIP3    H230542   2.066   4.099   7.548 -1.6985  0.1622 -0.2434
 2995TIP3   OH230543   1.546   6.640   1.632 -0.5065  0.0119  0.1173
 2995TIP3    H130544   1.464   6.639   1.681 -0.4940  2.0555  0.2641
 2995TIP3    H230545   1.520   6.611   1.544 -1.0491 -0.9574  0.5736
 2996TIP3   OH230546   2.407   3.057   1.487 -0.0154  0.0498  0.1984
 2996TIP3    H130547   2.473   3.012   1.435  0.6940  1.2510  0.0249
 2996TIP3    H230548   2.323   3.029   1.449  0.4794  1.7541 -2.4084
 2997TIP3   OH230549   6.752   4.668   7.945 -0.0998  0.0017  0.5022
 2997TIP3    H130550   6.813   4.618   7.892 -1.2078 -0.6161 -0.2289
 2997TIP3    H230551   6.666   4.631   7.925 -0.6483  0.3484  2.0665
 2998TIP3   OH230552   0.529   4.977   8.160  0.4372 -0.3426 -0.0694
 2998TIP3    H130553   0.498   4.963   8.070  1.0639 -0.4145 -0.2780
 2998TIP3    H230554   0.470   4.925   8.214 -0.7080  0.6558 -0.3147
 2999TIP3   OH230555   0.291   4.663   8.516 -0.0710 -0.7635  0.1837
 2999TIP3    H130556   0.232   4.725   8.558  0.3054 -0.5162  0.3604
 2999TIP3    H230557   0.359   4.647   8.582  1.8439  1.4501 -1.0878
 3000TIP3   OH230558   4.318   0.568   7.773  0.3891  0.0847  0.6537
 3000TIP3    H130559   4.290   0.621   7.847  0.8393  1.2538  0.0287
 3000TIP3    H230560   4.265   0.488   7.778 -1.6959  1.3867  0.5682
 3001TIP3   OH230561   3.342   5.225   1.531  0.1224 -0.2690 -0.1921
 3001TIP3    H130562   3.259   5.255   1.567 -0.6144 -2.0198 -0.3274
 3001TIP3    H230563   3.319   5.186   1.446  0.9290 -1.5311  0.1407
 3002TIP3   OH230564   0.291   6.409   8.670 -0.0303  0.2793  0.1338
 3002TIP3    H130565   0.274   6.392   8.763 -0.2924 -0.5462 -0.0573
 3002TIP3    H230566   0.383   6.387   8.657  0.3318  1.5299  0.4413
 3003TIP3   OH230567   0.560   2.518   7.624  0.0413 -0.0984 -0.5895
 3003TIP3    H130568   0.493   2.476   7.679  1.5871 -0.4146  1.1311
 3003TIP3    H230569   0.625   2.450   7.609  1.7900  1.1696  0.8906
 3004TIP3   OH230570   3.238   2.503   0.581  0.4964 -0.2200 -0.1315
 3004TIP3    H130571   3.217   2.590   0.616  1.2643  0.3535 -1.0395
 3004TIP3    H230572   3.322   2.480   0.622 -0.0920 -0.9119  0.7276
 3005TIP3   OH230573   4.275   2.389   2.775 -0.3742  0.3281 -0.4129
 3005TIP3    H130574   4.242   2.302   2.798 -0.1682  0.5036  0.6397
 3005TIP3    H230575   4.328   2.415   2.851 -0.7704  1.5431 -0.5330
 3006TIP3   OH230576   3.381   6.351   1.095 -0.3473  0.0711  0.1524
 3006TIP3    H130577   3.454   6.393   1.141 -0.0501  0.8406 -0.9980
 3006TIP3    H230578   3.419   6.273   1.055 -0.3513  0.0272  0.2319
 3007TIP3   OH230579   4.900   4.228   0.014  0.3143  0.2619 -0.7841
 3007TIP3    H130580   4.876   4.182  -0.066 -0.4130  1.6206 -1.3823
 3007TIP3    H230581   4.845   4.189   0.082  0.1561 -0.1679 -1.1540
 3008TIP3   OH230582   2.252   0.425   1.602 -1.0423  1.0606  0.6079
 3008TIP3    H130583   2.277   0.488   1.535  2.7132 -1.0007 -0.2495
 3008TIP3    H230584   2.174   0.382   1.567 -1.3651  2.5585 -0.5999
 3009TIP3   OH230585   2.166   3.921   6.640 -1.0537 -0.0613 -0.1943
 3009TIP3    H130586   2.163   4.015   6.660 -0.3481 -0.2408  0.8970
 3009TIP3    H230587   2.185   3.880   6.725  0.3834 -1.0528 -0.9654
 3010TIP3   OH230588   4.036   5.946   2.577  0.5849 -0.1807  0.4632
 3010TIP3    H130589   3.979   6.023   2.576 -0.1421 -0.6826 -1.1602
 3010TIP3    H230590   3.976   5.873   2.561  1.4732 -0.8916  0.3478
 3011TIP3   OH230591   2.528   0.716   8.044 -0.3036  0.1142 -0.4020
 3011TIP3    H130592   2.614   0.750   8.020 -0.6579  2.3943  1.2331
 3011TIP3    H230593   2.481   0.792   8.080 -1.7978 -1.7620  1.8822
 3012TIP3   OH230594   1.383   2.691   7.265 -0.0176  0.1043  0.4536
 3012TIP3    H130595   1.324   2.747   7.315 -0.1174 -0.1087  0.5778
 3012TIP3    H230596   1.470   2.716   7.296 -0.0450  0.3819  0.3087
 3013TIP3   OH230597   5.202   3.317   0.036 -0.2998  0.4720  0.3179
 3013TIP3    H130598   5.168   3.296  -0.051  1.3747  1.3630 -0.6055
 3013TIP3    H230599   5.146   3.388   0.067 -1.4201 -0.4006  0.3452
 3014TIP3   OH230600   4.369   6.101   1.162 -0.0618  0.0155 -0.0316
 3014TIP3    H130601   4.354   6.113   1.069  1.7499  0.8327 -0.2596
 3014TIP3    H230602   4.357   6.008   1.178 -0.4678 -0.1111 -1.0529
 3015TIP3   OH230603   1.743   1.812   1.785  0.4746 -0.4942 -0.2151
 3015TIP3    H130604   1.744   1.906   1.770 -1.2158 -0.5617 -1.0873
 3015TIP3    H230605   1.736   1.774   1.698  0.2201 -1.3764  0.1764
 3016TIP3   OH230606   4.605   4.586   1.060 -0.4414 -0.4398  0.6066
 3016TIP3    H130607   4.683   4.605   1.009 -0.2672 -1.3287  0.5271
 3016TIP3    H230608   4.556   4.668   1.061  0.5323  0.1523  0.7381
 3017TIP3   OH230609   4.385   0.759   1.646  0.2342  0.0495 -0.0924
 3017TIP3    H130610   4.413   0.794   1.561 -0.0820  0.1632 -0.1529
 3017TIP3    H230611   4.466   0.730   1.688  0.4810  0.6955 -0.1128
 3018TIP3   OH230612   1.317   3.431   8.317  0.3357 -0.1167  0.4337
 3018TIP3    H130613   1.344   3.342   8.294  0.3069  0.2096 -0.9500
 3018TIP3    H230614   1.382   3.460   8.381  1.7562 -0.2933 -0.8667
 3019TIP3   OH230615   0.904   0.761   1.287  0.2995  0.5766  0.3539
 3019TIP3    H130616   0.978   0.821   1.285  1.3796 -0.6326  1.7624
 3019TIP3    H230617   0.864   0.769   1.200  0.3153  3.3513  0.5378
 3020TIP3   OH230618   4.469   4.989   2.740 -0.1749 -0.2817 -0.2058
 3020TIP3    H130619   4.513   4.945   2.813  2.2875 -0.9126 -1.9462
 3020TIP3    H230620   4.380   4.954   2.741 -0.5248  0.4034  2.9579
 3021TIP3   OH230621   1.913   2.978   1.558 -0.3894  0.0845  0.1104
 3021TIP3    H130622   1.868   2.983   1.643 -0.9404 -1.6220 -0.0423
 3021TIP3    H230623   1.916   2.884   1.538 -0.2256  0.4482 -1.7401
 3022TIP3   OH230624   6.212   3.227   7.295 -0.0883 -0.5411  0.1450
 3022TIP3    H130625   6.188   3.136   7.282 -0.9160 -0.1596 -1.1927
 3022TIP3    H230626   6.148   3.277   7.245  1.6214  0.6684 -0.9629
 3023TIP3   OH230627   2.153   4.842   8.540  0.7112 -0.4583  0.5702
 3023TIP3    H130628   2.083   4.864   8.478  0.9587 -0.8751  0.1348
 3023TIP3    H230629   2.115   4.776   8.597  0.7322 -0.6567  0.3574
 3024TIP3   OH230630   5.357   6.687   1.862 -0.3632  0.8132 -0.4571
 3024TIP3    H130631   5.280   6.651   1.906 -0.6473  1.7505 -0.1716
 3024TIP3    H230632   5.431   6.640   1.899 -0.5859  1.6357  1.0949
 3025TIP3   OH230633   2.214   2.967   8.681 -0.0482  0.2782  0.6258
 3025TIP3    H130634   2.241   3.009   8.599  0.6702  1.1364  1.2622
 3025TIP3    H230635   2.286   2.987   8.741 -1.0805  0.6615  1.7743
 3026TIP3   OH230636   4.923   5.321   8.335  0.0893 -0.0887  0.5930
 3026TIP3    H130637   4.886   5.308   8.247  0.5567 -1.2379  0.5472
 3026TIP3    H230638   4.924   5.233   8.373 -0.7297  0.4874  2.0143
 3027TIP3   OH230639   5.186   2.235   1.400 -0.1020 -0.0060  0.3874
 3027TIP3    H130640   5.124   2.241   1.328  0.1638 -1.4292  0.0094
 3027TIP3    H230641   5.247   2.307   1.386 -0.6980  0.3933 -0.1759
 3028TIP3   OH230642   2.296   3.038   2.265  0.2363  0.2369 -0.3751
 3028TIP3    H130643   2.239   2.979   2.216 -0.5482  0.9488 -0.3332
 3028TIP3    H230644   2.350   2.980   2.318  0.4571 -0.5079 -1.3757
 3029TIP3   OH230645   0.135   2.859   1.169  0.6847 -0.0671 -0.4806
 3029TIP3    H130646   0.048   2.852   1.130  1.0802 -0.6327 -1.2963
 3029TIP3    H230647   0.124   2.921   1.242 -0.0882  1.0203 -1.4721
 3030TIP3   OH230648   6.257   3.981   1.099 -0.5296  0.1910  0.0878
 3030TIP3    H130649   6.330   4.041   1.083 -2.0171  1.4636 -2.5458
 3030TIP3    H230650   6.189   4.036   1.138 -0.8779 -0.4618  0.4167
 3031TIP3   OH230651   4.417   3.727   0.389  1.0192 -0.4696  0.1908
 3031TIP3    H130652   4.470   3.649   0.375  3.3491  0.7755  1.4728
 3031TIP3    H230653   4.476   3.789   0.433 -1.3403  1.2473  1.1762
 3032TIP3   OH230654   5.640   0.610   7.798  0.3544  0.2735  0.2524
 3032TIP3    H130655   5.606   0.584   7.883 -1.8781 -1.5172 -1.0800
 3032TIP3    H230656   5.669   0.700   7.810 -1.3480  0.5967  2.5141
 3033TIP3   OH230657   3.577   0.448   8.537 -0.5408 -0.0141 -0.8136
 3033TIP3    H130658   3.520   0.388   8.584  0.8103  0.0489  1.0176
 3033TIP3    H230659   3.618   0.501   8.606  2.1600 -0.4523 -1.9469
 3034TIP3   OH230660   6.395   5.230   0.568  0.3269  0.9548  0.1705
 3034TIP3    H130661   6.360   5.295   0.629 -2.6230 -1.3217  1.1749
 3034TIP3    H230662   6.319   5.178   0.542  1.9580 -0.0477 -3.2268
 3035TIP3   OH230663   5.868   0.518   0.382  0.3186  0.0601  0.0386
 3035TIP3    H130664   5.871   0.495   0.289  0.0152  1.1414 -0.2511
 3035TIP3    H230665   5.774   0.523   0.401  0.3813 -0.2057  0.4239
 3036TIP3   OH230666   2.745   2.572   2.026  0.7362 -0.2176 -0.1905
 3036TIP3    H130667   2.651   2.579   2.041  1.0860 -0.8599  2.8599
 3036TIP3    H230668   2.786   2.610   2.104  2.9711 -1.6284 -0.5696
 3037TIP3   OH230669   5.478   5.556   7.178 -0.1058 -0.2687 -0.2801
 3037TIP3    H130670   5.430   5.520   7.252  1.4203  0.5324  1.1579
 3037TIP3    H230671   5.469   5.489   7.109  0.2445 -2.0554  1.3277
 3038TIP3   OH230672   6.069   5.558   8.638  0.3791 -0.1438 -0.0820
 3038TIP3    H130673   6.160   5.533   8.627  0.9653  1.5825  0.4243
 3038TIP3    H230674   6.039   5.581   8.550  0.8004  0.3567 -0.1013
 3039TIP3   OH230675   2.140   5.857   1.657 -0.3352  0.1594  0.0020
 3039TIP3    H130676   2.064   5.916   1.665  0.0243  0.6648 -0.2947
 3039TIP3    H230677   2.109   5.773   1.693 -0.7527  0.6131  0.7377
 3040TIP3   OH230678   1.340   1.756   8.728  0.0882 -0.6227 -0.1148
 3040TIP3    H130679   1.310   1.669   8.756 -0.4611 -0.4761 -0.2478
 3040TIP3    H230680   1.324   1.758   8.634 -0.5709 -0.1136 -0.0001
 3041TIP3   OH230681   2.340   3.232   2.082 -0.1688 -0.0761  0.0057
 3041TIP3    H130682   2.366   3.163   2.021  0.6611 -1.0061  1.3607
 3041TIP3    H230683   2.348   3.192   2.169 -2.0985  0.9435  0.7169
 3042TIP3   OH230684   5.772   0.568   1.899  0.8927  0.1205  0.1886
 3042TIP3    H130685   5.767   0.660   1.927  2.0579  0.2365  0.0352
 3042TIP3    H230686   5.830   0.526   1.963  1.0601 -0.3160 -0.2472
 3043TIP3   OH230687   4.070   4.032   1.907  0.7202  0.0778  0.2286
 3043TIP3    H130688   4.066   3.977   1.828  1.0208 -0.4714  0.5878
 3043TIP3    H230689   4.043   4.119   1.877 -1.1261 -0.5479 -0.0742
 3044TIP3   OH230690   1.044   4.636   8.475 -0.9390 -0.5518  0.3167
 3044TIP3    H130691   0.978   4.568   8.463 -1.5427 -0.2602  1.7497
 3044TIP3    H230692   1.033   4.693   8.399 -2.1916 -0.6404  0.4026
 3045TIP3   OH230693   0.788   0.976   0.729 -0.0962  0.5595 -0.0722
 3045TIP3    H130694   0.881   0.954   0.732 -0.3609 -0.7177 -0.3772
 3045TIP3    H230695   0.774   1.008   0.640 -0.1686 -0.4348 -0.4380
 3046TIP3   OH230696   6.449   3.075   1.819 -0.0748 -0.4914 -0.1412
 3046TIP3    H130697   6.369   3.107   1.859  0.3764 -0.4866  0.7915
 3046TIP3    H230698   6.420   3.025   1.743 -0.9513 -0.4370  0.1518
 3047TIP3   OH230699   6.604   6.595   0.012  0.1531  0.4756  0.1462
 3047TIP3    H130700   6.674   6.634  -0.041  1.7185  0.4503  2.0397
 3047TIP3    H230701   6.563   6.531  -0.045  3.3166 -1.2860 -0.3936
 3048TIP3   OH230702   2.571   2.333   7.518  0.0173  0.8607 -0.4764
 3048TIP3    H130703   2.596   2.381   7.439 -0.0407  1.0438 -0.3841
 3048TIP3    H230704   2.651   2.331   7.571 -0.0021  0.9231 -0.4450
 3049TIP3   OH230705   1.674   1.130   1.713 -0.1911 -0.5470 -0.2278
 3049TIP3    H130706   1.674   1.040   1.743 -0.3444 -1.3669 -2.4673
 3049TIP3    H230707   1.739   1.132   1.642 -0.8611  0.8513 -0.8548
 3050TIP3   OH230708   1.320   6.276   8.096 -0.0538  0.0226 -0.0379
 3050TIP3    H130709   1.269   6.353   8.121 -1.1904 -0.5577 -0.4816
 3050TIP3    H230710   1.351   6.240   8.179 -0.6523  0.1900  0.2628
 3051TIP3   OH230711   4.013   5.722   1.749 -0.1223  0.0482 -0.0514
 3051TIP3    H130712   4.051   5.759   1.670 -0.8113  0.1668 -0.3329
 3051TIP3    H230713   3.966   5.795   1.790  0.9766  0.2278  0.9560
 3052TIP3   OH230714   5.825   0.814   8.603  0.0164 -0.3680 -0.0568
 3052TIP3    H130715   5.855   0.903   8.585  1.3354 -0.7253  0.2352
 3052TIP3    H230716   5.740   0.808   8.561 -0.7334  1.4727  1.0966
 3053TIP3   OH230717   1.232   4.897   0.761  0.0970  0.1226 -0.2147
 3053TIP3    H130718   1.216   4.818   0.709 -1.2413 -0.2552  0.7093
 3053TIP3    H230719   1.232   4.867   0.851 -0.8003  1.2057  0.1792
 3054TIP3   OH230720   2.324   0.567   0.966 -0.2598 -0.4500 -0.4961
 3054TIP3    H130721   2.240   0.530   0.993  0.3927 -0.4510  1.7468
 3054TIP3    H230722   2.386   0.493   0.972  0.1346 -0.1677 -0.9560
 3055TIP3   OH230723   0.536   5.380   1.008  0.3170  0.1033 -0.0090
 3055TIP3    H130724   0.548   5.472   0.983  1.8561 -0.3164 -0.9335
 3055TIP3    H230725   0.599   5.366   1.079 -1.8509  0.4533  2.0909
 3056TIP3   OH230726   0.354   4.542   2.145 -0.9411  0.7199  0.0446
 3056TIP3    H130727   0.287   4.493   2.192 -1.2037 -0.1174 -1.1340
 3056TIP3    H230728   0.420   4.476   2.123 -2.0505  0.4135 -2.9707
 3057TIP3   OH230729   5.433   1.060   6.700 -0.4241  0.5596  0.0911
 3057TIP3    H130730   5.339   1.077   6.694 -0.6688 -1.0516 -2.0505
 3057TIP3    H230731   5.442   0.967   6.678  1.7077  0.7994 -0.2525
 3058TIP3   OH230732   5.554   6.523   1.063  0.2357  0.2543 -0.0287
 3058TIP3    H130733   5.489   6.453   1.059 -0.8242  1.1624  0.7208
 3058TIP3    H230734   5.629   6.482   1.108 -0.1649 -0.5418 -0.0563
 3059TIP3   OH230735   1.102   6.260   7.160  0.1919 -0.1192  0.0939
 3059TIP3    H130736   1.025   6.221   7.118 -1.2522  1.8133  0.7941
 3059TIP3    H230737   1.167   6.190   7.161 -0.4520 -0.9560 -3.2937
 3060TIP3   OH230738   2.422   0.679   2.110  0.2617 -0.0666 -0.6134
 3060TIP3    H130739   2.382   0.659   2.025  0.0032 -0.3245 -0.4351
 3060TIP3    H230740   2.513   0.651   2.101  0.7504  1.7008 -1.4407
 3061TIP3   OH230741   1.589   0.407   2.030  0.8037  0.4497  0.2694
 3061TIP3    H130742   1.637   0.349   2.089  0.9948  1.5732  1.2638
 3061TIP3    H230743   1.525   0.351   1.988  0.6602 -0.4012  1.5659
 3062TIP3   OH230744   2.437   3.422   0.293 -0.3567  0.3933 -0.7945
 3062TIP3    H130745   2.436   3.492   0.228 -1.6073  1.0536 -0.0933
 3062TIP3    H230746   2.516   3.439   0.346 -0.1888  0.7540 -1.1603
 3063TIP3   OH230747   0.775   3.401   1.170  0.9819  0.3774 -0.0132
 3063TIP3    H130748   0.820   3.344   1.233  0.1106 -1.4003 -0.9134
 3063TIP3    H230749   0.725   3.340   1.115  1.0705  1.9348 -1.9011
 3064TIP3   OH230750   6.383   4.832   7.332 -0.1602 -0.0476  0.1138
 3064TIP3    H130751   6.371   4.846   7.238  0.1272 -0.4594  0.0126
 3064TIP3    H230752   6.383   4.737   7.342  0.9156 -0.0344  0.3731
 3065TIP3   OH230753   2.450   5.633   8.560 -0.3610  1.0416 -0.5214
 3065TIP3    H130754   2.369   5.602   8.520  0.3751  1.6625 -2.6847
 3065TIP3    H230755   2.501   5.667   8.486  2.5956 -0.8786  0.4585
 3066TIP3   OH230756   0.189   5.218   0.081  0.0672 -1.0770  0.0583
 3066TIP3    H130757   0.188   5.269   0.161  2.9584  1.0164 -1.0818
 3066TIP3    H230758   0.277   5.180   0.076 -0.5015 -2.3467 -1.4417
 3067TIP3   OH230759   2.895   5.870   8.277  0.1893 -0.0050  0.1334
 3067TIP3    H130760   2.880   5.796   8.335  0.3400 -0.8057 -0.8163
 3067TIP3    H230761   2.978   5.908   8.307  1.7088 -2.0567 -1.1630
 3068TIP3   OH230762   0.570   3.456   0.265 -0.2677  0.7058 -0.2012
 3068TIP3    H130763   0.610   3.369   0.259 -0.6993  0.5049 -0.2418
 3068TIP3    H230764   0.636   3.516   0.230 -0.5425  0.2307 -1.5744
 3069TIP3   OH230765   5.299   5.804   1.567 -0.0849 -0.0615  0.1751
 3069TIP3    H130766   5.338   5.717   1.572  0.7069  0.3638  2.4814
 3069TIP3    H230767   5.294   5.834   1.658 -1.1604  1.9623 -0.4749
 3070TIP3   OH230768   6.485   2.510   1.619  0.3100  0.3025 -0.5134
 3070TIP3    H130769   6.431   2.436   1.594  0.4517  0.3346 -0.9289
 3070TIP3    H230770   6.516   2.489   1.707  1.2403 -0.6513 -1.0387
 3071TIP3   OH230771   2.904   6.423   1.033  0.4941  0.1506  0.1427
 3071TIP3    H130772   2.985   6.383   1.064  0.5480  0.3458  0.2519
 3071TIP3    H230773   2.841   6.406   1.103  0.1984 -0.7852 -0.3231
 3072TIP3   OH230774   1.625   5.231   0.006  0.0202 -0.1015  0.0978
 3072TIP3    H130775   1.631   5.315   0.052  2.6633 -0.3747  0.4027
 3072TIP3    H230776   1.597   5.169   0.073 -0.7972  0.3191  0.1575
 3073TIP3   OH230777   3.810   5.064   0.420  0.4495  0.1591  0.4236
 3073TIP3    H130778   3.855   4.979   0.414 -1.4999 -0.8678 -0.8515
 3073TIP3    H230779   3.800   5.080   0.514  1.4236 -0.6917  0.6893
 3074TIP3   OH230780   0.430   4.809   7.796 -0.0421  0.1747  0.8159
 3074TIP3    H130781   0.417   4.893   7.840  0.3460  1.4546 -1.3649
 3074TIP3    H230782   0.347   4.791   7.752  0.8117  1.1212 -1.3547
 3075TIP3   OH230783   2.619   5.835   1.145  0.0487 -0.0573 -0.2832
 3075TIP3    H130784   2.647   5.770   1.209 -0.1682  0.5570  0.4460
 3075TIP3    H230785   2.524   5.835   1.149 -0.0554 -1.3180 -1.9397
 3076TIP3   OH230786   6.791   4.557   1.947  0.2746 -0.2503 -0.0935
 3076TIP3    H130787   6.805   4.508   2.028 -1.5221  1.6422  1.4644
 3076TIP3    H230788   6.771   4.490   1.882  0.1069 -1.7421  1.4209
 3077TIP3   OH230789   6.485   5.877   8.251 -0.1725 -0.5055  0.1842
 3077TIP3    H130790   6.474   5.885   8.156 -1.4948  1.0827  0.4198
 3077TIP3    H230791   6.564   5.824   8.262 -0.6329 -1.7325 -1.7885
 3078TIP3   OH230792   0.142   2.280   2.026  0.2062  0.3279 -0.3102
 3078TIP3    H130793   0.187   2.255   2.107 -0.9148  0.3197  0.3329
 3078TIP3    H230794   0.196   2.242   1.957  0.0988 -1.4977  0.5222
 3079TIP3   OH230795   0.797   2.350   2.815  0.2146  0.6695  0.0843
 3079TIP3    H130796   0.760   2.296   2.884 -0.2787  2.1118  0.9827
 3079TIP3    H230797   0.725   2.361   2.752  0.4246  0.0158 -0.2837
 3080TIP3   OH230798   5.505   2.689   2.084  0.3543 -0.6675 -0.3915
 3080TIP3    H130799   5.415   2.661   2.066  0.4213 -1.0059 -0.2153
 3080TIP3    H230800   5.529   2.745   2.010  0.3370 -1.3637 -0.9329
 3081TIP3   OH230801   5.544   2.000   7.352  0.1504 -0.0296 -0.0855
 3081TIP3    H130802   5.590   2.080   7.330 -0.4162  0.5879  0.8996
 3081TIP3    H230803   5.612   1.940   7.380  0.6285 -0.0700 -1.2736
 3082TIP3   OH230804   2.277   0.836   0.393  0.2329 -0.5506  0.0528
 3082TIP3    H130805   2.351   0.884   0.356  0.3468  0.1341  1.1076
 3082TIP3    H230806   2.206   0.850   0.331 -0.4902  3.1936  1.4668
 3083TIP3   OH230807   3.508   4.451   8.507  0.2317  0.4898 -0.0079
 3083TIP3    H130808   3.458   4.531   8.524  1.3479  1.4609 -1.1734
 3083TIP3    H230809   3.441   4.382   8.499 -0.7877  1.4204  0.2981
 3084TIP3   OH230810   0.200   1.527   2.832  0.2635 -0.3715  0.0055
 3084TIP3    H130811   0.134   1.486   2.888  1.1479 -1.5800  0.2065
 3084TIP3    H230812   0.268   1.557   2.892  0.1661  0.3689 -0.2436
 3085TIP3   OH230813   4.700   1.691   7.505 -0.0806 -0.0738 -0.0112
 3085TIP3    H130814   4.666   1.733   7.425 -0.0870  1.6041  0.8317
 3085TIP3    H230815   4.622   1.660   7.551 -0.0535 -1.4289 -0.8224
 3086TIP3   OH230816   6.726   3.992   2.495 -0.0649 -0.5519  0.2575
 3086TIP3    H130817   6.673   4.056   2.449  1.6535 -0.3175 -1.4873
 3086TIP3    H230818   6.793   4.043   2.541  2.1288 -1.0248 -2.1959
 3087TIP3   OH230819   2.732   5.823   2.624  0.4674  0.3461 -0.5322
 3087TIP3    H130820   2.659   5.884   2.618 -0.0739 -0.1971  0.3334
 3087TIP3    H230821   2.704   5.747   2.572  0.1692 -0.0716  0.2036
 3088TIP3   OH230822   3.755   1.230   8.784  0.1092  0.4093 -0.0593
 3088TIP3    H130823   3.733   1.178   8.862 -0.0728 -0.0080 -0.3819
 3088TIP3    H230824   3.851   1.235   8.785  0.2033 -0.7799 -0.5408
 3089TIP3   OH230825   0.242   0.080   0.580  0.2960 -0.6576 -0.1238
 3089TIP3    H130826   0.242  -0.002   0.530  0.6741 -0.1895 -0.9112
 3089TIP3    H230827   0.220   0.147   0.516  0.0167 -0.1276  0.5105
 3090TIP3   OH230828   1.873   1.482   0.283  0.3338 -0.8217  0.4876
 3090TIP3    H130829   1.919   1.416   0.231  0.5578  0.1425 -0.5783
 3090TIP3    H230830   1.935   1.507   0.352  1.0831 -0.2038 -0.3856
 3091TIP3   OH230831   1.338   4.289   7.692 -0.6191 -0.5427 -0.0623
 3091TIP3    H130832   1.348   4.297   7.597  0.0535 -0.1712  0.0393
 3091TIP3    H230833   1.361   4.375   7.727  1.2893 -1.2856  0.6046
 3092TIP3   OH230834   1.424   2.554   8.783 -0.0541  0.0632 -0.0906
 3092TIP3    H130835   1.381   2.558   8.697  2.9736 -1.9617 -1.8842
 3092TIP3    H230836   1.394   2.472   8.822  0.0163  0.0425 -0.0790
 3093TIP3   OH230837   3.450   6.114   2.122 -0.1726 -0.4570 -0.0193
 3093TIP3    H130838   3.387   6.173   2.163 -0.0271  0.3919 -0.9983
 3093TIP3    H230839   3.398   6.056   2.067 -0.1206  0.2510 -0.8363
 3094TIP3   OH230840   6.050   2.740   8.530  0.0035  0.0337 -0.0460
 3094TIP3    H130841   6.006   2.680   8.470 -1.0535  1.0433 -0.3199
 3094TIP3    H230842   6.096   2.801   8.472  1.6559 -0.8770  0.2336
 3095TIP3   OH230843   2.444   3.474   7.127  0.4436 -0.5180  0.6566
 3095TIP3    H130844   2.349   3.477   7.133  0.4153 -1.0346  0.5315
 3095TIP3    H230845   2.465   3.526   7.049  0.1684 -1.3786 -0.0233
 3096TIP3   OH230846   6.725   1.932   0.990 -0.1141 -0.5331 -0.2875
 3096TIP3    H130847   6.769   2.017   0.992 -0.6229 -0.2334 -1.1707
 3096TIP3    H230848   6.655   1.941   1.054 -0.2863 -0.2179 -0.5150
 3097TIP3   OH230849   5.468   4.534   1.565 -0.1024  0.9377  0.1294
 3097TIP3    H130850   5.470   4.580   1.649  2.6804  1.9018 -0.3378
 3097TIP3    H230851   5.468   4.441   1.588 -1.0588  1.1819  1.1617
 3098TIP3   OH230852   3.757   4.763   8.284  0.0035 -0.0423 -0.4876
 3098TIP3    H130853   3.764   4.668   8.279  1.5952  0.0558 -0.8368
 3098TIP3    H230854   3.719   4.789   8.200 -2.1738 -0.4548  0.3099
 3099TIP3   OH230855   4.095   2.804   1.931  0.0523 -0.0264  0.6645
 3099TIP3    H130856   4.006   2.833   1.949 -1.5630 -3.9341 -0.0682
 3099TIP3    H230857   4.107   2.820   1.837 -0.0608  0.0343  0.6605
 3100TIP3   OH230858   0.384   1.633   8.533  0.1946  0.0276  0.0267
 3100TIP3    H130859   0.427   1.625   8.619  0.8549 -0.3516 -0.3323
 3100TIP3    H230860   0.409   1.553   8.487  0.0235  0.3382 -0.6025
 3101TIP3   OH230861   1.229   1.563   7.210  0.1859 -0.2091  0.4021
 3101TIP3    H130862   1.293   1.608   7.154 -2.0955  2.1306 -0.5208
 3101TIP3    H230863   1.198   1.490   7.157  1.7426 -1.1346  0.7067
 3102TIP3   OH230864   4.420   3.114   0.389 -0.2265 -0.2647  0.0701
 3102TIP3    H130865   4.461   3.114   0.303 -0.8214  0.0920 -0.2209
 3102TIP3    H230866   4.351   3.180   0.383 -0.6576 -0.6497  0.6355
 3103TIP3   OH230867   3.646   4.533   2.779 -0.2034 -0.2044  0.4081
 3103TIP3    H130868   3.595   4.452   2.778  1.1461 -1.0876 -0.2464
 3103TIP3    H230869   3.736   4.505   2.761  0.0090  1.6407 -1.8909
 3104TIP3   OH230870   3.710   0.042   1.941 -0.0340 -0.1272 -0.1357
 3104TIP3    H130871   3.638  -0.011   1.977 -0.7482  0.2930 -0.8897
 3104TIP3    H230872   3.673   0.081   1.862  1.3686 -0.7245 -1.1248
 3105TIP3   OH230873   0.041   5.843   0.855 -0.0680  0.0568 -0.2839
 3105TIP3    H130874   0.028   5.913   0.792  2.9348  0.4099 -0.6577
 3105TIP3    H230875   0.079   5.885   0.931  0.9449 -1.0119 -0.1683
 3106TIP3   OH230876   2.925   2.891   8.262 -0.1257 -0.1783 -0.1336
 3106TIP3    H130877   2.921   2.922   8.352  3.1722 -0.1584  0.1231
 3106TIP3    H230878   2.979   2.812   8.266  1.8559  0.9421 -2.2546
 3107TIP3   OH230879   2.174   3.195   7.368 -0.2973 -0.0372 -0.4703
 3107TIP3    H130880   2.150   3.183   7.276 -0.4821  0.1274 -0.4436
 3107TIP3    H230881   2.176   3.290   7.381  0.3632 -0.0401 -0.4687
 3108TIP3   OH230882   1.774   6.102   0.487 -0.4272 -0.2300 -0.0070
 3108TIP3    H130883   1.717   6.047   0.542  1.3456 -2.9435 -0.7052
 3108TIP3    H230884   1.732   6.188   0.488 -3.1666 -1.4564  1.4895
 3109TIP3   OH230885   1.844   1.164   0.725 -0.2004 -0.1455  0.4434
 3109TIP3    H130886   1.796   1.081   0.731  1.9802 -1.7144 -1.8461
 3109TIP3    H230887   1.795   1.215   0.660  0.8203 -1.5447 -1.5296
 3110TIP3   OH230888   1.545   3.482   7.553 -0.0898  0.1423 -0.3816
 3110TIP3    H130889   1.630   3.445   7.575 -0.8287 -0.7642  1.0507
 3110TIP3    H230890   1.538   3.471   7.458  0.4552 -1.8484 -0.2316
 3111TIP3   OH230891   5.371   2.460   0.225  0.6028  0.1812 -0.6669
 3111TIP3    H130892   5.413   2.475   0.310  0.1868  2.2651 -0.7643
 3111TIP3    H230893   5.364   2.547   0.186 -0.1947 -0.5990 -2.3837
 3112TIP3   OH230894   1.622   3.576   7.277  0.0072  0.6514 -0.4239
 3112TIP3    H130895   1.684   3.553   7.346 -0.7659  1.5271  0.6006
 3112TIP3    H230896   1.674   3.626   7.214  1.0603 -1.3979 -1.2905
 3113TIP3   OH230897   5.117   6.327   7.837  0.0610  0.1137 -0.0229
 3113TIP3    H130898   5.188   6.291   7.890  2.0407 -0.4047 -2.8412
 3113TIP3    H230899   5.079   6.250   7.793 -0.0454  0.7495 -1.0680
 3114TIP3   OH230900   5.271   2.493   1.321  0.1939  0.3100 -0.1525
 3114TIP3    H130901   5.294   2.584   1.302  2.3083 -0.5887 -2.4284
 3114TIP3    H230902   5.316   2.473   1.402  0.8873  0.8923 -0.3835
 3115TIP3   OH230903   3.302   3.474   0.262 -0.0019  0.0469 -0.0893
 3115TIP3    H130904   3.225   3.473   0.319 -0.0242 -2.3459 -0.0765
 3115TIP3    H230905   3.296   3.557   0.215 -2.2917  0.1612  0.3078
 3116TIP3   OH230906   1.770   1.232   8.235 -0.0020  0.5293 -0.8360
 3116TIP3    H130907   1.851   1.182   8.223  0.7479  1.7470 -0.9632
 3116TIP3    H230908   1.706   1.186   8.181 -0.1299 -2.0210  1.2515
 3117TIP3   OH230909   5.440   4.672   7.732 -0.0032  0.3126  0.2193
 3117TIP3    H130910   5.364   4.730   7.721 -0.3555 -0.0764  0.5796
 3117TIP3    H230911   5.499   4.697   7.661  0.1041  1.5034  0.6866
 3118TIP3   OH230912   2.631   3.644   1.636  0.0424  0.5433  0.2938
 3118TIP3    H130913   2.544   3.603   1.639  1.2615 -2.6291 -1.8233
 3118TIP3    H230914   2.663   3.626   1.547  2.2061  3.1812  0.4141
 3119TIP3   OH230915   3.345   0.384   1.525 -0.0590 -0.6258  0.0455
 3119TIP3    H130916   3.360   0.384   1.620  0.2595  1.4720  0.0414
 3119TIP3    H230917   3.308   0.470   1.507  0.8856 -0.5849 -1.8933
 3120TIP3   OH230918   5.530   4.812   0.478  0.4561  0.1520  0.4478
 3120TIP3    H130919   5.571   4.783   0.397 -2.1132  0.3554 -1.0257
 3120TIP3    H230920   5.539   4.738   0.538  2.5011  0.0448  0.0660
 3121TIP3   OH230921   6.249   1.302   8.548  0.2847  0.5951  0.5270
 3121TIP3    H130922   6.221   1.212   8.565 -4.3542  1.6317 -0.3865
 3121TIP3    H230923   6.282   1.300   8.458 -0.0048 -0.1268  0.4275
 3122TIP3   OH230924   0.476   4.903   2.778  0.0823 -0.3215  0.6839
 3122TIP3    H130925   0.525   4.982   2.756  0.7241 -1.1784 -1.1217
 3122TIP3    H230926   0.438   4.922   2.864  0.8008  1.6577  0.6166
 3123TIP3   OH230927   1.388   5.620   1.513 -0.6207 -0.1400  0.0136
 3123TIP3    H130928   1.432   5.705   1.522 -1.8288  0.5479 -0.3690
 3123TIP3    H230929   1.337   5.628   1.432 -0.8526 -1.1944  0.0443
 3124TIP3   OH230930   4.737   4.613   2.442  0.3866 -0.1547  0.0664
 3124TIP3    H130931   4.648   4.579   2.442 -0.1625  1.1780  1.1939
 3124TIP3    H230932   4.727   4.708   2.451  1.9029  0.1267 -0.7533
 3125TIP3   OH230933   3.999   4.838   2.833  0.0033  0.3871 -1.0649
 3125TIP3    H130934   3.906   4.844   2.813  0.0491  0.6980 -1.1940
 3125TIP3    H230935   4.003   4.835   2.929 -0.1053  1.1313 -1.0297
 3126TIP3   OH230936   3.059   3.249   1.678 -0.6551 -0.1006 -0.3394
 3126TIP3    H130937   3.030   3.158   1.687 -0.7142  0.0256  0.9418
 3126TIP3    H230938   3.113   3.249   1.599 -0.5273 -1.2865 -0.2746
 3127TIP3   OH230939   1.317   1.718   0.756  0.3268  0.6947 -0.1303
 3127TIP3    H130940   1.232   1.763   0.748 -0.6714 -0.8854  1.0883
 3127TIP3    H230941   1.369   1.754   0.684 -1.9219  0.5082 -1.9777
 3128TIP3   OH230942   3.446   3.337   8.233  0.1034 -0.5068  0.3113
 3128TIP3    H130943   3.525   3.317   8.284  0.1912  3.6104  2.1711
 3128TIP3    H230944   3.466   3.419   8.189 -2.3016 -0.6858 -1.3035
 3129TIP3   OH230945   4.835   4.383   2.070  0.0791  0.1276 -0.5471
 3129TIP3    H130946   4.868   4.422   1.990  2.7254 -1.4246 -0.3350
 3129TIP3    H230947   4.791   4.303   2.042  2.0460 -1.0579 -0.4978
 3130TIP3   OH230948   5.474   1.822   8.154 -0.4232 -0.0643 -0.5410
 3130TIP3    H130949   5.459   1.843   8.062 -0.3962  0.0832 -0.5126
 3130TIP3    H230950   5.455   1.904   8.200  1.2413  0.3748 -0.5722
 3131TIP3   OH230951   3.883   1.758   1.767  0.0064  0.3745  0.6450
 3131TIP3    H130952   3.930   1.777   1.685 -1.4612  0.9738 -0.0876
 3131TIP3    H230953   3.877   1.843   1.810 -0.0962  0.2314  0.9111
 3132TIP3   OH230954   1.710   3.214   0.852  0.0183 -0.6007 -0.6449
 3132TIP3    H130955   1.655   3.162   0.793 -0.2519 -0.8016 -0.2286
 3132TIP3    H230956   1.777   3.252   0.796 -0.6396 -0.2188 -1.1963
 3133TIP3   OH230957   0.122   2.947   7.259 -0.3924 -0.1195  0.6226
 3133TIP3    H130958   0.162   2.938   7.172 -2.5691  0.4543 -0.5071
 3133TIP3    H230959   0.118   3.042   7.273  0.8607 -0.2118  1.8566
 3134TIP3   OH230960   4.473   0.832   1.407 -0.0061  0.1949  0.2947
 3134TIP3    H130961   4.393   0.865   1.366  0.2190 -0.8439 -1.0551
 3134TIP3    H230962   4.544   0.865   1.352  0.3600 -0.5164  0.3325
 3135TIP3   OH230963   0.378   1.806   7.583  0.3573 -0.7575  0.1890
 3135TIP3    H130964   0.399   1.832   7.493 -0.1201 -0.3940  0.1791
 3135TIP3    H230965   0.349   1.715   7.575 -2.1110 -0.0051 -0.4159
 3136TIP3   OH230966   4.273   6.684   2.770 -0.0456 -0.0884 -0.3501
 3136TIP3    H130967   4.205   6.618   2.781  0.3874 -0.3961  0.5809
 3136TIP3    H230968   4.355   6.634   2.769  0.1208  0.1269 -2.9162
 3137TIP3   OH230969   6.029   5.857   0.578  0.2876  0.0457  0.1326
 3137TIP3    H130970   6.047   5.934   0.525  2.0334  0.0499  0.6572
 3137TIP3    H230971   6.020   5.891   0.668 -2.6522  0.0464 -0.0517
 3138TIP3   OH230972   2.971   3.149   1.212  0.4378  0.3768 -0.3616
 3138TIP3    H130973   2.938   3.082   1.152 -1.6107  0.1701  0.8758
 3138TIP3    H230974   2.910   3.223   1.201  1.8442  1.5286 -0.7071
 3139TIP3   OH230975   4.636   2.510   8.532  0.3026  0.5380  0.6555
 3139TIP3    H130976   4.613   2.462   8.611 -0.6118  0.6383  0.4681
 3139TIP3    H230977   4.557   2.560   8.511 -0.1570 -0.8839 -1.3359
 3140TIP3   OH230978   2.741   5.979   7.487  0.4789  0.1198 -0.0086
 3140TIP3    H130979   2.745   6.001   7.394  1.6127 -2.2289 -0.6042
 3140TIP3    H230980   2.689   5.898   7.490  1.0048 -0.1972  1.3163
 3141TIP3   OH230981   5.534   5.168   8.578 -0.3951  0.0800  0.3953
 3141TIP3    H130982   5.477   5.091   8.580 -1.1385  0.6266  0.6371
 3141TIP3    H230983   5.623   5.132   8.576 -0.7555 -0.8038 -1.3636
 3142TIP3   OH230984   4.818   6.408   7.220  0.3439 -0.6176  0.2246
 3142TIP3    H130985   4.871   6.486   7.202 -0.6657 -0.1824 -1.0854
 3142TIP3    H230986   4.728   6.441   7.223 -0.1147 -1.7466 -0.5038
 3143TIP3   OH230987   3.692   1.327   1.166 -0.6936 -0.2018  0.8118
 3143TIP3    H130988   3.672   1.414   1.201  0.3795  0.8360 -0.9495
 3143TIP3    H230989   3.786   1.318   1.178 -0.6626 -0.7428  0.2158
 3144TIP3   OH230990   3.024   6.121   7.496 -0.6122 -0.3958 -0.1916
 3144TIP3    H130991   3.024   6.099   7.590 -2.2144 -0.6332 -0.2152
 3144TIP3    H230992   2.968   6.054   7.456 -0.1542 -0.1412 -1.2859
 3145TIP3   OH230993   5.886   2.437   8.557  0.2540  0.3862  0.1637
 3145TIP3    H130994   5.915   2.508   8.614  1.0504 -0.1609  0.4547
 3145TIP3    H230995   5.796   2.419   8.585  1.0543 -0.7703  2.1801
 3146TIP3   OH230996   2.649   1.406   8.307  0.0324  0.3248  0.2104
 3146TIP3    H130997   2.690   1.476   8.358  1.5629  0.5216 -1.2280
 3146TIP3    H230998   2.694   1.326   8.335  0.4901  0.3579 -0.4165
 3147TIP3   OH230999   4.466   1.494   1.846  0.0765 -0.5167  0.3629
 3147TIP3    H131000   4.509   1.559   1.790  2.1862  0.8284  3.2753
 3147TIP3    H231001   4.468   1.413   1.794  0.8072  0.8750 -1.9124
 3148TIP3   OH231002   1.481   0.896   0.072  0.4551  0.1127 -0.6336
 3148TIP3    H131003   1.450   0.957   0.140  0.4534 -0.5886  0.0176
 3148TIP3    H231004   1.431   0.920  -0.006  0.7574  1.2084 -0.5071
 3149TIP3   OH231005   2.039   2.002   0.372  0.2754  0.7255 -0.2151
 3149TIP3    H131006   2.039   2.076   0.311 -2.0997  0.2353 -0.8854
 3149TIP3    H231007   2.041   1.925   0.316  1.7212  0.2293  0.4607
 3150TIP3   OH231008   6.800   6.053   0.383  0.5589  0.5329 -0.0880
 3150TIP3    H131009   6.841   6.060   0.469  0.6536 -0.8202  0.0012
 3150TIP3    H231010   6.781   5.960   0.373 -1.0168  0.8974 -0.8237
 3151TIP3   OH231011   1.268   6.096   0.869 -0.2875  0.4875 -0.1801
 3151TIP3    H131012   1.275   6.037   0.794 -1.8004 -0.3618  0.3149
 3151TIP3    H231013   1.274   6.039   0.946  0.4796  1.2551  0.3610
 3152TIP3   OH231014   5.048   6.542   2.439  0.0831 -0.3282  0.3782
 3152TIP3    H131015   5.096   6.590   2.507 -0.0427 -1.1782  1.0910
 3152TIP3    H231016   5.074   6.451   2.451 -0.7612 -0.6349 -0.0238
 3153TIP3   OH231017   4.455   4.050   1.946 -0.1330 -0.1073  0.1342
 3153TIP3    H131018   4.389   4.055   1.877  1.4955  2.8443 -1.3963
 3153TIP3    H231019   4.446   4.132   1.995  1.9873  0.1762  0.1757
 3154TIP3   OH231020   3.186   0.445   6.657 -0.0696 -0.4042 -0.5451
 3154TIP3    H131021   3.268   0.410   6.623 -0.1875 -0.7420 -0.4835
 3154TIP3    H231022   3.170   0.523   6.604 -0.0942 -0.7503 -1.0610
 3155TIP3   OH231023   6.731   5.801   3.013 -0.2916  0.0191 -0.0680
 3155TIP3    H131024   6.760   5.822   3.102 -0.1174  1.7077 -0.4927
 3155TIP3    H231025   6.809   5.813   2.959 -0.5326 -0.4553 -0.5247
 3156TIP3   OH231026   4.011   5.159   2.970 -0.5366  0.1212 -0.4093
 3156TIP3    H131027   3.979   5.092   3.031 -1.5674 -0.5701 -1.6463
 3156TIP3    H231028   3.950   5.155   2.896  1.2695  0.1904 -1.9775
 3157TIP3   OH231029   2.077   0.363   0.927 -0.0222 -0.2188 -0.1688
 3157TIP3    H131030   2.025   0.443   0.924 -0.2648 -0.2376  2.1428
 3157TIP3    H231031   2.028   0.301   0.873 -0.6894  0.6845 -0.6358
 3158TIP3   OH231032   1.052   3.119   1.690 -0.4190  0.0276 -0.3260
 3158TIP3    H131033   1.067   3.214   1.684 -1.7742  0.2313 -0.6805
 3158TIP3    H231034   1.096   3.084   1.612 -1.6441  0.6023 -1.3053
 3159TIP3   OH231035   6.751   0.118   8.197  0.3205  0.1239 -0.3228
 3159TIP3    H131036   6.760   0.085   8.286 -0.0719  0.1915 -0.2558
 3159TIP3    H231037   6.707   0.047   8.150  1.8027 -0.4985 -0.8230
 3160TIP3   OH231038   5.303   5.917   1.816 -0.1583 -0.1253 -0.0545
 3160TIP3    H131039   5.359   5.928   1.892  2.0749 -1.1815 -1.4334
 3160TIP3    H231040   5.246   5.844   1.838  2.1523 -2.1087 -0.2079
 3161TIP3   OH231041   0.058   6.565   0.860 -0.2787  0.0297  0.2431
 3161TIP3    H131042  -0.027   6.551   0.818 -2.1403 -0.6223  3.8631
 3161TIP3    H231043   0.087   6.478   0.885 -0.0059  0.4937  1.6106
 3162TIP3   OH231044   5.490   6.154   8.288  0.5319 -0.0615 -0.2548
 3162TIP3    H131045   5.473   6.081   8.348  0.5394 -0.6741 -0.9885
 3162TIP3    H231046   5.466   6.232   8.338 -1.9001 -0.6971 -0.3256
 3163TIP3   OH231047   3.846   0.521   7.209  0.4766  0.0010 -0.6221
 3163TIP3    H131048   3.899   0.442   7.215  0.9446  0.3788  0.5437
 3163TIP3    H231049   3.756   0.491   7.226  0.7448 -0.1974  0.5353
 3164TIP3   OH231050   5.585   6.344   8.043 -0.0322 -0.0499  0.3561
 3164TIP3    H131051   5.502   6.387   8.064 -0.4103 -0.7835  0.4014
 3164TIP3    H231052   5.636   6.411   7.997 -0.4203  0.5892  0.8446
 3165TIP3   OH231053   1.589   4.695   8.097  0.0040  0.4050 -0.1848
 3165TIP3    H131054   1.563   4.694   8.004 -0.7133  1.3991 -0.0118
 3165TIP3    H231055   1.506   4.687   8.145  0.1319  2.0803  0.3752
 3166TIP3   OH231056   1.622   4.214   7.744 -0.3426 -0.0443 -0.0242
 3166TIP3    H131057   1.532   4.222   7.713 -1.1590 -1.6371  1.6918
 3166TIP3    H231058   1.657   4.139   7.697 -0.8264 -1.0357  1.1240
 3167TIP3   OH231059   2.953   4.912   1.918 -0.3306 -0.4439 -0.1356
 3167TIP3    H131060   2.871   4.961   1.930 -1.2425 -1.6155 -1.2100
 3167TIP3    H231061   2.981   4.890   2.007 -1.4401 -0.4063  0.2393
 3168TIP3   OH231062   0.619   3.755   0.027 -0.5381  0.6568  0.5340
 3168TIP3    H131063   0.713   3.772   0.030 -0.0780 -1.6969  2.0453
 3168TIP3    H231064   0.589   3.771   0.117 -1.5474  1.1595  0.1199
 3169TIP3   OH231065   3.587   5.336   8.020 -0.6897 -0.1889  0.6518
 3169TIP3    H131066   3.667   5.284   8.015 -0.7609 -0.1767 -1.4620
 3169TIP3    H231067   3.518   5.278   7.988 -0.9890  0.7450 -0.4607
 3170TIP3   OH231068   2.441   0.040   7.577 -0.1250 -0.0423 -0.0885
 3170TIP3    H131069   2.445   0.067   7.485  0.4569  1.0123  0.2301
 3170TIP3    H231070   2.430   0.122   7.625 -3.0002 -0.7662  0.6601
 3171TIP3   OH231071   3.864   4.465   7.213  0.1914  0.7763  0.5580
 3171TIP3    H131072   3.878   4.474   7.307  0.8655 -2.8135  0.9676
 3171TIP3    H231073   3.938   4.412   7.183 -0.0486  1.7680 -2.0015
 3172TIP3   OH231074   5.756   5.990   8.721 -0.0431  0.1384 -0.1970
 3172TIP3    H131075   5.684   6.044   8.688  0.0786 -0.4622 -1.4988
 3172TIP3    H231076   5.727   5.900   8.707  0.8976 -0.1130 -0.6004
 3173TIP3   OH231077   2.661   1.793   1.812  0.4368  0.5925  0.2278
 3173TIP3    H131078   2.656   1.856   1.884  0.2203 -1.5464  2.2120
 3173TIP3    H231079   2.581   1.741   1.821  0.5690  0.0726 -1.3957
 3174TIP3   OH231080   0.342   0.840   2.405  0.3905 -0.0812  0.2480
 3174TIP3    H131081   0.293   0.900   2.461  0.4457 -0.7495  1.0378
 3174TIP3    H231082   0.293   0.758   2.410  0.7474 -0.3258 -0.1837
 3175TIP3   OH231083   1.772   5.423   0.178  0.0806  0.0444 -0.6630
 3175TIP3    H131084   1.843   5.435   0.242 -0.8257  1.0515  0.1820
 3175TIP3    H231085   1.712   5.362   0.221 -0.6124  0.8526 -0.4653
 3176TIP3   OH231086   4.707   6.288   0.705 -0.3492  0.0382 -0.3382
 3176TIP3    H131087   4.686   6.203   0.668 -0.8316  0.4845 -1.1095
 3176TIP3    H231088   4.652   6.294   0.783  0.2749 -0.6775  0.1750
 3177TIP3   OH231089   2.264   2.491   2.625 -0.0094 -0.1238 -0.4510
 3177TIP3    H131090   2.179   2.455   2.651 -0.0551 -0.4990 -1.0988
 3177TIP3    H231091   2.292   2.543   2.700 -0.9072  0.1710 -0.3057
 3178TIP3   OH231092   2.671   3.336   1.285 -0.4258 -0.1092  0.0841
 3178TIP3    H131093   2.736   3.302   1.346 -0.5906  1.0846  0.9620
 3178TIP3    H231094   2.588   3.329   1.333 -0.4419  1.6392  0.3791
 3179TIP3   OH231095   4.907   3.223   3.222  0.6490  0.1460 -0.3988
 3179TIP3    H131096   4.856   3.232   3.141 -0.2647  0.1047  0.1527
 3179TIP3    H231097   4.941   3.134   3.220  0.6846  0.1665 -0.7638
 3180TIP3   OH231098   0.893   5.144   1.560  0.2890 -0.8701 -0.3430
 3180TIP3    H131099   0.929   5.160   1.473  0.8661 -0.4719 -0.0402
 3180TIP3    H231100   0.907   5.227   1.607  1.3477 -1.5449  0.5881
 3181TIP3   OH231101   6.265   3.608   2.347 -0.1090 -0.6683 -0.7404
 3181TIP3    H131102   6.282   3.533   2.290 -1.5065  0.6835 -3.0746
 3181TIP3    H231103   6.188   3.650   2.309  1.3598  2.6956 -0.3174
 3182TIP3   OH231104   4.470   1.214   8.579 -0.0182  0.7258  0.2381
 3182TIP3    H131105   4.470   1.136   8.524 -0.6301  1.0552 -0.2440
 3182TIP3    H231106   4.505   1.184   8.663  0.2393  0.0529 -0.0977
 3183TIP3   OH231107   6.556   0.929   1.528  0.1250 -0.0426 -0.2292
 3183TIP3    H131108   6.590   0.843   1.554 -0.3140 -0.3958 -0.7980
 3183TIP3    H231109   6.465   0.928   1.555  0.2293  0.4239  0.1616
 3184TIP3   OH231110   4.951   5.073   1.983  0.2719 -0.4338  0.4213
 3184TIP3    H131111   4.998   5.099   2.063 -1.0499  0.6871  0.8835
 3184TIP3    H231112   5.008   5.101   1.912 -0.3023  2.3367  0.9342
 3185TIP3   OH231113   0.215   4.949   1.448  0.2405 -0.1886  0.2751
 3185TIP3    H131114   0.288   5.002   1.479 -0.1624  0.4895  0.0803
 3185TIP3    H231115   0.161   5.009   1.397  0.1137 -0.9319 -0.5026
 3186TIP3   OH231116   1.244   4.456   0.357 -0.2083 -0.0885  0.3424
 3186TIP3    H131117   1.331   4.487   0.332 -0.4859  0.6473  0.2566
 3186TIP3    H231118   1.239   4.367   0.323  0.8767 -0.5069  1.1966
 3187TIP3   OH231119   2.099   3.907   7.555  0.0006 -0.1146  0.1759
 3187TIP3    H131120   2.048   3.864   7.486  0.1930  2.4349 -1.7009
 3187TIP3    H231121   2.190   3.892   7.531  0.1318 -1.4203  1.3890
 3188TIP3   OH231122   6.711   0.345   0.837 -0.2111 -0.3804  0.5711
 3188TIP3    H131123   6.692   0.251   0.838 -3.5662  0.0470 -2.3662
 3188TIP3    H231124   6.759   0.358   0.755 -1.0455  0.6278  0.2293
 3189TIP3   OH231125   2.350   6.643   7.785 -0.1361  0.2433  0.0001
 3189TIP3    H131126   2.416   6.712   7.784  1.7691 -1.4464  0.8256
 3189TIP3    H231127   2.289   6.669   7.854  0.9290  0.7986  0.7694
 3190TIP3   OH231128   0.584   2.545   0.798 -0.2398  0.1657  0.4437
 3190TIP3    H131129   0.542   2.574   0.718  0.1873 -1.0578 -0.2589
 3190TIP3    H231130   0.524   2.569   0.868 -0.8978  0.7144 -0.3025
 3191TIP3   OH231131   1.550   5.722   7.579  0.5031  0.1480 -0.9055
 3191TIP3    H131132   1.508   5.765   7.504  0.9958 -0.4801 -1.5673
 3191TIP3    H231133   1.644   5.739   7.565  0.5444  0.7506  0.0466
 3192TIP3   OH231134   3.099   1.039   8.205  0.1608  0.1228  0.6638
 3192TIP3    H131135   3.116   1.045   8.299  2.0558 -1.4778  0.4826
 3192TIP3    H231136   3.152   0.965   8.176 -1.6272 -0.4291 -1.4128
 3193TIP3   OH231137   4.483   3.531   1.257  0.6506  0.2739 -0.2567
 3193TIP3    H131138   4.409   3.478   1.289 -0.2910  2.0858  0.7681
 3193TIP3    H231139   4.559   3.496   1.303  0.5821 -1.8928 -1.6265
 3194TIP3   OH231140   1.944   4.144   2.170  0.0325  0.2678  0.1949
 3194TIP3    H131141   2.023   4.179   2.212  0.8080 -1.9664  0.7313
 3194TIP3    H231142   1.963   4.148   2.076  2.1536 -2.9261  0.3357
 3195TIP3   OH231143   5.465   2.437   7.018  0.3393 -0.2629  0.1858
 3195TIP3    H131144   5.424   2.425   6.932 -0.4591 -1.2790  0.6952
 3195TIP3    H231145   5.462   2.532   7.032 -1.2941 -0.2515 -0.0686
 3196TIP3   OH231146   5.802   6.395   2.681 -1.0057  0.1286 -0.2167
 3196TIP3    H131147   5.878   6.453   2.684 -0.0467 -0.8210 -2.9825
 3196TIP3    H231148   5.780   6.380   2.772  1.7895  0.8750  0.6812
 3197TIP3   OH231149   2.411   3.475   0.699 -0.1473  0.0688  0.4697
 3197TIP3    H131150   2.379   3.484   0.788 -0.1151 -0.4876  0.5391
 3197TIP3    H231151   2.492   3.424   0.707  0.1345  0.4638  0.1760
 3198TIP3   OH231152   3.288   1.676   0.614  0.1252  1.0129 -0.1266
 3198TIP3    H131153   3.311   1.701   0.703  1.2223 -0.0608 -0.0736
 3198TIP3    H231154   3.205   1.629   0.624  0.0654  1.1965  0.2785
 3199TIP3   OH231155   2.932   3.969   8.007  0.0746  0.4997  0.2107
 3199TIP3    H131156   2.843   3.958   7.974  0.3967  1.1765 -0.9388
 3199TIP3    H231157   2.924   4.038   8.073 -0.1579  1.0143 -0.3438
 3200TIP3   OH231158   1.957   1.436   7.776  0.0964 -0.2968 -0.3634
 3200TIP3    H131159   2.022   1.506   7.775  0.1982 -0.3213  1.4524
 3200TIP3    H231160   1.905   1.451   7.697  1.1039  0.8670 -0.8451
 3201TIP3   OH231161   2.224   2.308   0.943 -0.1720  0.2850  0.7198
 3201TIP3    H131162   2.238   2.398   0.974 -2.3039  1.9262 -2.4438
 3201TIP3    H231163   2.143   2.281   0.986 -0.9236  0.9552 -0.2237
 3202TIP3   OH231164   5.574   2.183   7.941 -0.7135  1.1399  0.3990
 3202TIP3    H131165   5.658   2.152   7.975 -0.4225  1.3990 -0.0739
 3202TIP3    H231166   5.588   2.276   7.923 -2.0499  2.0259  3.3399
 3203TIP3   OH231167   3.914   6.010   7.596  0.1489  0.1336 -0.2847
 3203TIP3    H131168   3.957   5.956   7.530 -2.8177 -0.2406 -2.0939
 3203TIP3    H231169   3.850   6.061   7.546  0.1363  2.4371  1.8989
 3204TIP3   OH231170   3.338   6.750   0.141 -0.2666  0.0162 -0.7278
 3204TIP3    H131171   3.399   6.679   0.158  0.0049  0.4602  0.2289
 3204TIP3    H231172   3.252   6.709   0.147 -0.1019 -0.3167 -0.5993
 3205TIP3   OH231173   2.545   3.970   0.133 -0.2149  0.0541 -0.2104
 3205TIP3    H131174   2.626   4.022   0.144  0.2500 -0.6316 -0.3546
 3205TIP3    H231175   2.480   4.017   0.186  0.4642  0.2102  0.5203
 3206TIP3   OH231176   4.712   5.600   1.421 -0.4832 -0.5616 -0.7566
 3206TIP3    H131177   4.780   5.635   1.363 -0.5587  0.8497 -0.0143
 3206TIP3    H231178   4.645   5.567   1.361  0.4835 -1.2851 -1.4877
 3207TIP3   OH231179   6.818   5.889   1.964  0.0545 -0.3312  0.2283
 3207TIP3    H131180   6.825   5.975   1.924 -0.1227 -1.0638 -1.4421
 3207TIP3    H231181   6.801   5.907   2.057  3.4718  1.4219  0.6372
 3208TIP3   OH231182   1.507   3.826   7.400 -0.3326 -0.4983 -0.1321
 3208TIP3    H131183   1.570   3.886   7.360  0.3892 -1.2591 -0.1689
 3208TIP3    H231184   1.530   3.740   7.365 -1.4319 -0.7963 -0.1825
 3209TIP3   OH231185   3.154   3.873   0.821 -0.0934  0.0038  0.0369
 3209TIP3    H131186   3.059   3.887   0.825 -0.3230 -1.1237 -0.7992
 3209TIP3    H231187   3.169   3.797   0.877  0.7744  1.8811  2.5450
 3210TIP3   OH231188   4.949   6.163   8.060 -0.3328  0.3869  0.2093
 3210TIP3    H131189   4.891   6.232   8.030 -0.0540  0.8311  0.6728
 3210TIP3    H231190   4.971   6.113   7.980 -1.0234  0.4524 -0.0245
 3211TIP3   OH231191   4.680   1.188   0.449 -0.2229  0.4488 -0.1366
 3211TIP3    H131192   4.726   1.105   0.460  0.0300  0.7563  1.3180
 3211TIP3    H231193   4.612   1.170   0.384 -1.1055 -1.2970  1.1888
 3212TIP3   OH231194   1.159   0.981   2.009  0.0650  0.4793  0.0700
 3212TIP3    H131195   1.215   0.906   1.990  0.7040  0.7418  0.8897
 3212TIP3    H231196   1.121   1.004   1.924 -2.3628 -2.4819  0.1383
 3213TIP3   OH231197   6.596   3.040   8.453  0.1878 -0.6252  0.4567
 3213TIP3    H131198   6.529   3.012   8.391  1.3239  0.6738 -1.4647
 3213TIP3    H231199   6.582   3.135   8.462  3.0193  0.1209 -1.7449
 3214TIP3   OH231200   5.550   6.216   2.828  0.0407 -0.4914 -0.0702
 3214TIP3    H131201   5.523   6.160   2.901 -1.5229 -0.1313 -0.3317
 3214TIP3    H231202   5.622   6.168   2.788 -0.6646 -1.9072  0.2466
 3215TIP3   OH231203   5.629   2.568   8.576  0.1441 -0.6177 -0.2925
 3215TIP3    H131204   5.595   2.634   8.515 -1.9582  0.2852  1.6962
 3215TIP3    H231205   5.640   2.615   8.659 -0.3032 -2.4757  0.8834
 3216TIP3   OH231206   1.076   5.471   7.773 -0.1709 -0.0007 -0.0585
 3216TIP3    H131207   1.148   5.490   7.712  1.4309 -2.0509  1.0633
 3216TIP3    H231208   1.087   5.535   7.844  0.5435 -0.2827  0.0907
 3217TIP3   OH231209   1.960   6.485   2.201  0.3813 -0.0515 -0.5747
 3217TIP3    H131210   1.881   6.503   2.251  0.0375 -3.4629  0.3342
 3217TIP3    H231211   2.030   6.526   2.252 -0.4336  0.0699  0.4867
 3218TIP3   OH231212   1.159   0.051   7.350  0.1861 -0.1615  0.0717
 3218TIP3    H131213   1.073   0.057   7.308  0.6693 -0.3169 -0.9618
 3218TIP3    H231214   1.216   0.015   7.283  1.1478  0.2962  0.6270
 3219TIP3   OH231215   1.957   0.247   7.194 -0.4200  0.6089  0.2059
 3219TIP3    H131216   2.044   0.210   7.185 -0.0616  0.1558  4.0657
 3219TIP3    H231217   1.899   0.171   7.201 -1.0375  0.9147 -1.1366
 3220TIP3   OH231218   6.239   2.855   2.100  0.2929 -0.0986  0.0713
 3220TIP3    H131219   6.271   2.792   2.036 -1.0863  1.1580 -2.0004
 3220TIP3    H231220   6.229   2.937   2.050 -0.0754  1.1722  2.1044
 3221TIP3   OH231221   6.235   4.532   1.643 -0.3197  0.3575  0.4930
 3221TIP3    H131222   6.294   4.600   1.611 -0.4484  0.1123 -0.2700
 3221TIP3    H231223   6.187   4.504   1.566  0.7358 -1.6202  0.5091
 3222TIP3   OH231224   3.141   5.642   8.218 -0.2364 -0.4553 -0.0605
 3222TIP3    H131225   3.182   5.693   8.288 -1.9009 -0.1006  0.7199
 3222TIP3    H231226   3.171   5.683   8.137  2.0640 -1.1324  0.3725
 3223TIP3   OH231227   4.988   0.795   7.610 -0.2363  0.3936  0.1631
 3223TIP3    H131228   4.981   0.747   7.528 -0.2321 -0.8819  0.8863
 3223TIP3    H231229   5.013   0.729   7.675  0.9867  1.5908  0.9745
 3224TIP3   OH231230   3.179   1.069   0.816 -0.3285  0.2672 -0.6237
 3224TIP3    H131231   3.107   1.105   0.868  0.0248  0.7047 -0.4339
 3224TIP3    H231232   3.202   1.140   0.756 -0.5737 -0.1480 -1.2195
 3225TIP3   OH231233   3.208   5.958   0.089 -0.3790 -0.6970  0.0402
 3225TIP3    H131234   3.258   5.960   0.007  1.3396  1.0007  1.0782
 3225TIP3    H231235   3.125   6.001   0.067 -0.1137 -0.6458 -0.9033
 3226TIP3   OH231236   5.719   5.678   2.072  0.4082 -0.3053 -0.2772
 3226TIP3    H131237   5.810   5.698   2.091  0.5720 -0.3180 -1.0194
 3226TIP3    H231238   5.690   5.625   2.147  1.0622 -0.4585 -0.1250
 3227TIP3   OH231239   3.115   4.911   2.173 -0.2743 -0.1241 -0.4168
 3227TIP3    H131240   3.079   4.884   2.258 -1.0529 -0.8306 -0.9583
 3227TIP3    H231241   3.168   4.835   2.145  0.0861  0.1577 -0.5092
 3228TIP3   OH231242   0.688   0.033   1.389 -0.6636 -0.0293 -0.6314
 3228TIP3    H131243   0.619  -0.027   1.416 -0.5714  0.0960 -0.0993
 3228TIP3    H231244   0.642   0.116   1.373 -0.6753 -0.0196 -0.5489
 3229TIP3   OH231245   0.358   2.880   2.862  0.6135 -0.0567 -0.4676
 3229TIP3    H131246   0.326   2.923   2.941  0.2292  1.3253 -1.3368
 3229TIP3    H231247   0.362   2.950   2.796 -3.6481 -1.8456 -3.0759
 3230TIP3   OH231248   1.368   6.128   8.320  0.1677  0.2406 -0.0456
 3230TIP3    H131249   1.424   6.084   8.384  0.5543 -0.8984 -1.1191
 3230TIP3    H231250   1.279   6.114   8.352  0.4249  1.4460  1.2955
 3231TIP3   OH231251   1.380   5.501   0.605  0.0772  0.0935 -0.3635
 3231TIP3    H131252   1.423   5.480   0.688  0.8040 -0.5473 -0.8860
 3231TIP3    H231253   1.441   5.559   0.560 -1.2236  2.1556  0.3943
 3232TIP3   OH231254   5.441   3.746   7.107  0.2009  0.0416 -0.2418
 3232TIP3    H131255   5.348   3.763   7.093 -0.0665 -1.7955 -0.9403
 3232TIP3    H231256   5.443   3.670   7.165  1.2738  0.1072 -0.1701
 3233TIP3   OH231257   6.377   4.741   0.584 -0.0509 -0.3085  0.0504
 3233TIP3    H131258   6.428   4.686   0.643 -0.5112 -0.0375  0.7113
 3233TIP3    H231259   6.432   4.818   0.570 -1.3505  1.3603  3.0619
 3234TIP3   OH231260   0.212   1.081   8.387 -0.2685 -0.0047  0.1063
 3234TIP3    H131261   0.216   0.990   8.356 -1.3291  0.0339 -0.1983
 3234TIP3    H231262   0.303   1.104   8.405  0.0303 -1.0965  0.0963
 3235TIP3   OH231263   3.781   4.121   7.959  0.9334  0.2555  0.1875
 3235TIP3    H131264   3.870   4.117   7.994  0.2445 -0.5769  1.9964
 3235TIP3    H231265   3.731   4.167   8.027 -0.4128 -1.1972  0.2386
 3236TIP3   OH231266   4.064   6.303   0.219 -0.0848  0.2062  0.2899
 3236TIP3    H131267   4.019   6.340   0.295  1.8040 -2.2008  2.7956
 3236TIP3    H231268   3.998   6.248   0.176 -0.3865 -1.0970  2.2874
 3237TIP3   OH231269   4.486   1.006   7.128  1.2872 -0.2959  0.4076
 3237TIP3    H131270   4.559   0.951   7.102  1.4412 -0.3315  0.9104
 3237TIP3    H231271   4.422   0.996   7.058  2.0825  0.3570 -0.4302
 3238TIP3   OH231272   1.568   0.203   7.582 -0.3321  0.2289  0.2791
 3238TIP3    H131273   1.535   0.189   7.493 -0.5326 -0.5712  0.4743
 3238TIP3    H231274   1.620   0.283   7.576 -0.2358  0.1058 -0.5864
 3239TIP3   OH231275   1.676   3.815   8.560  0.6158  0.4960  0.7511
 3239TIP3    H131276   1.597   3.829   8.613  0.2285 -0.6474  0.5175
 3239TIP3    H231277   1.729   3.755   8.613  0.9395  0.5841  0.5290
 3240TIP3   OH231278   1.297   1.288   8.506  0.6395  0.2994 -0.3753
 3240TIP3    H131279   1.365   1.223   8.526  0.7687  0.2821 -0.8557
 3240TIP3    H231280   1.344   1.359   8.462  0.3111  0.1697 -0.9453
 3241TIP3   OH231281   2.709   4.211   1.403  0.0587 -0.0934 -0.2129
 3241TIP3    H131282   2.771   4.148   1.441 -0.2022 -1.0805 -1.3662
 3241TIP3    H231283   2.623   4.177   1.425 -0.0846  0.2510 -0.2325
 3242TIP3   OH231284   2.179   1.517   1.915 -0.0323  0.3257  0.5283
 3242TIP3    H131285   2.118   1.573   1.868  0.0225  0.4158  0.5648
 3242TIP3    H231286   2.193   1.560   1.999 -1.1769 -0.5317  1.1769
 3243TIP3   OH231287   5.188   4.471   1.767 -0.1877 -0.2107 -0.2195
 3243TIP3    H131288   5.143   4.409   1.823 -1.3855 -1.5808 -2.5629
 3243TIP3    H231289   5.245   4.417   1.712  0.2428  0.9708 -0.9699
 3244TIP3   OH231290   3.725   2.890   2.251  0.6388 -0.2882 -0.2168
 3244TIP3    H131291   3.728   2.835   2.330 -0.0003 -0.1434 -0.0865
 3244TIP3    H231292   3.688   2.833   2.184  0.4164 -0.1658 -0.2004
 3245TIP3   OH231293   5.721   5.389   2.564  0.2172  0.6250  0.4608
 3245TIP3    H131294   5.801   5.418   2.609  0.3466  1.2730 -0.1621
 3245TIP3    H231295   5.650   5.414   2.622  0.3799  1.4967  0.2961
 3246TIP3   OH231296   0.032   2.731   1.703  0.2841 -0.4154 -0.3339
 3246TIP3    H131297  -0.015   2.750   1.785 -0.2193 -1.9892 -0.2212
 3246TIP3    H231298   0.061   2.640   1.713  1.0896 -0.3069 -1.5052
 3247TIP3   OH231299   4.007   2.162   0.805  0.1983 -0.1438 -0.0858
 3247TIP3    H131300   3.947   2.168   0.732 -0.4398 -1.1386  0.3393
 3247TIP3    H231301   3.953   2.176   0.883  1.2247  3.2859  0.1747
 3248TIP3   OH231302   1.202   2.652   1.517  0.1138  0.3512  0.1309
 3248TIP3    H131303   1.109   2.635   1.505  0.5641 -2.2966 -0.0994
 3248TIP3    H231304   1.227   2.598   1.591  1.4880  1.0601  0.2205
 3249TIP3   OH231305   5.746   3.917   0.601 -0.0888  0.2638  0.2318
 3249TIP3    H131306   5.820   3.864   0.572  0.8254  2.1177 -0.9710
 3249TIP3    H231307   5.785   3.988   0.651 -1.1085  0.9676  0.0436
 3250TIP3   OH231308   2.448   1.864   6.757 -0.2384  0.3505 -0.2353
 3250TIP3    H131309   2.420   1.956   6.758 -1.2942  0.1939 -3.3440
 3250TIP3    H231310   2.373   1.815   6.788 -0.1085  0.4709  0.2676
 3251TIP3   OH231311   0.252   1.645   1.157  0.2037  0.0045 -0.4542
 3251TIP3    H131312   0.205   1.667   1.077 -1.9803 -0.1375  0.7294
 3251TIP3    H231313   0.262   1.728   1.203 -1.4878 -0.3448  0.6084
 3252TIP3   OH231314   1.290   2.332   0.829  0.3343  0.5045  0.1008
 3252TIP3    H131315   1.214   2.374   0.869 -0.0737 -0.9110  0.8499
 3252TIP3    H231316   1.364   2.360   0.882 -0.1385 -0.9591  1.6069
 3253TIP3   OH231317   5.617   4.061   1.314  0.1774  0.0589 -0.4383
 3253TIP3    H131318   5.544   4.002   1.332  0.7235 -0.5421 -0.1674
 3253TIP3    H231319   5.686   4.005   1.279 -0.1193  0.8861 -2.4895
 3254TIP3   OH231320   1.009   5.118   8.548 -0.1095 -0.6146 -0.2042
 3254TIP3    H131321   1.035   5.048   8.607 -1.2324 -0.8213  0.0583
 3254TIP3    H231322   1.082   5.180   8.552  0.6729 -1.5152 -0.0593
 3255TIP3   OH231323   0.180   2.817   0.093  0.1051 -0.6889  0.5281
 3255TIP3    H131324   0.183   2.907   0.060 -0.5759 -0.0267  2.1551
 3255TIP3    H231325   0.088   2.802   0.114  0.4152 -1.3001  1.4930
 3256TIP3   OH231326   0.495   5.737   0.518  0.1774  0.2120 -0.0052
 3256TIP3    H131327   0.450   5.764   0.598 -2.5187 -0.8741 -1.0633
 3256TIP3    H231328   0.522   5.820   0.478 -0.1026  0.8606  1.0935
 3257TIP3   OH231329   6.269   5.812   8.632 -0.0087  0.1265 -0.0262
 3257TIP3    H131330   6.214   5.879   8.672 -0.4130 -0.7494  0.9135
 3257TIP3    H231331   6.236   5.806   8.542  1.9383  3.2264 -1.1307
 3258TIP3   OH231332   5.092   3.321   2.400  0.3598  0.0371 -0.4827
 3258TIP3    H131333   5.179   3.331   2.440 -0.0521  0.3290  0.3781
 3258TIP3    H231334   5.072   3.228   2.409  0.5165 -0.0013 -0.5281
 3259TIP3   OH231335   6.754   1.589   0.457 -0.4349 -0.4139  0.2510
 3259TIP3    H131336   6.774   1.569   0.366 -0.2588 -0.0876  0.2200
 3259TIP3    H231337   6.788   1.514   0.506 -0.8048 -0.7345  0.0213
 3260TIP3   OH231338   1.605   2.293   6.981  0.0424  0.2818 -0.1115
 3260TIP3    H131339   1.619   2.370   7.037 -2.8117  0.8182  0.0651
 3260TIP3    H231340   1.549   2.326   6.911 -0.3218 -1.4124 -0.6515
 3261TIP3   OH231341   5.963   6.583   7.652 -0.6153 -0.7090  0.6782
 3261TIP3    H131342   5.963   6.512   7.588 -1.0494 -0.2964  0.2172
 3261TIP3    H231343   5.986   6.540   7.735 -1.6663 -1.5258  0.5664
 3262TIP3   OH231344   0.457   4.538   8.702  1.0055  0.5079  0.3026
 3262TIP3    H131345   0.412   4.509   8.782 -0.2083  0.5449 -0.3492
 3262TIP3    H231346   0.506   4.461   8.674 -0.2160 -0.1676 -0.0426
 3263TIP3   OH231347   4.191   2.861   8.195 -0.6294 -0.3430  0.1294
 3263TIP3    H131348   4.208   2.778   8.239  1.8909 -0.5866 -1.1570
 3263TIP3    H231349   4.164   2.920   8.266  0.0426 -1.5754  1.4679
 3264TIP3   OH231350   2.089   1.902   2.195  0.0751  0.4172 -0.7104
 3264TIP3    H131351   2.085   1.942   2.282 -1.4970  0.8743 -0.9782
 3264TIP3    H231352   2.111   1.974   2.136 -1.2808  0.6295 -0.9926
 3265TIP3   OH231353   0.962   6.559   1.046  0.1133  0.0769 -0.5626
 3265TIP3    H131354   1.040   6.519   1.085 -1.4685 -2.2399  0.4284
 3265TIP3    H231355   0.927   6.617   1.114  1.7190  2.4003 -1.5642
 3266TIP3   OH231356   4.142   2.104   1.506  0.9418  0.5453  0.2911
 3266TIP3    H131357   4.103   2.120   1.420  1.6784 -1.5738 -0.5097
 3266TIP3    H231358   4.180   2.188   1.531 -1.5917  1.9395 -0.1748
 3267TIP3   OH231359   4.313   3.936   2.825 -0.4512 -0.3301 -0.1881
 3267TIP3    H131360   4.318   4.031   2.816 -3.2938  0.1945  2.1021
 3267TIP3    H231361   4.387   3.913   2.881 -1.1057  0.9519  1.2634
 3268TIP3   OH231362   0.659   3.191   2.860 -0.0534 -0.5401  0.0955
 3268TIP3    H131363   0.575   3.196   2.907  0.1547 -1.9960  0.6925
 3268TIP3    H231364   0.666   3.274   2.814 -0.8096  0.4885  1.7502
 3269TIP3   OH231365   2.150   2.124   2.008 -0.0625  0.1632  0.3212
 3269TIP3    H131366   2.203   2.200   2.032 -0.1042  0.5198 -0.6579
 3269TIP3    H231367   2.213   2.052   2.001 -0.1994 -0.2596  2.6236
 3270TIP3   OH231368   2.149   4.114   1.604  0.2234 -0.0677 -0.2540
 3270TIP3    H131369   2.125   4.043   1.664  0.5289  0.3464  0.3622
 3270TIP3    H231370   2.092   4.186   1.629  1.9582  0.8838  1.1271
 3271TIP3   OH231371   5.644   5.876   1.400  0.2335 -0.4226 -0.2742
 3271TIP3    H131372   5.611   5.925   1.324 -1.4685 -1.2537 -0.1021
 3271TIP3    H231373   5.638   5.937   1.473 -0.9816 -0.5506 -0.2471
 3272TIP3   OH231374   5.718   5.138   2.462  0.4296  0.0979 -0.1245
 3272TIP3    H131375   5.709   5.201   2.534  0.6431  0.9362 -0.8092
 3272TIP3    H231376   5.777   5.182   2.400  0.3653 -0.6741 -0.7408
 3273TIP3   OH231377   3.540   5.736   1.882  0.3041  0.3073 -0.4719
 3273TIP3    H131378   3.602   5.664   1.876 -0.6629 -0.4266 -2.8786
 3273TIP3    H231379   3.591   5.814   1.861  1.0382  0.1467  0.6526
 3274TIP3   OH231380   0.835   4.565   0.506 -0.3918  0.3423 -0.0934
 3274TIP3    H131381   0.792   4.587   0.588 -0.5079 -0.1142 -0.0270
 3274TIP3    H231382   0.920   4.529   0.532 -1.3842 -2.1643  0.0014
 3275TIP3   OH231383   0.870   1.016   7.731  0.1497 -0.2686  0.1129
 3275TIP3    H131384   0.961   0.994   7.750  0.8845  1.8061 -0.7337
 3275TIP3    H231385   0.870   1.039   7.638 -1.3597 -0.6841 -0.0232
 3276TIP3   OH231386   2.891   3.954   1.123 -0.2834 -0.2097 -0.5341
 3276TIP3    H131387   2.892   3.918   1.035  0.4210  0.7448 -0.9335
 3276TIP3    H231388   2.977   3.932   1.159  0.3318  1.3641 -0.9370
 3277TIP3   OH231389   2.180   4.570   1.225  0.3814 -0.4324 -0.1667
 3277TIP3    H131390   2.231   4.594   1.302  1.2015 -0.5064 -0.6685
 3277TIP3    H231391   2.170   4.652   1.176 -2.0405  0.0861  1.0612
 3278TIP3   OH231392   4.648   3.332   6.916 -0.2168 -0.1961  0.2283
 3278TIP3    H131393   4.675   3.423   6.927 -1.3493  0.1266  0.3890
 3278TIP3    H231394   4.631   3.323   6.822  2.3259 -0.9616 -0.2507
 3279TIP3   OH231395   5.174   3.800   1.576 -0.3314 -0.4684 -0.4156
 3279TIP3    H131396   5.150   3.711   1.549  1.1835 -1.0602  0.0999
 3279TIP3    H231397   5.239   3.827   1.512 -0.7883  0.2786 -0.5684
 3280TIP3   OH231398   4.511   6.436   1.657  0.0369 -0.0500  0.5752
 3280TIP3    H131399   4.600   6.401   1.663  0.2179 -1.3884 -4.7593
 3280TIP3    H231400   4.455   6.358   1.664 -0.2596 -0.0307 -1.1622
 3281TIP3   OH231401   0.348   6.789   1.168  0.6986  0.3033 -0.1887
 3281TIP3    H131402   0.402   6.760   1.242 -0.6348 -1.2483  0.2227
 3281TIP3    H231403   0.269   6.735   1.173 -0.1601  1.3442 -1.7682
 3282TIP3   OH231404   5.827   4.079   8.241 -0.6543  0.0971  0.2085
 3282TIP3    H131405   5.817   4.085   8.336  0.8134 -0.9303  0.4535
 3282TIP3    H231406   5.763   4.013   8.214 -0.2609 -0.4755  0.6514
 3283TIP3   OH231407   5.181   5.874   7.934  0.2694  0.7377 -0.4185
 3283TIP3    H131408   5.246   5.932   7.973 -0.5250  1.4712 -0.1483
 3283TIP3    H231409   5.194   5.791   7.979  0.0801  1.2721  0.6703
 3284TIP3   OH231410   4.061   5.836   8.606  0.3445 -0.3366 -0.9063
 3284TIP3    H131411   4.119   5.878   8.669 -1.2763  0.7348 -0.0595
 3284TIP3    H231412   4.012   5.772   8.658  0.0379 -0.4952 -1.3857
 3285TIP3   OH231413   1.205   0.684   1.334  0.0118 -0.2724  0.4997
 3285TIP3    H131414   1.133   0.659   1.391  0.8855 -0.6270  1.4711
 3285TIP3    H231415   1.176   0.657   1.246 -0.7154 -1.0946  0.9737
 3286TIP3   OH231416   2.528   0.429   0.237 -0.2352  0.5092 -0.4079
 3286TIP3    H131417   2.468   0.490   0.280  0.5894  0.4946  0.8238
 3286TIP3    H231418   2.598   0.484   0.202  1.6169  0.2397  2.5092
 3287TIP3   OH231419   1.586   1.711   2.184  0.2448 -0.0359 -0.1851
 3287TIP3    H131420   1.543   1.626   2.189  0.3041 -0.2649 -2.3589
 3287TIP3    H231421   1.665   1.702   2.238 -1.6058 -0.0560  2.7192
 3288TIP3   OH231422   0.670   1.550   1.852 -0.2793  0.8766 -0.0174
 3288TIP3    H131423   0.686   1.483   1.919  0.7678  1.7519  0.6351
 3288TIP3    H231424   0.757   1.576   1.822 -0.7030 -0.5611 -2.8796
 3289TIP3   OH231425   1.677   1.877   0.845  0.5279  0.1171 -0.0704
 3289TIP3    H131426   1.611   1.940   0.817  0.5034  0.1704  0.1066
 3289TIP3    H231427   1.662   1.800   0.790  0.3860  0.1671 -0.1023
 3290TIP3   OH231428   1.755   6.383   6.783 -0.1361  0.3843  0.5881
 3290TIP3    H131429   1.701   6.425   6.850 -1.3560 -2.8179  1.8095
 3290TIP3    H231430   1.695   6.326   6.736  1.7997 -1.9983  0.8237
 3291TIP3   OH231431   2.042   3.291   2.906  0.5429  0.1228  0.2434
 3291TIP3    H131432   2.032   3.202   2.941  0.8644 -0.1169 -0.2637
 3291TIP3    H231433   1.954   3.326   2.904  0.1022 -0.9477 -1.5203
 3292TIP3   OH231434   0.053   4.180   2.669  0.5169  0.0743 -0.0677
 3292TIP3    H131435   0.002   4.155   2.746  2.6672 -3.8355  0.3307
 3292TIP3    H231436   0.046   4.276   2.666 -1.9281  0.1887  3.2766
 3293TIP3   OH231437   6.763   5.913   2.227  0.8265 -0.8737 -0.5707
 3293TIP3    H131438   6.850   5.915   2.267  0.6090 -0.5610 -0.1053
 3293TIP3    H231439   6.711   5.974   2.279  0.6543 -0.1046 -1.6049
 3294TIP3   OH231440   4.609   5.781   8.157  0.6168 -0.5057  0.6504
 3294TIP3    H131441   4.618   5.728   8.077  2.9071  0.2319  0.3184
 3294TIP3    H231442   4.615   5.871   8.126  0.5200 -0.1795  1.5572
 3295TIP3   OH231443   0.864   1.597   1.028 -0.4488  0.1515 -0.2576
 3295TIP3    H131444   0.948   1.552   1.026 -0.3419  0.3548 -1.4688
 3295TIP3    H231445   0.816   1.561   0.953 -1.0853  0.6814 -0.1112
 3296TIP3   OH231446   1.594   3.174   7.753  0.3709  0.1947  0.1552
 3296TIP3    H131447   1.638   3.166   7.838 -1.4518  2.0952  1.3771
 3296TIP3    H231448   1.517   3.119   7.760  0.8875 -0.6887 -0.8112
 3297TIP3   OH231449   5.639   2.690   1.287 -0.2316 -0.1487 -0.2150
 3297TIP3    H131450   5.608   2.654   1.205  0.2065  0.3836 -0.6252
 3297TIP3    H231451   5.598   2.776   1.293  1.6106  0.8657 -1.0986
 3298TIP3   OH231452   5.069   0.255   8.422 -0.1362 -0.2928 -0.4548
 3298TIP3    H131453   5.097   0.237   8.332  0.7080 -1.1779 -0.0363
 3298TIP3    H231454   5.106   0.341   8.442 -0.2946 -0.1094 -0.9309
 3299TIP3   OH231455   5.136   6.388   8.710  0.4055  0.0884 -0.2318
 3299TIP3    H131456   5.229   6.370   8.719  0.8382  2.2551  0.1801
 3299TIP3    H231457   5.124   6.475   8.749 -2.0450 -0.7176  1.0849
 3300TIP3   OH231458   6.805   1.903   1.898  0.0926  0.2601 -0.2574
 3300TIP3    H131459   6.821   1.869   1.986 -1.9088 -1.1491 -0.3466
 3300TIP3    H231460   6.742   1.975   1.911 -1.0692 -0.6615 -0.5573
 3301TIP3   OH231461   1.969   4.846   0.571  0.3210 -0.5890  0.0336
 3301TIP3    H131462   2.018   4.919   0.533  0.2553  0.1351  1.2905
 3301TIP3    H231463   1.993   4.771   0.516  1.1963  0.1640 -0.6607
 3302TIP3   OH231464   3.430   1.951   0.912  0.1427 -0.1405  0.4906
 3302TIP3    H131465   3.483   1.908   0.845 -0.6974  0.1758 -0.4056
 3302TIP3    H231466   3.402   2.033   0.871 -1.7230 -0.6799  0.6053
 3303TIP3   OH231467   4.271   1.901   1.371  0.0000  0.0827 -0.4603
 3303TIP3    H131468   4.204   1.848   1.326  1.4876 -3.7107  1.3367
 3303TIP3    H231469   4.222   1.951   1.436 -1.2461 -2.2859  0.5352
 3304TIP3   OH231470   4.851   6.469   2.862 -0.2108  0.2793  0.3044
 3304TIP3    H131471   4.850   6.541   2.926  1.1607  0.7095 -0.1121
 3304TIP3    H231472   4.929   6.418   2.885 -0.8862 -0.7785  0.2675
 3305TIP3   OH231473   0.095   4.501   8.346 -0.0252  0.6094  0.2115
 3305TIP3    H131474   0.003   4.487   8.326 -0.4749  1.1006  1.7991
 3305TIP3    H231475   0.102   4.594   8.366  0.1118  0.0490  3.2569
 3306TIP3   OH231476   3.163   2.745   2.584 -0.2247  0.2820 -0.0656
 3306TIP3    H131477   3.128   2.821   2.632  1.0854  1.4704 -0.8940
 3306TIP3    H231478   3.089   2.713   2.533 -1.1559  0.1503  1.3233
 3307TIP3   OH231479   5.283   1.343   1.404 -0.0486 -0.2026  0.5598
 3307TIP3    H131480   5.289   1.389   1.320 -0.4611  1.4393  1.3841
 3307TIP3    H231481   5.197   1.301   1.402  0.2601 -0.8269 -0.1398
 3308TIP3   OH231482   0.636   0.497   8.475 -0.2009  0.3649 -0.1493
 3308TIP3    H131483   0.606   0.579   8.515  0.7981  0.8008 -0.2516
 3308TIP3    H231484   0.703   0.524   8.413 -0.7717 -0.4279 -1.1422
 3309TIP3   OH231485   5.163   5.444   8.411  0.4649 -0.2776  0.2556
 3309TIP3    H131486   5.215   5.450   8.330  0.4030 -0.5763  0.1924
 3309TIP3    H231487   5.084   5.397   8.384  0.2432  0.0141  0.3924
 3310TIP3   OH231488   0.711   2.506   6.674  0.1142  0.3812 -0.7657
 3310TIP3    H131489   0.651   2.576   6.699 -2.8338 -2.1804  0.0659
 3310TIP3    H231490   0.735   2.464   6.757  1.0931 -0.1090 -1.2831
 3311TIP3   OH231491   1.701   0.322   8.510 -0.1174  0.2562 -0.4701
 3311TIP3    H131492   1.613   0.344   8.540  0.0341 -2.1004  2.1130
 3311TIP3    H231493   1.758   0.347   8.582  0.8899 -1.3600 -0.6557
 3312TIP3   OH231494   0.125   4.957   1.873  0.3689  0.4763  0.1119
 3312TIP3    H131495   0.127   4.923   1.784  0.4358 -0.6023  0.5091
 3312TIP3    H231496   0.178   4.895   1.923 -2.0095 -0.5859  1.4576
 3313TIP3   OH231497   1.041   3.108   8.612 -0.1018 -0.9065 -0.6902
 3313TIP3    H131498   0.991   3.047   8.557 -2.1005  1.6819 -1.9950
 3313TIP3    H231499   1.109   3.142   8.555 -1.9518  1.5107 -1.6272
 3314TIP3   OH231500   4.906   3.589   1.975 -0.0092 -0.0104  0.0594
 3314TIP3    H131501   4.978   3.564   2.034 -1.2143 -0.2362  1.4876
 3314TIP3    H231502   4.847   3.514   1.975  0.3803 -0.3942 -2.2014
 3315TIP3   OH231503   0.696   5.651   1.011  0.0236 -0.0153 -0.5910
 3315TIP3    H131504   0.720   5.660   1.103 -1.6356  0.0943 -0.1344
 3315TIP3    H231505   0.764   5.699   0.964  0.3773  0.7451  0.6443
 3316TIP3   OH231506   4.273   2.602   0.681  0.5284 -0.2431 -0.4514
 3316TIP3    H131507   4.311   2.622   0.596 -1.7836 -1.6487 -1.9265
 3316TIP3    H231508   4.246   2.510   0.674  0.8125 -0.5922  2.0458
 3317TIP3   OH231509   5.201   0.652   2.584  0.4334 -0.0886 -0.2481
 3317TIP3    H131510   5.247   0.604   2.653  0.4246  1.5577  0.9460
 3317TIP3    H231511   5.268   0.710   2.548  0.2588 -0.4561 -1.1977
 3318TIP3   OH231512   2.675   5.895   2.208 -0.0878 -0.0004  0.1240
 3318TIP3    H131513   2.625   5.976   2.210 -1.2046 -0.6809  1.6080
 3318TIP3    H231514   2.611   5.827   2.188  0.6852 -0.6281 -0.2955
 3319TIP3   OH231515   3.097   0.749   8.694  0.3553  0.0363 -0.0152
 3319TIP3    H131516   3.102   0.744   8.598  0.2933 -1.9852  0.0291
 3319TIP3    H231517   3.005   0.734   8.714  0.6754 -1.6826  0.3821
 3320TIP3   OH231518   5.642   2.161   7.670  0.1909  0.0250  0.4162
 3320TIP3    H131519   5.652   2.067   7.661 -0.5073 -0.1116  0.9548
 3320TIP3    H231520   5.579   2.172   7.741  0.5943  0.9081  0.6559
 3321TIP3   OH231521   0.252   3.443   0.938 -0.1297 -0.1550  0.2704
 3321TIP3    H131522   0.161   3.448   0.969  0.0988 -3.2245  1.7603
 3321TIP3    H231523   0.304   3.468   1.014  0.3813  1.6938 -0.6067
 3322TIP3   OH231524   0.865   2.233   8.518  0.0771  0.1572  0.0546
 3322TIP3    H131525   0.858   2.262   8.609 -1.8452 -1.1702  0.3831
 3322TIP3    H231526   0.775   2.230   8.486  0.5131 -1.6607 -1.1604
 3323TIP3   OH231527   4.830   4.791   1.838  0.2678 -0.0031  0.1018
 3323TIP3    H131528   4.835   4.702   1.803 -1.6644 -0.2529  0.3301
 3323TIP3    H231529   4.788   4.841   1.768  0.4623  0.4983  0.3459
 3324TIP3   OH231530   1.585   3.384   8.062  0.1511  0.2685  0.0281
 3324TIP3    H131531   1.587   3.455   7.998 -1.5870 -0.9586 -1.4913
 3324TIP3    H231532   1.673   3.347   8.060  0.8824  1.8969  0.3500
 3325TIP3   OH231533   1.393   0.844   7.814 -0.1810  0.1493 -0.0841
 3325TIP3    H131534   1.440   0.804   7.887 -1.1937 -3.0861 -1.0424
 3325TIP3    H231535   1.439   0.814   7.736 -1.5302  0.1413 -0.9069
 3326TIP3   OH231536   6.766   5.681   1.204 -0.2475 -0.3557  0.1601
 3326TIP3    H131537   6.786   5.650   1.116 -1.3336  1.0943 -0.6640
 3326TIP3    H231538   6.676   5.652   1.219 -0.5211  0.5049  0.2363
 3327TIP3   OH231539   4.928   1.353   0.461  0.4064 -0.5123 -0.0712
 3327TIP3    H131540   4.989   1.390   0.398  0.3095  0.5460  0.4395
 3327TIP3    H231541   4.857   1.317   0.409  0.7740 -0.4744 -0.6012
 3328TIP3   OH231542   3.660   3.624   1.740 -0.2594 -0.3356 -0.7971
 3328TIP3    H131543   3.754   3.642   1.745 -0.1074 -1.2115 -0.4486
 3328TIP3    H231544   3.650   3.572   1.660 -0.2044 -1.6841  0.0551
 3329TIP3   OH231545   0.727   1.188   1.112  0.5379 -0.3475 -0.0189
 3329TIP3    H131546   0.728   1.275   1.153  0.4350 -0.7750  0.9098
 3329TIP3    H231547   0.662   1.195   1.043  1.3420  0.6504 -0.7175
 3330TIP3   OH231548   5.296   2.128   7.436 -0.3829 -0.2034 -0.0870
 3330TIP3    H131549   5.385   2.095   7.431 -0.2161 -0.1418  1.7122
 3330TIP3    H231550   5.289   2.192   7.365  0.7847 -0.6940 -0.6532
 3331TIP3   OH231551   3.395   4.509   8.234 -0.1086 -0.4167  0.6370
 3331TIP3    H131552   3.352   4.594   8.239 -0.7440 -0.5963 -1.1840
 3331TIP3    H231553   3.463   4.513   8.302  0.5819  1.9633 -0.0739
 3332TIP3   OH231554   4.860   3.326   6.622 -0.3927 -0.1719 -0.4551
 3332TIP3    H131555   4.881   3.318   6.715  1.4222  1.7944 -0.6168
 3332TIP3    H231556   4.909   3.255   6.580 -0.4453 -0.4795  0.0029
 3333TIP3   OH231557   1.976   1.084   1.717 -0.1440  0.1253  0.0552
 3333TIP3    H131558   2.048   1.124   1.766 -0.6988  0.0113  0.9879
 3333TIP3    H231559   1.926   1.158   1.683 -2.1643  0.4254  3.2069
 3334TIP3   OH231560   4.389   5.420   8.014 -0.3604 -0.1054  0.7714
 3334TIP3    H131561   4.441   5.429   8.094 -0.6075  2.0094  0.7564
 3334TIP3    H231562   4.430   5.480   7.951 -0.5579 -1.2531 -0.4987
 3335TIP3   OH231563   0.771   1.687   1.496 -0.3798 -0.2310  0.3192
 3335TIP3    H131564   0.804   1.610   1.543 -0.7325 -0.4908  0.1493
 3335TIP3    H231565   0.842   1.712   1.437 -0.3541 -0.5859  0.1951
 3336TIP3   OH231566   5.643   2.965   8.229  0.1521 -0.0726  0.6541
 3336TIP3    H131567   5.709   2.945   8.163  2.3115  0.0369  2.6469
 3336TIP3    H231568   5.648   3.059   8.241 -1.7016  0.2119 -0.4041
 3337TIP3   OH231569   0.001   4.314   1.221 -0.1970 -0.1499 -0.5003
 3337TIP3    H131570  -0.003   4.253   1.147 -0.3016  0.4053 -0.9644
 3337TIP3    H231571   0.061   4.383   1.191  0.9466 -0.6624  0.5065
 3338TIP3   OH231572   2.203   1.443   8.734 -0.0514 -0.2933  0.2312
 3338TIP3    H131573   2.247   1.359   8.727  1.2072  0.4117 -0.7205
 3338TIP3    H231574   2.229   1.477   8.820  1.9412  0.4356 -0.6015
 3339TIP3   OH231575   6.178   0.528   7.981 -0.1853 -0.0773  0.1470
 3339TIP3    H131576   6.200   0.550   8.072 -2.9437  1.0173  0.6482
 3339TIP3    H231577   6.248   0.568   7.929  2.3555 -2.0798  1.7596
 3340TIP3   OH231578   4.789   1.824   1.780 -0.2822  0.1189  0.4207
 3340TIP3    H131579   4.712   1.866   1.817 -1.0140 -1.6625  1.0474
 3340TIP3    H231580   4.792   1.738   1.822  0.1300 -1.1644 -2.0625
 3341TIP3   OH231581   6.300   4.145   0.113  0.0657  0.6168 -0.0607
 3341TIP3    H131582   6.387   4.151   0.154  0.3874  1.3686 -0.8144
 3341TIP3    H231583   6.240   4.131   0.186  0.8908 -0.7106  0.3971
 3342TIP3   OH231584   5.259   4.869   7.571 -0.0810 -0.6336  0.3719
 3342TIP3    H131585   5.263   4.935   7.502  1.0423 -2.9725 -1.9967
 3342TIP3    H231586   5.176   4.885   7.615 -0.6268  1.2857 -1.2056
 3343TIP3   OH231587   2.880   2.155   1.275  0.1564 -0.3062  0.3751
 3343TIP3    H131588   2.840   2.242   1.267  0.4642 -0.1769  0.2368
 3343TIP3    H231589   2.933   2.146   1.196  0.5105 -0.4203  0.6259
 3344TIP3   OH231590   6.323   5.953   7.995 -0.0755 -0.4167 -0.4311
 3344TIP3    H131591   6.248   5.931   8.050 -0.0169  1.3901  0.4660
 3344TIP3    H231592   6.311   6.046   7.975  1.7157 -0.1885 -0.5840
 3345TIP3   OH231593   2.727   6.431   0.368 -0.3972  0.0904  0.3189
 3345TIP3    H131594   2.688   6.507   0.412 -1.6942  0.1297 -0.8231
 3345TIP3    H231595   2.653   6.384   0.331  0.6126  0.2065 -2.0339
 3346TIP3   OH231596   1.964   5.225   1.656 -0.0776  0.2277  0.1098
 3346TIP3    H131597   1.974   5.319   1.642  1.4832 -0.1257 -1.4819
 3346TIP3    H231598   2.041   5.200   1.707 -0.9699 -0.0654  1.3578
 3347TIP3   OH231599   0.168   1.417   2.012  0.3520 -0.0842  0.1153
 3347TIP3    H131600   0.134   1.411   1.922  1.5371 -2.2566 -0.2312
 3347TIP3    H231601   0.114   1.356   2.062  1.2015 -0.6413  0.3690
 3348TIP3   OH231602   3.697   4.791   2.875  0.3026  0.3004 -1.1215
 3348TIP3    H131603   3.736   4.818   2.792  1.0578  0.2848 -0.7769
 3348TIP3    H231604   3.698   4.695   2.872  1.1853  0.2822 -0.7186
 3349TIP3   OH231605   0.651   5.423   8.274 -0.2384 -0.5543  0.2302
 3349TIP3    H131606   0.672   5.399   8.365 -0.4207 -2.8744 -0.2684
 3349TIP3    H231607   0.726   5.476   8.246  0.6620 -1.2437  1.2176
 3350TIP3   OH231608   0.816   2.940   8.796  0.1083  0.1159  0.0850
 3350TIP3    H131609   0.911   2.936   8.800  0.1329 -0.3118 -0.7250
 3350TIP3    H231610   0.789   2.970   8.883  0.9078 -0.9607  0.7207
 3351TIP3   OH231611   4.568   3.572   8.375 -0.4033 -0.0510  0.0917
 3351TIP3    H131612   4.635   3.504   8.383 -1.9301 -1.6372 -0.2347
 3351TIP3    H231613   4.501   3.548   8.438 -2.1881 -0.3444 -1.8307
 3352TIP3   OH231614   4.887   2.533   2.210  0.1891 -0.1195  0.1034
 3352TIP3    H131615   4.966   2.541   2.264 -0.1135  0.5301  0.4595
 3352TIP3    H231616   4.832   2.470   2.257  0.2671 -0.1714  0.1267
 3353TIP3   OH231617   4.716   0.452   1.269  0.2312  0.6819 -0.7402
 3353TIP3    H131618   4.756   0.424   1.351  1.3938 -0.9634 -1.8115
 3353TIP3    H231619   4.729   0.547   1.267  1.6126  0.5414  0.2558
 3354TIP3   OH231620   4.514   1.433   0.735  0.3255 -0.2365 -0.1528
 3354TIP3    H131621   4.567   1.493   0.788 -0.1921  0.4236 -0.3605
 3354TIP3    H231622   4.571   1.358   0.719  0.3608 -0.6867  1.7402
 3355TIP3   OH231623   0.750   5.598   8.593 -0.3631  0.5977  0.0279
 3355TIP3    H131624   0.680   5.533   8.599 -0.2642  0.4418 -0.4909
 3355TIP3    H231625   0.748   5.643   8.678 -1.6955  1.2286 -0.3152
 3356TIP3   OH231626   2.735   4.411   0.691 -0.1311  0.2105  0.3537
 3356TIP3    H131627   2.786   4.381   0.766 -0.0297  1.1966  0.6949
 3356TIP3    H231628   2.651   4.437   0.728 -0.2256  0.3161  0.0696
 3357TIP3   OH231629   1.746   6.170   8.140  0.3570 -0.3627 -0.0384
 3357TIP3    H131630   1.837   6.192   8.121  1.0069 -1.3694  1.7260
 3357TIP3    H231631   1.703   6.254   8.153  0.6019  0.2171 -2.4596
 3358TIP3   OH231632   3.615   6.504   1.780 -0.9862  0.0151 -0.0698
 3358TIP3    H131633   3.567   6.552   1.847 -1.6832  0.1076 -0.6247
 3358TIP3    H231634   3.663   6.572   1.732 -0.2644 -0.0797  0.4980
 3359TIP3   OH231635   2.795   3.444   0.162  0.3137 -0.6526  0.5634
 3359TIP3    H131636   2.852   3.369   0.145  0.0675 -1.1217  1.7100
 3359TIP3    H231637   2.799   3.495   0.081 -2.1932 -3.6029 -1.6634
 3360TIP3   OH231638   5.046   4.469   0.989  0.4225  0.1740  0.2638
 3360TIP3    H131639   5.068   4.530   1.060  1.8492 -1.4457  1.2952
 3360TIP3    H231640   5.080   4.512   0.910 -0.2302  1.5114  0.6653
 3361TIP3   OH231641   5.189   3.709   0.787  0.3995 -0.1025  0.7298
 3361TIP3    H131642   5.216   3.677   0.701 -1.6600 -0.5858  0.2057
 3361TIP3    H231643   5.196   3.804   0.781 -0.5114 -0.0791 -0.2905
 3362TIP3   OH231644   5.238   5.768   1.171  0.2696  0.2574 -0.4925
 3362TIP3    H131645   5.302   5.704   1.203  0.6938  0.9701  0.1103
 3362TIP3    H231646   5.214   5.736   1.084 -0.4297 -1.3729  0.2503
 3363TIP3   OH231647   0.214   5.721   8.345  0.7240  0.6688  0.3089
 3363TIP3    H131648   0.281   5.747   8.409  0.2204  1.6198  0.4704
 3363TIP3    H231649   0.208   5.626   8.354  4.2944  0.0306 -1.9129
 3364TIP3   OH231650   3.777   3.454   0.041 -0.0807 -0.2116 -0.5358
 3364TIP3    H131651   3.781   3.387  -0.027 -2.1759  0.5424 -1.4811
 3364TIP3    H231652   3.769   3.536  -0.007 -2.1114  0.3061  0.5661
 3365TIP3   OH231653   4.076   3.626   8.213  0.1001 -0.2608  0.6572
 3365TIP3    H131654   4.117   3.560   8.269 -0.2039  0.8933  2.3221
 3365TIP3    H231655   3.987   3.594   8.200 -0.2330  0.0822  1.9701
 3366TIP3   OH231656   0.508   6.736   6.947  0.4024 -0.0174 -0.2078
 3366TIP3    H131657   0.578   6.696   6.997  0.3429 -0.3036 -0.3492
 3366TIP3    H231658   0.450   6.664   6.925 -0.1674  0.2820  0.2804
 3367TIP3   OH231659   5.133   1.812   1.320 -0.0093 -0.2761 -0.3573
 3367TIP3    H131660   5.170   1.870   1.387 -0.7299  0.2295 -0.3782
 3367TIP3    H231661   5.134   1.864   1.240 -1.0337 -0.1187 -0.2931
 3368TIP3   OH231662   4.393   1.623   2.100  0.2341  0.4281  0.7041
 3368TIP3    H131663   4.476   1.604   2.143 -1.0113 -1.0797  2.5692
 3368TIP3    H231664   4.409   1.604   2.007  1.4854 -1.6439  1.2913
 3369TIP3   OH231665   4.628   4.395   7.839 -1.0912  0.5497  0.2005
 3369TIP3    H131666   4.652   4.486   7.822  5.3003 -0.5697  0.8926
 3369TIP3    H231667   4.631   4.353   7.753  0.0379  0.3756  0.3063
 3370TIP3   OH231668   4.722   5.023   0.785  0.4524  0.4515 -0.5626
 3370TIP3    H131669   4.628   5.018   0.769  0.4656  1.6300 -1.0995
 3370TIP3    H231670   4.730   5.038   0.879  0.1699 -0.8617 -0.3026
 3371TIP3   OH231671   3.657   3.468   1.972  0.5415  0.0976 -0.2456
 3371TIP3    H131672   3.604   3.389   1.963 -0.2852  0.4605  1.2647
 3371TIP3    H231673   3.628   3.525   1.900 -0.4064 -0.1152 -0.0417
 3372TIP3   OH231674   1.878   5.885   1.060 -0.3803  0.5164 -0.4848
 3372TIP3    H131675   1.797   5.850   1.024 -0.9116  0.4487  0.7039
 3372TIP3    H231676   1.931   5.808   1.080 -1.2408  0.3632  1.4292
 3373TIP3   OH231677   6.229   1.791   0.531  0.2712 -0.2459  0.3167
 3373TIP3    H131678   6.179   1.855   0.582  0.0237 -0.2853  0.1240
 3373TIP3    H231679   6.282   1.843   0.471 -0.8595 -0.2431 -0.7141
 3374TIP3   OH231680   2.677   0.070   1.504 -0.1803  0.1360  0.3674
 3374TIP3    H131681   2.718   0.001   1.557 -0.3144  0.5995  1.0855
 3374TIP3    H231682   2.696   0.044   1.413 -0.7132 -1.1456  0.5949
 3375TIP3   OH231683   2.332   4.154   8.013 -0.3136  0.1461 -0.4383
 3375TIP3    H131684   2.298   4.108   7.936 -1.4907  2.1446 -1.1758
 3375TIP3    H231685   2.254   4.176   8.064  0.4462 -1.1589  1.4128
 3376TIP3   OH231686   5.812   3.882   1.248 -0.7920  0.4351  0.2835
 3376TIP3    H131687   5.866   3.803   1.257 -0.6702  0.6529  1.7274
 3376TIP3    H231688   5.803   3.895   1.153 -0.4450 -1.0501  0.0310
 3377TIP3   OH231689   0.113   5.941   0.023 -0.0306 -0.1973  0.3733
 3377TIP3    H131690   0.174   6.013   0.005 -0.1300  0.3840  2.1990
 3377TIP3    H231691   0.059   5.935  -0.056  0.3048  1.3987 -0.0171
 3378TIP3   OH231692   0.148   5.220   1.691  0.2548  0.1465 -0.2531
 3378TIP3    H131693   0.197   5.180   1.620 -0.0200 -0.9914  0.1710
 3378TIP3    H231694   0.213   5.241   1.758  0.5594  1.5219 -0.9427
 3379TIP3   OH231695   3.696   0.605   8.773  0.3982 -0.1331 -0.3447
 3379TIP3    H131696   3.635   0.678   8.782  0.1135 -0.3925 -0.1289
 3379TIP3    H231697   3.661   0.538   8.832 -0.5166 -1.2258 -2.0285
 3380TIP3   OH231698   0.759   4.133   7.228  0.1728 -0.3582 -0.6998
 3380TIP3    H131699   0.778   4.154   7.137 -0.8964  0.3869 -0.7581
 3380TIP3    H231700   0.817   4.059   7.247  1.4698  0.3945 -1.5321
 3381TIP3   OH231701   5.205   4.178   2.384 -0.2513 -0.2397  0.0506
 3381TIP3    H131702   5.230   4.105   2.441  0.6610  0.4468  0.5455
 3381TIP3    H231703   5.137   4.141   2.327 -0.8627 -1.0629  1.2682
 3382TIP3   OH231704   3.741   1.461   7.856  0.1596 -0.1641 -0.3033
 3382TIP3    H131705   3.813   1.502   7.905  0.5276  1.3905 -2.0189
 3382TIP3    H231706   3.672   1.450   7.921  0.3456  2.5191  0.4788
 3383TIP3   OH231707   2.435   5.281   0.324  1.0419 -0.0985  0.1258
 3383TIP3    H131708   2.529   5.263   0.324  0.9957 -0.5098 -1.9418
 3383TIP3    H231709   2.397   5.209   0.273 -0.0665  1.5204 -1.4219
 3384TIP3   OH231710   2.891   4.591   0.519 -0.6522  0.0383  0.2163
 3384TIP3    H131711   2.801   4.623   0.512 -0.7976 -0.0139  1.5386
 3384TIP3    H231712   2.892   4.542   0.601  0.2998 -0.9448 -0.3588
 3385TIP3   OH231713   3.760   2.159   1.577  0.0486 -0.3648  0.7674
 3385TIP3    H131714   3.803   2.098   1.637  2.0531  0.1720 -0.0105
 3385TIP3    H231715   3.813   2.239   1.583  1.3688 -0.7829 -2.7795
 3386TIP3   OH231716   5.486   4.319   8.215 -0.1360 -0.1797  0.6590
 3386TIP3    H131717   5.452   4.342   8.302 -1.8297 -0.5779  0.1302
 3386TIP3    H231718   5.423   4.356   8.154  0.7781 -0.3375 -0.3941
 3387TIP3   OH231719   4.183   5.341   8.763 -0.6547 -0.1022  0.9373
 3387TIP3    H131720   4.240   5.409   8.798  0.9033  0.4490 -2.3210
 3387TIP3    H231721   4.239   5.264   8.756 -1.6819 -0.9945  2.0946
 3388TIP3   OH231722   4.734   3.102   2.469 -0.3961  0.1936  0.4529
 3388TIP3    H131723   4.737   3.062   2.555  1.0253  1.7352  1.1796
 3388TIP3    H231724   4.801   3.171   2.472  0.3302 -0.2859 -2.1763
 3389TIP3   OH231725   4.761   4.519   8.317 -0.4114 -0.3346  0.1875
 3389TIP3    H131726   4.712   4.479   8.245  1.0999 -0.3087 -0.9064
 3389TIP3    H231727   4.746   4.460   8.392  0.6201 -2.2590 -1.0169
 3390TIP3   OH231728   2.545   1.844   1.557 -0.0590  0.1408  0.2561
 3390TIP3    H131729   2.546   1.905   1.630 -0.9559  1.9365 -1.1398
 3390TIP3    H231730   2.562   1.759   1.596  2.3992  1.3794  2.1645
 3391TIP3   OH231731   0.919   4.387   8.338 -0.1491  0.2098 -0.3437
 3391TIP3    H131732   0.850   4.373   8.274  1.3357  0.9776 -2.2084
 3391TIP3    H231733   0.978   4.450   8.297  1.6890 -0.4401  1.1394
 3392TIP3   OH231734   5.168   5.619   0.953  0.7581  0.7436 -0.6460
 3392TIP3    H131735   5.139   5.530   0.973  0.9785  0.8733  0.2912
 3392TIP3    H231736   5.184   5.618   0.859  0.9824 -0.2676 -0.6094
 3393TIP3   OH231737   4.212   1.221   8.352  0.2428  0.3316  0.3527
 3393TIP3    H131738   4.301   1.224   8.317  0.4015  0.2167  0.7400
 3393TIP3    H231739   4.210   1.292   8.416  0.5982 -0.7419  1.6027
 3394TIP3   OH231740   2.381   4.476   2.059  0.0149 -0.1740 -0.1076
 3394TIP3    H131741   2.374   4.430   1.975 -0.0743 -0.7331  0.2004
 3394TIP3    H231742   2.302   4.450   2.107 -0.1705  0.5165 -0.0283
 3395TIP3   OH231743   1.242   2.409   7.097  0.0068  1.0620  0.8774
 3395TIP3    H131744   1.223   2.315   7.103 -1.7392  1.1778 -1.2058
 3395TIP3    H231745   1.322   2.414   7.045  0.2092  0.7366  1.1503
 3396TIP3   OH231746   5.644   3.096   7.965  0.6253 -0.1628 -0.4566
 3396TIP3    H131747   5.638   3.001   7.957  0.5554 -0.2856  0.8814
 3396TIP3    H231748   5.555   3.125   7.987  1.0790 -0.0567  1.3932
 3397TIP3   OH231749   1.608   3.357   1.912 -0.1745 -0.1253 -0.2407
 3397TIP3    H131750   1.521   3.331   1.943  0.3046  1.3308  2.7091
 3397TIP3    H231751   1.669   3.301   1.959  0.5473 -0.1388 -1.1571
 3398TIP3   OH231752   5.197   1.930   1.980 -0.2443  0.3794 -0.2833
 3398TIP3    H131753   5.223   1.999   2.041 -1.2946  0.9585 -0.4681
 3398TIP3    H231754   5.267   1.929   1.915 -0.2639  1.3654 -0.3381
 3399TIP3   OH231755   6.680   5.305   0.642  0.8449 -0.0576  0.6502
 3399TIP3    H131756   6.677   5.328   0.734 -0.2255 -0.4034  0.7196
 3399TIP3    H231757   6.589   5.284   0.619  0.8057  1.5437 -0.8719
 3400TIP3   OH231758   2.247   2.756   7.645 -0.1923  0.4299  0.0600
 3400TIP3    H131759   2.213   2.814   7.713  1.8009  1.6510  0.1069
 3400TIP3    H231760   2.323   2.803   7.609  0.0605 -1.1099 -1.5714
 3401TIP3   OH231761   4.065   2.437   1.203  0.2181 -0.4924 -0.4984
 3401TIP3    H131762   4.161   2.436   1.213 -0.0288  0.4823  3.3846
 3401TIP3    H231763   4.037   2.351   1.231 -0.1522  0.1256  1.1259
 3402TIP3   OH231764   6.167   2.537   8.669 -0.6685  0.1602 -0.0959
 3402TIP3    H131765   6.138   2.611   8.616  1.0678  1.1620  0.3042
 3402TIP3    H231766   6.214   2.481   8.607  0.8490  1.0394  0.2262
 3403TIP3   OH231767   3.229   4.848   1.336  0.2594 -0.2411 -0.1572
 3403TIP3    H131768   3.238   4.914   1.404  1.3290 -0.4333 -0.0986
 3403TIP3    H231769   3.156   4.793   1.365 -0.2592  0.5495  0.0811
 3404TIP3   OH231770   6.734   3.709   1.117 -0.3374  0.0292 -0.4666
 3404TIP3    H131771   6.722   3.644   1.048 -1.5633 -0.7079  0.3955
 3404TIP3    H231772   6.646   3.728   1.149  0.0562  1.5338 -0.1442
 3405TIP3   OH231773   2.241   2.032   8.480  0.2322 -0.3820 -0.0262
 3405TIP3    H131774   2.277   2.078   8.556  0.4655 -0.5291 -0.0440
 3405TIP3    H231775   2.298   2.058   8.408  1.6553 -2.2545  0.3269
 3406TIP3   OH231776   5.475   5.717   1.949  0.6114 -0.0127  0.3765
 3406TIP3    H131777   5.508   5.799   1.912  1.8790 -0.4975  0.3586
 3406TIP3    H231778   5.554   5.671   1.980 -0.2190 -0.5108  1.8731
 3407TIP3   OH231779   0.100   6.646   1.149 -0.1503  0.0563 -0.2052
 3407TIP3    H131780   0.079   6.556   1.123 -2.2421  0.1973  0.8604
 3407TIP3    H231781   0.025   6.698   1.120  0.6699  1.3516 -0.0959
 3408TIP3   OH231782   6.206   0.765   7.125  0.0851  0.3443  0.1520
 3408TIP3    H131783   6.133   0.737   7.181  0.0966  0.5488  0.2724
 3408TIP3    H231784   6.258   0.686   7.113  0.9383  0.6275  1.7380
 3409TIP3   OH231785   6.688   5.045   1.835  0.1582  0.1476  0.2925
 3409TIP3    H131786   6.777   5.011   1.850  0.5199  0.6478 -0.6234
 3409TIP3    H231787   6.662   5.007   1.751  0.4706  1.8949 -0.6217
 3410TIP3   OH231788   0.682   6.123   1.238  0.2380  0.2058 -0.0735
 3410TIP3    H131789   0.651   6.198   1.187 -0.0099  0.7477  0.8523
 3410TIP3    H231790   0.602   6.085   1.276  0.3833 -0.4127 -0.3684
 3411TIP3   OH231791   3.346   2.115   1.681  0.3952  0.7668  0.1628
 3411TIP3    H131792   3.367   2.153   1.767  1.1082  0.3093  0.2004
 3411TIP3    H231793   3.307   2.030   1.702 -0.3689  1.0837  0.0544
 3412TIP3   OH231794   4.674   6.086   8.344 -0.3154  0.4332 -0.2378
 3412TIP3    H131795   4.753   6.047   8.306  0.2847  1.2521  0.1336
 3412TIP3    H231796   4.704   6.169   8.381 -1.1686  0.3303  0.7258
 3413TIP3   OH231797   5.855   2.925   1.109  0.0791 -0.4170  0.5142
 3413TIP3    H131798   5.903   2.843   1.126  1.4925  0.1123 -0.6962
 3413TIP3    H231799   5.812   2.910   1.025 -0.8691 -0.4300  0.9964
 3414TIP3   OH231800   1.821   3.586   8.055  0.6708  0.0653 -0.0614
 3414TIP3    H131801   1.785   3.587   7.966 -0.0105 -1.3017  0.1792
 3414TIP3    H231802   1.758   3.636   8.106  1.9519  2.4085 -0.6160
 3415TIP3   OH231803   3.348   2.261   7.059  0.3558 -0.5405 -0.4077
 3415TIP3    H131804   3.385   2.173   7.070 -0.8379 -1.0261 -0.1228
 3415TIP3    H231805   3.391   2.295   6.980  0.0416 -1.8136 -1.1557
 3416TIP3   OH231806   4.257   2.072   0.837 -0.1225 -0.1588 -0.0910
 3416TIP3    H131807   4.294   2.148   0.883 -0.6146  0.0377 -0.0226
 3416TIP3    H231808   4.164   2.091   0.831 -0.0781 -0.2333 -1.0752
 3417TIP3   OH231809   4.827   3.327   0.443  0.5991  0.6446  0.1114
 3417TIP3    H131810   4.767   3.377   0.499 -0.7825 -0.5765 -0.1832
 3417TIP3    H231811   4.891   3.291   0.504  0.8450  1.7009  0.4930
 3418TIP3   OH231812   4.122   4.405   8.745 -0.3249  0.1594  0.8758
 3418TIP3    H131813   4.176   4.339   8.702  0.3884  0.7685  0.8325
 3418TIP3    H231814   4.109   4.371   8.833  1.0458  0.5170  1.2353
 3419TIP3   OH231815   3.525   2.390   0.681  0.7876 -0.1299  0.3865
 3419TIP3    H131816   3.534   2.471   0.732 -0.8234 -0.3260  1.0372
 3419TIP3    H231817   3.574   2.407   0.601  1.2992  1.1206  0.9306
 3420TIP3   OH231818   5.460   3.287   8.586 -0.2213  0.8206  0.3957
 3420TIP3    H131819   5.457   3.375   8.547 -0.0458  1.1979  1.2224
 3420TIP3    H231820   5.525   3.293   8.656  0.2436 -0.1408  0.0662
 3421TIP3   OH231821   0.153   6.636   0.573  0.3341 -0.1631 -0.0543
 3421TIP3    H131822   0.223   6.572   0.579  2.3276  2.0122  1.5869
 3421TIP3    H231823   0.110   6.633   0.659 -0.0376  0.1538 -0.2241
 3422TIP3   OH231824   1.036   4.967   7.911 -0.1087 -0.3131 -0.1215
 3422TIP3    H131825   1.087   5.048   7.905  1.2476 -1.2107 -1.0539
 3422TIP3    H231826   1.023   4.954   8.005  1.0767  0.1175  0.1124
 3423TIP3   OH231827   6.088   3.082   7.590  0.9620  0.2568 -0.5684
 3423TIP3    H131828   6.091   3.088   7.685  0.7194  0.0727 -0.5482
 3423TIP3    H231829   6.007   3.036   7.571  2.2894 -2.2066 -0.7436
 3424TIP3   OH231830   6.602   5.815   0.746 -0.5324 -0.1135 -0.4064
 3424TIP3    H131831   6.677   5.829   0.804 -0.4618 -3.6692  0.6080
 3424TIP3    H231832   6.546   5.891   0.760  0.9162  0.6031  2.0310
 3425TIP3   OH231833   5.034   4.655   1.553 -0.1585 -0.3934 -0.0716
 3425TIP3    H131834   5.051   4.607   1.634  1.4973 -0.2593 -0.3013
 3425TIP3    H231835   5.121   4.677   1.520 -0.8322  1.2641 -0.8683
 3426TIP3   OH231836   6.737   5.241   1.062  0.0583  0.1205 -0.0235
 3426TIP3    H131837   6.739   5.335   1.080 -1.1134  0.3467 -0.9533
 3426TIP3    H231838   6.704   5.202   1.144  1.0184  0.4518  0.5368
 3427TIP3   OH231839   5.390   0.239   8.783 -0.4090 -0.3311  0.0494
 3427TIP3    H131840   5.460   0.175   8.799  0.1166 -0.1500 -1.4242
 3427TIP3    H231841   5.363   0.223   8.693  1.3193  2.9836 -1.2187
 3428TIP3   OH231842   2.482   2.130   1.910 -0.7485 -0.2005 -0.1176
 3428TIP3    H131843   2.420   2.201   1.927 -0.7929 -0.0979 -0.7118
 3428TIP3    H231844   2.527   2.117   1.994 -1.6424 -0.3507  0.3474
 3429TIP3   OH231845   1.107   0.216   8.145  0.3246 -0.2659  0.6126
 3429TIP3    H131846   1.136   0.302   8.177  0.6459 -0.2234  0.2158
 3429TIP3    H231847   1.172   0.192   8.079 -1.3109  0.4789 -1.3884
 3430TIP3   OH231848   0.156   4.975   7.144  0.0427 -0.2744 -0.1459
 3430TIP3    H131849   0.118   5.047   7.092 -1.9657 -1.9428 -1.1414
 3430TIP3    H231850   0.250   4.980   7.126 -0.2089  1.2781 -1.2509
 3431TIP3   OH231851   3.929   3.083   1.343  0.2836 -0.2211  0.1187
 3431TIP3    H131852   3.995   3.120   1.285  0.4871  1.0647  1.1210
 3431TIP3    H231853   3.974   3.075   1.428 -0.4470 -0.6120  0.4840
 3432TIP3   OH231854   3.758   1.977   1.223  0.2175  0.2058  0.0473
 3432TIP3    H131855   3.774   1.927   1.303  1.9101 -1.3691 -1.1847
 3432TIP3    H231856   3.663   1.974   1.211  0.2033 -2.6157  0.1741
 3433TIP3   OH231857   5.269   1.518   7.564 -1.1246 -0.3826  0.0602
 3433TIP3    H131858   5.203   1.487   7.502 -0.4808  0.3346 -1.0153
 3433TIP3    H231859   5.341   1.550   7.510  0.0583 -0.9964  1.2109
 3434TIP3   OH231860   5.409   4.517   0.774  0.0046  0.6303  0.1332
 3434TIP3    H131861   5.485   4.543   0.721 -0.4231 -0.4458 -1.0489
 3434TIP3    H231862   5.432   4.430   0.808 -0.1638  0.8669  0.8820
 3435TIP3   OH231863   6.472   2.778   1.630 -0.8116 -0.2366  0.0995
 3435TIP3    H131864   6.474   2.682   1.639 -1.6583 -0.2332  0.4163
 3435TIP3    H231865   6.381   2.801   1.648 -0.7511  0.5726 -0.6292
 3436TIP3   OH231866   2.984   5.093   1.365  0.0282 -0.2811  0.0614
 3436TIP3    H131867   2.898   5.133   1.380 -0.0898 -0.0409 -1.1607
 3436TIP3    H231868   2.965   5.002   1.342  0.1097 -0.2663 -0.0670
 3437TIP3   OH231869   4.190   6.175   8.766  0.5827 -0.8799  0.7443
 3437TIP3    H131870   4.229   6.143   8.685 -0.8314 -0.4602 -0.1284
 3437TIP3    H231871   4.114   6.120   8.780 -0.3037  0.3027  0.7212
 3438TIP3   OH231872   4.715   0.952   1.619  0.5817 -0.3904  0.2784
 3438TIP3    H131873   4.801   0.911   1.615  0.0074 -1.5839 -0.4106
 3438TIP3    H231874   4.655   0.886   1.584 -1.0161 -0.6790  3.2660
 3439TIP3   OH231875   3.897   0.248   2.107 -0.2860  0.0853 -0.2726
 3439TIP3    H131876   3.809   0.219   2.082 -0.8860 -0.1917  1.9897
 3439TIP3    H231877   3.931   0.290   2.028 -2.1509 -0.4488 -1.4301
 3440TIP3   OH231878   4.567   5.487   1.974 -0.5635 -0.0274 -0.0547
 3440TIP3    H131879   4.510   5.469   2.049 -0.1574  0.1610  0.3032
 3440TIP3    H231880   4.514   5.466   1.897 -1.3698  0.8238  0.2502
 3441TIP3   OH231881   5.127   4.788   2.015 -0.0129 -0.1549  0.4393
 3441TIP3    H131882   5.145   4.694   2.023  1.1584  0.0535  0.4447
 3441TIP3    H231883   5.162   4.812   1.929  0.1175  0.3631  0.6338
 3442TIP3   OH231884   5.347   4.398   8.449  0.1882 -0.1517  0.9300
 3442TIP3    H131885   5.318   4.489   8.446 -0.3947 -0.3305 -1.7221
 3442TIP3    H231886   5.266   4.347   8.457  0.3164 -0.4785  0.2249
 3443TIP3   OH231887   0.082   6.147   1.855  0.3160  0.7041 -0.0986
 3443TIP3    H131888   0.065   6.210   1.925 -1.1989 -0.2360  0.4074
 3443TIP3    H231889   0.177   6.153   1.840  0.3878  2.2013  0.7744
 3444TIP3   OH231890   4.642   3.623   1.067  0.1093 -0.0795  0.0306
 3444TIP3    H131891   4.573   3.613   1.132 -0.7665 -1.3351 -1.0372
 3444TIP3    H231892   4.615   3.697   1.013 -0.1248 -0.2138 -0.0375
 3445TIP3   OH231893   2.529   1.169   8.492 -0.0108 -0.6224 -0.3440
 3445TIP3    H131894   2.443   1.150   8.456 -0.4435 -0.3016  0.5160
 3445TIP3    H231895   2.590   1.130   8.428 -0.8025 -2.8351  0.1470
 3446TIP3   OH231896   1.564   2.656   1.568  0.0466 -0.3763  0.3700
 3446TIP3    H131897   1.591   2.716   1.637 -3.1114  0.6806  0.8448
 3446TIP3    H231898   1.574   2.705   1.487 -1.0827  0.3133  0.6216
 3447TIP3   OH231899   5.590   4.719   0.208 -0.5002 -0.6609  0.3756
 3447TIP3    H131900   5.601   4.680   0.121 -0.9890  0.3653 -0.1675
 3447TIP3    H231901   5.543   4.653   0.258 -1.1516 -0.8651 -0.4687
 3448TIP3   OH231902   0.755   3.509   0.069  0.2279  0.7286  0.5803
 3448TIP3    H131903   0.816   3.493  -0.003 -1.4535 -0.2212 -0.6984
 3448TIP3    H231904   0.698   3.579   0.037 -2.1726 -1.4206 -0.1748
 3449TIP3   OH231905   2.259   6.543   2.293  0.7709 -0.2688  0.6229
 3449TIP3    H131906   2.339   6.501   2.324 -0.5455 -2.9790  0.6724
 3449TIP3    H231907   2.193   6.523   2.361 -0.5102 -0.3278 -0.5859
 3450TIP3   OH231908   6.479   2.271   7.651 -0.3324  0.1046 -0.1755
 3450TIP3    H131909   6.560   2.222   7.638  1.6981  1.5373  4.5382
 3450TIP3    H231910   6.409   2.213   7.621  2.2836 -1.9204 -2.8314
 3451TIP3   OH231911   3.813   2.941   7.764 -0.3890 -0.1125  0.0609
 3451TIP3    H131912   3.761   2.915   7.687  0.6393 -0.3547 -0.5730
 3451TIP3    H231913   3.805   2.867   7.824 -1.7831  0.3766  0.5142
 3452TIP3   OH231914   1.015   4.725   0.030 -0.7168 -0.2858 -0.3174
 3452TIP3    H131915   1.021   4.681   0.114  0.2753  0.1974 -0.1196
 3452TIP3    H231916   0.945   4.679  -0.017 -1.4655 -0.3807  0.8676
 3453TIP3   OH231917   3.515   6.404   7.323  0.6337  0.1103 -0.2322
 3453TIP3    H131918   3.607   6.407   7.297  0.6757  0.2046 -0.0791
 3453TIP3    H231919   3.472   6.352   7.256  0.6334  0.8188 -0.7982
 3454TIP3   OH231920   2.326   0.622   1.414 -0.1001 -0.0191 -0.1417
 3454TIP3    H131921   2.377   0.637   1.334  1.3172 -1.5202  0.4440
 3454TIP3    H231922   2.324   0.708   1.457 -1.1701  0.9028 -1.8865
 3455TIP3   OH231923   4.386   0.156   0.516  0.2925 -0.3717 -0.2255
 3455TIP3    H131924   4.421   0.220   0.455 -0.6499  0.7023  0.3115
 3455TIP3    H231925   4.312   0.117   0.470 -1.3256  1.4611  0.6679
 3456TIP3   OH231926   6.703   2.598   1.021  0.1112 -0.0304  0.4011
 3456TIP3    H131927   6.677   2.686   1.050  0.2666 -0.3170  1.4471
 3456TIP3    H231928   6.746   2.613   0.936 -0.8536  0.7696  0.0271
 3457TIP3   OH231929   5.073   3.939   0.069  0.6540  0.0674 -0.3593
 3457TIP3    H131930   5.063   3.989   0.150  1.2337  1.3316 -1.0273
 3457TIP3    H231931   5.001   3.876   0.070 -0.1883  1.0127  0.4754
 3458TIP3   OH231932   1.012   3.918   6.590 -0.0813  0.2405 -0.1952
 3458TIP3    H131933   1.003   4.008   6.622  0.6371 -0.0728  0.9721
 3458TIP3    H231934   1.089   3.884   6.636 -0.8339 -1.2486  0.0346
 3459TIP3   OH231935   3.231   4.771   1.835  0.6845 -0.5526  0.2027
 3459TIP3    H131936   3.297   4.711   1.800 -0.1382 -2.5532  1.8534
 3459TIP3    H231937   3.249   4.774   1.929  0.1448  1.1553  0.2866
 3460TIP3   OH231938   1.029   5.445   0.729  0.5716  0.1732  0.3791
 3460TIP3    H131939   1.037   5.358   0.768  0.7898 -0.0313 -0.1197
 3460TIP3    H231940   0.948   5.480   0.766  0.6585 -0.1067  0.8428
 3461TIP3   OH231941   6.337   4.069   7.176 -0.1102  0.2576 -0.3885
 3461TIP3    H131942   6.287   3.991   7.204 -2.0627  1.4951 -0.2348
 3461TIP3    H231943   6.409   4.033   7.124 -0.3552 -1.7076  0.5080
 3462TIP3   OH231944   0.422   0.732   7.554  0.1339 -0.5906 -0.5133
 3462TIP3    H131945   0.509   0.759   7.580  0.9295 -0.9228 -2.6743
 3462TIP3    H231946   0.398   0.664   7.618 -0.3819  2.3644  2.6893
 3463TIP3   OH231947   1.729   1.312   6.589 -0.9176 -0.4442  0.3799
 3463TIP3    H131948   1.771   1.275   6.511 -2.2634  0.5816 -0.9044
 3463TIP3    H231949   1.792   1.298   6.659  1.8590  1.4814 -1.5092
 3464TIP3   OH231950   0.951   3.349   8.762  0.0831 -0.6700  0.2247
 3464TIP3    H131951   0.982   3.312   8.845  2.3912  0.6807  0.0583
 3464TIP3    H231952   0.955   3.276   8.700  0.0787 -1.2507  0.8946
 3465TIP3   OH231953   4.872   3.266   0.178 -0.4847 -0.3339 -0.2062
 3465TIP3    H131954   4.857   3.349   0.133  1.6680 -1.1268 -2.6683
 3465TIP3    H231955   4.860   3.287   0.271 -0.5595  2.5882 -0.7594
 3466TIP3   OH231956   6.784   3.235   1.784 -0.1098  0.2897 -0.2439
 3466TIP3    H131957   6.757   3.194   1.702 -0.4981 -0.8448  0.4257
 3466TIP3    H231958   6.760   3.172   1.852  0.9261  0.8432  0.6875
 3467TIP3   OH231959   5.020   6.070   7.819  0.2018  0.1919 -0.4295
 3467TIP3    H131960   5.058   5.986   7.844  0.0556 -0.2553 -1.6314
 3467TIP3    H231961   5.022   6.070   7.723  0.1876  1.5539 -0.4599
 3468TIP3   OH231962   4.477   1.222   2.582 -0.7234 -0.8369  0.3360
 3468TIP3    H131963   4.446   1.139   2.618 -0.9716 -0.5257  0.8549
 3468TIP3    H231964   4.549   1.248   2.639  0.3048 -1.3850 -0.6630
 3469TIP3   OH231965   5.936   6.694   2.069  0.0754 -0.6628  0.0944
 3469TIP3    H131966   6.007   6.721   2.011 -0.1927  1.9880  0.8334
 3469TIP3    H231967   5.870   6.657   2.010  0.9223 -0.5920 -0.9352
 3470TIP3   OH231968   2.357   6.472   8.746 -0.0041  0.0395 -0.3656
 3470TIP3    H131969   2.277   6.525   8.746  0.0012  0.1510  1.5947
 3470TIP3    H231970   2.389   6.478   8.836  1.5124 -1.0675 -0.7889
 3471TIP3   OH231971   1.441   2.249   7.617 -0.0859  0.4423 -0.6947
 3471TIP3    H131972   1.439   2.259   7.712 -2.0882  1.1626 -0.7673
 3471TIP3    H231973   1.504   2.179   7.601 -1.2010 -1.1162  1.3205
 3472TIP3   OH231974   5.169   4.321   0.722  0.1222 -0.6416  0.8509
 3472TIP3    H131975   5.108   4.253   0.750 -0.3343 -1.0307 -0.9217
 3472TIP3    H231976   5.253   4.295   0.758  0.0077 -2.3304 -0.0198
 3473TIP3   OH231977   1.060   4.377   0.541 -0.3985 -0.5062  0.0128
 3473TIP3    H131978   1.112   4.316   0.594  0.5100 -1.2518 -1.6647
 3473TIP3    H231979   1.120   4.408   0.473 -2.1289 -1.5025 -2.0916
 3474TIP3   OH231980   1.535   6.711   2.558  0.0617 -0.1017  0.3819
 3474TIP3    H131981   1.512   6.643   2.621  2.9098 -0.5341  1.0874
 3474TIP3    H231982   1.551   6.789   2.611  1.8833 -0.3090  0.2098
 3475TIP3   OH231983   4.694   6.154   1.090 -0.1176 -0.1700 -0.0740
 3475TIP3    H131984   4.613   6.181   1.047  0.2505  0.3434 -0.4544
 3475TIP3    H231985   4.756   6.144   1.018  0.3394  0.0884  0.2801
 3476TIP3   OH231986   5.145   3.446   1.022 -0.6813  0.1986 -0.0345
 3476TIP3    H131987   5.220   3.412   0.974 -1.1982 -1.0074 -0.0181
 3476TIP3    H231988   5.180   3.471   1.107 -0.0622  0.8661 -0.4732
 3477TIP3   OH231989   4.695   1.348   8.439 -0.0817  0.0797 -0.0499
 3477TIP3    H131990   4.780   1.315   8.413 -0.5041 -0.0869 -1.2765
 3477TIP3    H231991   4.711   1.393   8.522  1.1924  0.0948 -0.2890
 3478TIP3   OH231992   1.338   3.592   6.803 -0.1604  0.2186  0.2766
 3478TIP3    H131993   1.272   3.542   6.850 -2.3767  0.9975 -1.8266
 3478TIP3    H231994   1.361   3.538   6.728  0.0640  0.8194 -0.1018
 3479TIP3   OH231995   6.184   1.509   8.322  0.7870 -0.0425 -0.0256
 3479TIP3    H131996   6.197   1.420   8.288 -2.1436 -1.1278  1.3884
 3479TIP3    H231997   6.135   1.554   8.253 -3.1856 -1.5736  1.4626
 3480TIP3   OH231998   1.910   3.078   2.987  0.7239  0.2318  0.0257
 3480TIP3    H131999   1.826   3.079   2.940  0.2002  0.9080  0.9453
 3480TIP3    H232000   1.905   3.002   3.044  0.8003  0.1901 -0.0225
 3481TIP3   OH232001   0.308   1.724   0.652 -0.0820 -0.8479  0.1451
 3481TIP3    H132002   0.257   1.643   0.655  0.2412 -1.0919 -0.6125
 3481TIP3    H232003   0.265   1.776   0.584  0.1559 -0.6976  0.1116
 3482TIP3   OH232004   6.110   0.679   0.770  0.7976 -0.2833  0.0621
 3482TIP3    H132005   6.031   0.652   0.723  2.4454 -0.2801 -2.9970
 3482TIP3    H232006   6.081   0.750   0.827 -1.1557  1.0755 -2.3865
 3483TIP3   OH232007   1.781   1.584   1.979  0.2397  0.7197  0.2972
 3483TIP3    H132008   1.806   1.646   2.048  0.4990  1.3770 -0.3666
 3483TIP3    H232009   1.743   1.639   1.910  0.0285  0.0829 -0.1056
 3484TIP3   OH232010   0.790   5.659   8.208 -0.3338 -0.0507 -0.6917
 3484TIP3    H132011   0.846   5.730   8.176  0.1254  0.5803  1.3807
 3484TIP3    H232012   0.724   5.703   8.261  1.8658 -1.2181  3.4560
 3485TIP3   OH232013   3.962   1.481   1.821 -0.0656 -0.5223  0.5035
 3485TIP3    H132014   3.906   1.559   1.815 -0.7420 -0.8648  1.8661
 3485TIP3    H232015   4.019   1.499   1.895 -0.9323 -1.7205  1.5073
 3486TIP3   OH232016   6.466   4.242   0.703 -0.0081 -0.2593 -0.7907
 3486TIP3    H132017   6.446   4.326   0.743  1.9465 -0.5382  0.9799
 3486TIP3    H232018   6.383   4.195   0.701 -0.2542 -0.4136  3.6304
 3487TIP3   OH232019   1.095   6.067   0.104  0.2731 -0.3779  0.4306
 3487TIP3    H132020   1.010   6.051   0.142  0.6557 -0.5538  1.2239
 3487TIP3    H232021   1.082   6.143   0.046 -0.4774 -0.6028  0.3017
 3488TIP3   OH232022   1.862   3.340   1.170 -0.6942 -0.1580  0.0233
 3488TIP3    H132023   1.853   3.267   1.108 -1.8604 -0.6380  0.7151
 3488TIP3    H232024   1.917   3.305   1.240 -0.0051  0.1366 -0.3598
 3489TIP3   OH232025   6.700   1.325   1.286  0.3618 -0.7838  0.6449
 3489TIP3    H132026   6.656   1.369   1.359 -2.0952  0.5603 -1.5012
 3489TIP3    H232027   6.630   1.299   1.227  2.2997 -0.6424 -1.8928
 3490TIP3   OH232028   4.376   6.815   2.469 -0.1250 -0.3471  0.0230
 3490TIP3    H132029   4.424   6.897   2.462 -0.4819 -0.0240  1.1140
 3490TIP3    H232030   4.360   6.804   2.563 -0.6003 -1.3609 -0.1555
 3491TIP3   OH232031   5.203   4.758   6.969  0.3321  0.4876 -0.3457
 3491TIP3    H132032   5.287   4.771   7.011 -0.2953 -1.2830  1.6515
 3491TIP3    H232033   5.146   4.826   7.004 -0.1028 -0.7930  1.5697
 3492TIP3   OH232034   5.561   2.303   1.236 -0.0380  0.4671 -0.4363
 3492TIP3    H132035   5.636   2.249   1.213 -1.4346 -0.9782 -1.9038
 3492TIP3    H232036   5.493   2.240   1.261 -1.3867  1.5845 -1.1250
 3493TIP3   OH232037   3.372   2.559   2.661  0.1496 -0.2487  0.1480
 3493TIP3    H132038   3.308   2.623   2.631 -0.6409 -1.3023 -0.5040
 3493TIP3    H232039   3.332   2.521   2.740  1.7792  1.8297  2.0909
 3494TIP3   OH232040   0.667   4.064   8.358  0.4502 -0.9611 -0.1102
 3494TIP3    H132041   0.622   3.980   8.364  0.8313 -1.1450  0.2156
 3494TIP3    H232042   0.646   4.096   8.270 -0.5388 -0.9101  0.1346
 3495TIP3   OH232043   3.607   2.999   8.371  0.0763  0.0336  0.5004
 3495TIP3    H132044   3.561   3.061   8.429  0.9074  1.3497 -0.1939
 3495TIP3    H232045   3.692   2.986   8.413 -0.2544 -1.0006  0.8672
 3496TIP3   OH232046   3.555   3.201   1.932 -0.4089 -0.2124 -0.7154
 3496TIP3    H132047   3.646   3.180   1.910 -0.2984  0.0243 -0.4843
 3496TIP3    H232048   3.513   3.216   1.847 -0.3227 -0.6806 -0.8454
 3497TIP3   OH232049   1.060   4.539   8.174 -0.1615 -0.2466  0.6176
 3497TIP3    H132050   1.065   4.554   8.079 -1.0282  0.0279  0.6048
 3497TIP3    H232051   1.150   4.523   8.201 -0.0939 -2.1486 -0.5494
 3498TIP3   OH232052   4.681   4.546   0.174 -0.2695 -0.0452 -0.3974
 3498TIP3    H132053   4.738   4.544   0.097 -0.6579 -0.1890 -0.6842
 3498TIP3    H232054   4.638   4.461   0.174  2.1426 -1.3900  1.8410
 3499TIP3   OH232055   0.337   4.397   8.441  0.3172 -0.2134 -0.0345
 3499TIP3    H132056   0.253   4.418   8.401  0.0752  0.2096  0.6849
 3499TIP3    H232057   0.376   4.481   8.463  1.6706 -0.3085 -1.7921
 3500TIP3   OH232058   2.487   1.616   7.859 -0.4661  0.6367  0.6663
 3500TIP3    H132059   2.517   1.554   7.925 -0.9142  0.3838  0.6377
 3500TIP3    H232060   2.394   1.628   7.879 -1.5486 -2.1032 -1.9961
 3501TIP3   OH232061   0.068   2.957   0.729 -0.2346 -0.0518  0.2168
 3501TIP3    H132062   0.073   3.015   0.805  0.9747  0.2299 -0.0529
 3501TIP3    H232063   0.157   2.922   0.720 -0.3023  0.0641 -1.1750
 3502TIP3   OH232064   1.670   3.341   1.353  0.4405 -0.0117 -0.0666
 3502TIP3    H132065   1.748   3.352   1.299  0.1427 -1.6947 -0.8758
 3502TIP3    H232066   1.701   3.353   1.443  1.5570 -0.2726 -0.4078
 3503TIP3   OH232067   0.602   5.837   8.318 -0.3196 -0.0160  0.1345
 3503TIP3    H132068   0.555   5.803   8.394  1.3201  1.6953  2.0339
 3503TIP3    H232069   0.548   5.910   8.287 -0.5222 -0.1207  0.2370
 3504TIP3   OH232070   0.847   0.180   8.126  0.4608 -0.1385  0.0092
 3504TIP3    H132071   0.832   0.199   8.219 -0.7203  0.2501 -0.2289
 3504TIP3    H232072   0.938   0.154   8.120 -0.3366 -4.0190  1.8872
 3505TIP3   OH232073   5.216   1.007   2.313  0.4633 -0.2845 -0.3971
 3505TIP3    H132074   5.257   0.950   2.379  0.5434 -0.9574 -1.0156
 3505TIP3    H232075   5.128   1.024   2.347  1.2146  1.2037  0.9703
 3506TIP3   OH232076   1.587   0.589   1.720  0.1986 -0.1063  0.3104
 3506TIP3    H132077   1.652   0.523   1.693  0.6459 -0.3540  1.9140
 3506TIP3    H232078   1.523   0.589   1.649  3.0888  1.8610 -2.6025
 3507TIP3   OH232079   2.135   3.408   2.112 -0.3632 -1.4072  0.8641
 3507TIP3    H132080   2.169   3.487   2.153  1.8000 -0.2457 -2.6779
 3507TIP3    H232081   2.214   3.355   2.094 -1.1763 -1.9773 -1.3147
 3508TIP3   OH232082   4.354   5.360   2.661  0.6541  0.5149 -0.1832
 3508TIP3    H132083   4.292   5.315   2.603  0.6709 -0.8168  0.7979
 3508TIP3    H232084   4.305   5.378   2.740  1.2712  0.2402  0.2701
 3509TIP3   OH232085   5.172   2.120   0.342 -0.0402 -0.2636  0.1182
 3509TIP3    H132086   5.228   2.093   0.270 -0.1796 -1.4887  0.4497
 3509TIP3    H232087   5.130   2.039   0.372  0.3164  0.1433  1.8358
 3510TIP3   OH232088   2.810   4.066   0.488 -0.3852 -0.3144 -0.1998
 3510TIP3    H132089   2.752   4.083   0.562 -0.5052  0.9455 -0.5535
 3510TIP3    H232090   2.894   4.103   0.515 -0.4209  0.1195 -0.6667
 3511TIP3   OH232091   1.117   5.116   1.947  0.6840 -0.2078 -0.4135
 3511TIP3    H132092   1.100   5.196   1.898 -0.6710  0.4632  1.0741
 3511TIP3    H232093   1.166   5.061   1.886 -1.0693  0.5045 -2.6192
 3512TIP3   OH232094   4.734   4.245   8.464 -0.1672 -0.4953 -0.4323
 3512TIP3    H132095   4.652   4.232   8.512 -0.0606 -0.1951 -0.1641
 3512TIP3    H232096   4.756   4.158   8.431  0.3186 -0.9295  0.9797
 3513TIP3   OH232097   1.804   3.079   1.352 -0.3620 -0.1452  0.2859
 3513TIP3    H132098   1.714   3.049   1.364 -0.0070 -0.7923  1.4420
 3513TIP3    H232099   1.854   3.033   1.419  1.1092 -0.9815 -1.2887
 3514TIP3   OH232100   1.730   2.386   1.612 -0.6831  0.2547 -0.8377
 3514TIP3    H132101   1.682   2.467   1.628  0.6478  1.2546 -1.6570
 3514TIP3    H232102   1.677   2.338   1.549 -0.9592  1.0074 -1.1913
 3515TIP3   OH232103   3.821   2.236   6.946 -0.0340 -0.7886  0.2098
 3515TIP3    H132104   3.895   2.176   6.935  0.5376 -0.1224  0.3737
 3515TIP3    H232105   3.830   2.299   6.875 -0.1236 -0.3782  0.5572
 3516TIP3   OH232106   1.118   0.559   7.874 -0.6135 -0.4247 -0.0491
 3516TIP3    H132107   1.136   0.595   7.961  0.1729 -0.7212 -0.0858
 3516TIP3    H232108   1.193   0.503   7.855 -0.3447  0.3192 -1.2887
 3517TIP3   OH232109   5.427   3.138   0.080 -0.4174  0.0901  0.3975
 3517TIP3    H132110   5.347   3.187   0.063 -0.2220 -0.0292 -0.9950
 3517TIP3    H232111   5.498   3.194   0.049 -0.2152 -1.1487 -1.5630
 3518TIP3   OH232112   3.091   1.614   6.590  0.2497 -0.2694 -0.0172
 3518TIP3    H132113   3.178   1.574   6.593  0.6001  0.2330 -1.8322
 3518TIP3    H232114   3.107   1.708   6.594 -0.1892 -0.1665 -0.4802
 3519TIP3   OH232115   1.452   2.567   2.386  0.2090 -0.1019 -0.4639
 3519TIP3    H132116   1.387   2.627   2.420  0.2829  0.5183 -1.3823
 3519TIP3    H232117   1.421   2.480   2.413 -1.1055  0.1637 -1.0568
 3520TIP3   OH232118   3.350   4.772   2.103 -0.0009  0.1800 -0.1349
 3520TIP3    H132119   3.397   4.691   2.123 -1.5568 -0.5577  0.7006
 3520TIP3    H232120   3.416   4.841   2.114  0.6943 -0.7185  1.9859
 3521TIP3   OH232121   4.543   6.464   0.374 -0.5269  0.2027  0.3437
 3521TIP3    H132122   4.594   6.387   0.399  0.2756  0.9076  0.9469
 3521TIP3    H232123   4.560   6.476   0.281  0.8009  0.6981  0.6348
 3522TIP3   OH232124   3.041   0.302   7.856 -0.8683  0.0803  0.9787
 3522TIP3    H132125   2.964   0.332   7.807 -1.2388 -0.5254  1.1803
 3522TIP3    H232126   3.019   0.213   7.883 -0.0720 -0.1159  0.9983
 3523TIP3   OH232127   3.889   0.990   0.376 -0.5998  0.0318  0.2229
 3523TIP3    H132128   3.981   0.977   0.397 -0.2301  3.2156  1.1777
 3523TIP3    H232129   3.842   0.956   0.452  0.0627  1.5190  1.3383
 3524TIP3   OH232130   4.593   5.272   7.699 -0.9180 -0.2202 -0.2134
 3524TIP3    H132131   4.609   5.198   7.640 -1.1749 -0.6503  0.2498
 3524TIP3    H232132   4.511   5.310   7.668  0.1109  1.0165 -1.5994
 3525TIP3   OH232133   3.012   3.210   8.157 -0.2832  0.2176  0.0286
 3525TIP3    H132134   2.932   3.258   8.180  0.0319  1.1815 -0.8199
 3525TIP3    H232135   2.980   3.131   8.112 -0.8291 -0.7868  2.0386
 3526TIP3   OH232136   5.254   0.180   2.557 -0.1799  0.2016 -0.3692
 3526TIP3    H132137   5.192   0.107   2.563  0.8251 -0.6393  0.2584
 3526TIP3    H232138   5.315   0.165   2.630 -0.8411  2.5590  0.7635
 3527TIP3   OH232139   0.171   4.232   7.042 -0.0653  0.0774  0.3002
 3527TIP3    H132140   0.255   4.190   7.020 -0.3723 -0.3491 -0.0721
 3527TIP3    H232141   0.109   4.160   7.046 -1.1078  0.6627 -2.6896
 3528TIP3   OH232142   0.088   3.385   2.810 -0.3575 -1.0216 -0.2017
 3528TIP3    H132143   0.038   3.306   2.786 -1.4536 -0.5093  0.3269
 3528TIP3    H232144   0.057   3.452   2.750 -0.6006 -0.5973  0.3878
 3529TIP3   OH232145   1.147   2.145   7.036  0.3461  0.1080 -0.0806
 3529TIP3    H132146   1.074   2.135   6.975 -0.7550 -4.6533  1.5484
 3529TIP3    H232147   1.208   2.075   7.011  1.7219  0.5455  1.8486
 3530TIP3   OH232148   1.590   4.039   1.304 -0.3055 -0.4847 -0.5776
 3530TIP3    H132149   1.642   4.087   1.239 -0.8689 -0.3513 -0.9321
 3530TIP3    H232150   1.653   3.981   1.348  0.1808 -0.1667 -0.8560
 3531TIP3   OH232151   1.260   4.030   2.280  0.2809  0.2826 -0.3180
 3531TIP3    H132152   1.225   4.076   2.204 -1.4790 -0.6722 -0.1300
 3531TIP3    H232153   1.301   3.951   2.244 -0.3246 -0.0404 -0.3080
 3532TIP3   OH232154   4.881   6.288   0.050  0.0170 -0.2506 -0.4481
 3532TIP3    H132155   4.939   6.289  -0.026 -0.2123 -0.5112 -0.6304
 3532TIP3    H232156   4.940   6.290   0.125  0.2192  1.3712 -0.6215
 3533TIP3   OH232157   0.380   5.652   1.058  0.3899  0.5747  0.2903
 3533TIP3    H132158   0.370   5.695   0.973  0.3951 -1.1234 -0.6121
 3533TIP3    H232159   0.373   5.723   1.122 -0.0253  1.8336 -1.1011
 3534TIP3   OH232160   1.311   0.923   8.365  0.7268 -0.0718  0.0120
 3534TIP3    H132161   1.352   0.843   8.334 -0.2631 -0.9639  0.9458
 3534TIP3    H232162   1.219   0.915   8.339 -0.0770 -0.6972  2.7576
 3535TIP3   OH232163   1.429   3.268   0.243 -0.4944 -0.5103 -0.0118
 3535TIP3    H132164   1.387   3.240   0.324 -0.6607 -0.8206 -0.2053
 3535TIP3    H232165   1.374   3.233   0.173 -0.1750 -0.5170 -0.2636
 3536TIP3   OH232166   0.925   5.273   8.080 -0.1731  0.7222  0.5225
 3536TIP3    H132167   0.935   5.272   8.175 -1.9648 -0.8736  0.7764
 3536TIP3    H232168   1.013   5.261   8.046  0.3021 -0.4440  2.0505
 3537TIP3   OH232169   5.625   1.720   0.853 -0.3151  0.4845 -0.0841
 3537TIP3    H132170   5.693   1.696   0.916 -0.6973  2.4205  1.1940
 3537TIP3    H232171   5.544   1.690   0.893 -0.4970  1.1660  0.0877
 3538TIP3   OH232172   3.200   4.989   0.975  0.1483 -0.1475 -0.1426
 3538TIP3    H132173   3.124   5.035   0.939  0.4540 -0.0882 -0.7339
 3538TIP3    H232174   3.164   4.914   1.021 -0.2801 -0.0178 -0.2633
 3539TIP3   OH232175   2.287   3.433   2.949 -0.6171 -0.0874  0.4039
 3539TIP3    H132176   2.202   3.389   2.955  0.3606 -1.9165  2.1105
 3539TIP3    H232177   2.271   3.522   2.981 -1.6228 -0.8768  2.2335
 3540TIP3   OH232178   2.836   5.458   0.501  1.2660  0.8888  0.0548
 3540TIP3    H132179   2.750   5.472   0.540  1.2740 -0.7675  0.7414
 3540TIP3    H232180   2.884   5.539   0.520  0.9393  0.5619  2.7212
 3541TIP3   OH232181   1.706   4.302   1.401  0.6194 -0.1731  0.7435
 3541TIP3    H132182   1.678   4.210   1.404 -0.1406  0.0699  1.6859
 3541TIP3    H232183   1.698   4.326   1.308  3.3278 -1.7666 -0.0024
 3542TIP3   OH232184   4.502   0.328   7.993 -0.9301  0.1287 -0.7059
 3542TIP3    H132185   4.593   0.312   8.018 -0.7376  0.0890 -1.4063
 3542TIP3    H232186   4.488   0.421   8.010 -1.1230 -0.0974  0.4996
 3543TIP3   OH232187   3.491   6.653   0.712 -0.1257 -0.4117  0.0704
 3543TIP3    H132188   3.417   6.712   0.695  0.8664  0.4240 -1.6716
 3543TIP3    H232189   3.568   6.701   0.680  0.7754 -2.4515 -1.0414
 3544TIP3   OH232190   2.323   0.333   2.083 -0.3123 -0.3718  0.3725
 3544TIP3    H132191   2.311   0.350   2.177 -2.7361 -1.5584  0.3755
 3544TIP3    H232192   2.271   0.401   2.040 -1.9426 -1.7375  0.0688
 3545TIP3   OH232193   6.439   0.876   3.052 -0.7725  0.5472 -0.0804
 3545TIP3    H132194   6.354   0.844   3.023 -0.6426  0.9469 -0.9019
 3545TIP3    H232195   6.501   0.845   2.986 -0.5278  1.8052 -0.4578
 3546TIP3   OH232196   3.591   2.706   8.572  0.7103  0.0325 -0.2980
 3546TIP3    H132197   3.622   2.795   8.593 -2.8964  0.8781  2.4692
 3546TIP3    H232198   3.671   2.657   8.552  2.9804  3.5783 -0.9089
 3547TIP3   OH232199   5.249   0.267   0.382  0.3288  0.0847 -0.2703
 3547TIP3    H132200   5.283   0.356   0.370 -1.0839  0.8842  1.3084
 3547TIP3    H232201   5.269   0.247   0.474  3.0268 -2.3535 -1.2302
 3548TIP3   OH232202   2.346   4.346   8.408  0.0637  0.8658  0.0945
 3548TIP3    H132203   2.336   4.259   8.369 -2.8953  0.8916  0.5816
 3548TIP3    H232204   2.297   4.404   8.351  0.1635  1.8221  0.9526
 3549TIP3   OH232205   1.743   0.443   0.859 -0.0888  0.1780 -0.2126
 3549TIP3    H132206   1.826   0.465   0.902 -0.7049  0.0416  1.1212
 3549TIP3    H232207   1.739   0.500   0.783  0.0834  2.0194  1.0997
 3550TIP3   OH232208   2.789   1.257   7.879 -0.3676 -0.2218  0.0523
 3550TIP3    H132209   2.872   1.236   7.836 -0.3317 -1.1334  0.5418
 3550TIP3    H232210   2.733   1.181   7.863 -1.5588  0.8822 -1.3038
 3551TIP3   OH232211   4.574   2.575   7.572  0.4517 -0.4407  0.7502
 3551TIP3    H132212   4.654   2.581   7.623  1.0125 -2.9591  0.2852
 3551TIP3    H232213   4.592   2.625   7.492  0.5242  1.2440  1.7616
 3552TIP3   OH232214   3.619   1.888   7.321 -0.1466  0.0815 -0.2444
 3552TIP3    H132215   3.645   1.832   7.248  0.1669 -1.2329  0.8411
 3552TIP3    H232216   3.625   1.977   7.286  1.2765 -0.4372 -1.4205
 3553TIP3   OH232217   5.860   6.318   0.892 -0.5480 -0.8463  0.1933
 3553TIP3    H132218   5.808   6.375   0.836  0.1345 -1.0672 -0.6834
 3553TIP3    H232219   5.921   6.377   0.936 -2.5299 -0.3340  2.4987
 3554TIP3   OH232220   2.328   2.156   0.000  0.0140 -0.3662  0.4479
 3554TIP3    H132221   2.279   2.083   0.039 -0.3537 -0.4309 -0.1267
 3554TIP3    H232222   2.345   2.215   0.074 -0.8173 -0.4075  0.6872
 3555TIP3   OH232223   0.313   3.787   6.919 -0.6558  0.2474  0.2298
 3555TIP3    H132224   0.300   3.719   6.853  2.2536 -0.5006  0.2827
 3555TIP3    H232225   0.325   3.739   7.001  0.3620  0.8650  0.4564
 3556TIP3   OH232226   0.042   1.560   2.600  0.5428  0.1729  0.0253
 3556TIP3    H132227  -0.024   1.505   2.641 -0.5937  0.3020 -1.5748
 3556TIP3    H232228   0.105   1.577   2.670 -0.3343 -1.1615  1.1879
 3557TIP3   OH232229   2.899   2.609   1.750 -0.3347  0.2527  0.3077
 3557TIP3    H132230   2.979   2.574   1.711 -0.6448  0.5139 -0.5727
 3557TIP3    H232231   2.847   2.531   1.772 -0.4566  0.1110 -0.4491
 3558TIP3   OH232232   0.580   1.924   8.318 -0.0557 -0.0677 -0.2234
 3558TIP3    H132233   0.588   2.011   8.357 -0.4611  0.0636 -0.4330
 3558TIP3    H232234   0.659   1.878   8.348 -0.7198 -0.2312  1.3976
 3559TIP3   OH232235   1.425   1.495   8.040  0.5808  0.4147 -0.5362
 3559TIP3    H132236   1.501   1.490   7.981  0.7891  0.4433 -0.2701
 3559TIP3    H232237   1.460   1.475   8.127  0.0880 -0.6859 -0.5661
 3560TIP3   OH232238   1.403   1.950   0.107  0.4119 -0.3723  0.6855
 3560TIP3    H132239   1.394   1.886   0.036  0.6084  1.3165 -0.9479
 3560TIP3    H232240   1.322   2.002   0.103  1.3580  1.1469  0.1764
 3561TIP3   OH232241   3.077   3.466   0.425 -0.0912  0.0023 -0.3654
 3561TIP3    H132242   3.071   3.508   0.510  0.5287  0.1400 -0.3888
 3561TIP3    H232243   3.006   3.506   0.374  0.3095  0.8066 -0.3009
 3562TIP3   OH232244   5.385   6.314   8.785  0.3828  0.0083 -0.1147
 3562TIP3    H132245   5.409   6.233   8.830 -1.0362 -0.1035  0.4667
 3562TIP3    H232246   5.400   6.383   8.849  0.6775  0.1105 -0.2915
 3563TIP3   OH232247   0.912   1.561   6.973  0.0031 -0.8053  0.5413
 3563TIP3    H132248   0.825   1.545   7.010  0.3630 -2.4159  0.7885
 3563TIP3    H232249   0.940   1.475   6.941  1.3279 -0.2220  0.0616
 3564TIP3   OH232250   2.428   1.757   7.548  0.1148  1.2053 -0.7616
 3564TIP3    H132251   2.366   1.693   7.514  0.6974  0.3207 -0.1882
 3564TIP3    H232252   2.377   1.808   7.611  0.5125 -1.1666  1.6613
 3565TIP3   OH232253   6.495   3.062   7.668 -0.1966 -0.0737 -0.0466
 3565TIP3    H132254   6.439   3.032   7.597 -0.3093 -0.1924  0.0942
 3565TIP3    H232255   6.568   3.000   7.670 -1.5577 -1.7302  1.7365
 3566TIP3   OH232256   5.679   2.853   0.897 -0.1037 -0.2336  0.0408
 3566TIP3    H132257   5.716   2.766   0.880 -1.0013 -0.3332 -1.5930
 3566TIP3    H232258   5.658   2.888   0.811 -3.0202  0.1377  0.7732
 3567TIP3   OH232259   2.658   1.545   2.143  0.1386  0.0587 -0.3835
 3567TIP3    H132260   2.601   1.475   2.174  1.3494  0.1581  2.3973
 3567TIP3    H232261   2.605   1.624   2.149  0.3003  0.0805  1.7069
 3568TIP3   OH232262   0.392   6.222   2.038  0.4231 -0.4471  0.4299
 3568TIP3    H132263   0.337   6.294   2.009  0.5228 -0.7471 -0.5230
 3568TIP3    H232264   0.428   6.185   1.957 -1.6560 -3.2382  0.6563
 3569TIP3   OH232265   4.197   5.375   2.881 -0.0810  0.1429 -0.1917
 3569TIP3    H132266   4.245   5.369   2.963 -1.1349 -3.4534  0.3411
 3569TIP3    H232267   4.130   5.307   2.887 -1.7301  1.2826 -3.1257
 3570TIP3   OH232268   1.688   5.576   7.837 -0.6195  0.0108  0.0546
 3570TIP3    H132269   1.701   5.670   7.840 -1.7852  0.1900  0.0026
 3570TIP3    H232270   1.678   5.550   7.929  0.2666 -0.1526  0.1077
 3571TIP3   OH232271   3.611   5.577   1.612 -0.3591 -0.1180  0.0180
 3571TIP3    H132272   3.656   5.562   1.529  0.2137  0.2369  0.2562
 3571TIP3    H232273   3.556   5.654   1.596 -0.2341 -0.0383 -0.0294
 3572TIP3   OH232274   6.239   6.026   0.437 -0.0922 -0.6548  0.2937
 3572TIP3    H132275   6.267   6.020   0.346 -0.8973  0.1688 -0.0244
 3572TIP3    H232276   6.316   6.055   0.485 -0.0554  0.3417 -0.3599
 3573TIP3   OH232277   3.662   3.159   0.065 -0.0373 -0.1402 -0.2569
 3573TIP3    H132278   3.702   3.200  -0.011 -0.2226  0.7651  0.1219
 3573TIP3    H232279   3.580   3.207   0.079 -0.3101 -0.6993  0.1428
 3574TIP3   OH232280   3.730   5.697   8.137 -0.7065  0.0311 -0.0411
 3574TIP3    H132281   3.708   5.641   8.211  0.0984 -1.4913 -0.8998
 3574TIP3    H232282   3.647   5.712   8.092 -0.8452 -1.0185 -0.1539
 3575TIP3   OH232283   1.951   0.634   0.002 -0.1112 -0.5932  0.2633
 3575TIP3    H132284   1.923   0.718  -0.033  0.6334 -0.7022 -0.6225
 3575TIP3    H232285   1.977   0.654   0.092 -1.0549 -0.1133  0.4430
 3576TIP3   OH232286   4.330   5.017   7.605  0.1977 -0.2794  0.0619
 3576TIP3    H132287   4.419   5.038   7.576 -0.3732 -0.2987 -1.7852
 3576TIP3    H232288   4.278   5.013   7.525 -1.1565 -1.8396  0.9483
 3577TIP3   OH232289   1.178   3.384   0.946  0.2057  0.0860 -0.0212
 3577TIP3    H132290   1.264   3.420   0.963 -1.0336  1.8331  3.4995
 3577TIP3    H232291   1.161   3.404   0.854  3.0799  0.5593 -0.5301
 3578TIP3   OH232292   5.862   0.475   1.512 -0.5565 -0.2072  0.2655
 3578TIP3    H132293   5.833   0.534   1.443  0.2075  1.7565  1.5398
 3578TIP3    H232294   5.936   0.428   1.473  0.8780  1.9901  0.1596
 3579TIP3   OH232295   1.109   5.444   7.438 -0.3408 -0.2980 -0.1018
 3579TIP3    H132296   1.155   5.363   7.417 -1.2271 -1.4552  2.0169
 3579TIP3    H232297   1.020   5.415   7.461 -0.5388  1.1912  1.1958
 3580TIP3   OH232298   6.744   1.805   7.949  0.0432  0.0409 -0.0661
 3580TIP3    H132299   6.776   1.823   7.861  1.4873  0.9148  0.6107
 3580TIP3    H232300   6.688   1.728   7.938 -1.1108  1.0667 -1.9924
 3581TIP3   OH232301   1.480   3.930   7.731  0.2797  0.5620  0.2527
 3581TIP3    H132302   1.438   3.843   7.734  1.0780  0.0841 -1.3117
 3581TIP3    H232303   1.571   3.914   7.755  0.9794  0.5354 -2.1578
 3582TIP3   OH232304   1.444   1.074   2.208  0.5018  0.2836 -0.2981
 3582TIP3    H132305   1.484   1.047   2.291  1.8508  0.5302 -0.8349
 3582TIP3    H232306   1.435   1.169   2.216  2.7698  0.6493 -1.2531
 3583TIP3   OH232307   1.780   1.130   1.401  0.5367  0.1571  0.0854
 3583TIP3    H132308   1.696   1.124   1.355  0.1287 -0.0011  0.8335
 3583TIP3    H232309   1.834   1.061   1.361  0.6135  0.8116 -0.9774
 3584TIP3   OH232310   5.859   0.913   0.761  0.0077 -0.1464  0.1121
 3584TIP3    H132311   5.788   0.858   0.728 -0.5357  1.2473 -1.1743
 3584TIP3    H232312   5.842   0.999   0.722  2.6679  0.1304 -0.5838
 3585TIP3   OH232313   5.730   4.251   7.447 -0.3992 -0.2058  0.3126
 3585TIP3    H132314   5.771   4.257   7.361  1.3508 -1.0501  1.0430
 3585TIP3    H232315   5.722   4.342   7.476 -0.0667  0.0301 -0.3125
 3586TIP3   OH232316   0.669   1.491   0.066 -0.0646  0.2875  0.2181
 3586TIP3    H132317   0.578   1.509   0.040  0.3546 -0.7200 -2.2716
 3586TIP3    H232318   0.661   1.438   0.146 -1.6159  0.8892  0.4964
 3587TIP3   OH232319   2.666   1.767   0.683 -0.4640 -0.3545  0.2831
 3587TIP3    H132320   2.575   1.771   0.710 -0.3674  2.4327  0.4579
 3587TIP3    H232321   2.714   1.816   0.750  1.3567 -2.4964  0.6878
 3588TIP3   OH232322   4.259   5.201   2.306  0.3301  0.1527  0.6333
 3588TIP3    H132323   4.171   5.233   2.290  0.6056  0.1609 -0.9597
 3588TIP3    H232324   4.261   5.182   2.400 -1.4104  0.0015  0.6624
 3589TIP3   OH232325   4.336   5.190   8.440  0.8415  0.3823  0.6006
 3589TIP3    H132326   4.282   5.264   8.469  0.9728  0.6799  0.1021
 3589TIP3    H232327   4.338   5.198   8.344  0.2131 -0.7182  0.4775
 3590TIP3   OH232328   6.040   5.347   6.939  0.0614  0.3202  0.2596
 3590TIP3    H132329   6.014   5.413   6.874  0.7831 -0.4606 -0.8530
 3590TIP3    H232330   5.964   5.289   6.947  0.8927 -1.2295 -2.0484
 3591TIP3   OH232331   1.551   6.340   2.182  0.0164  0.0711 -0.3633
 3591TIP3    H132332   1.609   6.269   2.158 -1.4551 -1.2501 -0.1493
 3591TIP3    H232333   1.533   6.325   2.275  0.6174  1.4353  0.0026
 3592TIP3   OH232334   1.085   1.992   1.522 -0.9331 -0.0077  0.4588
 3592TIP3    H132335   1.092   2.047   1.600 -0.2452  1.5922 -0.6510
 3592TIP3    H232336   1.024   2.040   1.465 -1.6604 -1.2954  0.1252
 3593TIP3   OH232337   1.710   4.599   0.467 -0.1436 -0.1271 -0.3706
 3593TIP3    H132338   1.688   4.580   0.376 -1.5266  2.8089 -0.7823
 3593TIP3    H232339   1.805   4.589   0.471  0.1285  0.9065 -2.5489
 3594TIP3   OH232340   4.868   2.313   7.461  0.1308  0.0832  0.5392
 3594TIP3    H132341   4.808   2.240   7.451 -1.9272  1.4847  1.9775
 3594TIP3    H232342   4.882   2.345   7.371 -1.6330 -0.0085  0.2009
 3595TIP3   OH232343   3.572   0.400   8.122 -0.8086  0.1005 -0.1602
 3595TIP3    H132344   3.570   0.384   8.216 -0.8018  0.9458 -0.0108
 3595TIP3    H232345   3.665   0.414   8.102 -0.8960  0.8037 -0.1243
 3596TIP3   OH232346   0.799   3.097   8.195  0.6485 -1.0455  0.2454
 3596TIP3    H132347   0.769   3.009   8.173 -0.3209 -0.6517 -0.0459
 3596TIP3    H232348   0.728   3.155   8.167  1.3870 -0.1411  0.1777
 3597TIP3   OH232349   4.647   1.673   7.006  0.3815  0.0047  0.3522
 3597TIP3    H132350   4.742   1.662   7.013  0.2868 -1.1151  0.0135
 3597TIP3    H232351   4.616   1.591   6.968 -0.7514  0.2704  0.6742
 3598TIP3   OH232352   0.147   5.693   8.065  0.1304  0.1895 -0.0854
 3598TIP3    H132353   0.240   5.701   8.087  0.1015 -0.8662  0.5052
 3598TIP3    H232354   0.105   5.662   8.146 -0.2776 -2.0042 -1.0410
 3599TIP3   OH232355   2.980   2.932   8.540  0.4151 -0.4513 -0.1323
 3599TIP3    H132356   3.047   2.889   8.594 -0.2898  0.3683  1.4652
 3599TIP3    H232357   3.029   2.995   8.488  0.8208  1.1138  1.9995
 3600TIP3   OH232358   1.837   5.228   8.649 -0.0260  0.1433  0.8069
 3600TIP3    H132359   1.749   5.219   8.687 -0.7961 -0.5644 -1.0266
 3600TIP3    H232360   1.896   5.211   8.722 -1.4314 -1.0321  1.7369
 3601TIP3   OH232361   0.025   0.683   7.833 -0.2656  0.2033  0.0780
 3601TIP3    H132362   0.094   0.617   7.826 -0.0210  0.5035 -0.3704
 3601TIP3    H232363  -0.055   0.632   7.846 -0.3470 -0.2852 -2.0313
 3602TIP3   OH232364   5.746   0.107   0.841 -0.2257 -0.4791  0.4806
 3602TIP3    H132365   5.680   0.038   0.831  1.3133 -2.1111  0.9966
 3602TIP3    H232366   5.695   0.187   0.854 -2.1252 -1.7817  1.6858
 3603TIP3   OH232367   2.085   0.373   7.415  0.3637  0.2474  0.3165
 3603TIP3    H132368   2.137   0.328   7.483  0.2104 -0.9695 -0.3479
 3603TIP3    H232369   2.094   0.317   7.338 -0.1605  1.1808 -0.4277
 3604TIP3   OH232370   2.000   0.614   7.500  0.2131  0.1644  0.6706
 3604TIP3    H132371   2.055   0.673   7.449  0.5085 -0.1084  0.6690
 3604TIP3    H232372   2.033   0.526   7.478 -0.9833 -0.0851 -0.2455
 3605TIP3   OH232373   1.923   6.248   1.183 -0.1537  0.1000 -0.1883
 3605TIP3    H132374   1.833   6.249   1.152  0.3259 -1.3798 -1.7700
 3605TIP3    H232375   1.919   6.290   1.269 -1.9523  2.1727 -1.1744
 3606TIP3   OH232376   4.246   5.609   0.114  0.2322  0.6444 -0.2532
 3606TIP3    H132377   4.310   5.629   0.045 -0.6369  0.3434 -1.1757
 3606TIP3    H232378   4.237   5.691   0.162 -0.9084  1.6118 -1.9990
 3607TIP3   OH232379   5.508   4.352   8.660  0.0506  0.5955 -0.4669
 3607TIP3    H132380   5.447   4.376   8.590 -0.8544  3.1117  1.0727
 3607TIP3    H232381   5.455   4.300   8.721  0.7992 -1.4615 -1.4670
 3608TIP3   OH232382   2.239   0.860   0.056 -0.3890  0.0137  0.3823
 3608TIP3    H132383   2.158   0.848   0.105  0.3708 -0.7906  1.4914
 3608TIP3    H232384   2.270   0.771   0.038  1.0034  0.2626  1.3223
 3609TIP3   OH232385   3.417   4.150   8.730 -0.0729  0.0520 -0.0789
 3609TIP3    H132386   3.350   4.211   8.762 -0.3390 -0.8167  1.1018
 3609TIP3    H232387   3.391   4.131   8.640 -0.0858  1.5133 -0.4109
 3610TIP3   OH232388   0.724   5.715   7.584  0.0098 -0.3223  0.6142
 3610TIP3    H132389   0.705   5.646   7.520 -0.8630  0.4971 -0.0468
 3610TIP3    H232390   0.804   5.756   7.552 -1.0577  0.8632 -0.6901
 3611TIP3   OH232391   3.314   0.341   2.587  0.4531  0.1510 -0.0423
 3611TIP3    H132392   3.299   0.306   2.500 -0.5461  1.3038 -0.3677
 3611TIP3    H232393   3.353   0.269   2.636 -1.4393 -1.3725 -0.6776
 3612TIP3   OH232394   6.485   2.214   0.867  0.4448  0.2632  0.1666
 3612TIP3    H132395   6.577   2.201   0.844  0.8032  1.9204  0.5868
 3612TIP3    H232396   6.437   2.177   0.793  1.4062 -1.2722  0.2682
 3613TIP3   OH232397   0.878   3.066   2.453 -0.4762  0.3165 -0.2615
 3613TIP3    H132398   0.820   3.043   2.380 -0.1104 -1.7820  0.0513
 3613TIP3    H232399   0.866   2.995   2.516  1.5228  0.4647  0.3444
 3614TIP3   OH232400   3.500   4.814   0.114  0.2729  0.4365  0.3138
 3614TIP3    H132401   3.515   4.897   0.068 -0.8069  0.6097  0.2475
 3614TIP3    H232402   3.515   4.835   0.206  0.5263  0.5720  0.2427
 3615TIP3   OH232403   3.437   5.748   2.448 -0.7215 -0.2652  0.0882
 3615TIP3    H132404   3.494   5.754   2.372 -1.7823 -0.9114 -0.7959
 3615TIP3    H232405   3.493   5.713   2.518  0.1234 -0.2249 -0.5549
 3616TIP3   OH232406   1.861   4.273   7.046  0.5091  0.2483 -0.9721
 3616TIP3    H132407   1.801   4.316   6.985  2.2791  0.3231 -2.7408
 3616TIP3    H232408   1.933   4.335   7.058  1.4667 -0.8465 -0.9084
 3617TIP3   OH232409   2.212   5.480   8.368  0.3737  0.0857  0.4986
 3617TIP3    H132410   2.149   5.520   8.428 -0.9319 -0.4389 -0.4737
 3617TIP3    H232411   2.168   5.401   8.336  0.5444  0.8922 -1.9488
 3618TIP3   OH232412   1.638   5.403   2.576  0.3911  0.3727 -0.5236
 3618TIP3    H132413   1.645   5.480   2.632 -0.7181  0.4273 -0.4324
 3618TIP3    H232414   1.666   5.330   2.632 -1.6347  0.2854  0.4869
 3619TIP3   OH232415   6.354   1.621   8.512 -0.1214 -0.0028  0.0225
 3619TIP3    H132416   6.301   1.664   8.580 -0.2596  1.7443 -1.1206
 3619TIP3    H232417   6.290   1.590   8.448  0.0729 -0.7742  0.1890
 3620TIP3   OH232418   5.762   0.028   8.040 -0.3177  0.1287  0.1650
 3620TIP3    H132419   5.843   0.053   8.086 -0.8495  0.1839  1.1005
 3620TIP3    H232420   5.792  -0.016   7.961  0.6398 -0.3859  0.7876
 3621TIP3   OH232421   6.644   1.187   1.667  0.2930  0.7285 -0.0963
 3621TIP3    H132422   6.563   1.190   1.616 -0.0380  0.0341  0.3649
 3621TIP3    H232423   6.671   1.095   1.663  0.4856  0.7487  0.6318
 3622TIP3   OH232424   5.657   6.811   7.514  0.0011  0.3861  0.2480
 3622TIP3    H132425   5.581   6.785   7.462 -0.4086  2.5183 -0.2978
 3622TIP3    H232426   5.627   6.808   7.605 -0.6522  0.9031  0.0551
 3623TIP3   OH232427   5.761   5.876   3.095  0.5997  0.0256  0.0144
 3623TIP3    H132428   5.798   5.899   3.010  0.5802 -1.1594 -0.3298
 3623TIP3    H232429   5.780   5.783   3.105  0.6589  0.1685  1.3451
 3624TIP3   OH232430   5.466   5.368   7.440 -0.6611  0.4139  0.4450
 3624TIP3    H132431   5.539   5.415   7.480 -1.2514  1.9255 -0.1906
 3624TIP3    H232432   5.416   5.334   7.514  0.7380 -0.7690  0.8854
 3625TIP3   OH232433   0.350   0.558   0.112 -0.4234  0.3399 -0.2022
 3625TIP3    H132434   0.262   0.538   0.079 -1.2172  1.0365  1.3308
 3625TIP3    H232435   0.402   0.480   0.092 -1.2175  0.1622 -1.6904
 3626TIP3   OH232436   3.687   4.366   8.700 -0.1665 -0.1011 -0.1593
 3626TIP3    H132437   3.671   4.389   8.608  1.3010  1.1972 -0.1266
 3626TIP3    H232438   3.663   4.445   8.749 -0.7445 -0.7142  0.5708
 3627TIP3   OH232439   5.241   6.054   1.188  0.1361 -0.0584 -0.0132
 3627TIP3    H132440   5.231   6.066   1.282  2.1774 -1.0385  0.3873
 3627TIP3    H232441   5.245   5.959   1.176 -1.1239  0.0099 -1.2342
 3628TIP3   OH232442   3.967   6.611   8.381  0.2525  0.4671 -0.3614
 3628TIP3    H132443   4.054   6.574   8.396  0.0648  0.3920  0.6607
 3628TIP3    H232444   3.979   6.678   8.314  1.0038  0.1206 -0.5802
 3629TIP3   OH232445   2.305   3.068   0.477 -0.0520  0.0038 -0.1027
 3629TIP3    H132446   2.229   3.011   0.462 -0.1934 -0.0423  0.7225
 3629TIP3    H232447   2.311   3.075   0.572  2.0758 -1.4569 -0.0609
 3630TIP3   OH232448   6.768   3.895   1.757 -0.0036 -0.0083  0.0496
 3630TIP3    H132449   6.831   3.952   1.801  1.5769 -1.3105 -0.4568
 3630TIP3    H232450   6.779   3.915   1.664 -1.7363  1.1074  0.0268
 3631TIP3   OH232451   1.646   2.752   0.667 -0.6741 -0.6682 -0.4650
 3631TIP3    H132452   1.710   2.682   0.671  0.3419  0.2799  0.6943
 3631TIP3    H232453   1.632   2.768   0.574  2.3937  0.5023 -0.8275
 3632TIP3   OH232454   3.872   3.024   8.079  0.4048 -0.0016  0.1329
 3632TIP3    H132455   3.837   3.110   8.054 -0.6001 -0.6484 -0.7592
 3632TIP3    H232456   3.879   2.976   7.996  2.5047 -0.2617  0.4018
 3633TIP3   OH232457   4.169   2.327   0.622  0.0949  0.2042  0.5921
 3633TIP3    H132458   4.161   2.258   0.555  3.3221 -0.2244  0.4680
 3633TIP3    H232459   4.101   2.306   0.686 -2.1620 -0.2161 -1.7684
 3634TIP3   OH232460   2.761   2.595   0.578 -0.4025  0.1816 -0.1478
 3634TIP3    H132461   2.719   2.510   0.583 -0.0979  0.0124 -0.4801
 3634TIP3    H232462   2.749   2.623   0.488 -1.2256  0.8640  0.1543
 3635TIP3   OH232463   0.797   4.953   1.316  0.4199  0.2163 -0.4502
 3635TIP3    H132464   0.746   4.929   1.239  0.6521 -0.1194 -0.5022
 3635TIP3    H232465   0.848   5.029   1.288 -0.6737  1.0882 -0.1399
 3636TIP3   OH232466   0.401   6.655   2.144 -0.2488  0.3704 -1.0436
 3636TIP3    H132467   0.392   6.696   2.230 -0.0847  3.6238 -2.4123
 3636TIP3    H232468   0.490   6.620   2.143 -0.2093  0.4114  0.0445
 3637TIP3   OH232469   2.467   1.051   7.330  0.0142  0.3412  0.7544
 3637TIP3    H132470   2.438   0.983   7.268  0.4164  0.4515  0.4429
 3637TIP3    H232471   2.557   1.027   7.352 -0.4550 -0.2757  2.1070
 3638TIP3   OH232472   3.377   5.945   8.416 -0.1357  0.6418  0.2169
 3638TIP3    H132473   3.451   6.003   8.431  2.4047 -2.4110  0.5160
 3638TIP3    H232474   3.379   5.927   8.322 -2.3415  2.6545 -0.3079
 3639TIP3   OH232475   6.579   0.918   7.270 -0.5564  0.2763  0.1543
 3639TIP3    H132476   6.664   0.949   7.303 -1.7028  1.4830  2.2116
 3639TIP3    H232477   6.577   0.825   7.294  1.4590 -0.7301 -2.9168
 3640TIP3   OH232478   6.577   3.284   0.137  0.6417  0.0899  0.6301
 3640TIP3    H132479   6.577   3.188   0.142 -0.0832  0.0019 -0.7142
 3640TIP3    H232480   6.489   3.310   0.162  0.5430  0.3341  0.0557
 3641TIP3   OH232481   0.558   2.825   2.108  0.3831 -0.4143 -0.2290
 3641TIP3    H132482   0.542   2.890   2.041  2.7410  2.2176  1.5400
 3641TIP3    H232483   0.626   2.768   2.071  1.1501  0.5799 -0.3969
 3642TIP3   OH232484   2.771   2.783   8.508  0.5952 -0.1490 -0.3779
 3642TIP3    H132485   2.836   2.853   8.519  1.5001 -1.0568  0.1840
 3642TIP3    H232486   2.813   2.705   8.543 -0.5268 -0.9235 -0.6953
 3643TIP3   OH232487   5.001   1.592   1.410 -0.3655  0.0798  0.8832
 3643TIP3    H132488   4.935   1.580   1.342  1.5584 -3.0656 -0.6340
 3643TIP3    H232489   5.051   1.669   1.381  0.2199 -1.0125 -1.2044
 3644TIP3   OH232490   5.407   1.317   8.054  0.4662  0.3507 -0.2065
 3644TIP3    H132491   5.418   1.380   7.983 -2.8222 -0.1170 -1.3245
 3644TIP3    H232492   5.346   1.360   8.114 -1.5924 -1.5096 -0.8402
 3645TIP3   OH232493   5.122   6.012   0.437 -0.6538  0.0043 -0.4546
 3645TIP3    H132494   5.210   6.046   0.452 -0.1567 -1.4781  0.0673
 3645TIP3    H232495   5.132   5.918   0.430 -2.2775 -0.2645  0.2708
 3646TIP3   OH232496   0.363   3.632   0.236 -0.0176  0.6345  0.2722
 3646TIP3    H132497   0.311   3.592   0.165 -0.2426 -0.1705  0.8791
 3646TIP3    H232498   0.429   3.567   0.257  0.3957  1.1032  0.4321
 3647TIP3   OH232499   2.354   0.826   7.169 -0.4358 -0.0246  0.0690
 3647TIP3    H132500   2.354   0.854   7.078 -0.7331  0.6891  0.2789
 3647TIP3    H232501   2.442   0.789   7.183 -0.7793 -1.2350 -0.8112
 3648TIP3   OH232502   5.836   2.056   2.640 -0.3056 -0.6035 -0.3544
 3648TIP3    H132503   5.870   2.144   2.657  0.1261 -0.6332 -1.0394
 3648TIP3    H232504   5.907   2.011   2.595 -1.2972 -0.6086 -2.0087
 3649TIP3   OH232505   0.656   1.525   0.829 -0.1612  0.0291 -0.2726
 3649TIP3    H132506   0.619   1.452   0.781  0.0103 -0.5090  0.3959
 3649TIP3    H232507   0.580   1.580   0.851 -0.1426  0.7761 -1.9266
 3650TIP3   OH232508   3.935   5.587   0.981  0.9133 -0.6997  0.1026
 3650TIP3    H132509   4.016   5.558   0.939  2.3301  3.2349 -0.3734
 3650TIP3    H232510   3.963   5.628   1.063 -0.6366  0.2593  0.2103
 3651TIP3   OH232511   1.353   4.318   7.132  0.5965 -0.1063  0.0850
 3651TIP3    H132512   1.399   4.367   7.064  0.5836  1.3990  1.1142
 3651TIP3    H232513   1.275   4.283   7.088  2.3001 -2.1885 -1.5328
 3652TIP3   OH232514   5.334   6.089   7.314  0.1426  0.7557 -0.0836
 3652TIP3    H132515   5.338   6.035   7.235 -1.2814 -1.2003  1.0882
 3652TIP3    H232516   5.253   6.140   7.305  0.9941  2.0328 -0.7491
 3653TIP3   OH232517   3.547   0.128   0.184  0.4456 -0.2129 -0.1918
 3653TIP3    H132518   3.502   0.056   0.228  0.0680  0.7304  0.9927
 3653TIP3    H232519   3.585   0.088   0.106 -0.5315 -1.5032 -0.0318
 3654TIP3   OH232520   2.593   1.676   2.506  0.4365  0.4421 -0.0695
 3654TIP3    H132521   2.625   1.594   2.542  1.7604  0.9659  0.0130
 3654TIP3    H232522   2.500   1.661   2.490  0.6944 -1.1151 -0.2321
 3655TIP3   OH232523   6.241   2.223   1.596  0.0401  0.4045  0.1793
 3655TIP3    H132524   6.242   2.270   1.679  1.1309  0.4434  0.1534
 3655TIP3    H232525   6.328   2.185   1.588 -0.5067 -0.8360 -0.2523
 3656TIP3   OH232526   1.614   3.577   7.846 -0.2245 -0.4262  0.3921
 3656TIP3    H132527   1.526   3.605   7.823 -0.3454  0.8736  2.2576
 3656TIP3    H232528   1.672   3.634   7.796 -0.4764  0.7276  1.3751
 3657TIP3   OH232529   2.468   6.763   0.194  0.2521 -0.3943 -0.1300
 3657TIP3    H132530   2.441   6.673   0.211  0.5951 -0.5889 -0.5722
 3657TIP3    H232531   2.433   6.814   0.267 -0.6717 -0.7483 -0.3233
 3658TIP3   OH232532   0.378   5.499   7.925  0.4807 -0.0397 -0.0128
 3658TIP3    H132533   0.400   5.588   7.953  0.7383  0.0127 -0.3784
 3658TIP3    H232534   0.409   5.443   7.996  0.3177  0.1577  0.2191
 3659TIP3   OH232535   5.529   3.926   7.873  0.0900 -0.1522 -0.2309
 3659TIP3    H132536   5.581   4.003   7.849  0.1521  0.0291  0.4589
 3659TIP3    H232537   5.475   3.909   7.796  0.1098  0.5570 -0.4139
 3660TIP3   OH232538   0.256   3.986   8.445 -0.1535 -0.0887  0.0756
 3660TIP3    H132539   0.182   3.976   8.386  0.0627  2.0740 -0.6754
 3660TIP3    H232540   0.220   4.029   8.522  0.3311  1.4410 -0.5007
 3661TIP3   OH232541   6.771   4.825   2.189 -0.0794 -0.5401  0.3175
 3661TIP3    H132542   6.836   4.791   2.128  0.3684 -0.2132  0.6034
 3661TIP3    H232543   6.747   4.749   2.243 -0.4125 -0.8067 -0.2063
 3662TIP3   OH232544   0.789   1.412   0.493  0.4713  0.0446 -0.2035
 3662TIP3    H132545   0.865   1.361   0.523  1.2926  1.3227 -0.0521
 3662TIP3    H232546   0.824   1.471   0.427 -0.5128  0.2739 -0.5328
 3663TIP3   OH232547   6.240   6.189   1.098  0.0410  0.0388 -0.2570
 3663TIP3    H132548   6.270   6.262   1.044 -1.5039  1.7396  1.0425
 3663TIP3    H232549   6.295   6.194   1.177 -1.9258  1.7243  1.1153
 3664TIP3   OH232550   5.822   0.877   7.437  0.3214 -0.2420 -0.1634
 3664TIP3    H132551   5.903   0.834   7.411  0.1612 -0.0963 -0.9281
 3664TIP3    H232552   5.832   0.968   7.410 -0.7756 -0.5840 -1.9195
 3665TIP3   OH232553   2.445   1.182   1.736 -0.2822  0.0086  0.0390
 3665TIP3    H132554   2.503   1.106   1.726  1.4134  1.2158  0.2257
 3665TIP3    H232555   2.499   1.248   1.781 -1.8511  1.1645  0.3225
 3666TIP3   OH232556   6.002   4.771   8.038 -0.4434  0.0229  0.4432
 3666TIP3    H132557   6.007   4.691   7.985  1.0771 -0.3014  1.0061
 3666TIP3    H232558   6.018   4.842   7.975 -0.4517 -0.2208  0.1635
 3667TIP3   OH232559   6.183   0.011   0.155  0.1119  0.4617  0.6157
 3667TIP3    H132560   6.268  -0.024   0.181  0.6924  1.3589 -0.0110
 3667TIP3    H232561   6.162  -0.035   0.073  0.7728  1.4037 -0.0941
 3668TIP3   OH232562   0.920   2.333   8.777  0.5307  0.4867  0.0424
 3668TIP3    H132563   0.912   2.280   8.856 -1.9108  0.6164 -0.0508
 3668TIP3    H232564   0.960   2.415   8.807 -1.4644  1.0140  1.4394
 3669TIP3   OH232565   1.058   6.594   7.635  0.7742  0.1749  0.1544
 3669TIP3    H132566   1.078   6.539   7.711 -1.5396  0.0238  0.7407
 3669TIP3    H232567   1.107   6.675   7.650  1.6512 -0.4757  0.9496
 3670TIP3   OH232568   1.917   1.122   8.721  0.5814  0.1077 -0.7947
 3670TIP3    H132569   1.973   1.145   8.646  0.6970 -0.2397 -0.8190
 3670TIP3    H232570   1.829   1.146   8.694  0.4511 -1.0859 -1.5148
 3671TIP3   OH232571   6.249   6.561   7.275  0.1681 -0.0646  0.1696
 3671TIP3    H132572   6.334   6.519   7.260  0.5074 -0.0655  1.8641
 3671TIP3    H232573   6.257   6.600   7.362 -0.8703  1.7462 -0.4986
 3672TIP3   OH232574   3.224   3.732   1.665  0.7184 -0.5731  0.0475
 3672TIP3    H132575   3.158   3.664   1.674  0.1328 -0.0471 -0.2480
 3672TIP3    H232576   3.268   3.734   1.750 -1.1576  0.6435  1.0264
 3673TIP3   OH232577   0.659   3.607   1.371 -0.5597  0.7751  0.3987
 3673TIP3    H132578   0.685   3.548   1.300 -1.2652  0.2415  0.5736
 3673TIP3    H232579   0.653   3.693   1.330 -0.5831  0.5364 -0.1045
 3674TIP3   OH232580   6.206   3.083   1.942 -0.7011 -0.2291  0.3843
 3674TIP3    H132581   6.138   3.069   1.876 -0.5672  1.5795 -0.1972
 3674TIP3    H232582   6.205   3.177   1.958  0.1194 -0.4756  2.0724
 3675TIP3   OH232583   0.080   5.444   1.886  0.8642  0.1317 -0.4914
 3675TIP3    H132584   0.080   5.370   1.946  0.5886  1.4289  1.2121
 3675TIP3    H232585   0.136   5.417   1.814 -1.1333 -2.6308 -1.1700
 3676TIP3   OH232586   3.936   0.083   1.462 -0.4865  1.0365 -0.2088
 3676TIP3    H132587   3.996   0.152   1.433  0.3279  0.8959  1.0443
 3676TIP3    H232588   3.980   0.002   1.439 -1.0958  0.9295 -1.0054
 3677TIP3   OH232589   3.197   6.185   7.042  0.6563  0.1538  0.3977
 3677TIP3    H132590   3.234   6.111   6.995 -1.1937 -0.4026 -0.2853
 3677TIP3    H232591   3.113   6.153   7.076  0.9053  1.2182  2.1967
 3678TIP3   OH232592   1.277   2.222   2.774  0.0613 -0.3447  0.1592
 3678TIP3    H132593   1.279   2.147   2.714  1.3800  0.5030 -0.9293
 3678TIP3    H232594   1.368   2.250   2.781 -0.5428  2.3545 -1.0832
 3679TIP3   OH232595   3.170   1.262   7.656 -0.0469 -0.2714  0.4189
 3679TIP3    H132596   3.207   1.321   7.721  0.9909 -1.0860  0.5976
 3679TIP3    H232597   3.234   1.263   7.584 -1.1266  0.5484 -0.5811
 3680TIP3   OH232598   1.361   2.593   1.291  0.1694  0.3522 -0.2430
 3680TIP3    H132599   1.287   2.583   1.231  0.7740  1.9221 -1.2867
 3680TIP3    H232600   1.320   2.594   1.378 -0.7464 -1.6131 -0.5902
 3681TIP3   OH232601   5.902   4.039   7.420 -0.3802  0.9236  0.3944
 3681TIP3    H132602   5.911   4.113   7.361  0.8523  0.8134  0.4288
 3681TIP3    H232603   5.815   4.050   7.459 -1.1813  1.0439 -1.3351
 3682TIP3   OH232604   2.410   1.569   8.383 -0.6148  0.2068 -0.4559
 3682TIP3    H132605   2.500   1.538   8.369 -0.7993 -1.0049  0.8041
 3682TIP3    H232606   2.414   1.616   8.466 -0.8169  1.6717 -1.2430
 3683TIP3   OH232607   1.293   4.562   8.645  0.3596 -0.2220 -0.3669
 3683TIP3    H132608   1.252   4.622   8.583 -0.7295 -0.6945 -0.1364
 3683TIP3    H232609   1.225   4.496   8.662  0.3261  0.3470  1.9487
 3684TIP3   OH232610   6.092   3.932   8.249 -0.1241  0.7827  0.1089
 3684TIP3    H132611   6.163   3.941   8.186 -0.9420 -1.3914 -1.2381
 3684TIP3    H232612   6.021   3.986   8.214  0.5600  2.4105  1.1026
 3685TIP3   OH232613   5.205   1.976   1.091 -0.1858 -0.0751  0.1844
 3685TIP3    H132614   5.115   1.976   1.057  0.0149  1.3112 -0.3964
 3685TIP3    H232615   5.260   1.971   1.013  0.3164 -3.0805  0.5802
 3686TIP3   OH232616   1.463   0.078   7.364 -0.3125 -0.2409  0.5086
 3686TIP3    H132617   1.513   0.076   7.282  0.3506  1.7591  0.8044
 3686TIP3    H232618   1.372   0.065   7.337 -0.0294 -0.2255 -0.4867
 3687TIP3   OH232619   6.547   3.335   8.022 -0.4163 -0.0725  0.0059
 3687TIP3    H132620   6.541   3.396   8.096 -1.1251 -0.8698  0.6132
 3687TIP3    H232621   6.581   3.254   8.060  2.1820  0.3937 -1.0813
 3688TIP3   OH232622   5.938   3.151   8.755  0.3256 -0.2332  0.1369
 3688TIP3    H132623   5.933   3.105   8.838  0.9269  0.4224  0.5527
 3688TIP3    H232624   6.017   3.115   8.713  0.5255  0.0592  0.2522
 3689TIP3   OH232625   4.560   3.958   1.099 -0.1551 -0.3577  0.7375
 3689TIP3    H132626   4.643   3.997   1.124  0.8972 -1.4501 -0.9107
 3689TIP3    H232627   4.512   4.029   1.056  1.3931 -0.5540 -1.4644
 3690TIP3   OH232628   2.921   4.829   1.293  0.0487 -0.1935  0.3143
 3690TIP3    H132629   2.996   4.825   1.233 -0.6449  0.7173 -0.6496
 3690TIP3    H232630   2.846   4.846   1.236 -0.6776  0.3512  1.4124
 3691TIP3   OH232631   5.537   0.676   7.521 -0.4166 -0.2923  0.0230
 3691TIP3    H132632   5.587   0.663   7.602 -1.1840  0.3222  0.6099
 3691TIP3    H232633   5.453   0.634   7.539 -0.6756  0.0599 -0.3757
 3692TIP3   OH232634   0.527   4.288   6.592 -0.0107 -0.4596 -0.2230
 3692TIP3    H132635   0.606   4.288   6.537  0.5824 -1.9091  0.5668
 3692TIP3    H232636   0.541   4.215   6.653 -1.4152  0.0442  0.7379
 3693TIP3   OH232637   4.297   6.509   0.524 -0.1410 -0.1699 -0.1809
 3693TIP3    H132638   4.215   6.547   0.492 -0.3349 -0.9358 -0.6033
 3693TIP3    H232639   4.353   6.503   0.446  0.3522  0.4180  0.1183
 3694TIP3   OH232640   5.829   2.050   8.769  0.0098 -0.5687  0.4793
 3694TIP3    H132641   5.911   2.043   8.721 -0.6681  1.7122 -1.1499
 3694TIP3    H232642   5.856   2.062   8.860  1.5138  0.7807 -0.1075
 3695TIP3   OH232643   0.132   2.694   7.600  0.0536 -0.5208 -0.4485
 3695TIP3    H132644   0.161   2.691   7.509 -0.0425  0.9425 -0.5443
 3695TIP3    H232645   0.208   2.725   7.649 -0.3972  0.3767 -0.2865
 3696TIP3   OH232646   1.366   2.807   2.083 -0.4949 -0.4233 -0.4573
 3696TIP3    H132647   1.408   2.892   2.098  0.0935 -0.5777 -1.1389
 3696TIP3    H232648   1.282   2.813   2.129 -0.7443  0.7686 -1.0178
 3697TIP3   OH232649   1.300   5.766   0.863 -0.0433  0.0528  0.0930
 3697TIP3    H132650   1.219   5.817   0.859  0.5024  0.9019 -0.4080
 3697TIP3    H232651   1.280   5.693   0.923 -1.3753 -0.1246 -0.5339
 3698TIP3   OH232652   6.000   5.578   1.978 -0.1908 -0.8617  0.0120
 3698TIP3    H132653   6.091   5.567   1.954  0.0405 -2.3458  1.3657
 3698TIP3    H232654   5.975   5.663   1.943  1.7068 -0.4393 -0.3821
 3699TIP3   OH232655   5.472   1.198   1.259  0.2212  0.1329 -0.5079
 3699TIP3    H132656   5.444   1.111   1.287  1.0837  0.6323  2.1389
 3699TIP3    H232657   5.411   1.258   1.302 -0.6074  0.8979 -2.6114
 3700TIP3   OH232658   2.410   5.637   1.484  0.1473  0.3751 -0.1315
 3700TIP3    H132659   2.460   5.556   1.496 -0.9343 -0.0938  1.7243
 3700TIP3    H232660   2.475   5.703   1.460  1.5072 -0.4281  1.1519
 3701TIP3   OH232661   0.460   1.369   7.994 -0.0089  0.0338  0.1761
 3701TIP3    H132662   0.428   1.287   7.957 -1.4923  0.9430 -0.6325
 3701TIP3    H232663   0.510   1.409   7.923 -1.8195  1.2013 -0.5100
 3702TIP3   OH232664   3.995   2.663   2.672  0.2955 -0.5330 -0.0090
 3702TIP3    H132665   4.002   2.636   2.764  1.2644 -1.0098 -0.2096
 3702TIP3    H232666   4.063   2.613   2.627  1.0205  1.0191 -0.6919
 3703TIP3   OH232667   2.668   3.130   2.766 -0.1978 -0.0860 -0.5059
 3703TIP3    H132668   2.729   3.203   2.759 -0.3507 -0.0020 -0.9479
 3703TIP3    H232669   2.723   3.054   2.784 -0.0539  0.1678  0.1816
 3704TIP3   OH232670   1.321   6.385   7.006  0.1125  0.3340  0.2521
 3704TIP3    H132671   1.386   6.355   7.069  0.9783 -0.0829 -0.8214
 3704TIP3    H232672   1.237   6.362   7.047  0.6805 -1.7062  0.4159
 3705TIP3   OH232673   6.727   1.441   8.275 -0.1667 -0.1487  0.5352
 3705TIP3    H132674   6.678   1.437   8.357  2.1862  0.9728  2.1172
 3705TIP3    H232675   6.668   1.486   8.214 -1.8362 -0.6591  1.7048
 3706TIP3   OH232676   2.953   3.715   1.511 -0.2719 -0.1205  0.0525
 3706TIP3    H132677   2.889   3.709   1.440  1.8532 -0.9074 -1.8853
 3706TIP3    H232678   2.968   3.624   1.537  0.8076 -0.0260 -0.2182
 3707TIP3   OH232679   2.249   2.726   8.447 -0.2400  0.6055 -0.4144
 3707TIP3    H132680   2.268   2.698   8.358  1.0705  3.0339 -0.9905
 3707TIP3    H232681   2.332   2.758   8.482 -0.8094  0.1219  1.5523
 3708TIP3   OH232682   3.108   2.977   2.715 -0.0585  0.0869  0.1854
 3708TIP3    H132683   3.036   3.040   2.708  1.2565  1.6241 -0.2864
 3708TIP3    H232684   3.182   3.030   2.745  1.3090 -1.0827 -1.0033
 3709TIP3   OH232685   3.210   1.624   6.860  0.1348 -0.5454 -0.4009
 3709TIP3    H132686   3.167   1.546   6.894 -0.9314  0.0731 -0.2810
 3709TIP3    H232687   3.178   1.633   6.770  0.0000 -0.0846 -0.3125
 3710TIP3   OH232688   4.470   5.555   7.492 -0.0013  0.0274 -0.0014
 3710TIP3    H132689   4.519   5.492   7.440  0.3221 -0.8814  1.3552
 3710TIP3    H232690   4.419   5.502   7.554 -1.6889  0.9983 -0.4845
 3711TIP3   OH232691   6.175   4.549   1.356  0.1467  0.1933  0.0277
 3711TIP3    H132692   6.161   4.602   1.277 -1.7124 -1.2481 -0.6857
 3711TIP3    H232693   6.214   4.468   1.323 -0.4079 -0.3184  0.6219
 3712TIP3   OH232694   1.658   1.320   0.558 -0.2077  0.2925 -0.3552
 3712TIP3    H132695   1.672   1.239   0.509 -1.8275 -0.6019  0.5755
 3712TIP3    H232696   1.574   1.353   0.524 -0.5456  0.5099  0.6578
 3713TIP3   OH232697   2.555   3.802   7.300  0.1168 -0.3763 -0.0095
 3713TIP3    H132698   2.536   3.858   7.224 -0.1122 -0.1553  0.2126
 3713TIP3    H232699   2.641   3.831   7.329 -0.4522  0.6107  0.7687
 3714TIP3   OH232700   5.101   3.079   8.296 -0.1392  0.0471  0.1130
 3714TIP3    H132701   5.173   3.142   8.292  0.5234 -0.7222 -0.6111
 3714TIP3    H232702   5.023   3.132   8.306  0.4074  0.9860 -0.4507
 3715TIP3   OH232703   5.485   4.013   2.630 -0.0854 -0.1880  0.3890
 3715TIP3    H132704   5.437   3.995   2.711  3.0260 -1.3676  2.1676
 3715TIP3    H232705   5.489   3.928   2.586 -0.3134  0.0846 -0.1665
 3716TIP3   OH232706   2.362   0.936   8.425 -0.5125  0.0358 -0.4194
 3716TIP3    H132707   2.444   0.897   8.453 -1.5442 -1.1898  1.0725
 3716TIP3    H232708   2.357   0.916   8.331  0.5240 -0.5346 -0.3701
 3717TIP3   OH232709   5.891   2.695   7.871  0.4577  0.3929  0.0622
 3717TIP3    H132710   5.964   2.636   7.850  2.0048  2.3793 -0.4607
 3717TIP3    H232711   5.821   2.669   7.811  0.8066 -1.3572  0.3503
 3718TIP3   OH232712   1.823   5.431   6.950  0.2404 -0.2289  0.0537
 3718TIP3    H132713   1.779   5.371   6.890  0.3844  0.2191 -0.5153
 3718TIP3    H232714   1.890   5.378   6.992 -2.5073 -1.7001  3.0218
 3719TIP3   OH232715   4.683   0.164   1.563  0.0161 -1.0644 -0.0875
 3719TIP3    H132716   4.631   0.109   1.505 -1.3966  1.3675 -1.2756
 3719TIP3    H232717   4.714   0.235   1.507  1.5066 -0.4288  1.4492
 3720TIP3   OH232718   5.378   3.581   1.922  0.3199  0.5983  0.4212
 3720TIP3    H132719   5.384   3.539   1.836  1.3363 -0.1961  0.8552
 3720TIP3    H232720   5.287   3.611   1.928  0.1739  0.4509 -0.8268
 3721TIP3   OH232721   5.703   0.078   0.412  0.2199  0.1560  0.1581
 3721TIP3    H132722   5.687   0.140   0.341 -1.5430  0.3625  0.7109
 3721TIP3    H232723   5.677   0.124   0.491  1.5126 -0.3324  0.9042
 3722TIP3   OH232724   1.971   2.322   1.475 -0.0546  0.1770 -0.3812
 3722TIP3    H132725   1.928   2.267   1.409 -1.2498 -0.8192  1.1537
 3722TIP3    H232726   1.903   2.341   1.538  1.7983 -2.2039  2.6581
 3723TIP3   OH232727   0.225   3.221   0.490 -0.2151 -0.5568 -0.7574
 3723TIP3    H132728   0.313   3.186   0.477  0.9912  0.8970  2.3868
 3723TIP3    H232729   0.208   3.209   0.584 -2.7911  0.5144 -1.0004
 3724TIP3   OH232730   0.877   4.242   0.128  0.1614  0.0443  0.1425
 3724TIP3    H132731   0.796   4.192   0.128 -0.7018  1.2567 -2.7992
 3724TIP3    H232732   0.857   4.320   0.181 -0.4801  0.1275 -0.2119
 3725TIP3   OH232733   6.423   5.289   1.265 -0.2986  0.1462  0.1740
 3725TIP3    H132734   6.460   5.373   1.293 -0.0666  0.2996 -0.5805
 3725TIP3    H232735   6.499   5.233   1.248 -0.4391 -0.0201  0.0850
 3726TIP3   OH232736   0.746   0.474   8.132  0.3742  0.2947  0.5787
 3726TIP3    H132737   0.789   0.500   8.051 -0.7601  0.1535 -0.0827
 3726TIP3    H232738   0.781   0.535   8.198  1.7491  0.0214  0.1235
 3727TIP3   OH232739   0.915   3.438   1.776 -0.1311  0.0586 -0.3136
 3727TIP3    H132740   0.988   3.450   1.715 -0.0066  0.5152 -0.0806
 3727TIP3    H232741   0.942   3.484   1.855 -1.1025  1.1225 -0.5756
 3728TIP3   OH232742   3.492   5.881   1.552  0.4271 -0.2276 -0.3356
 3728TIP3    H132743   3.461   5.943   1.617 -0.9022  1.1552 -2.1811
 3728TIP3    H232744   3.587   5.894   1.549  0.4775 -0.1549  1.1084
 3729TIP3   OH232745   4.477   2.668   1.189  0.0390  0.3000  0.3259
 3729TIP3    H132746   4.489   2.759   1.162 -0.1038 -0.1216 -1.2699
 3729TIP3    H232747   4.384   2.651   1.176  0.3062 -0.4674 -0.8184
 3730TIP3   OH232748   6.736   4.549   1.069 -0.6590  0.1828  0.0883
 3730TIP3    H132749   6.711   4.587   0.985  0.9450  1.8495  0.3035
 3730TIP3    H232750   6.832   4.543   1.064 -0.5038  0.7075  1.9220
 3731TIP3   OH232751   2.562   0.319   1.766 -0.3894  0.7411 -0.3329
 3731TIP3    H132752   2.656   0.330   1.781 -0.5084  1.2519  0.0622
 3731TIP3    H232753   2.523   0.323   1.853 -0.6582 -0.8039 -0.3582
 3732TIP3   OH232754   2.678   0.808   1.347  0.3985  0.2188 -0.3488
 3732TIP3    H132755   2.653   0.901   1.346  0.9273  0.3771  0.4846
 3732TIP3    H232756   2.618   0.767   1.285 -1.5244  0.6844  1.1038
 3733TIP3   OH232757   5.201   4.940   7.268  0.1932 -1.1008 -0.3080
 3733TIP3    H132758   5.280   4.943   7.214  0.3916 -0.7968 -0.0063
 3733TIP3    H232759   5.129   4.948   7.206  0.4199 -0.7679 -0.5278
 3734TIP3   OH232760   2.206   5.446   1.284  0.3616  0.1719  0.4288
 3734TIP3    H132761   2.231   5.396   1.362  1.0446 -0.3071 -0.0807
 3734TIP3    H232762   2.114   5.426   1.270  0.1260  0.5935  1.3547
 3735TIP3   OH232763   0.158   3.108   7.547  0.6988 -0.3213 -0.2372
 3735TIP3    H132764   0.232   3.061   7.509 -0.0982 -0.7359 -1.3342
 3735TIP3    H232765   0.126   3.165   7.476 -0.0695 -0.2092  0.1822
 3736TIP3   OH232766   3.568   1.442   1.735 -0.1610  0.5336 -0.3773
 3736TIP3    H132767   3.472   1.449   1.733 -0.2269 -0.0522  0.3053
 3736TIP3    H232768   3.585   1.348   1.731  0.3709  0.6092  0.0497
 3737TIP3   OH232769   3.704   6.450   0.528  0.8941  0.0797 -0.3908
 3737TIP3    H132770   3.633   6.510   0.506  0.6451 -0.3441 -0.7593
 3737TIP3    H232771   3.685   6.420   0.616 -0.2871 -1.2847 -1.0656
 3738TIP3   OH232772   2.903   3.362   1.461  0.2917 -0.2711  0.3299
 3738TIP3    H132773   2.906   3.354   1.556  2.3361  0.9367  0.4319
 3738TIP3    H232774   2.992   3.343   1.432  0.9116  3.5300 -0.8759
 3739TIP3   OH232775   2.644   3.908   8.296 -0.2413  0.4413  0.2078
 3739TIP3    H132776   2.553   3.935   8.310 -0.5908 -0.0488 -0.9620
 3739TIP3    H232777   2.659   3.839   8.361 -0.7585  0.4065  0.2953
 3740TIP3   OH232778   4.044   5.273   1.061  0.0375 -0.3313 -0.6336
 3740TIP3    H132779   4.051   5.345   0.997  1.3030  0.8737  0.7617
 3740TIP3    H232780   3.955   5.280   1.096  0.1282  0.5657 -0.5475
 3741TIP3   OH232781   3.057   0.632   2.617  0.3700  0.6402  0.3535
 3741TIP3    H132782   3.014   0.566   2.563  1.1974  0.6458 -0.3228
 3741TIP3    H232783   3.054   0.712   2.565 -0.2617  1.0487  1.0001
 3742TIP3   OH232784   3.983   6.043   8.010 -0.1363 -0.1214  0.0508
 3742TIP3    H132785   4.070   6.035   7.971 -0.5719  0.9323 -1.2440
 3742TIP3    H232786   3.929   5.982   7.960 -0.1486 -0.7766  0.8540
 3743TIP3   OH232787   3.974   3.539   1.144  0.0481  0.0542  0.0949
 3743TIP3    H132788   3.953   3.627   1.113 -0.0200  0.8383  2.1870
 3743TIP3    H232789   3.955   3.482   1.069 -1.8323  1.5871 -0.6887
 3744TIP3   OH232790   0.846   1.058   8.472 -0.4319 -0.2045 -0.0341
 3744TIP3    H132791   0.776   1.082   8.533  1.2553  0.6229  1.6829
 3744TIP3    H232792   0.881   1.143   8.443  0.7683 -0.6042  0.2317
 3745TIP3   OH232793   6.683   2.761   7.651  0.2895 -0.3998 -0.2069
 3745TIP3    H132794   6.777   2.745   7.646  0.6275  1.3261  0.2192
 3745TIP3    H232795   6.654   2.705   7.723  1.3826  0.5926  1.0565
 3746TIP3   OH232796   6.032   3.431   7.184 -0.1471 -0.0306 -0.7295
 3746TIP3    H132797   6.084   3.492   7.238  0.6548  0.0559 -1.5625
 3746TIP3    H232798   5.959   3.405   7.240  0.3991  0.4259  0.2225
 3747TIP3   OH232799   3.696   1.079   0.811 -0.7474 -0.2852  0.2521
 3747TIP3    H132800   3.609   1.064   0.848 -0.2959 -1.9132  0.7094
 3747TIP3    H232801   3.712   1.005   0.754 -0.3106  0.8403 -1.1464
 3748TIP3   OH232802   5.006   1.243   7.533 -0.4416 -0.0353 -0.0498
 3748TIP3    H132803   5.030   1.285   7.451 -3.3188 -2.3770 -2.2948
 3748TIP3    H232804   4.934   1.296   7.567  0.2457  0.4864  0.6614
 3749TIP3   OH232805   1.661   6.754   7.592  0.2457 -0.3652 -0.3426
 3749TIP3    H132806   1.660   6.846   7.566  1.8458 -0.4086 -0.6460
 3749TIP3    H232807   1.722   6.750   7.665  1.1271 -1.3469 -1.0899
 3750TIP3   OH232808   1.065   3.982   0.566 -0.0058 -0.1030 -0.4478
 3750TIP3    H132809   1.140   3.936   0.605  0.0469  1.5858  1.6253
 3750TIP3    H232810   1.038   4.044   0.634 -1.0528  1.8100 -2.5141
 3751TIP3   OH232811   1.004   5.504   1.064 -0.2705 -0.1856 -0.1983
 3751TIP3    H132812   0.944   5.494   1.139 -0.1721 -0.1697 -0.1172
 3751TIP3    H232813   1.070   5.436   1.077 -0.0931  0.0006 -0.1156
 3752TIP3   OH232814   4.755   2.662   1.748  0.1585  0.1307  0.1568
 3752TIP3    H132815   4.799   2.747   1.747 -1.2486  0.9496  1.6199
 3752TIP3    H232816   4.663   2.683   1.734 -0.0906 -1.2786 -0.4735
 3753TIP3   OH232817   1.912   4.496   7.383 -0.2391 -0.0875  0.1272
 3753TIP3    H132818   1.945   4.567   7.328 -0.7171 -1.4399 -2.0573
 3753TIP3    H232819   1.837   4.533   7.430 -1.7612  0.4072 -2.4966
 3754TIP3   OH232820   1.939   2.247   1.038 -0.3356 -0.0817  0.0376
 3754TIP3    H132821   1.893   2.167   1.013  0.1036 -1.0123  2.0141
 3754TIP3    H232822   1.931   2.251   1.133  0.0708  1.9973  0.0443
 3755TIP3   OH232823   6.166   2.529   7.695  0.2265 -0.5814 -0.2207
 3755TIP3    H132824   6.203   2.616   7.712 -1.6079  0.1749  0.0874
 3755TIP3    H232825   6.115   2.540   7.615  0.4814 -1.5448 -0.5277
 3756TIP3   OH232826   1.467   3.244   0.535  0.0856 -0.0736  0.0033
 3756TIP3    H132827   1.506   3.161   0.563  0.1233 -0.2097 -0.4406
 3756TIP3    H232828   1.516   3.310   0.583  0.1317 -0.3015  0.2764
 3757TIP3   OH232829   2.926   5.730   1.235 -0.2396  0.0787 -0.4512
 3757TIP3    H132830   3.020   5.747   1.245  0.0144 -0.2934 -1.9388
 3757TIP3    H232831   2.884   5.814   1.250  0.2645  0.1122  0.8913
 3758TIP3   OH232832   4.500   2.284   8.038 -0.0110  0.6407  0.1460
 3758TIP3    H132833   4.525   2.341   8.110  1.7510  0.5827 -0.3751
 3758TIP3    H232834   4.521   2.196   8.068 -1.2989  0.3879  0.3633
 3759TIP3   OH232835   1.952   3.492   1.892 -0.4768  0.0659  0.1452
 3759TIP3    H132836   2.021   3.501   1.958 -0.7679  0.1574  0.4373
 3759TIP3    H232837   1.935   3.398   1.888 -0.0625  0.0005 -0.2125
 3760TIP3   OH232838   4.187   2.276   8.054  0.1113  0.0981 -0.0793
 3760TIP3    H132839   4.134   2.196   8.054 -1.0162  0.8235  0.0258
 3760TIP3    H232840   4.276   2.245   8.071 -0.2148 -1.1836 -0.5685
 3761TIP3   OH232841   3.903   3.830   7.761  0.1314  0.3260 -0.6943
 3761TIP3    H132842   3.844   3.887   7.712  0.1057 -0.4334 -1.5865
 3761TIP3    H232843   3.937   3.769   7.695  1.2147  0.1774 -0.0292
 3762TIP3   OH232844   0.761   4.913   0.930 -0.2252 -0.9172 -0.2990
 3762TIP3    H132845   0.715   4.961   0.861 -0.0710 -0.0669  0.1774
 3762TIP3    H232846   0.698   4.910   1.003  0.1524 -0.5000  0.0491
 3763TIP3   OH232847   4.382   0.580   0.404 -0.0539  0.3077 -0.3407
 3763TIP3    H132848   4.287   0.592   0.409 -0.4603 -2.4540  0.1504
 3763TIP3    H232849   4.413   0.591   0.494 -0.0006  0.5880 -0.3933
 3764TIP3   OH232850   1.091   2.906   2.156 -0.3089 -0.3312 -0.1056
 3764TIP3    H132851   1.001   2.912   2.125 -0.1857  1.0757 -0.2822
 3764TIP3    H232852   1.089   2.841   2.226 -1.8588  0.9944  1.1805
 3765TIP3   OH232853   0.152   6.744   1.780  0.5029 -0.0066 -0.1727
 3765TIP3    H132854   0.206   6.781   1.850 -0.6907  0.9287  0.2854
 3765TIP3    H232855   0.188   6.780   1.700  0.6844  0.4575  0.1163
 3766TIP3   OH232856   2.594   3.675   8.521  0.1384 -0.5062  0.6891
 3766TIP3    H132857   2.538   3.736   8.568 -0.6990  1.3729 -2.4624
 3766TIP3    H232858   2.534   3.610   8.485 -0.3874  1.6282 -2.8740
 3767TIP3   OH232859   4.650   4.094   2.659  0.2303  0.2687  0.3767
 3767TIP3    H132860   4.669   4.175   2.706 -1.0051  0.8011 -0.0218
 3767TIP3    H232861   4.652   4.026   2.727 -1.7947  1.0525  1.3119
 3768TIP3   OH232862   3.605   5.924   0.123  0.1891  0.1169  0.1527
 3768TIP3    H132863   3.529   5.865   0.128 -0.5053  0.9639 -0.1657
 3768TIP3    H232864   3.603   5.972   0.205  0.1801  0.3758  0.0019
 3769TIP3   OH232865   6.702   2.108   7.922 -0.7614  0.2397 -0.3063
 3769TIP3    H132866   6.775   2.075   7.974 -1.0365  1.0721  0.6542
 3769TIP3    H232867   6.659   2.030   7.888  0.4973 -0.2612 -0.8018
 3770TIP3   OH232868   5.000   5.691   0.325 -0.2730  0.8611  0.2749
 3770TIP3    H132869   4.926   5.632   0.313  0.3696 -0.1266  0.9642
 3770TIP3    H232870   5.026   5.715   0.236 -0.4889  0.0227 -0.0266
 3771TIP3   OH232871   2.359   3.021   8.088 -0.0160 -0.1622  0.3562
 3771TIP3    H132872   2.341   2.943   8.036  0.1429 -0.6554  1.0182
 3771TIP3    H232873   2.453   3.035   8.079 -0.3919  1.4559 -1.7893
 3772TIP3   OH232874   0.313   1.168   0.797  0.2654  0.4703  0.0686
 3772TIP3    H132875   0.355   1.155   0.712 -0.4558 -2.7942  0.0810
 3772TIP3    H232876   0.226   1.201   0.775  0.0958 -0.3106 -0.4864
 3773TIP3   OH232877   0.133   1.340   0.350 -0.1684  0.1819 -0.0361
 3773TIP3    H132878   0.178   1.256   0.348  0.7295  0.6505  0.1666
 3773TIP3    H232879   0.059   1.329   0.290  0.6227 -0.3709 -0.9342
 3774TIP3   OH232880   0.246   3.948   0.902 -0.3623 -0.2438 -0.2274
 3774TIP3    H132881   0.330   3.977   0.867 -0.0433  2.0423  2.0753
 3774TIP3    H232882   0.228   3.865   0.857  1.9887  0.3113 -2.4302
 3775TIP3   OH232883   4.658   2.568   0.648  0.5276  0.1626 -0.0938
 3775TIP3    H132884   4.691   2.650   0.685  3.0293 -0.9140  0.2122
 3775TIP3    H232885   4.566   2.566   0.674  0.9105  1.8984  1.6471
 3776TIP3   OH232886   4.046   3.052   7.816 -0.3537  0.2265 -0.5857
 3776TIP3    H132887   4.101   2.974   7.808 -1.0406 -0.5233  1.4070
 3776TIP3    H232888   3.964   3.028   7.774 -0.4602 -0.0209 -0.2390
 3777TIP3   OH232889   6.308   0.147   6.818  0.0112  0.5161 -0.6426
 3777TIP3    H132890   6.343   0.135   6.729 -2.6693 -0.1929 -1.6922
 3777TIP3    H232891   6.335   0.069   6.865  0.6222  0.4406 -1.0965
 3778TIP3   OH232892   1.100   1.624   3.066  0.0353  0.0591 -0.0535
 3778TIP3    H132893   1.180   1.674   3.082  0.4190 -0.7474  0.6008
 3778TIP3    H232894   1.056   1.619   3.151 -0.0964 -0.5505 -0.1510
 3779TIP3   OH232895   2.612   1.498   8.692 -0.1050 -0.1391 -0.2182
 3779TIP3    H132896   2.545   1.430   8.695  1.1821 -1.4537  0.2555
 3779TIP3    H232897   2.567   1.578   8.716 -1.4105 -1.0595  0.5050
 3780TIP3   OH232898   3.754   3.953   0.467 -0.1992 -0.7154  0.0193
 3780TIP3    H132899   3.791   4.035   0.497  2.3584 -2.1296  1.0164
 3780TIP3    H232900   3.764   3.955   0.372 -2.0678  0.9151 -0.2034
 3781TIP3   OH232901   1.832   0.841   2.499  0.5283 -0.0308  0.6082
 3781TIP3    H132902   1.798   0.818   2.586 -1.1372 -0.5841 -0.1422
 3781TIP3    H232903   1.884   0.765   2.473 -0.3164 -0.5768  0.4646
 3782TIP3   OH232904   2.623   1.435   8.020 -0.0941 -0.3688 -0.3830
 3782TIP3    H132905   2.668   1.355   7.991  0.6439 -0.5685  1.2106
 3782TIP3    H232906   2.643   1.441   8.113 -0.4728  1.4761 -0.3927
 3783TIP3   OH232907   2.999   1.059   7.724 -0.3817 -0.5914 -0.0614
 3783TIP3    H132908   3.070   1.123   7.731 -2.1838  1.5522 -0.3652
 3783TIP3    H232909   2.992   1.041   7.631 -0.5303 -0.4363 -0.0810
 3784TIP3   OH232910   3.156   3.566   1.245 -0.1666 -0.1003  0.3354
 3784TIP3    H132911   3.201   3.639   1.287  0.3186 -0.6976  0.8721
 3784TIP3    H232912   3.160   3.495   1.309 -1.7279 -0.2285  0.3300
 3785TIP3   OH232913   2.431   3.336   1.434 -0.6101  0.3172  0.3338
 3785TIP3    H132914   2.425   3.412   1.492  0.7801 -0.4241  1.5191
 3785TIP3    H232915   2.385   3.267   1.481 -0.0846 -0.1046  0.2391
 3786TIP3   OH232916   3.793   5.565   2.169 -0.2495 -0.2934 -1.0863
 3786TIP3    H132917   3.885   5.538   2.176 -0.1089  0.1825 -0.9969
 3786TIP3    H232918   3.747   5.488   2.139 -0.2040 -1.2454  1.0737
 3787TIP3   OH232919   5.218   2.855   1.500  0.4917  0.4675 -0.2502
 3787TIP3    H132920   5.231   2.860   1.595  1.8591 -1.0997 -0.3052
 3787TIP3    H232921   5.307   2.862   1.464  0.3601 -1.8801 -1.2013
 3788TIP3   OH232922   3.499   2.979   0.280  0.4350  0.4622 -0.0481
 3788TIP3    H132923   3.564   2.958   0.348  1.1190  0.6134 -0.6442
 3788TIP3    H232924   3.535   3.056   0.236  0.6074 -0.3439 -1.3669
 3789TIP3   OH232925   5.784   6.422   2.122 -0.6628  0.2338  0.1128
 3789TIP3    H132926   5.808   6.509   2.090 -0.2650  0.1724  0.2335
 3789TIP3    H232927   5.743   6.437   2.207  0.7097  0.2133  0.8108
 3790TIP3   OH232928   0.536   3.254   7.493 -0.1603 -0.0510  0.0700
 3790TIP3    H132929   0.527   3.202   7.573 -4.1231 -1.3277 -0.9930
 3790TIP3    H232930   0.501   3.340   7.517  0.4946  0.1958  0.1707
 3791TIP3   OH232931   3.851   1.047   1.085  0.1140 -0.0771  0.0302
 3791TIP3    H132932   3.825   0.985   1.018 -0.8055 -0.6781  0.9109
 3791TIP3    H232933   3.815   1.012   1.166  0.1753  1.2426  0.6662
 3792TIP3   OH232934   5.398   3.566   7.779  0.2902 -0.5409 -0.0718
 3792TIP3    H132935   5.359   3.607   7.702 -2.8508  1.4114  2.3156
 3792TIP3    H232936   5.330   3.508   7.814  0.7147  0.3070  2.3867
 3793TIP3   OH232937   3.358   6.451   2.976  0.1450 -0.0699 -0.1303
 3793TIP3    H132938   3.386   6.480   2.889 -0.0088  0.1408 -0.1091
 3793TIP3    H232939   3.273   6.409   2.961  0.9127 -1.6274 -0.3571
 3794TIP3   OH232940   2.419   5.770   7.529 -0.0399  0.2371  0.4524
 3794TIP3    H132941   2.352   5.838   7.529 -0.6824 -0.3659  1.5107
 3794TIP3    H232942   2.457   5.774   7.617 -1.4434 -2.0261  1.2317
 3795TIP3   OH232943   6.043   4.073   1.250  0.8687 -0.1014 -0.3003
 3795TIP3    H132944   6.072   4.132   1.319  0.4133  1.1373 -1.1282
 3795TIP3    H232945   5.967   4.028   1.286  0.4435  0.7667 -0.0992
 3796TIP3   OH232946   1.020   5.066   7.440  0.1686 -0.1783 -0.5909
 3796TIP3    H132947   1.076   5.096   7.369  0.9306  0.6770  0.3377
 3796TIP3    H232948   0.982   5.146   7.476  1.5581 -0.3499  1.3919
 3797TIP3   OH232949   1.284   2.799   8.385  0.3025  0.1772  0.5411
 3797TIP3    H132950   1.349   2.766   8.323  1.7199  0.0896  2.0167
 3797TIP3    H232951   1.246   2.875   8.342 -0.0009 -0.8666 -1.1334
 3798TIP3   OH232952   0.797   4.633   8.703  0.7307 -0.3970  0.0094
 3798TIP3    H132953   0.745   4.554   8.717  0.1659  0.1195  0.9517
 3798TIP3    H232954   0.753   4.680   8.632  1.1994 -1.0272 -0.7078
 3799TIP3   OH232955   0.470   3.410   2.721 -0.6780  0.6353 -0.2473
 3799TIP3    H132956   0.559   3.420   2.688 -0.4788 -1.0112 -0.3135
 3799TIP3    H232957   0.416   3.460   2.661  0.4580  4.7501  1.8037
 3800TIP3   OH232958   4.199   3.564   0.057 -0.0336 -0.6479 -0.0981
 3800TIP3    H132959   4.149   3.579  -0.023 -1.1752  0.3069  0.7528
 3800TIP3    H232960   4.149   3.611   0.125 -0.0311 -2.8238  1.4909
 3801TIP3   OH232961   3.388   2.761   0.111 -0.2313 -0.5285  0.2040
 3801TIP3    H132962   3.428   2.837   0.154  0.1174 -0.6989  0.1836
 3801TIP3    H232963   3.371   2.700   0.182 -0.6480 -0.3779  0.2405
 3802TIP3   OH232964   1.414   5.890   1.291 -0.1426  0.5791 -0.2555
 3802TIP3    H132965   1.401   5.971   1.341  2.1712  0.2846  0.9268
 3802TIP3    H232966   1.362   5.903   1.212 -0.1733  3.0725  0.0898
 3803TIP3   OH232967   2.049   0.805   0.263 -0.0774 -0.0870  0.0109
 3803TIP3    H132968   2.009   0.869   0.322 -1.8328  0.1138 -1.3063
 3803TIP3    H232969   2.011   0.721   0.289 -0.8409 -0.0011 -0.7814
 3804TIP3   OH232970   3.994   1.807   2.109  0.3767  0.0555 -0.1454
 3804TIP3    H132971   4.042   1.870   2.055  1.5561 -0.9524 -0.3149
 3804TIP3    H232972   4.042   1.806   2.192  1.7402 -2.1916 -0.8797
 3805TIP3   OH232973   4.291   2.930   7.512 -0.0676  0.1653 -0.0881
 3805TIP3    H132974   4.317   2.853   7.461  1.1220  1.1945 -1.1309
 3805TIP3    H232975   4.325   2.913   7.599 -0.8265 -0.9750  0.0150
 3806TIP3   OH232976   5.881   3.505   0.937  0.0617 -0.1529 -0.5969
 3806TIP3    H132977   5.807   3.467   0.890 -0.3213 -0.5148  0.2788
 3806TIP3    H232978   5.927   3.557   0.871 -0.2548 -0.9288 -1.4614
 3807TIP3   OH232979   1.467   5.657   0.018  0.3708 -0.0800  0.3903
 3807TIP3    H132980   1.472   5.751   0.036  0.1537 -0.1736  0.9736
 3807TIP3    H232981   1.515   5.617   0.091  0.9601 -0.3994 -0.1620
 3808TIP3   OH232982   6.647   5.607   6.930  0.1520 -0.3794 -0.0308
 3808TIP3    H132983   6.604   5.631   6.848  0.0608 -0.6607 -0.0640
 3808TIP3    H232984   6.738   5.635   6.918 -0.3578  1.8434  0.6892
 3809TIP3   OH232985   1.425   2.722   0.870  0.3727 -0.3308 -0.3889
 3809TIP3    H132986   1.414   2.798   0.927 -0.2071 -0.6350 -0.0937
 3809TIP3    H232987   1.504   2.742   0.819 -0.7630  1.2814 -1.6022
 3810TIP3   OH232988   5.452   6.381   0.715 -0.4117  0.3865  0.3481
 3810TIP3    H132989   5.547   6.393   0.704 -0.4347  0.7097  0.5087
 3810TIP3    H232990   5.413   6.447   0.658 -0.5376  1.2238  1.3810
 3811TIP3   OH232991   0.793   3.814   8.521 -0.0271 -0.1941 -0.4767
 3811TIP3    H132992   0.837   3.826   8.605 -1.9993  0.8301  0.4846
 3811TIP3    H232993   0.861   3.780   8.463  1.2479 -1.5607  1.6786
 3812TIP3   OH232994   3.145   2.308   0.417 -0.2163  0.2086  0.4355
 3812TIP3    H132995   3.205   2.316   0.344  1.6523  0.3586  1.9140
 3812TIP3    H232996   3.162   2.386   0.471 -0.6052 -0.5361  1.6726
 3813TIP3   OH232997   0.824   0.553   2.256 -0.0563  0.4542  0.4557
 3813TIP3    H132998   0.757   0.486   2.246  0.5123  0.1914 -2.2653
 3813TIP3    H232999   0.901   0.506   2.288 -0.3340  0.2670  0.8580
 3814TIP3   OH233000   4.758   2.123   2.651  0.1493  0.2125 -0.3883
 3814TIP3    H133001   4.828   2.065   2.620  0.5093  0.3247  0.2030
 3814TIP3    H233002   4.727   2.167   2.572  0.5639 -0.0375 -0.6951
 3815TIP3   OH233003   4.086   3.677   8.614  0.4017  0.3670  0.6895
 3815TIP3    H133004   4.025   3.747   8.588  1.0134  0.1509 -1.5534
 3815TIP3    H233005   4.167   3.722   8.634  0.3033  0.4365  0.9330
 3816TIP3   OH233006   0.523   2.818   7.954 -0.3042  0.5989  0.1880
 3816TIP3    H133007   0.430   2.798   7.941 -0.6730  0.8980  2.1329
 3816TIP3    H233008   0.565   2.787   7.873 -1.9984 -0.0879 -0.4866
 3817TIP3   OH233009   0.074   4.922   7.882 -0.5233 -0.0228 -0.2856
 3817TIP3    H133010   0.113   4.869   7.812 -0.8843 -0.1176 -0.4187
 3817TIP3    H233011   0.010   4.864   7.922 -0.6726  0.2010 -0.2020
 3818TIP3   OH233012   0.960   6.493   7.401 -0.0447  0.2029 -0.1369
 3818TIP3    H133013   0.889   6.555   7.382 -1.3509 -1.0039  0.6020
 3818TIP3    H233014   0.975   6.503   7.495 -0.5694 -0.8807  0.0733
 3819TIP3   OH233015   1.168   2.828   1.143 -0.1110  0.0961  0.1008
 3819TIP3    H133016   1.096   2.803   1.085 -0.2134  0.0233  0.2602
 3819TIP3    H233017   1.182   2.921   1.125  0.5534 -0.1542 -0.8091
 3820TIP3   OH233018   0.513   3.023   2.638  0.1430 -0.0926 -0.4688
 3820TIP3    H133019   0.583   3.012   2.702 -0.8498  0.7182  0.7889
 3820TIP3    H233020   0.546   3.090   2.578  0.7981 -0.3433 -0.3919
 3821TIP3   OH233021   3.448   2.614   1.436 -0.0681  0.3906  0.5620
 3821TIP3    H133022   3.353   2.625   1.440 -0.4282 -2.1475  1.0958
 3821TIP3    H233023   3.472   2.578   1.521  0.7105 -2.4942 -0.7324
 3822TIP3   OH233024   2.864   4.797   6.996  0.0896 -0.2916  0.4271
 3822TIP3    H133025   2.874   4.799   7.091 -1.8248  1.8817  0.6889
 3822TIP3    H233026   2.924   4.864   6.964 -0.4621  0.1661  0.3142
 3823TIP3   OH233027   2.874   6.105   2.549  0.9521  0.7587 -0.1255
 3823TIP3    H133028   2.870   6.014   2.579 -0.9953  1.0262  0.6434
 3823TIP3    H233029   2.883   6.156   2.630  1.8656  1.2583 -0.5383
 3824TIP3   OH233030   2.067   4.278   8.693 -0.3511 -0.2768 -0.5170
 3824TIP3    H133031   2.088   4.261   8.601 -0.1429  1.8739 -0.9003
 3824TIP3    H233032   1.979   4.241   8.705 -1.3526  1.3722 -2.2334
 3825TIP3   OH233033   2.330   1.195   1.028 -0.0400 -0.2641 -0.1315
 3825TIP3    H133034   2.331   1.099   1.027 -1.0281 -0.3222  1.3603
 3825TIP3    H233035   2.242   1.218   1.057  0.2823  1.0964 -0.1661
 3826TIP3   OH233036   5.276   2.668   2.534 -0.1473 -0.0986 -0.4881
 3826TIP3    H133037   5.361   2.695   2.568 -0.7731 -0.9875  2.0227
 3826TIP3    H233038   5.217   2.739   2.559 -0.5863 -0.6931  0.2201
 3827TIP3   OH233039   1.950   5.523   1.545  0.4124  0.0270 -0.2115
 3827TIP3    H133040   1.945   5.484   1.458 -1.1365 -2.2558  0.7900
 3827TIP3    H233041   1.882   5.590   1.546 -1.3557 -1.6886 -0.0308
 3828TIP3   OH233042   6.285   0.893   1.541  0.1131 -0.3986 -0.3929
 3828TIP3    H133043   6.217   0.824   1.543  0.9243 -1.2306 -0.7997
 3828TIP3    H233044   6.305   0.903   1.448  0.7252 -0.3409 -0.2541
 3829TIP3   OH233045   1.690   3.166   7.270  0.1993 -0.2225  0.4523
 3829TIP3    H133046   1.740   3.246   7.255  0.1796 -0.5775 -1.7563
 3829TIP3    H233047   1.671   3.167   7.364  2.4118  1.0327  0.9486
 3830TIP3   OH233048   5.350   2.041   0.857  0.2667 -0.2772  0.1507
 3830TIP3    H133049   5.438   2.007   0.842  0.0575 -0.9467  0.4051
 3830TIP3    H233050   5.316   2.063   0.770  1.1849  1.2930  0.1477
 3831TIP3   OH233051   5.524   0.979   7.707 -0.2174  0.4814 -0.2666
 3831TIP3    H133052   5.476   0.898   7.719 -0.2042  0.3689 -0.9128
 3831TIP3    H233053   5.457   1.046   7.694 -0.2177  0.4676 -0.3389
 3832TIP3   OH233054   3.812   1.021   2.209 -0.0395  0.0524  0.5573
 3832TIP3    H133055   3.814   1.115   2.188 -1.7604  0.5906  2.4643
 3832TIP3    H233056   3.789   0.978   2.126 -2.9351  1.6866  0.3976
 3833TIP3   OH233057   3.226   1.369   3.313  0.1190  0.1602  0.0345
 3833TIP3    H133058   3.191   1.385   3.226  0.9534  0.7619 -0.2132
 3833TIP3    H233059   3.226   1.455   3.355  1.0387  0.1448  0.1043
 3834TIP3   OH233060   6.046   4.229   1.482  0.1828  0.0051  0.2720
 3834TIP3    H133061   6.016   4.165   1.546  1.0069  0.4664  1.1499
 3834TIP3    H233062   6.140   4.210   1.472 -0.0806 -0.6293 -1.4881
 3835TIP3   OH233063   6.328   6.460   8.387 -0.4514 -0.1694  0.3012
 3835TIP3    H133064   6.340   6.396   8.316 -0.1868 -0.1201  0.2990
 3835TIP3    H233065   6.305   6.541   8.343 -0.4556 -0.1805  0.2830
 3836TIP3   OH233066   4.321   2.941   0.718 -0.2167  0.6838 -0.3013
 3836TIP3    H133067   4.249   2.968   0.661  0.2791  0.3763 -1.0915
 3836TIP3    H233068   4.390   2.913   0.658  0.3638  0.4596  0.4527
 3837TIP3   OH233069   4.266   4.229   1.592 -0.1881 -0.0552 -0.0204
 3837TIP3    H133070   4.244   4.147   1.637 -0.1846  1.1324  2.2907
 3837TIP3    H233071   4.349   4.211   1.549 -0.6442 -1.5387 -0.3169
 3838TIP3   OH233072   0.845   0.343   7.000  0.2775  0.5238  0.1700
 3838TIP3    H133073   0.895   0.274   6.957  0.3834  1.4749 -1.3109
 3838TIP3    H233074   0.809   0.395   6.929 -2.4622  0.1890  1.1779
 3839TIP3   OH233075   2.978   2.265   8.163  0.1572  0.7028 -0.6958
 3839TIP3    H133076   2.979   2.298   8.253  1.5143  0.2550 -0.5151
 3839TIP3    H233077   2.886   2.246   8.144 -0.0368 -0.2055  0.9823
 3840TIP3   OH233078   6.005   0.103   7.002 -0.1025 -0.2671 -0.6812
 3840TIP3    H133079   6.090   0.139   6.976 -0.2559  1.7770  1.2659
 3840TIP3    H233080   6.024   0.053   7.081 -0.6932  0.2962 -0.1688
 3841TIP3   OH233081   5.876   4.632   0.302  0.7087 -0.7892 -0.3429
 3841TIP3    H133082   5.817   4.677   0.242 -0.6615  0.0341  1.5365
 3841TIP3    H233083   5.925   4.702   0.345  0.2584 -1.2159  0.9104
 3842TIP3   OH233084   6.578   3.600   2.394 -0.6232  0.2931  0.3281
 3842TIP3    H133085   6.614   3.602   2.306 -0.9172  1.3556  0.2180
 3842TIP3    H233086   6.606   3.515   2.430  0.4997  0.3586 -0.3585
 3843TIP3   OH233087   1.152   3.486   0.209 -0.5453  0.3559 -0.3782
 3843TIP3    H133088   1.112   3.513   0.126  1.4427 -0.7778 -1.8078
 3843TIP3    H233089   1.085   3.434   0.252 -2.0552  1.9883 -0.6822
 3844TIP3   OH233090   2.721   5.471   6.991  0.0247  0.1416  0.2135
 3844TIP3    H133091   2.719   5.385   6.949 -1.7230  0.5252 -0.5717
 3844TIP3    H233092   2.670   5.459   7.071 -0.0267  0.3908  0.2183
 3845TIP3   OH233093   2.004   2.595   8.429  0.2329  0.3666 -0.1307
 3845TIP3    H133094   2.005   2.683   8.391  0.8243  1.2202  1.7152
 3845TIP3    H233095   2.054   2.604   8.510  1.7874 -2.0928 -0.7191
 3846TIP3   OH233096   4.910   6.135   8.520  0.4224 -0.5936  0.1299
 3846TIP3    H133097   4.961   6.203   8.476 -1.7911  1.1229  0.0923
 3846TIP3    H233098   4.913   6.061   8.460  1.7254 -0.0867 -0.4826
 3847TIP3   OH233099   6.705   4.813   0.938  0.4989  0.4631 -0.2068
 3847TIP3    H133100   6.730   4.812   0.846  1.0893  0.2885 -0.0465
 3847TIP3    H233101   6.787   4.807   0.986  0.4010  2.9872  0.3788
 3848TIP3   OH233102   1.217   2.649   3.100  0.2311  0.5186 -0.1902
 3848TIP3    H133103   1.214   2.707   3.024  2.7420  0.7333 -0.1882
 3848TIP3    H233104   1.191   2.704   3.174 -0.3984  0.7965 -0.6091
 3849TIP3   OH233105   1.423   4.682   0.869 -0.1639 -0.0076 -0.1796
 3849TIP3    H133106   1.465   4.628   0.802 -0.2170 -0.9243  0.5117
 3849TIP3    H233107   1.491   4.742   0.898 -0.3119  0.8514 -1.4949
 3850TIP3   OH233108   5.397   3.248   8.028 -0.2908  0.7412 -0.2518
 3850TIP3    H133109   5.327   3.207   8.080  0.3572 -0.9824 -0.6955
 3850TIP3    H233110   5.463   3.273   8.093 -0.8178  1.3844  0.0507
 3851TIP3   OH233111   4.426   2.414   1.734 -0.2400  0.0903  0.1556
 3851TIP3    H133112   4.399   2.502   1.760  1.4062  0.6057  0.2897
 3851TIP3    H233113   4.497   2.429   1.671  0.8114 -1.1151  1.0014
 3852TIP3   OH233114   2.267   3.926   3.073 -0.1766  0.0925 -1.0595
 3852TIP3    H133115   2.254   3.965   2.986  0.3301 -1.2164 -1.7616
 3852TIP3    H233116   2.274   3.832   3.055 -0.8426 -0.2790  0.5000
 3853TIP3   OH233117   1.043   2.412   0.920  0.3280 -0.2223  0.4838
 3853TIP3    H133118   1.046   2.416   0.824 -0.8256  0.4525  0.4658
 3853TIP3    H233119   0.954   2.437   0.943  0.2241 -1.5652  1.6895
 3854TIP3   OH233120   6.103   6.275   7.648  0.1106 -0.5382 -0.2585
 3854TIP3    H133121   6.041   6.313   7.585  0.6542  1.3157  0.2382
 3854TIP3    H233122   6.055   6.274   7.731  0.5745  0.5886  0.0554
 3855TIP3   OH233123   3.443   3.711   0.647 -0.3200 -0.7030 -0.8387
 3855TIP3    H133124   3.458   3.734   0.556 -2.4098  0.3157 -0.9760
 3855TIP3    H233125   3.405   3.624   0.644 -0.3777 -0.6744 -0.9447
 3856TIP3   OH233126   3.070   4.270   0.877 -0.3838 -0.3204 -0.2508
 3856TIP3    H133127   2.981   4.263   0.843 -0.8603 -0.8494  1.0665
 3856TIP3    H233128   3.062   4.254   0.971  0.9245  0.9087  0.1106
 3857TIP3   OH233129   0.527   2.475   2.174 -0.1206 -0.3099  0.2716
 3857TIP3    H133130   0.570   2.470   2.088 -0.2071 -1.3419  0.2736
 3857TIP3    H233131   0.489   2.388   2.186  1.5154 -0.8143  2.2007
 3858TIP3   OH233132   4.367   4.117   0.960  0.0395  0.2369 -0.4910
 3858TIP3    H133133   4.272   4.105   0.963  0.1452 -1.1532 -1.5828
 3858TIP3    H233134   4.380   4.210   0.977 -1.3621  0.0937  1.9067
 3859TIP3   OH233135   2.090   1.192   0.609  0.0639  0.4171  0.0193
 3859TIP3    H133136   2.011   1.211   0.659 -0.5218 -2.0562  0.1378
 3859TIP3    H233137   2.161   1.226   0.663 -0.5750 -1.7807  2.4000
 3860TIP3   OH233138   3.237   6.036   0.973  0.2327  0.1126  0.6784
 3860TIP3    H133139   3.320   6.081   0.989 -0.3452  1.1665  0.8019
 3860TIP3    H233140   3.224   6.042   0.878  0.5024 -0.4397  0.6018
 3861TIP3   OH233141   5.029   0.835   2.015 -0.8035  0.3641 -0.1578
 3861TIP3    H133142   4.992   0.754   2.050 -1.2711 -0.2922 -2.0336
 3861TIP3    H233143   5.121   0.815   2.002 -0.8341  0.2630 -0.2273
 3862TIP3   OH233144   4.746   3.510   0.119  0.5537  0.2356 -0.1372
 3862TIP3    H133145   4.793   3.503   0.036  0.3164 -0.3414 -0.2229
 3862TIP3    H233146   4.694   3.589   0.111 -1.2882 -1.0414 -1.4708
 3863TIP3   OH233147   3.529   2.449   2.117 -0.1619 -0.2350  0.5935
 3863TIP3    H133148   3.536   2.379   2.182  1.1422  1.1005  1.9731
 3863TIP3    H233149   3.441   2.485   2.131  0.4420  0.6904  2.4056
 3864TIP3   OH233150   6.324   1.122   6.904 -0.3235 -0.2064 -0.2198
 3864TIP3    H133151   6.241   1.151   6.866  0.5333  0.5209 -1.6060
 3864TIP3    H233152   6.385   1.195   6.889 -0.0525  0.4527  3.1898
 3865TIP3   OH233153   0.180   4.514   1.049  0.7915  0.2949  0.2058
 3865TIP3    H133154   0.171   4.472   0.963  0.5689  2.3816 -0.8654
 3865TIP3    H233155   0.273   4.508   1.069  0.6671 -1.2266  0.3791
 3866TIP3   OH233156   0.819   3.649   7.548 -0.7149 -0.0084  0.1813
 3866TIP3    H133157   0.830   3.630   7.455  0.8931 -1.3791  0.6061
 3866TIP3    H233158   0.900   3.693   7.574 -1.7517  1.7276  0.6572
 3867TIP3   OH233159   2.797   1.536   8.484  0.3185 -0.2713  0.1209
 3867TIP3    H133160   2.813   1.630   8.486  3.1242 -0.6652  1.1352
 3867TIP3    H233161   2.730   1.522   8.551  0.1214  0.9769  0.2018
 3868TIP3   OH233162   4.411   3.357   1.863  0.3674 -0.2638 -0.2038
 3868TIP3    H133163   4.321   3.364   1.895  0.9225  1.6239  1.1424
 3868TIP3    H233164   4.459   3.315   1.935  0.6652 -0.7809 -0.6968
 3869TIP3   OH233165   2.121   0.012   1.834  0.0060 -0.0172  0.1461
 3869TIP3    H133166   2.173  -0.066   1.817  2.8259  1.7325  0.0898
 3869TIP3    H233167   2.122   0.061   1.752 -0.9620  0.5177  0.4302
 3870TIP3   OH233168   5.052   6.060   2.210  0.2169  0.1403 -0.4154
 3870TIP3    H133169   5.007   6.114   2.145 -1.2722 -1.5537 -0.9007
 3870TIP3    H233170   5.001   6.071   2.290  0.4549  0.1702 -0.2685
 3871TIP3   OH233171   4.198   3.991   2.160 -0.2151  0.4026  0.1122
 3871TIP3    H133172   4.293   3.980   2.159 -0.3586 -1.2367 -1.9712
 3871TIP3    H233173   4.173   4.003   2.069 -1.9003  2.5838  0.7584
 3872TIP3   OH233174   6.187   5.895   1.989 -0.5886 -0.0853 -0.1375
 3872TIP3    H133175   6.191   5.991   1.991 -2.1479  0.0048  1.5189
 3872TIP3    H233176   6.099   5.876   1.956  0.4349 -1.0332 -2.5157
 3873TIP3   OH233177   6.540   6.271   1.160 -0.7416 -0.4284  0.0461
 3873TIP3    H133178   6.620   6.277   1.212 -0.2845 -0.2261 -0.6635
 3873TIP3    H233179   6.470   6.290   1.222 -0.1421  0.9110  0.3598
 3874TIP3   OH233180   6.380   4.097   7.625  0.6602  0.1283 -0.5302
 3874TIP3    H133181   6.466   4.057   7.615  0.5086 -0.2307 -0.4318
 3874TIP3    H233182   6.318   4.024   7.615  0.4572 -0.1497  2.0779
 3875TIP3   OH233183   5.118   1.927   8.600  0.5406  0.1558 -0.4837
 3875TIP3    H133184   5.184   1.969   8.655  1.0357  1.6049 -2.0749
 3875TIP3    H233185   5.168   1.882   8.532 -0.0726 -0.8586 -0.2840
 3876TIP3   OH233186   4.001   0.458   1.468 -0.3510 -0.2161 -0.7565
 3876TIP3    H133187   4.054   0.397   1.417  0.6279 -1.2008  1.3230
 3876TIP3    H233188   4.064   0.524   1.499 -0.8709  0.2136 -0.6023
 3877TIP3   OH233189   0.711   4.008   7.782 -0.3298 -0.2891  0.2791
 3877TIP3    H133190   0.709   4.002   7.686 -0.0866 -0.2840  0.2721
 3877TIP3    H233191   0.620   3.997   7.809 -0.3789 -0.4347  0.0552
 3878TIP3   OH233192   0.653   6.770   0.955  0.0639  0.3186  0.1354
 3878TIP3    H133193   0.736   6.771   0.908 -0.1092 -1.4077 -0.2784
 3878TIP3    H233194   0.662   6.700   1.019 -0.5003  1.1989  1.2051
 3879TIP3   OH233195   0.248   6.211   8.251  0.0999  0.3954 -0.0211
 3879TIP3    H133196   0.215   6.251   8.171 -0.4848 -0.9414 -0.4801
 3879TIP3    H233197   0.213   6.122   8.249 -0.1874  0.4220  1.8769
 3880TIP3   OH233198   4.454   3.176   1.649  0.4276  0.1028 -0.0723
 3880TIP3    H133199   4.379   3.139   1.602  0.0792 -1.6577  1.7168
 3880TIP3    H233200   4.415   3.245   1.703  0.6296  1.2883 -1.4085
 3881TIP3   OH233201   6.398   3.774   1.983  0.3650 -0.3312  0.0618
 3881TIP3    H133202   6.376   3.681   1.976 -0.4164 -0.2544  1.1269
 3881TIP3    H233203   6.345   3.805   2.057 -0.4208  1.2827 -1.1136
 3882TIP3   OH233204   2.196   2.515   0.261 -0.0156 -0.2398 -0.0462
 3882TIP3    H133205   2.201   2.597   0.312  1.0775 -0.8024  0.7950
 3882TIP3    H233206   2.253   2.530   0.186  0.5644 -0.3787  0.3559
 3883TIP3   OH233207   4.059   2.726   7.260 -0.2159  0.1415  0.0286
 3883TIP3    H133208   4.083   2.653   7.317  0.1692  0.2366 -0.0088
 3883TIP3    H233209   4.130   2.730   7.196 -1.1152 -0.5856 -1.0609
 3884TIP3   OH233210   1.757   0.992   0.506  0.2496  0.1175 -0.3867
 3884TIP3    H133211   1.827   0.929   0.522  0.5699  1.2503  3.8409
 3884TIP3    H233212   1.798   1.061   0.454  1.7262 -0.2063  0.3043
 3885TIP3   OH233213   0.956   0.373   1.692  0.2878 -0.1255 -0.3640
 3885TIP3    H133214   0.971   0.459   1.652  1.1926 -1.2471 -2.5772
 3885TIP3    H233215   0.861   0.362   1.688  0.2383  0.4105 -0.8526
 3886TIP3   OH233216   3.266   5.778   2.235 -0.1260 -0.2492 -0.0066
 3886TIP3    H133217   3.182   5.817   2.262 -0.0032  0.0593 -0.0660
 3886TIP3    H233218   3.310   5.760   2.318 -0.5762 -1.1386  0.0462
 3887TIP3   OH233219   3.044   0.040   7.928 -0.5948 -0.2054  0.3035
 3887TIP3    H133220   2.982  -0.032   7.936 -0.1981 -0.4429  1.2730
 3887TIP3    H233221   3.124  -0.001   7.896 -1.3882  0.3492 -2.8159
 3888TIP3   OH233222   1.834   3.531   7.426 -0.4555 -0.6625  0.0072
 3888TIP3    H133223   1.847   3.465   7.358 -0.9795 -0.0966 -0.6578
 3888TIP3    H233224   1.806   3.481   7.502  0.7464 -1.3755  0.0080
 3889TIP3   OH233225   3.181   2.890   0.523 -0.0182 -0.3113  0.5262
 3889TIP3    H133226   3.185   2.888   0.427 -2.4610  1.1855  0.2986
 3889TIP3    H233227   3.215   2.976   0.547 -0.9583 -0.0169  0.8471
 3890TIP3   OH233228   5.629   6.664   1.713  0.1860 -0.1726  0.2403
 3890TIP3    H133229   5.647   6.747   1.670  0.1715  1.0170  2.4104
 3890TIP3    H233230   5.541   6.640   1.684  0.2666  0.4516 -0.5599
 3891TIP3   OH233231   3.833   2.873   7.253 -0.0701 -0.2361 -0.0819
 3891TIP3    H133232   3.786   2.855   7.172 -0.6614  1.4876 -0.1605
 3891TIP3    H233233   3.898   2.802   7.260 -0.8876 -1.1427 -1.3516
 3892TIP3   OH233234   2.336   0.555   8.550  0.1062  0.3562  0.3920
 3892TIP3    H133235   2.406   0.566   8.614  0.7911  2.8400 -0.6588
 3892TIP3    H233236   2.355   0.472   8.507  0.1289 -0.9293  2.7283
 3893TIP3   OH233237   3.611   0.825   1.095  0.2445  0.3566  0.6810
 3893TIP3    H133238   3.659   0.829   1.178 -0.2987  1.9628  0.9572
 3893TIP3    H233239   3.664   0.770   1.038  0.5756 -0.8667  2.1242
 3894TIP3   OH233240   3.190   1.931   1.818 -0.0253  0.3991  0.5948
 3894TIP3    H133241   3.232   1.868   1.877  0.7855  0.8054  0.4615
 3894TIP3    H233242   3.102   1.895   1.804 -1.3203  1.6184  4.2429
 3895TIP3   OH233243   1.016   2.596   2.790  0.2612 -0.4577 -0.5615
 3895TIP3    H133244   1.025   2.549   2.873  0.7806  0.3487 -0.1501
 3895TIP3    H233245   0.985   2.529   2.728 -0.7265 -0.9260  0.4056
 3896TIP3   OH233246   5.293   2.653   8.759  0.8216 -0.4142  0.1280
 3896TIP3    H133247   5.275   2.622   8.671 -1.3454  2.2401 -0.4750
 3896TIP3    H233248   5.348   2.730   8.746 -0.4104  0.6418  0.9711
 3897TIP3   OH233249   1.833   4.291   0.304 -1.0810 -0.8994  0.0405
 3897TIP3    H133250   1.846   4.368   0.250  0.1604 -0.6470  0.6447
 3897TIP3    H233251   1.921   4.267   0.333 -1.5857 -1.7342  0.9652
 3898TIP3   OH233252   0.823   1.092   2.759 -0.1213  0.2805 -0.2833
 3898TIP3    H133253   0.817   1.166   2.820 -2.9996  0.5532 -0.7300
 3898TIP3    H233254   0.794   1.017   2.810 -1.7848  0.3704 -1.0238
 3899TIP3   OH233255   4.993   2.625   1.473  0.3023 -0.0323 -0.0780
 3899TIP3    H133256   4.956   2.665   1.394  1.7396 -1.7486 -1.7330
 3899TIP3    H233257   5.080   2.596   1.446  0.6078 -1.2283  1.9933
 3900TIP3   OH233258   0.508   2.042   7.702  0.6105 -0.2419  0.2463
 3900TIP3    H133259   0.412   2.047   7.703  0.5404  0.2245 -2.4372
 3900TIP3    H233260   0.527   1.950   7.682  0.8090 -0.5875  1.8473
 3901TIP3   OH233261   3.353   1.223   6.767 -0.0240  0.0521 -0.0247
 3901TIP3    H133262   3.331   1.188   6.854  0.0148 -0.9599 -0.4043
 3901TIP3    H233263   3.314   1.161   6.706 -0.4713  1.0271 -0.7486
 3902TIP3   OH233264   0.316   1.881   0.944 -0.3988  0.2570  0.2219
 3902TIP3    H133265   0.285   1.904   1.032 -1.5195 -0.6646  0.0932
 3902TIP3    H233266   0.311   1.963   0.895 -0.0540  0.7131  0.9291
 3903TIP3   OH233267   6.543   0.987   8.707  0.2765  0.7430  0.3482
 3903TIP3    H133268   6.520   0.933   8.632  0.5715  2.0649 -0.7370
 3903TIP3    H233269   6.638   1.001   8.698  0.1709  1.6041  0.4704
 3904TIP3   OH233270   6.711   6.323   1.364  0.0920 -0.3829  0.3662
 3904TIP3    H133271   6.646   6.351   1.429 -0.8016  1.1999 -1.1391
 3904TIP3    H233272   6.790   6.306   1.416 -1.6143 -3.1119  2.3727
 3905TIP3   OH233273   1.989   2.793   1.825 -0.1701 -0.0227  0.5389
 3905TIP3    H133274   1.969   2.800   1.731  1.1308  0.7694  0.2972
 3905TIP3    H233275   2.009   2.700   1.838 -0.3085 -0.1291  0.0181
 3906TIP3   OH233276   2.152   0.077   2.906 -0.8185 -0.2395  0.0518
 3906TIP3    H133277   2.203   0.125   2.841  1.4425 -0.7911  1.3180
 3906TIP3    H233278   2.083   0.138   2.932 -0.3816  0.8344 -1.1843
 3907TIP3   OH233279   2.077   4.092   7.888  0.7754 -0.2424  0.4354
 3907TIP3    H133280   2.147   4.040   7.847 -2.0263 -2.1196 -2.4803
 3907TIP3    H233281   2.034   4.136   7.814 -0.1929  2.0920  2.2895
 3908TIP3   OH233282   2.177   6.700   8.325 -0.5355 -0.5806 -0.0737
 3908TIP3    H133283   2.120   6.772   8.350 -0.8418 -1.1115  0.8057
 3908TIP3    H233284   2.262   6.740   8.310 -0.6719 -0.0548  0.5347
 3909TIP3   OH233285   1.301   0.990   0.683  0.9941  0.1815 -0.0428
 3909TIP3    H133286   1.293   0.927   0.754  3.4847  0.4833  0.6025
 3909TIP3    H233287   1.221   1.042   0.688  0.0648 -1.2602  1.0280
 3910TIP3   OH233288   1.275   2.533   8.497  0.3059 -0.2569 -0.0845
 3910TIP3    H133289   1.278   2.626   8.474  0.4689 -0.2446 -0.0126
 3910TIP3    H233290   1.199   2.500   8.450 -0.2933  0.1056  0.6030
 3911TIP3   OH233291   0.536   1.689   1.313 -0.8633  0.1900  0.0859
 3911TIP3    H133292   0.488   1.770   1.329 -1.1298  0.0282  0.1171
 3911TIP3    H233293   0.622   1.704   1.352 -0.5273  0.8661 -0.8820
 3912TIP3   OH233294   0.902   3.778   0.061  0.2214  0.1849 -0.6330
 3912TIP3    H133295   0.983   3.728   0.054  0.2260  0.2340 -0.9337
 3912TIP3    H233296   0.927   3.869   0.044  0.1049  0.2015 -0.7212
 3913TIP3   OH233297   6.590   6.535   7.634 -0.2323 -0.3896 -0.4734
 3913TIP3    H133298   6.658   6.560   7.697  1.2175 -0.5006 -1.9359
 3913TIP3    H233299   6.523   6.492   7.688  1.5092 -1.5813  0.8779
 3914TIP3   OH233300   2.046   3.536   0.951 -0.1474 -0.0808 -0.0291
 3914TIP3    H133301   2.009   3.463   1.002 -2.9876 -0.3587 -2.2229
 3914TIP3    H233302   1.994   3.612   0.977 -1.1609 -0.0894 -1.8579
 3915TIP3   OH233303   4.367   6.778   8.603 -0.4785 -0.0189 -0.0956
 3915TIP3    H133304   4.427   6.766   8.677 -0.9365  1.1010  0.4909
 3915TIP3    H233305   4.383   6.703   8.546 -1.9999 -2.4788  2.4392
 3916TIP3   OH233306   6.457   4.905   1.036  0.1448  0.0573 -0.2159
 3916TIP3    H133307   6.428   4.983   0.989  1.4677  0.2229 -0.8036
 3916TIP3    H233308   6.534   4.875   0.988  1.9186  0.5590  2.1065
 3917TIP3   OH233309   3.633   6.054   8.495 -0.3219  0.6721  0.9964
 3917TIP3    H133310   3.654   5.984   8.556  0.0764 -1.1638 -1.0987
 3917TIP3    H233311   3.713   6.064   8.443 -1.2793  0.7528 -0.5110
 3918TIP3   OH233312   1.069   3.743   7.635 -0.7426  0.4073 -0.2678
 3918TIP3    H133313   1.135   3.782   7.577 -0.1431 -2.2547 -1.5612
 3918TIP3    H233314   1.115   3.669   7.676 -2.8744 -1.6003 -1.2880
 3919TIP3   OH233315   0.567   1.451   7.761  0.0017  0.3528  0.0651
 3919TIP3    H133316   0.647   1.503   7.754  1.3810 -1.8101 -1.7254
 3919TIP3    H233317   0.521   1.466   7.679 -0.3616 -0.0424  0.1928
 3920TIP3   OH233318   4.074   0.522   8.488  0.6262  0.4733 -0.4948
 3920TIP3    H133319   4.013   0.596   8.483  0.1695  0.3931  2.3414
 3920TIP3    H233320   4.034   0.462   8.550  2.9109 -0.2644  0.3561
 3921TIP3   OH233321   3.887   4.022   0.813 -0.4637  0.5485  0.4043
 3921TIP3    H133322   3.816   3.980   0.765 -0.4620  1.2525 -0.2359
 3921TIP3    H233323   3.913   4.096   0.758  2.6369 -1.2244 -0.7339
 3922TIP3   OH233324   5.369   1.059   0.127 -0.4145  0.2028  0.0852
 3922TIP3    H133325   5.418   1.142   0.127 -0.6195  0.3624 -1.6319
 3922TIP3    H233326   5.284   1.082   0.092 -0.9430 -0.5192  0.8584
 3923TIP3   OH233327   6.570   5.921   2.802  0.3837  0.0547 -0.6592
 3923TIP3    H133328   6.638   5.895   2.865 -0.2654 -0.5877 -0.2101
 3923TIP3    H233329   6.546   5.839   2.758 -2.0016 -0.2890  1.0717
 3924TIP3   OH233330   0.373   3.039   8.262 -0.3189 -0.1007  0.3275
 3924TIP3    H133331   0.458   3.072   8.233 -0.7909  1.5189  0.6476
 3924TIP3    H233332   0.390   2.949   8.290  1.2377  0.1086  0.1534
 3925TIP3   OH233333   3.477   1.347   8.229  0.2542 -0.1162 -0.1790
 3925TIP3    H133334   3.413   1.379   8.165  1.7774  2.6499 -0.4653
 3925TIP3    H233335   3.445   1.380   8.313  0.8038  0.4963 -0.2047
 3926TIP3   OH233336   6.776   5.569   0.730 -0.2906  0.1873  0.1612
 3926TIP3    H133337   6.788   5.543   0.639  0.1433  2.5344 -0.5275
 3926TIP3    H233338   6.726   5.650   0.725  0.3913  0.7669  1.9685
 3927TIP3   OH233339   1.768   5.547   8.734  0.3470 -0.0550  0.3071
 3927TIP3    H133340   1.746   5.498   8.813 -0.7491 -0.9513 -0.5146
 3927TIP3    H233341   1.787   5.480   8.668 -1.6355  0.5328 -0.9662
 3928TIP3   OH233342   5.715   3.443   7.276 -0.3358 -0.4446  0.1137
 3928TIP3    H133343   5.688   3.352   7.278  0.2647 -0.6218  0.3907
 3928TIP3    H233344   5.752   3.460   7.363 -0.6118  0.1136  0.1305
 3929TIP3   OH233345   4.804   1.302   8.087  0.1322 -0.0876  0.3888
 3929TIP3    H133346   4.843   1.378   8.044  0.5004  0.2225  1.2426
 3929TIP3    H233347   4.720   1.289   8.043  0.1213  0.7454  0.1541
 3930TIP3   OH233348   0.643   3.571   8.515 -0.4621 -0.8410  1.3491
 3930TIP3    H133349   0.734   3.563   8.543 -0.4169  1.1073  1.8960
 3930TIP3    H233350   0.648   3.585   8.420  0.1179  2.6854  1.7881
 3931TIP3   OH233351   5.137   3.155   7.003  0.5612  0.6780  0.3283
 3931TIP3    H133352   5.093   3.095   6.943 -1.1581  2.0346  0.1724
 3931TIP3    H233353   5.223   3.114   7.019 -0.0364 -1.1208 -0.7955
 3932TIP3   OH233354   6.719   6.214   7.802  0.0307  0.1078 -0.5012
 3932TIP3    H133355   6.672   6.185   7.723 -1.2444  0.3861  0.1407
 3932TIP3    H233356   6.807   6.236   7.770  0.1025 -1.4634 -1.5414
 3933TIP3   OH233357   1.149   0.074   8.463  0.5755 -0.0872  0.4510
 3933TIP3    H133358   1.235   0.075   8.421  0.6134 -1.9033  0.4121
 3933TIP3    H233359   1.108   0.155   8.434  1.0413 -0.7104 -2.2010
 3934TIP3   OH233360   3.914   2.604   0.530 -0.1154 -0.3593  0.2375
 3934TIP3    H133361   3.942   2.629   0.618  2.9007 -0.7768 -0.4996
 3934TIP3    H233362   3.842   2.665   0.510 -0.6600 -0.0399  2.8125
 3935TIP3   OH233363   3.158   0.204   1.702 -0.0043 -0.2574 -0.2207
 3935TIP3    H133364   3.147   0.273   1.768 -0.2886  0.5843 -1.1275
 3935TIP3    H233365   3.100   0.134   1.731 -2.6481  1.3634 -1.2317
 3936TIP3   OH233366   5.717   6.066   8.157  0.8303 -0.5422  0.0666
 3936TIP3    H133367   5.776   6.001   8.194 -0.1723 -2.4580 -1.4917
 3936TIP3    H233368   5.652   6.081   8.225 -0.0364 -2.7367 -0.1951
 3937TIP3   OH233369   6.806   6.269   0.962  0.2448  0.2886  0.1185
 3937TIP3    H133370   6.735   6.212   0.931 -0.5041  1.2867 -0.0408
 3937TIP3    H233371   6.878   6.208   0.982 -1.1435 -0.9294  1.7339
 3938TIP3   OH233372   5.127   3.318   7.485  0.4017 -0.3042  0.2776
 3938TIP3    H133373   5.145   3.224   7.473 -0.9766 -0.7534  1.4446
 3938TIP3    H233374   5.056   3.336   7.423 -2.1709 -1.0704  2.7986
 3939TIP3   OH233375   0.739   3.388   2.630  0.2760 -0.1180 -0.2207
 3939TIP3    H133376   0.812   3.417   2.575 -1.1911  1.2951 -1.5224
 3939TIP3    H233377   0.712   3.304   2.591  2.2476 -1.5947  1.3615
 3940TIP3   OH233378   6.711   5.456   7.326  0.3292 -0.5496  0.3679
 3940TIP3    H133379   6.706   5.454   7.421  0.5506  0.6037  0.4259
 3940TIP3    H233380   6.719   5.550   7.305 -1.7657 -0.6030 -0.8913
 3941TIP3   OH233381   1.992   0.752   7.973 -0.5241 -0.5507  0.3424
 3941TIP3    H133382   2.029   0.666   7.953 -1.3906 -0.9909  0.5853
 3941TIP3    H233383   1.937   0.773   7.898  0.6881  0.4105 -0.3320
 3942TIP3   OH233384   1.214   4.054   1.890  0.3711  0.1475 -0.5283
 3942TIP3    H133385   1.179   4.121   1.832  0.2204  0.7857  0.2837
 3942TIP3    H233386   1.165   3.975   1.868  0.5406  0.2993 -1.4812
 3943TIP3   OH233387   5.117   1.094   6.741  0.2676 -0.6172 -0.3612
 3943TIP3    H133388   5.146   1.152   6.811  0.3750 -0.2235 -0.7281
 3943TIP3    H233389   5.029   1.125   6.719  0.7335  0.0926 -1.2789
 3944TIP3   OH233390   2.524   3.592   2.421 -0.2725 -0.1252  0.0597
 3944TIP3    H133391   2.607   3.637   2.405 -0.2231  0.4542  1.8125
 3944TIP3    H233392   2.459   3.662   2.423 -0.4061 -0.2655  1.3169
 3945TIP3   OH233393   3.337   5.889   1.997  0.2632  0.1564  0.3813
 3945TIP3    H133394   3.316   5.837   2.074  2.4166 -0.5825  0.5326
 3945TIP3    H233395   3.413   5.845   1.958  0.4495  1.6399 -1.0405
 3946TIP3   OH233396   6.697   4.515   0.147 -0.7548 -0.1469  0.2785
 3946TIP3    H133397   6.677   4.422   0.156  1.4874 -0.6866  0.0863
 3946TIP3    H233398   6.654   4.541   0.065 -0.6354 -1.2360 -0.1480
 3947TIP3   OH233399   6.753   6.395   0.396 -0.3827  0.1097  0.3480
 3947TIP3    H133400   6.831   6.359   0.354  0.2295 -1.5873  2.7224
 3947TIP3    H233401   6.686   6.395   0.327  1.0875 -0.5178 -1.1477
 3948TIP3   OH233402   4.160   6.733   7.255  0.1203 -0.1716  0.2154
 3948TIP3    H133403   4.163   6.722   7.160  0.3424 -1.8871  0.3851
 3948TIP3    H233404   4.075   6.696   7.280 -0.2443  0.9103  0.6294
 3949TIP3   OH233405   4.820   6.404   1.325  0.0920  0.5193  0.1190
 3949TIP3    H133406   4.906   6.378   1.357  0.5809  3.5862  1.6616
 3949TIP3    H233407   4.825   6.392   1.230  1.7308 -0.5556  0.2968
 3950TIP3   OH233408   5.276   2.568   8.045 -0.5552 -0.1534  0.4019
 3950TIP3    H133409   5.227   2.640   8.006 -1.8175 -1.6249 -0.8165
 3950TIP3    H233410   5.351   2.611   8.088 -0.3727  1.7312 -1.6433
 3951TIP3   OH233411   4.898   2.278   8.196 -0.7960  0.1694  0.2881
 3951TIP3    H133412   4.958   2.311   8.262 -0.9916  1.1208  0.0050
 3951TIP3    H233413   4.947   2.282   8.114 -1.3429  1.2664  0.0041
 3952TIP3   OH233414   3.553   2.261   6.845 -0.0508 -0.0507 -0.0668
 3952TIP3    H133415   3.649   2.268   6.847 -0.1540  1.6531 -0.2512
 3952TIP3    H233416   3.533   2.240   6.754  0.1556 -0.8200  0.0557
 3953TIP3   OH233417   4.369   4.726   2.314  0.2519  0.5963 -0.0875
 3953TIP3    H133418   4.388   4.810   2.273 -0.9797  0.7577 -0.3630
 3953TIP3    H233419   4.389   4.740   2.407 -1.6522  1.7867  0.1914
 3954TIP3   OH233420   4.592   2.572   0.268  0.4563  0.0235  0.7734
 3954TIP3    H133421   4.637   2.654   0.245 -0.8269  0.7946  0.9354
 3954TIP3    H233422   4.517   2.600   0.320 -2.6144 -0.7836 -2.7948
 3955TIP3   OH233423   4.124   1.558   0.024  0.0221 -0.0241  0.3535
 3955TIP3    H133424   4.074   1.555  -0.059  2.7737 -1.1085 -1.4035
 3955TIP3    H233425   4.071   1.506   0.085 -1.3761 -0.4840 -1.1677
 3956TIP3   OH233426   0.454   1.314   0.259  0.0712  0.5523  0.1426
 3956TIP3    H133427   0.392   1.284   0.193  0.6150 -0.5927  0.1264
 3956TIP3    H233428   0.419   1.399   0.288 -0.3574  0.9203 -1.3530
 3957TIP3   OH233429   3.909   6.690   1.869 -0.4015  0.0660 -0.0992
 3957TIP3    H133430   3.840   6.743   1.908 -1.2956 -0.9605 -0.2359
 3957TIP3    H233431   3.870   6.652   1.790 -0.1041 -1.4947  0.4598
 3958TIP3   OH233432   4.300   1.444   8.601 -0.7243 -0.0069 -0.2324
 3958TIP3    H133433   4.261   1.460   8.687  0.4521  2.1357 -0.0316
 3958TIP3    H233434   4.359   1.370   8.615  0.8603  1.4694  1.3118
 3959TIP3   OH233435   0.458   5.196   1.252  0.3654  0.7563  0.1011
 3959TIP3    H133436   0.402   5.245   1.191 -1.7341 -0.2265  1.1356
 3959TIP3    H233437   0.451   5.243   1.335 -1.9820 -1.3152  1.2120
 3960TIP3   OH233438   4.394   2.386   8.435 -0.0003  0.0596  0.2207
 3960TIP3    H133439   4.342   2.310   8.407 -0.0689  0.3682 -0.5366
 3960TIP3    H233440   4.481   2.369   8.400 -0.5073  1.2716 -1.7812
 3961TIP3   OH233441   2.554   4.971   7.110 -0.4923  0.0944  0.8133
 3961TIP3    H133442   2.647   4.959   7.131 -0.0593 -2.6855 -1.9882
 3961TIP3    H233443   2.534   5.060   7.140  3.0758  0.8432  1.4231
 3962TIP3   OH233444   6.258   2.310   7.833 -0.1633 -0.5463 -0.2229
 3962TIP3    H133445   6.331   2.270   7.785 -0.2115  0.4555 -1.1523
 3962TIP3    H233446   6.242   2.393   7.789 -1.4723 -0.4655  0.3577
 3963TIP3   OH233447   1.017   1.517   2.611 -0.9074  0.3336  0.0563
 3963TIP3    H133448   1.102   1.475   2.626 -2.0608 -1.5087  1.8188
 3963TIP3    H233449   1.014   1.589   2.675  0.1607  1.8371 -1.4915
 3964TIP3   OH233450   1.643   5.318   6.760  0.0490  0.4841  0.0342
 3964TIP3    H133451   1.601   5.248   6.710  0.6930 -0.6844  1.0890
 3964TIP3    H233452   1.599   5.398   6.730 -1.2789 -0.4485 -0.5924
 3965TIP3   OH233453   1.492   5.552   1.861  0.3349 -0.2372 -0.3396
 3965TIP3    H133454   1.549   5.577   1.934 -3.1558  1.2070  2.1886
 3965TIP3    H233455   1.472   5.634   1.817 -0.2298 -0.6095 -0.7881
 3966TIP3   OH233456   6.165   6.168   0.646 -0.3716 -0.9115 -0.2729
 3966TIP3    H133457   6.169   6.147   0.553 -2.6165  0.5449 -0.7770
 3966TIP3    H233458   6.195   6.258   0.652 -1.9152 -0.3835  0.0978
 3967TIP3   OH233459   0.342   5.889   7.753 -0.4279 -0.5486 -0.7445
 3967TIP3    H133460   0.320   5.804   7.716 -0.0086 -1.7324  1.5143
 3967TIP3    H233461   0.258   5.930   7.771 -0.6387 -0.7013 -1.3706
 3968TIP3   OH233462   2.120   0.164   1.597  0.2055  0.2931  0.3608
 3968TIP3    H133463   2.068   0.131   1.524 -0.7012 -0.4909  1.3245
 3968TIP3    H233464   2.207   0.179   1.560 -0.2396 -0.0655 -0.8731
 3969TIP3   OH233465   6.009   0.236   0.440  0.0047  0.0594 -0.6334
 3969TIP3    H133466   5.992   0.191   0.523 -1.3406 -1.2507 -1.5669
 3969TIP3    H233467   5.933   0.293   0.428  0.1012  0.0956 -1.0641
 3970TIP3   OH233468   3.758   5.064   0.701  0.2374 -0.5966  0.4782
 3970TIP3    H133469   3.752   5.143   0.754 -0.0746  0.0485 -0.5077
 3970TIP3    H233470   3.670   5.026   0.705  0.3122 -0.7494  0.7166
 3971TIP3   OH233471   2.970   5.558   7.863 -0.0664  0.1258  0.7189
 3971TIP3    H133472   2.992   5.543   7.772 -0.6751  1.6939  0.2867
 3971TIP3    H233473   2.922   5.640   7.864 -1.0779 -0.4114  2.3089
 3972TIP3   OH233474   5.588   2.119   8.465  0.2721  0.4361 -0.0045
 3972TIP3    H133475   5.628   2.184   8.523  1.0123  1.7472 -1.8632
 3972TIP3    H233476   5.647   2.115   8.390 -1.9572  0.8201 -1.8835
 3973TIP3   OH233477   1.397   4.297   7.418 -0.1690 -0.0212  0.1716
 3973TIP3    H133478   1.363   4.301   7.329 -0.9941  1.4614  0.5258
 3973TIP3    H233479   1.476   4.351   7.417 -0.1821  0.0038  0.3460
 3974TIP3   OH233480   5.435   4.820   1.902 -0.3763  0.1336  0.0639
 3974TIP3    H133481   5.490   4.851   1.974 -0.0649  0.8585 -0.4761
 3974TIP3    H233482   5.448   4.884   1.832 -0.4566 -0.7016 -0.7379
 3975TIP3   OH233483   6.226   0.453   1.385  0.2555 -0.2111  0.2660
 3975TIP3    H133484   6.244   0.527   1.326 -1.7560  0.5413  0.5219
 3975TIP3    H233485   6.308   0.439   1.431  0.7301  1.8596  0.1725
 3976TIP3   OH233486   4.369   0.224   1.107  0.4402  0.6594 -0.3726
 3976TIP3    H133487   4.407   0.136   1.099  0.8888  0.7860  0.3196
 3976TIP3    H233488   4.347   0.233   1.199  0.4756  1.3135 -0.4227
 3977TIP3   OH233489   4.725   2.456   2.440 -0.3320  0.2652 -0.3771
 3977TIP3    H133490   4.705   2.549   2.450  0.4173  0.5945 -1.7336
 3977TIP3    H233491   4.762   2.431   2.525 -3.1508  0.4455  1.0505
 3978TIP3   OH233492   0.473   0.491   0.941 -0.1841  0.0556  0.3741
 3978TIP3    H133493   0.535   0.493   0.869  0.0961  1.8228  0.6022
 3978TIP3    H233494   0.406   0.555   0.917 -0.2558  0.4371  1.5106
 3979TIP3   OH233495   5.712   2.398   2.705 -0.3015 -0.0955  0.1739
 3979TIP3    H133496   5.622   2.372   2.728 -0.9497  0.0845 -1.9032
 3979TIP3    H233497   5.701   2.471   2.644  1.2697  0.1515  0.1454
 3980TIP3   OH233498   6.264   2.863   7.730 -0.1168 -0.1670  0.4330
 3980TIP3    H133499   6.277   2.897   7.642  0.1174 -2.0912 -0.3360
 3980TIP3    H233500   6.203   2.924   7.771  0.0425  0.9556 -0.9324
 3981TIP3   OH233501   5.428   2.249   6.677  0.5576 -0.4987  0.0086
 3981TIP3    H133502   5.400   2.311   6.744  0.2710  0.7679 -1.2277
 3981TIP3    H233503   5.349   2.199   6.657  0.3364 -0.0848 -0.1824
 3982TIP3   OH233504   6.549   2.853   8.251  0.5363 -0.0386 -0.1063
 3982TIP3    H133505   6.576   2.762   8.265 -0.9825 -0.5719 -0.5071
 3982TIP3    H233506   6.590   2.877   8.168 -0.9396 -1.1677 -1.2143
 3983TIP3   OH233507   2.998   2.971   1.681  0.0740 -0.1891  0.0039
 3983TIP3    H133508   2.927   2.961   1.744 -1.0193  3.7355 -0.3393
 3983TIP3    H233509   2.956   2.964   1.595  0.5017 -0.0606 -0.2237
 3984TIP3   OH233510   1.459   1.413   6.683 -0.1999  0.2884 -0.3729
 3984TIP3    H133511   1.536   1.400   6.628  0.0638  1.4589 -0.2900
 3984TIP3    H233512   1.414   1.487   6.644  0.2551  1.4632  1.2587
 3985TIP3   OH233513   4.484   2.971   1.949 -0.3293 -0.1757 -0.4116
 3985TIP3    H133514   4.570   3.004   1.977 -0.2585 -0.2980 -0.4842
 3985TIP3    H233515   4.496   2.947   1.858 -0.7273  0.7935 -0.7335
 3986TIP3   OH233516   6.572   1.685   1.947 -0.3569  0.1779 -0.4003
 3986TIP3    H133517   6.653   1.728   1.921  0.1312 -1.0474 -0.9671
 3986TIP3    H233518   6.580   1.596   1.914 -1.3876 -0.3323  0.6467
 3987TIP3   OH233519   6.266   6.337   3.312 -0.0743  0.5034  0.2427
 3987TIP3    H133520   6.180   6.299   3.331 -0.8178  1.3591 -1.2671
 3987TIP3    H233521   6.264   6.356   3.218  1.2216  1.8739  0.4550
 3988TIP3   OH233522   6.817   4.041   7.644  0.2391 -0.2328  0.3501
 3988TIP3    H133523   6.900   4.072   7.679  0.0566  0.2652  0.3466
 3988TIP3    H233524   6.839   3.962   7.595  1.1575  1.3039 -1.9033
 3989TIP3   OH233525   3.117   4.647   8.469  0.1745  0.0922 -0.1697
 3989TIP3    H133526   3.031   4.685   8.452  0.1133 -1.3460 -4.2000
 3989TIP3    H233527   3.098   4.565   8.513 -0.5047  0.0411 -0.5354
 3990TIP3   OH233528   1.309   5.340   7.076 -0.0546  0.4123 -0.3574
 3990TIP3    H133529   1.370   5.413   7.088  0.9415 -0.5809  0.7899
 3990TIP3    H233530   1.352   5.282   7.014 -1.1392  1.0699 -1.7872
 3991TIP3   OH233531   4.349   3.049   8.481 -0.4216  0.3955 -0.1190
 3991TIP3    H133532   4.376   2.965   8.444  1.0630  0.7722  0.0571
 3991TIP3    H233533   4.407   3.062   8.556 -1.9144  0.6885  1.0289
 3992TIP3   OH233534   5.947   1.040   1.842 -0.0017  0.7141 -0.4120
 3992TIP3    H133535   5.870   0.983   1.846  0.7528 -0.4992 -2.0845
 3992TIP3    H233536   6.021   0.980   1.840  0.9646  1.8433  0.1535
 3993TIP3   OH233537   6.140   4.393   7.520  0.4888 -0.3979 -0.1186
 3993TIP3    H133538   6.170   4.343   7.444 -0.0931 -0.6626 -0.1783
 3993TIP3    H233539   6.210   4.383   7.585  1.2857  0.3526 -0.8352
 3994TIP3   OH233540   0.930   2.538   7.120  0.1548  0.0019  0.3506
 3994TIP3    H133541   0.935   2.544   7.215 -0.1250  0.7721  0.3312
 3994TIP3    H233542   1.019   2.517   7.092  0.5380  1.0736  0.7122
 3995TIP3   OH233543   2.452   3.089   2.599  0.4210  0.2742 -0.0367
 3995TIP3    H133544   2.528   3.126   2.645  0.2323 -1.7538  2.1095
 3995TIP3    H233545   2.377   3.113   2.654 -0.0095 -0.9600 -0.0545
 3996TIP3   OH233546   1.215   3.414   7.028 -0.0245 -0.3350  0.5502
 3996TIP3    H133547   1.156   3.441   7.099 -1.2646 -0.2265 -0.4892
 3996TIP3    H233548   1.229   3.320   7.044  0.9341 -0.0226  1.7668
 3997TIP3   OH233549   3.138   2.823   0.253 -0.6895 -0.3718 -0.2686
 3997TIP3    H133550   3.131   2.737   0.214 -1.4626  0.4571 -2.0585
 3997TIP3    H233551   3.196   2.872   0.195 -0.1348  0.3013  0.7984
 3998TIP3   OH233552   0.511   2.758   0.351 -0.0439 -0.6226  0.1701
 3998TIP3    H133553   0.594   2.722   0.383  0.1869 -0.8870 -0.6938
 3998TIP3    H233554   0.514   2.744   0.256 -0.1363  1.2858 -0.1634
 3999TIP3   OH233555   5.137   1.796   7.888  0.8538 -1.0205  0.3958
 3999TIP3    H133556   5.109   1.848   7.963  1.3977 -0.7052  0.3822
 3999TIP3    H233557   5.194   1.854   7.838 -1.6026 -0.2378 -1.7516
 4000TIP3   OH233558   5.181   4.454   2.508 -0.1846 -0.9645 -0.1754
 4000TIP3    H133559   5.166   4.381   2.448  1.4047 -1.9694  0.5820
 4000TIP3    H233560   5.099   4.462   2.558 -0.3615 -2.2609 -0.2385
 4001TIP3   OH233561   4.246   0.638   0.827 -0.0903 -0.3767 -0.5518
 4001TIP3    H133562   4.188   0.667   0.756 -1.3844 -0.7081  0.3160
 4001TIP3    H233563   4.324   0.605   0.783 -0.5974  0.0029 -1.7794
 4002TIP3   OH233564   5.685   3.285   2.074  0.3418  0.4894 -0.3291
 4002TIP3    H133565   5.751   3.218   2.093 -2.0314 -1.9881 -0.3477
 4002TIP3    H233566   5.686   3.341   2.152 -0.4616 -2.0699  1.6453
 4003TIP3   OH233567   5.593   2.934   1.905 -0.2844  0.0335 -0.3227
 4003TIP3    H133568   5.679   2.946   1.946  0.1384 -0.4482 -1.0573
 4003TIP3    H233569   5.556   3.023   1.903  0.3187  0.2942 -0.2865
 4004TIP3   OH233570   4.447   5.040   0.805 -0.1236  0.0958  0.2253
 4004TIP3    H133571   4.380   4.991   0.758  1.2561 -2.5707  0.8237
 4004TIP3    H233572   4.399   5.091   0.869 -1.7393  0.6255 -1.3136
 4005TIP3   OH233573   6.789   4.394   6.907  0.0861  0.0315 -0.8495
 4005TIP3    H133574   6.868   4.359   6.951  0.3284  0.1592 -1.1803
 4005TIP3    H233575   6.725   4.324   6.916  0.1456  0.0355 -0.3294
 4006TIP3   OH233576   2.891   6.086   0.821 -0.0852  0.3698  0.1757
 4006TIP3    H133577   2.884   5.995   0.791  1.1799 -0.2975  1.7640
 4006TIP3    H233578   2.838   6.089   0.900  1.3948  0.4565  1.2150
 4007TIP3   OH233579   6.462   5.710   7.110  0.1123 -0.0097 -0.1169
 4007TIP3    H133580   6.531   5.661   7.065  0.5148  0.0390  0.4349
 4007TIP3    H233581   6.509   5.773   7.165 -0.3301 -0.6051  0.9850
 4008TIP3   OH233582   4.548   5.771   7.347  0.2511  0.1948 -0.0240
 4008TIP3    H133583   4.513   5.685   7.368  0.2703  0.0597 -0.5263
 4008TIP3    H233584   4.626   5.780   7.402  0.0162  0.0608  0.3286
 4009TIP3   OH233585   6.271   3.651   8.780  0.1823  0.0859  0.4332
 4009TIP3    H133586   6.182   3.684   8.767  0.2684  0.0952 -0.1762
 4009TIP3    H233587   6.270   3.611   8.867 -0.6235 -0.5664  0.1355
 4010TIP3   OH233588   4.781   6.334   2.636 -0.4575 -0.4759 -0.0244
 4010TIP3    H133589   4.833   6.384   2.698 -2.0226 -0.6618  1.5025
 4010TIP3    H233590   4.842   6.269   2.600  0.8307  0.5557  0.2045
 4011TIP3   OH233591   4.731   0.474   0.387  0.1480 -0.3026 -0.3243
 4011TIP3    H133592   4.730   0.538   0.316  1.5417 -0.7260 -0.7618
 4011TIP3    H233593   4.679   0.401   0.355 -0.9390  0.3386 -0.0670
 4012TIP3   OH233594   5.471   0.685   1.234 -0.1272  0.1083  0.0144
 4012TIP3    H133595   5.443   0.595   1.251  0.2096 -0.0344 -0.1824
 4012TIP3    H233596   5.557   0.691   1.275  0.3287  0.0099 -0.9146
 4013TIP3   OH233597   5.947   5.337   8.291  0.5182  0.2957  0.3203
 4013TIP3    H133598   6.002   5.297   8.359  0.6820  0.8634  0.5289
 4013TIP3    H233599   5.873   5.278   8.281 -0.7221  1.3232  2.6410
 4014TIP3   OH233600   1.003   2.809   7.263  0.3282  0.5371  0.4725
 4014TIP3    H133601   1.039   2.723   7.286 -0.2261  0.3942  0.8260
 4014TIP3    H233602   1.066   2.845   7.201  0.6308 -0.0720  0.4128
 4015TIP3   OH233603   5.581   3.471   0.518  0.4687 -0.7917 -0.0342
 4015TIP3    H133604   5.579   3.514   0.433 -1.5121 -0.2543  0.2328
 4015TIP3    H233605   5.513   3.515   0.569  1.1090 -1.5891  1.5815
 4016TIP3   OH233606   0.568   4.609   8.281  0.2185  0.1779  0.5548
 4016TIP3    H133607   0.574   4.530   8.226 -1.9428  0.1006  0.3522
 4016TIP3    H233608   0.546   4.679   8.219 -1.9151  0.1536  1.2161
 4017TIP3   OH233609   5.291   5.931   2.712  0.6619 -0.3999  0.0549
 4017TIP3    H133610   5.357   5.902   2.649  1.0773 -0.3379  0.4551
 4017TIP3    H233611   5.329   5.912   2.798  0.3457  0.0416  0.3005
 4018TIP3   OH233612   5.993   5.512   2.268  0.6435 -0.5008  0.0176
 4018TIP3    H133613   5.914   5.565   2.281  1.1670  0.3442 -0.1749
 4018TIP3    H233614   6.014   5.523   2.175  0.4883 -1.4458 -0.1393
 4019TIP3   OH233615   5.901   3.234   1.542  0.5899  0.0554  0.3975
 4019TIP3    H133616   5.931   3.311   1.493 -1.3754  0.7393  0.1914
 4019TIP3    H233617   5.859   3.270   1.619  0.0116 -0.8369  0.5105
 4020TIP3   OH233618   2.638   6.221   1.560  0.2161 -0.0692 -0.0936
 4020TIP3    H133619   2.706   6.228   1.492 -0.0093  3.0799 -0.1358
 4020TIP3    H233620   2.564   6.181   1.515  0.6236  0.4513 -1.2664
 4021TIP3   OH233621   3.121   0.395   8.495  0.1190 -0.2867 -0.5303
 4021TIP3    H133622   3.180   0.360   8.562 -0.3026  0.5096  0.2753
 4021TIP3    H233623   3.076   0.318   8.460  0.3155 -0.7125  0.1424
 4022TIP3   OH233624   4.576   4.066   0.775  0.4907  0.2972  0.7221
 4022TIP3    H133625   4.544   4.075   0.865 -0.3169  0.4557  0.4259
 4022TIP3    H233626   4.532   4.136   0.727  0.9932  0.2762  0.2179
 4023TIP3   OH233627   3.316   2.461   6.857  0.6537 -0.2317 -0.0208
 4023TIP3    H133628   3.291   2.542   6.812  0.5501 -0.3452 -0.1660
 4023TIP3    H233629   3.306   2.393   6.791 -0.0257 -0.4761  0.3278
 4024TIP3   OH233630   1.048   6.323   8.454  0.5442  0.4497  0.2521
 4024TIP3    H133631   1.137   6.344   8.425  0.8212  0.0366  0.7854
 4024TIP3    H233632   0.994   6.338   8.377  1.1921 -0.1131 -0.3299
 4025TIP3   OH233633   6.117   2.577   8.061 -0.1470 -0.2189 -0.1368
 4025TIP3    H133634   6.133   2.672   8.063  1.9430 -0.5340  0.3423
 4025TIP3    H233635   6.022   2.569   8.061 -0.4459  1.8715  2.2939
 4026TIP3   OH233636   1.110   2.413   3.011 -0.1983  0.6631 -0.0835
 4026TIP3    H133637   1.164   2.486   3.041 -0.6335  0.8134  0.3493
 4026TIP3    H233638   1.163   2.336   3.027 -0.2406  0.7827  0.6505
 4027TIP3   OH233639   5.495   0.607   6.984  0.0461 -0.1524  0.4031
 4027TIP3    H133640   5.573   0.619   6.930 -0.0892 -0.2835  0.1807
 4027TIP3    H233641   5.422   0.615   6.924 -0.0891 -0.8064  0.4688
 4028TIP3   OH233642   2.942   5.014   7.577 -0.3323 -0.1271  0.2607
 4028TIP3    H133643   2.978   5.102   7.589  1.2848 -0.6882 -0.2961
 4028TIP3    H233644   3.000   4.957   7.628 -1.3465 -0.8931  0.5909
 4029TIP3   OH233645   5.619   4.153   6.822 -0.7017 -0.2561  0.8179
 4029TIP3    H133646   5.530   4.121   6.832 -0.4527 -1.1076  0.3806
 4029TIP3    H233647   5.661   4.133   6.906 -0.4424 -1.4637  0.4223
 4030TIP3   OH233648   4.026   0.959   6.772  0.1380 -0.3859  0.2519
 4030TIP3    H133649   3.953   1.018   6.753 -0.0044 -0.9301 -1.0171
 4030TIP3    H233650   4.101   1.018   6.788 -0.3337  0.1550  0.5114
 4031TIP3   OH233651   0.768   1.989   1.299  0.2056  0.1362 -0.0164
 4031TIP3    H133652   0.690   1.961   1.251 -0.5234  2.2140 -0.1303
 4031TIP3    H233653   0.835   1.924   1.276 -1.2394 -1.2395 -0.5462
 4032TIP3   OH233654   2.922   2.152   7.466 -0.3075 -0.1226 -0.6463
 4032TIP3    H133655   2.864   2.193   7.402  0.1474  0.2643 -0.8250
 4032TIP3    H233656   2.950   2.070   7.424 -0.7591 -0.3355 -0.5362
 4033TIP3   OH233657   2.779   2.800   0.916  0.2250  0.0303  0.0388
 4033TIP3    H133658   2.836   2.765   0.847  1.9069 -0.1120  1.4289
 4033TIP3    H233659   2.725   2.866   0.871 -1.0399 -2.2323 -2.0550
 4034TIP3   OH233660   5.870   0.080   2.652 -0.1201 -0.0632  0.3055
 4034TIP3    H133661   5.917   0.098   2.734 -0.7579 -2.4649  1.2893
 4034TIP3    H233662   5.934   0.035   2.597 -0.7887 -2.0948  1.1119
 4035TIP3   OH233663   3.921   2.208   1.955 -0.2167  0.2068  0.4687
 4035TIP3    H133664   3.840   2.252   1.930 -0.3824  0.2973  1.1446
 4035TIP3    H233665   3.895   2.150   2.027  0.0104 -0.9392 -0.3539
 4036TIP3   OH233666   6.200   3.337   0.712 -0.3495  0.7143 -0.7327
 4036TIP3    H133667   6.143   3.350   0.788  0.1393  1.2697 -0.4450
 4036TIP3    H233668   6.148   3.288   0.650 -0.5932 -0.2114  0.1806
 4037TIP3   OH233669   6.311   6.813   7.157  0.1733 -0.6496 -0.5007
 4037TIP3    H133670   6.271   6.736   7.197  1.7446 -1.1985  0.0849
 4037TIP3    H233671   6.318   6.791   7.064 -1.6813 -0.1615 -0.7944
 4038TIP3   OH233672   2.807   3.466   1.739 -0.2005 -0.2462 -0.2926
 4038TIP3    H133673   2.750   3.389   1.741 -0.5936  0.0539  1.2100
 4038TIP3    H233674   2.750   3.538   1.715 -0.7644  0.2358  2.2048
 4039TIP3   OH233675   1.702   4.050   2.523 -0.5254  0.0630  0.6619
 4039TIP3    H133676   1.795   4.038   2.541 -0.0635 -0.2706 -1.6024
 4039TIP3    H233677   1.657   4.002   2.593  1.0038 -0.1360  1.5464
 4040TIP3   OH233678   2.042   3.949   0.187  0.2141  0.0930  0.0999
 4040TIP3    H133679   2.032   4.028   0.240 -1.0104  0.0995 -0.1096
 4040TIP3    H233680   2.113   3.901   0.228  1.2514  1.4837 -0.0072
 4041TIP3   OH233681   5.845   2.895   1.667  0.0230 -0.7086 -0.2095
 4041TIP3    H133682   5.916   2.924   1.725 -1.3594  0.5116  0.9293
 4041TIP3    H233683   5.890   2.865   1.588  1.9324 -1.9179  1.2442
 4042TIP3   OH233684   5.635   5.915   0.174 -0.2384  0.3171 -0.4941
 4042TIP3    H133685   5.612   5.859   0.099  0.3164 -0.0447 -0.4004
 4042TIP3    H233686   5.660   5.853   0.243 -0.6653  0.6516 -0.0318
 4043TIP3   OH233687   6.583   4.546   2.193  0.5320  0.1473  0.4640
 4043TIP3    H133688   6.527   4.516   2.264  0.6114  2.9298  1.8705
 4043TIP3    H233689   6.672   4.545   2.230  0.7005  0.6603  0.0959
 4044TIP3   OH233690   6.576   5.022   7.999  0.2906  0.6645  0.5777
 4044TIP3    H133691   6.654   5.014   8.054  0.1497  2.1996  1.0370
 4044TIP3    H233692   6.503   5.004   8.059  0.2495 -0.4090  0.2309
 4045TIP3   OH233693   0.862   2.049   0.005 -0.3536 -0.1852 -0.1638
 4045TIP3    H133694   0.886   2.121  -0.054 -1.7769 -0.0646 -0.6442
 4045TIP3    H233695   0.884   1.970  -0.044 -2.3768 -0.1058 -1.3194
 4046TIP3   OH233696   4.122   0.500   0.508 -0.1159 -0.3956  0.6000
 4046TIP3    H133697   4.170   0.430   0.552 -0.4343 -0.5578  0.6890
 4046TIP3    H233698   4.034   0.466   0.498  0.2708 -0.9028 -1.3948
 4047TIP3   OH233699   4.064   3.985   2.882 -0.7391  0.0986  0.3241
 4047TIP3    H133700   4.043   4.079   2.884  0.2887  0.3207  1.1526
 4047TIP3    H233701   4.158   3.981   2.896 -0.6425 -1.0358 -0.5295
 4048TIP3   OH233702   0.874   0.821   0.039 -0.0042  0.4040  0.3245
 4048TIP3    H133703   0.861   0.905   0.083  1.3837  0.0152  1.5605
 4048TIP3    H233704   0.960   0.792   0.068 -0.3240 -1.3022 -0.3206
 4049TIP3   OH233705   3.955   2.041   1.734 -0.0487  0.0946 -0.6300
 4049TIP3    H133706   4.047   2.025   1.711  0.7411  0.1145  2.1759
 4049TIP3    H233707   3.959   2.106   1.804 -1.9969 -1.5862  1.1863
 4050TIP3   OH233708   1.592   5.206   7.721  0.9990  0.4669 -0.7826
 4050TIP3    H133709   1.646   5.207   7.800  1.5524 -0.4589 -1.1226
 4050TIP3    H233710   1.588   5.113   7.698 -2.2605  0.2489  0.2364
 4051TIP3   OH233711   3.344   0.663   1.754 -0.0946  0.8416 -0.4275
 4051TIP3    H133712   3.321   0.659   1.661 -2.8140 -0.6095  0.1931
 4051TIP3    H233713   3.411   0.597   1.765 -1.7927 -1.0878 -0.9517
 4052TIP3   OH233714   6.255   5.521   2.792  0.2070 -0.1803 -0.0952
 4052TIP3    H133715   6.295   5.435   2.778  0.1664 -0.2301  0.0921
 4052TIP3    H233716   6.181   5.504   2.850  0.7268  0.1083  0.6669
 4053TIP3   OH233717   5.546   4.668   8.256 -0.0019 -0.2627  0.6886
 4053TIP3    H133718   5.459   4.703   8.236  0.7678  1.4728  0.1700
 4053TIP3    H233719   5.538   4.632   8.344 -1.5328 -1.1817  0.1994
 4054TIP3   OH233720   3.127   4.076   1.317  0.1480 -0.1101  0.5147
 4054TIP3    H133721   3.078   4.143   1.268  1.0445  0.9399  0.9901
 4054TIP3    H233722   3.138   4.004   1.255 -0.4836  0.3573 -0.1576
 4055TIP3   OH233723   5.884   4.618   8.556  0.2787  0.3024  0.4496
 4055TIP3    H133724   5.892   4.546   8.493  1.2895  2.5238 -2.1778
 4055TIP3    H233725   5.970   4.622   8.597  0.8523  1.0981 -0.7644
 4056TIP3   OH233726   6.278   1.245   8.266  0.6538  0.4871 -0.6656
 4056TIP3    H133727   6.369   1.216   8.276  0.2634 -0.4125  0.4466
 4056TIP3    H233728   6.241   1.187   8.200  0.4623 -0.1752  0.0179
 4057TIP3   OH233729   0.726   0.869   8.236  0.5153 -0.2051  0.4760
 4057TIP3    H133730   0.635   0.868   8.206  0.2492 -1.7918  1.2211
 4057TIP3    H233731   0.729   0.939   8.301 -0.2717 -0.3733  0.7046
 4058TIP3   OH233732   4.009   1.406   0.235 -0.4172 -0.2680  0.1585
 4058TIP3    H133733   3.919   1.437   0.224 -0.5175 -0.6571 -0.1393
 4058TIP3    H233734   4.012   1.374   0.325 -0.8865 -1.2370 -0.1593
 4059TIP3   OH233735   3.020   2.218   6.793 -0.3770  0.3563  0.3963
 4059TIP3    H133736   2.966   2.286   6.753 -0.3905 -0.1218 -0.4009
 4059TIP3    H233737   3.110   2.251   6.785 -0.2837 -0.1800 -0.9330
 4060TIP3   OH233738   0.465   5.097   8.784  0.0665  0.7110 -0.2587
 4060TIP3    H133739   0.439   5.006   8.770 -1.2203  1.0551 -0.2069
 4060TIP3    H233740   0.469   5.135   8.696  1.5516  0.3870 -0.3649
 4061TIP3   OH233741   2.881   4.788   8.434  0.4486  0.9820  0.3658
 4061TIP3    H133742   2.818   4.849   8.473  0.6702  1.6327 -0.2727
 4061TIP3    H233743   2.940   4.843   8.384 -0.4580  0.0988 -1.7901
 4062TIP3   OH233744   4.563   3.458   7.215 -0.2466  0.3113  0.0847
 4062TIP3    H133745   4.646   3.495   7.186 -0.8300  0.3296 -1.6667
 4062TIP3    H233746   4.566   3.367   7.186 -1.4355  0.7007 -1.4047
 4063TIP3   OH233747   5.243   5.439   7.251 -0.4300 -0.2288 -0.3075
 4063TIP3    H133748   5.257   5.391   7.170 -0.8844  0.8256 -1.0305
 4063TIP3    H233749   5.287   5.387   7.318  0.2637 -0.9228 -1.2838
 4064TIP3   OH233750   2.684   1.447   1.380  0.2104  0.4409  0.1046
 4064TIP3    H133751   2.712   1.376   1.438 -0.8389  1.0332  1.3904
 4064TIP3    H233752   2.661   1.403   1.298 -0.0867 -0.6763  0.7641
 4065TIP3   OH233753   1.662   6.360   8.485  0.1351 -0.1227  0.1780
 4065TIP3    H133754   1.730   6.292   8.484  0.0151 -0.2440  0.1523
 4065TIP3    H233755   1.696   6.430   8.429 -0.1053 -0.5252 -0.4904
 4066TIP3   OH233756   6.659   2.878   7.389  0.1698  0.0601 -0.2433
 4066TIP3    H133757   6.651   2.830   7.471  0.0682 -1.0872 -0.9055
 4066TIP3    H233758   6.753   2.883   7.373  0.4147  2.9241  1.4125
 4067TIP3   OH233759   4.219   1.872   8.161 -0.2650 -0.3051  0.0570
 4067TIP3    H133760   4.183   1.883   8.249 -0.9082  1.0094 -0.3441
 4067TIP3    H233761   4.153   1.911   8.103 -0.7903 -2.8362 -1.2139
 4068TIP3   OH233762   2.807   5.693   1.564 -0.0531 -0.3103  0.2886
 4068TIP3    H133763   2.894   5.685   1.523  0.0570  1.2305  0.1343
 4068TIP3    H233764   2.812   5.639   1.642  0.8190 -0.7908 -0.0835
 4069TIP3   OH233765   4.013   1.273   7.502 -0.1807 -0.0438 -0.1730
 4069TIP3    H133766   3.984   1.200   7.556  0.7966 -1.2216 -1.1954
 4069TIP3    H233767   4.103   1.289   7.530  0.7653 -1.4649 -2.2188
 4070TIP3   OH233768   3.596   0.665   8.317 -0.2268  0.4365  0.0204
 4070TIP3    H133769   3.634   0.624   8.240 -0.3856  0.9457 -0.3319
 4070TIP3    H233770   3.554   0.593   8.364 -0.4130  0.1730 -0.5403
 4071TIP3   OH233771   3.367   5.452   0.597  0.2435  0.1398  0.0430
 4071TIP3    H133772   3.305   5.496   0.540  0.9158  0.5604 -0.3850
 4071TIP3    H233773   3.394   5.518   0.660  0.6317  0.1097 -0.0860
 4072TIP3   OH233774   4.257   2.771   2.952  0.7337  0.3397 -0.5282
 4072TIP3    H133775   4.183   2.751   2.894  1.7517 -2.0886 -1.0896
 4072TIP3    H233776   4.220   2.765   3.040  0.0445  0.0722 -0.8261
 4073TIP3   OH233777   3.840   1.458   7.401 -0.0319  0.1269 -0.5633
 4073TIP3    H133778   3.905   1.409   7.450  1.8364  0.4849 -2.5420
 4073TIP3    H233779   3.823   1.405   7.323  0.9086  1.7912 -1.9991
 4074TIP3   OH233780   6.577   1.974   1.470 -0.4584  0.2293 -0.2723
 4074TIP3    H133781   6.585   1.901   1.531 -0.9870 -0.0269 -0.4984
 4074TIP3    H233782   6.562   2.050   1.525  0.5531  0.2451 -0.0092
 4075TIP3   OH233783   6.414   2.823   0.643  0.1310 -0.0837 -0.0802
 4075TIP3    H133784   6.381   2.832   0.733  0.2187 -0.1242 -0.0443
 4075TIP3    H233785   6.340   2.788   0.594 -0.6635  2.0110 -0.4907
 4076TIP3   OH233786   2.061   4.720   1.473 -0.1359 -0.2630  0.0586
 4076TIP3    H133787   1.967   4.736   1.473  0.0301  0.8936  0.9616
 4076TIP3    H233788   2.098   4.796   1.518  1.3884  0.1106 -1.7028
 4077TIP3   OH233789   3.774   0.898   1.337  0.1214 -0.4443  0.3410
 4077TIP3    H133790   3.837   0.956   1.380 -0.8450  0.1578  0.9874
 4077TIP3    H233791   3.696   0.901   1.393 -0.3991 -1.3702 -0.3030
 4078TIP3   OH233792   4.761   6.523   0.947  0.6220 -0.0126  0.6419
 4078TIP3    H133793   4.756   6.545   0.854  0.0235  0.0957  0.6945
 4078TIP3    H233794   4.678   6.478   0.965  0.7227 -0.0049  1.1289
 4079TIP3   OH233795   2.099   1.733   8.679 -0.2364  0.3803  0.6898
 4079TIP3    H133796   2.118   1.762   8.590  0.3522  1.2739  1.0885
 4079TIP3    H233797   2.144   1.649   8.686  0.2560  0.6077  0.3406
 4080TIP3   OH233798   4.793   4.757   8.660 -0.5460  0.0027 -0.4107
 4080TIP3    H133799   4.765   4.761   8.752 -0.5248 -0.7139 -0.3673
 4080TIP3    H233800   4.718   4.719   8.614 -0.7939  0.9498 -0.7939
 4081TIP3   OH233801   6.040   6.437   7.880 -0.4181  0.2900 -0.1261
 4081TIP3    H133802   5.988   6.360   7.902 -2.0981  1.8268  1.6548
 4081TIP3    H233803   6.036   6.491   7.958  0.3150  2.4163 -1.4840
 4082TIP3   OH233804   4.060   2.929   2.328  0.3526  0.1439  0.1318
 4082TIP3    H133805   4.122   2.865   2.363  0.4700  0.1650 -0.0376
 4082TIP3    H233806   4.052   2.907   2.235  0.8186  0.7214 -0.0482
 4083TIP3   OH233807   5.099   3.860   8.494 -0.5009 -0.1260  0.4442
 4083TIP3    H133808   5.187   3.861   8.457 -0.0900 -0.7996  1.3702
 4083TIP3    H233809   5.113   3.851   8.589 -1.5522  0.1516  0.6335
 4084TIP3   OH233810   4.321   0.588   1.360  0.2661  0.0904 -0.1674
 4084TIP3    H133811   4.301   0.579   1.267 -1.0731 -0.7920  0.1647
 4084TIP3    H233812   4.375   0.666   1.366 -1.3515  1.3823 -1.4657
 4085TIP3   OH233813   0.256   5.531   0.707  0.1568 -0.3394 -0.0976
 4085TIP3    H133814   0.288   5.449   0.745 -0.8078 -1.2710 -1.2175
 4085TIP3    H233815   0.161   5.524   0.709  0.0653  0.3121 -1.1120
 4086TIP3   OH233816   2.963   1.760   8.159 -0.0043 -0.0814  0.2732
 4086TIP3    H133817   2.996   1.723   8.240  1.9265 -0.2003 -0.5220
 4086TIP3    H233818   2.870   1.736   8.158  0.1182 -0.7738  2.0300
 4087TIP3   OH233819   4.322   1.273   7.481  0.2942 -0.8676 -0.2263
 4087TIP3    H133820   4.287   1.190   7.451  1.3847 -1.2141 -0.6026
 4087TIP3    H233821   4.315   1.331   7.406 -0.0049 -0.7645 -0.1200
 4088TIP3   OH233822   6.752   1.575   7.531 -0.2074  0.0547 -0.0260
 4088TIP3    H133823   6.716   1.535   7.451  0.2032  0.0706 -0.2200
 4088TIP3    H233824   6.730   1.512   7.600  0.9823 -0.8473 -0.4212
 4089TIP3   OH233825   5.110   3.754   1.291  0.1862 -0.0239  0.3139
 4089TIP3    H133826   5.076   3.843   1.299  1.6802  0.6229 -0.2484
 4089TIP3    H233827   5.043   3.699   1.333 -0.0333  1.5017  2.0858
 4090TIP3   OH233828   0.634   6.003   1.889 -0.1211  0.0242  0.3308
 4090TIP3    H133829   0.701   6.071   1.876  0.8294 -0.6557  1.4284
 4090TIP3    H233830   0.600   5.986   1.801  0.0323  1.4983 -0.0413
 4091TIP3   OH233831   0.357   3.770   1.904  0.2855 -0.3787  0.1761
 4091TIP3    H133832   0.373   3.771   1.809  0.4277 -1.3548  0.1825
 4091TIP3    H233833   0.435   3.810   1.942  0.6909 -0.9360 -0.0596
 4092TIP3   OH233834   5.304   5.797   0.163 -0.1572  0.3817  0.3315
 4092TIP3    H133835   5.211   5.774   0.162 -0.1089  0.1734  0.6244
 4092TIP3    H233836   5.350   5.713   0.162  0.0260  0.4804  0.4195
 4093TIP3   OH233837   5.350   3.795   0.255  0.3050  0.0147 -0.1378
 4093TIP3    H133838   5.347   3.890   0.245  1.2076  0.5104  3.0888
 4093TIP3    H233839   5.439   3.777   0.286 -0.1375 -1.7762  0.2200
 4094TIP3   OH233840   2.461   6.208   8.337 -0.1039  0.7082  0.2876
 4094TIP3    H133841   2.379   6.228   8.290 -0.1086 -0.4153 -0.2195
 4094TIP3    H233842   2.494   6.294   8.365  0.1024  1.4974 -2.1172
 4095TIP3   OH233843   5.337   4.049   0.150 -0.1168 -0.4772  0.4787
 4095TIP3    H133844   5.246   4.023   0.138 -0.1506 -0.4150  0.5992
 4095TIP3    H233845   5.345   4.130   0.099  0.1010 -0.9456 -0.2523
 4096TIP3   OH233846   6.025   0.705   8.184 -0.4411  0.3330  0.1839
 4096TIP3    H133847   5.978   0.754   8.117 -2.7837 -1.0795  0.6906
 4096TIP3    H233848   6.040   0.768   8.254  0.4986  1.3732 -0.8968
 4097TIP3   OH233849   5.457   5.353   1.304  0.7869 -0.1958  0.2288
 4097TIP3    H133850   5.543   5.320   1.330  0.4705 -0.4925  0.9072
 4097TIP3    H233851   5.471   5.446   1.287  0.9947  0.0122  1.4901
 4098TIP3   OH233852   2.407   2.062   8.267  0.0924  0.1054 -0.5123
 4098TIP3    H133853   2.358   2.144   8.256 -0.8057  0.2836  3.3202
 4098TIP3    H233854   2.487   2.087   8.313 -0.5943 -1.1441  1.5188
 4099TIP3   OH233855   6.462   5.350   7.150  0.0877  0.7840  0.0803
 4099TIP3    H133856   6.498   5.383   7.232 -0.6085  1.3270  0.1660
 4099TIP3    H233857   6.540   5.322   7.100  0.7015  2.5010  0.0148
 4100TIP3   OH233858   1.930   4.537   1.772  0.1050 -0.0271 -0.0319
 4100TIP3    H133859   1.922   4.621   1.819  0.1145  0.6846 -1.2615
 4100TIP3    H233860   1.842   4.501   1.773  0.0671  0.0648  0.3743
 4101TIP3   OH233861   0.170   3.734   0.403  0.0407  0.0326  0.4418
 4101TIP3    H133862   0.244   3.693   0.359  0.1300  0.3458  0.2977
 4101TIP3    H233863   0.201   3.822   0.425 -0.1896  0.0653  0.6408
 4102TIP3   OH233864   5.802   2.737   0.335  0.3659  0.1876  0.3870
 4102TIP3    H133865   5.887   2.716   0.296  1.3979  3.5275  0.4809
 4102TIP3    H233866   5.815   2.727   0.429  0.1842 -0.7173  0.3196
 4103TIP3   OH233867   1.062   5.015   8.184  0.2020  0.5447  0.2150
 4103TIP3    H133868   1.062   5.080   8.255 -0.9981  0.6045  0.1731
 4103TIP3    H233869   1.146   4.971   8.193  0.2968  0.9183  1.3502
 4104TIP3   OH233870   4.765   2.916   8.376 -0.1313  0.2185 -0.2262
 4104TIP3    H133871   4.810   2.962   8.447 -0.2393 -0.4573  0.3049
 4104TIP3    H233872   4.798   2.826   8.382 -1.6123 -0.3368  0.2716
 4105TIP3   OH233873   4.526   1.939   0.115  0.2739 -0.2914 -0.4245
 4105TIP3    H133874   4.465   1.992   0.166  0.3837  0.1408 -0.7398
 4105TIP3    H233875   4.474   1.864   0.087 -0.1738  0.1743 -0.8585
 4106TIP3   OH233876   2.712   3.803   2.123 -0.3806  0.7437  0.1368
 4106TIP3    H133877   2.744   3.760   2.203  0.0369  1.5478  0.4214
 4106TIP3    H233878   2.672   3.733   2.072 -1.1858  0.3137  1.3157
 4107TIP3   OH233879   3.829   3.627   1.479  0.2863  0.0657 -0.3769
 4107TIP3    H133880   3.812   3.674   1.397 -2.7167  0.5075  0.3766
 4107TIP3    H233881   3.820   3.534   1.455  0.9493  0.1107 -0.8263
 4108TIP3   OH233882   0.943   0.106   2.035 -0.2426  0.3384 -0.4705
 4108TIP3    H133883   1.018   0.158   2.007  2.9934 -3.0895  0.9858
 4108TIP3    H233884   0.929   0.132   2.126  0.0022  0.1765 -0.3838
 4109TIP3   OH233885   2.614   1.741   0.052  0.3237 -0.1260 -0.0559
 4109TIP3    H133886   2.672   1.816   0.063  0.5017 -0.1275 -0.8697
 4109TIP3    H233887   2.654   1.672   0.105  1.5972 -0.3978 -1.2828
 4110TIP3   OH233888   3.753   0.481   1.588  0.5058  1.0456 -0.1952
 4110TIP3    H133889   3.842   0.493   1.556  0.7997 -1.1080 -0.3515
 4110TIP3    H233890   3.751   0.390   1.618 -2.2669  0.2656 -2.3460
 4111TIP3   OH233891   6.294   6.624   7.556  0.3701  0.5219  0.0992
 4111TIP3    H133892   6.325   6.681   7.626  1.9744 -0.0223 -0.1109
 4111TIP3    H233893   6.209   6.592   7.587  0.5552  1.1262  1.3043
 4112TIP3   OH233894   6.355   1.860   1.968 -0.4716  0.2511 -0.3744
 4112TIP3    H133895   6.300   1.817   2.033 -0.7476  0.4608 -0.4687
 4112TIP3    H233896   6.434   1.807   1.965 -0.3405  0.3883  0.3277
 4113TIP3   OH233897   5.244   2.403   0.540 -0.1904 -0.2111 -0.3579
 4113TIP3    H133898   5.291   2.484   0.517 -2.3812  1.3044  0.1889
 4113TIP3    H233899   5.203   2.376   0.458 -0.0176 -0.3826 -0.3878
 4114TIP3   OH233900   6.794   6.571   2.179  0.0834  0.6038 -0.0434
 4114TIP3    H133901   6.739   6.548   2.254  1.5996 -1.1610  0.6353
 4114TIP3    H233902   6.813   6.664   2.190 -1.3773  0.8497  0.6122
 4115TIP3   OH233903   5.971   2.179   1.595  0.7661 -0.3452 -0.3996
 4115TIP3    H133904   6.064   2.183   1.618  0.1805 -1.9479  2.7754
 4115TIP3    H233905   5.926   2.230   1.663 -0.7534  0.0091 -1.6009
 4116TIP3   OH233906   1.604   2.858   1.752  0.1980 -0.1501 -0.2037
 4116TIP3    H133907   1.520   2.905   1.751 -0.3153 -1.0000  0.8121
 4116TIP3    H233908   1.667   2.923   1.782 -0.7662 -0.4448  2.7378
 4117TIP3   OH233909   5.969   1.713   1.446  0.6170  0.4556 -0.3311
 4117TIP3    H133910   5.964   1.808   1.441 -0.1451  0.5144  1.0933
 4117TIP3    H233911   5.882   1.685   1.474  0.7515 -0.6968 -0.9778
 4118TIP3   OH233912   4.700   5.002   1.093 -0.5962  0.5785 -0.3338
 4118TIP3    H133913   4.649   5.066   1.143 -1.5247 -1.8191  2.0388
 4118TIP3    H233914   4.791   5.029   1.105 -0.6738 -0.3166  3.5861
 4119TIP3   OH233915   3.842   4.969   8.427 -0.1167 -0.2280  0.7967
 4119TIP3    H133916   3.824   4.884   8.388  0.5609  0.2868 -0.6933
 4119TIP3    H233917   3.934   4.987   8.406 -0.3337  1.0113  0.7975
 4120TIP3   OH233918   6.551   4.444   1.497 -0.5293  0.5800 -0.5926
 4120TIP3    H133919   6.575   4.371   1.440  2.3862  0.9352  0.0125
 4120TIP3    H233920   6.477   4.486   1.453 -1.3397 -1.8405 -1.6993
 4121TIP3   OH233921   1.883   1.347   7.253 -0.1099  0.1496  0.0002
 4121TIP3    H133922   1.909   1.260   7.282 -0.8775 -0.3807 -0.8334
 4121TIP3    H233923   1.922   1.407   7.317  2.5059 -0.6049 -0.7907
 4122TIP3   OH233924   6.293   6.633   8.762  0.2678 -0.3362 -0.3812
 4122TIP3    H133925   6.378   6.646   8.805  0.0103 -1.3536  0.4664
 4122TIP3    H233926   6.304   6.555   8.708 -0.0038 -0.2065 -0.6303
 4123TIP3   OH233927   2.636   3.941   7.637  0.3774  0.5385 -0.2807
 4123TIP3    H133928   2.715   3.898   7.667  1.0054  2.0655  0.3723
 4123TIP3    H233929   2.661   3.983   7.555  0.1106  0.6217 -0.3223
 4124TIP3   OH233930   2.363   4.804   7.544 -0.3390 -0.2853 -0.6189
 4124TIP3    H133931   2.365   4.882   7.489  0.1569  0.2685  0.1643
 4124TIP3    H233932   2.456   4.787   7.564 -0.1314 -2.7881 -3.1372
 4125TIP3   OH233933   6.470   0.123   8.709 -0.0785  0.4312 -0.1663
 4125TIP3    H133934   6.476   0.077   8.793 -0.0698  0.0234 -0.3910
 4125TIP3    H233935   6.412   0.197   8.727  0.8321  1.0183  0.5057
 4126TIP3   OH233936   1.253   6.565   0.575 -0.1705 -0.0174  0.3016
 4126TIP3    H133937   1.267   6.609   0.659 -1.4583 -1.6669  1.4386
 4126TIP3    H233938   1.232   6.475   0.598 -0.4526 -0.5492 -1.8228
 4127TIP3   OH233939   1.772   1.477   7.561  0.2798  0.4312  0.3736
 4127TIP3    H133940   1.836   1.523   7.507 -0.6052 -0.0783 -1.1760
 4127TIP3    H233941   1.705   1.448   7.499 -0.2772 -1.0697  1.6222
 4128TIP3   OH233942   3.416   5.120   1.922  0.3661  0.3072 -0.3514
 4128TIP3    H133943   3.461   5.203   1.937  1.2584 -0.1080 -0.6091
 4128TIP3    H233944   3.422   5.074   2.005  1.9587 -0.4389 -0.8290
 4129TIP3   OH233945   4.350   4.958   6.979  0.1078  0.0931 -0.4449
 4129TIP3    H133946   4.310   4.940   6.894 -2.3925  0.4536  0.5725
 4129TIP3    H233947   4.360   5.053   6.982  0.7540  0.0330 -0.5560
 4130TIP3   OH233948   2.811   0.810   8.720  0.3471 -0.3628  0.1019
 4130TIP3    H133949   2.785   0.748   8.652  1.0612 -0.2812 -0.2549
 4130TIP3    H233950   2.807   0.896   8.677  2.7592 -0.4801 -0.4739
 4131TIP3   OH233951   6.540   3.072   0.623  0.3211 -0.4219  0.7235
 4131TIP3    H133952   6.507   2.987   0.594 -0.1552 -0.3727  1.1114
 4131TIP3    H233953   6.585   3.053   0.705 -0.7033 -0.1529  1.3732
 4132TIP3   OH233954   3.182   4.005   1.622  0.2902 -0.1166  0.4112
 4132TIP3    H133955   3.101   3.997   1.570  1.8203  1.9999 -2.5796
 4132TIP3    H233956   3.213   3.915   1.629 -0.9920 -0.6989 -0.7024
 4133TIP3   OH233957   1.335   2.941   8.028 -0.1523  0.3005  0.2463
 4133TIP3    H133958   1.349   2.848   8.044  3.4867  0.3791 -1.4756
 4133TIP3    H233959   1.267   2.966   8.090 -0.4351 -3.2256  1.5942
 4134TIP3   OH233960   5.344   3.900   8.340 -0.2332 -0.3260  0.5032
 4134TIP3    H133961   5.359   3.975   8.283  1.2957  0.0420  1.3423
 4134TIP3    H233962   5.333   3.826   8.280  1.1274  0.0878 -0.2952
 4135TIP3   OH233963   6.552   6.100   1.864  0.3307 -0.2054 -0.0232
 4135TIP3    H133964   6.552   6.005   1.879 -0.6112 -0.1261  0.5496
 4135TIP3    H233965   6.475   6.131   1.910  0.5070  0.8194 -0.4051
 4136TIP3   OH233966   1.080   4.896   0.317  0.5929  0.2050 -0.3183
 4136TIP3    H133967   1.086   4.812   0.272  0.4644  0.4467 -0.7995
 4136TIP3    H233968   1.034   4.877   0.399  1.0274 -0.2821 -0.1859
 4137TIP3   OH233969   4.298   0.395   1.585 -0.2818  0.1224 -0.2963
 4137TIP3    H133970   4.217   0.429   1.623  0.1306  0.3312  0.4096
 4137TIP3    H233971   4.322   0.458   1.517 -0.3825  0.3873 -0.0840
 4138TIP3   OH233972   2.260   1.392   8.044 -0.4002 -0.5566 -0.3308
 4138TIP3    H133973   2.165   1.382   8.038 -0.6901  1.3040  0.5568
 4138TIP3    H233974   2.273   1.476   8.088  1.6628 -1.2594  0.5333
 4139TIP3   OH233975   5.279   2.144   7.937  0.3148 -0.8645  0.0138
 4139TIP3    H133976   5.370   2.114   7.937  0.5578 -0.3104  2.0600
 4139TIP3    H233977   5.232   2.078   7.987 -0.4729 -1.2346 -1.1724
 4140TIP3   OH233978   6.437   0.733   2.232  0.6146  0.2499 -0.7490
 4140TIP3    H133979   6.364   0.796   2.227 -0.5631 -1.0181 -0.2718
 4140TIP3    H233980   6.409   0.661   2.175  0.0800 -1.5952  1.6827
 4141TIP3   OH233981   2.824   2.451   7.551 -0.4584  0.3936 -0.1320
 4141TIP3    H133982   2.915   2.475   7.534 -0.1149 -0.2515  0.7222
 4141TIP3    H233983   2.782   2.451   7.465  0.4377  0.3176 -0.5729
 4142TIP3   OH233984   6.646   6.393   1.775 -0.8079  0.2314  0.3661
 4142TIP3    H133985   6.737   6.380   1.801  0.8321  0.1535 -4.4187
 4142TIP3    H233986   6.607   6.306   1.780 -0.1859 -0.0136  1.0597
 4143TIP3   OH233987   3.067   3.128   7.626  0.1108 -0.5471  0.2738
 4143TIP3    H133988   2.991   3.157   7.576 -0.2893 -0.9388  0.6383
 4143TIP3    H233989   3.140   3.176   7.589 -0.3136 -0.1746 -0.0963
 4144TIP3   OH233990   5.308   2.606   8.469  0.3158 -0.6209  0.1655
 4144TIP3    H133991   5.340   2.521   8.500 -1.0412 -1.8959 -1.7152
 4144TIP3    H233992   5.373   2.635   8.405 -0.8292 -1.9325 -1.6855
 4145TIP3   OH233993   6.682   0.894   7.753  0.0347  0.4080 -0.0669
 4145TIP3    H133994   6.737   0.817   7.743 -0.7517 -0.5218  2.1267
 4145TIP3    H233995   6.608   0.879   7.694  0.2846 -0.1230 -0.2477
 4146TIP3   OH233996   3.870   6.708   2.255 -0.0003 -0.5982 -0.5792
 4146TIP3    H133997   3.775   6.703   2.263  0.0734 -0.2870  0.7010
 4146TIP3    H233998   3.896   6.620   2.227 -0.6457 -0.7362 -0.7572
 4147TIP3   OH233999   6.119   2.107   7.390  0.1121  0.2248  0.2934
 4147TIP3    H134000   6.076   2.063   7.318 -0.5044  0.1311  0.7120
 4147TIP3    H234001   6.172   2.176   7.349  0.9125 -0.7408 -0.3498
 4148TIP3   OH234002   5.581   5.640   0.999  0.1269 -0.0363 -0.6909
 4148TIP3    H134003   5.672   5.654   0.972  0.9914 -2.4621  0.7176
 4148TIP3    H234004   5.544   5.586   0.929  0.4872 -1.0159 -0.1362
 4149TIP3   OH234005   3.012   1.793   0.337  0.1982 -0.4049  0.0451
 4149TIP3    H134006   3.074   1.856   0.373 -2.0070  0.4313  2.6944
 4149TIP3    H234007   2.926   1.830   0.355 -1.1908 -1.8710 -2.8219
 4150TIP3   OH234008   0.698   4.639   1.658 -0.0020 -0.1595  0.0188
 4150TIP3    H134009   0.688   4.718   1.713 -0.3358 -0.5983  0.6019
 4150TIP3    H234010   0.724   4.571   1.720 -0.5702 -0.7067 -0.3399
 4151TIP3   OH234011   3.761   6.172   7.422  0.3645 -0.4017  0.2470
 4151TIP3    H134012   3.781   6.214   7.339 -0.9825 -1.1817 -0.5065
 4151TIP3    H234013   3.684   6.118   7.404 -0.1891 -0.2990  2.0986
 4152TIP3   OH234014   5.699   1.562   0.228 -0.0144  0.2196 -0.7937
 4152TIP3    H134015   5.616   1.529   0.193  0.3709 -1.6400 -0.0682
 4152TIP3    H234016   5.744   1.484   0.262  0.6979  1.5443  1.5685
 4153TIP3   OH234017   0.167   4.640   1.305  0.2023  0.0744 -0.1800
 4153TIP3    H134018   0.177   4.589   1.225  0.2999  1.5937 -1.1661
 4153TIP3    H234019   0.233   4.603   1.364  2.8332  1.3208 -2.1047
 4154TIP3   OH234020   6.270   5.747   7.303 -0.4421 -0.0801 -0.6372
 4154TIP3    H134021   6.330   5.720   7.234 -1.6319 -1.4801 -1.1929
 4154TIP3    H234022   6.282   5.682   7.373  1.5307  1.9379  1.0159
 4155TIP3   OH234023   5.788   6.540   1.532 -0.5201 -0.1057  0.7505
 4155TIP3    H134024   5.756   6.567   1.619  1.3153 -0.0769  1.4663
 4155TIP3    H234025   5.772   6.617   1.477  0.6632  0.8930  1.7248
 4156TIP3   OH234026   6.684   0.751   7.473 -0.0082 -0.0123 -0.0798
 4156TIP3    H134027   6.599   0.715   7.499  0.8330 -0.3286  2.5326
 4156TIP3    H234028   6.746   0.681   7.491  1.0343  0.8849 -0.1053
 4157TIP3   OH234029   6.700   5.504   7.868  0.4421  0.4902 -0.2732
 4157TIP3    H134030   6.745   5.585   7.844  2.7826 -0.9115 -0.8670
 4157TIP3    H234031   6.759   5.461   7.930  0.3541 -1.7794 -1.6649
 4158TIP3   OH234032   3.908   3.389   1.693  0.7202  0.3635 -0.0215
 4158TIP3    H134033   3.821   3.391   1.653  0.0192  0.1590  1.4093
 4158TIP3    H234034   3.929   3.481   1.709  0.7703  0.4129 -0.3585
 4159TIP3   OH234035   3.837   0.201   7.741 -0.3500  0.1611  0.6807
 4159TIP3    H134036   3.873   0.213   7.829  0.4716  1.4870  0.1949
 4159TIP3    H234037   3.800   0.286   7.718 -1.8542 -0.5636  0.2757
 4160TIP3   OH234038   1.358   0.922   1.416 -0.0373  0.2345 -0.2607
 4160TIP3    H134039   1.430   0.905   1.355 -1.4156 -0.7763 -1.6582
 4160TIP3    H234040   1.294   0.853   1.398 -0.6100  0.0246  2.1891
 4161TIP3   OH234041   6.718   1.569   1.133 -0.3960  0.0050 -0.2885
 4161TIP3    H134042   6.769   1.642   1.098 -0.1530  0.0459  0.1398
 4161TIP3    H234043   6.783   1.500   1.149 -0.4505  0.0897  0.3553
 4162TIP3   OH234044   4.871   4.142   7.909  0.0696 -0.6626  0.1460
 4162TIP3    H134045   4.811   4.126   7.836  0.1888 -0.8262  0.0839
 4162TIP3    H234046   4.846   4.078   7.975 -1.1862  0.5950  0.9588
 4163TIP3   OH234047   6.249   0.960   1.828 -0.6873  0.7465 -0.2348
 4163TIP3    H134048   6.261   0.957   1.733 -0.8940  0.3027 -0.2459
 4163TIP3    H234049   6.331   0.998   1.860 -0.7614  1.2425 -0.6153
 4164TIP3   OH234050   6.054   5.668   3.419 -0.4511 -0.6885 -0.3529
 4164TIP3    H134051   6.008   5.751   3.404  1.4362  0.2527 -1.2179
 4164TIP3    H234052   5.988   5.601   3.399 -2.0186  0.5513  0.3544
 4165TIP3   OH234053   1.578   0.407   0.523  1.1787 -0.5004  0.1301
 4165TIP3    H134054   1.651   0.463   0.547 -0.0474  0.5539  1.6190
 4165TIP3    H234055   1.564   0.424   0.430  1.1877  1.2826  0.4283
 4166TIP3   OH234056   2.689   3.450   0.444  0.1850  1.0809  0.2356
 4166TIP3    H134057   2.756   3.397   0.486  0.2840  0.1146 -1.0634
 4166TIP3    H234058   2.717   3.455   0.352 -0.7750  1.8677 -0.0288
 4167TIP3   OH234059   2.311   2.792   7.354 -0.0577 -0.0796  0.8033
 4167TIP3    H134060   2.310   2.755   7.266  0.3792 -0.9741  1.1544
 4167TIP3    H234061   2.219   2.804   7.376 -0.1641  0.3315  0.1546
 4168TIP3   OH234062   5.316   0.528   0.301  0.0839  0.0415 -0.3938
 4168TIP3    H134063   5.384   0.519   0.234  1.0633  1.4136  0.3820
 4168TIP3    H234064   5.281   0.616   0.288 -1.2356 -0.4738 -0.4724
 4169TIP3   OH234065   6.683   2.806   0.830  0.2816 -0.2057 -0.1374
 4169TIP3    H134066   6.759   2.850   0.793  1.5354 -1.7512  0.4930
 4169TIP3    H234067   6.669   2.848   0.914 -0.7808  1.3610 -1.0565
 4170TIP3   OH234068   5.024   0.199   0.519 -0.2332 -0.6660  0.0238
 4170TIP3    H134069   5.017   0.231   0.429 -2.5206 -0.8190  0.0792
 4170TIP3    H234070   4.934   0.181   0.545  0.3854 -0.8362  2.2938
 4171TIP3   OH234071   2.545   2.563   7.749 -0.1642  0.5808  0.4768
 4171TIP3    H134072   2.501   2.559   7.664  1.7636  0.7472 -0.5881
 4171TIP3    H234073   2.607   2.636   7.741  1.5102 -0.6778  1.2799
 4172TIP3   OH234074   1.171   5.151   7.241  0.4017  0.3218 -0.3182
 4172TIP3    H134075   1.221   5.232   7.228  2.5187 -0.4266  2.1100
 4172TIP3    H234076   1.230   5.082   7.211  0.8308 -0.5727  2.3000
 4173TIP3   OH234077   2.920   4.731   7.654  0.1884  0.3318 -0.1800
 4173TIP3    H134078   2.867   4.792   7.602  1.0436  0.9319 -0.3637
 4173TIP3    H234079   2.972   4.683   7.590  0.4761  0.3223  0.0592
 4174TIP3   OH234080   4.587   3.310   6.645 -0.1966 -0.1583 -0.2990
 4174TIP3    H134081   4.682   3.321   6.636 -0.3867 -0.2803 -3.1109
 4174TIP3    H234082   4.550   3.386   6.600 -1.4917  0.4623  1.6873
 4175TIP3   OH234083   4.108   0.259   1.340  0.0468 -0.1232 -0.4170
 4175TIP3    H134084   4.057   0.239   1.261  0.5585 -0.0275 -0.7798
 4175TIP3    H234085   4.199   0.243   1.314  0.1381 -1.3193  0.5208
 4176TIP3   OH234086   0.783   5.639   1.650  0.1837  0.2143  0.4110
 4176TIP3    H134087   0.799   5.731   1.669 -0.4525  0.1123  1.5027
 4176TIP3    H234088   0.753   5.639   1.559  1.6172  0.9067 -0.0959
 4177TIP3   OH234089   2.479   1.265   8.730  0.7437 -0.1642  0.0547
 4177TIP3    H134090   2.416   1.200   8.762  0.9087 -0.1605  0.3962
 4177TIP3    H234091   2.505   1.234   8.643  0.6418 -0.4272  0.1181
 4178TIP3   OH234092   1.422   2.338   7.908 -0.2048  0.0202 -0.0600
 4178TIP3    H134093   1.412   2.432   7.922 -0.0125  0.0982 -0.4298
 4178TIP3    H234094   1.509   2.317   7.943 -0.6078 -0.1934  0.8528
 4179TIP3   OH234095   6.262   1.823   8.283 -0.1845  0.3142  0.0252
 4179TIP3    H134096   6.208   1.816   8.362  1.0840  1.6509  1.0537
 4179TIP3    H234097   6.308   1.907   8.292 -2.0068  1.8917 -3.4333
 4180TIP3   OH234098   4.707   2.248   2.236  0.4182  0.0053 -0.2923
 4180TIP3    H134099   4.652   2.310   2.283 -2.3966 -1.1822 -1.8115
 4180TIP3    H234100   4.748   2.195   2.305 -2.0243 -0.4087  0.9457
 4181TIP3   OH234101   3.367   3.713   1.406  0.0044  0.5732 -0.6808
 4181TIP3    H134102   3.314   3.732   1.483 -0.4405 -0.2905 -0.7551
 4181TIP3    H234103   3.439   3.776   1.409 -0.1048  0.6592  0.3425
 4182TIP3   OH234104   6.652   2.293   1.347  0.0125  0.0618 -0.1326
 4182TIP3    H134105   6.695   2.359   1.403  0.3271 -0.0766 -0.2114
 4182TIP3    H234106   6.562   2.324   1.340  0.4551  1.1630 -1.1967
 4183TIP3   OH234107   6.054   5.919   1.259  0.3767  0.1096  0.0261
 4183TIP3    H134108   6.084   6.006   1.233  2.2870 -0.8077 -1.1444
 4183TIP3    H234109   6.131   5.880   1.302 -0.4836 -0.9483  0.6402
 4184TIP3   OH234110   4.999   1.994   6.606  0.9294 -0.1397 -0.0413
 4184TIP3    H134111   4.908   1.968   6.592  0.7006 -0.5309  1.9052
 4184TIP3    H234112   5.047   1.911   6.614  1.5274  0.0595 -1.2096
 4185TIP3   OH234113   3.712   3.096   7.380 -0.0300 -0.7488  0.4116
 4185TIP3    H134114   3.755   3.042   7.314  0.2696 -1.2975  1.0480
 4185TIP3    H234115   3.647   3.039   7.420 -0.4207 -0.3275  0.3910
 4186TIP3   OH234116   5.363   2.025   0.161  0.1931 -0.5606  0.4606
 4186TIP3    H134117   5.416   2.081   0.106 -0.2368  0.3973  0.9993
 4186TIP3    H234118   5.427   1.972   0.210  0.6193 -0.1826  0.3166
 4187TIP3   OH234119   4.719   5.947   1.289 -0.0685  0.3167 -0.1286
 4187TIP3    H134120   4.786   5.882   1.266 -0.6388 -0.1973 -0.3524
 4187TIP3    H234121   4.735   6.019   1.228 -0.2462 -0.1621 -0.7564
 4188TIP3   OH234122   1.623   6.424   8.127  0.3966  0.1392 -0.3924
 4188TIP3    H134123   1.535   6.460   8.115  0.1562 -0.5667 -0.7869
 4188TIP3    H234124   1.673   6.457   8.052  0.9494  1.9371  0.7104
 4189TIP3   OH234125   5.178   2.329   0.081 -0.4063  0.2876  0.2583
 4189TIP3    H134126   5.202   2.239   0.103  1.1963  0.0932 -1.9846
 4189TIP3    H234127   5.233   2.383   0.138  0.0025 -0.1664  0.2992
 4190TIP3   OH234128   1.965   4.528   0.507  0.0362 -0.6836  0.3138
 4190TIP3    H134129   1.972   4.432   0.503  1.4142 -0.6003 -3.5255
 4190TIP3    H234130   1.997   4.551   0.594 -0.7870 -3.7106  1.5313
 4191TIP3   OH234131   2.696   4.578   8.509  0.2915  0.0631  0.0167
 4191TIP3    H134132   2.761   4.647   8.494  1.0006 -0.4518  0.6590
 4191TIP3    H234133   2.674   4.547   8.421 -0.4094  1.4190 -0.3223
 4192TIP3   OH234134   0.267   2.227   1.783  0.1647  0.2159  0.2900
 4192TIP3    H134135   0.302   2.282   1.713 -0.2937 -0.1332 -0.2197
 4192TIP3    H234136   0.335   2.161   1.798 -0.4281 -0.7257 -0.9998
 4193TIP3   OH234137   1.656   5.829   8.049 -0.1107 -0.0961  0.4182
 4193TIP3    H134138   1.706   5.829   8.131  0.7622 -1.8177 -0.0680
 4193TIP3    H234139   1.723   5.840   7.981 -0.6738 -0.0436 -0.1319
 4194TIP3   OH234140   5.019   3.352   1.326 -0.3058 -0.6962 -0.1337
 4194TIP3    H134141   4.976   3.353   1.241 -1.7735  0.6704  0.5761
 4194TIP3    H234142   5.009   3.262   1.358 -1.5205 -0.7272 -0.5541
 4195TIP3   OH234143   6.590   5.871   7.541  0.7277 -0.5365 -0.0643
 4195TIP3    H134144   6.600   5.966   7.550 -0.0352 -0.4322 -0.2643
 4195TIP3    H234145   6.508   5.851   7.586  0.3237 -0.9407 -0.9564
 4196TIP3   OH234146   6.123   3.416   7.500 -1.1375  0.5105  0.1989
 4196TIP3    H134147   6.109   3.488   7.438  0.2538  1.0554  0.4766
 4196TIP3    H234148   6.124   3.337   7.446 -0.6660  0.9049 -0.3766
 4197TIP3   OH234149   6.568   0.779   1.843  0.7824  0.4391 -0.4847
 4197TIP3    H134150   6.598   0.845   1.905  1.5560 -1.1346  0.8799
 4197TIP3    H234151   6.475   0.798   1.830  0.2641  0.0314  2.1975
 4198TIP3   OH234152   1.428   5.816   1.802 -0.2535  0.3782 -0.4229
 4198TIP3    H134153   1.474   5.845   1.724 -0.6874  2.7769  0.1227
 4198TIP3    H234154   1.335   5.817   1.777 -0.4051  1.2915  0.1298
 4199TIP3   OH234155   4.036   5.557   2.452  0.0851  0.2044 -0.5789
 4199TIP3    H134156   4.085   5.581   2.531 -0.0978  1.5037 -0.8392
 4199TIP3    H234157   3.947   5.591   2.469  0.0597  0.5349 -1.3555
 4200TIP3   OH234158   6.371   0.967   0.765  0.0266 -0.5377  0.3985
 4200TIP3    H134159   6.396   0.876   0.747 -1.2325 -0.9228  0.5349
 4200TIP3    H234160   6.423   1.018   0.703  3.2121 -1.0314  2.4087
 4201TIP3   OH234161   3.637   0.568   1.818 -0.3447  0.1212 -0.2425
 4201TIP3    H134162   3.660   0.542   1.728 -0.2073 -0.2900 -0.0904
 4201TIP3    H234163   3.624   0.485   1.864 -3.9768  0.2652 -0.7550
 4202TIP3   OH234164   1.556   2.590   2.701 -0.2548 -0.2074 -0.4430
 4202TIP3    H134165   1.539   2.596   2.607  0.6164 -1.0317 -0.6677
 4202TIP3    H234166   1.651   2.600   2.709 -0.0976 -1.8442  0.1671
 4203TIP3   OH234167   0.601   6.289   7.625  0.0648  0.8472 -0.4357
 4203TIP3    H134168   0.568   6.274   7.536  0.4934 -0.1319 -0.4532
 4203TIP3    H234169   0.683   6.239   7.628  0.5728  1.6925  0.1951
 4204TIP3   OH234170   3.034   4.499   1.741 -0.6134 -0.1140 -0.3673
 4204TIP3    H134171   3.004   4.435   1.806  0.5250  0.0900  0.3784
 4204TIP3    H234172   3.058   4.445   1.665  2.0077 -0.8630  0.8460
 4205TIP3   OH234173   5.182   2.969   1.120  0.2809  0.5019 -0.0615
 4205TIP3    H134174   5.273   2.947   1.097 -0.5673 -3.0194 -0.7066
 4205TIP3    H234175   5.160   3.042   1.063  2.0359 -0.0406 -1.5342
 4206TIP3   OH234176   1.182   5.894   7.088  0.2830 -0.0478  0.1594
 4206TIP3    H134177   1.167   5.850   7.172 -0.8603  1.8578  1.0281
 4206TIP3    H234178   1.233   5.971   7.110 -0.1989  0.5889 -0.8523
 4207TIP3   OH234179   6.025   3.857   2.712 -0.3655  0.6101 -0.3435
 4207TIP3    H134180   5.970   3.917   2.762 -0.4337  1.0496 -0.9350
 4207TIP3    H234181   6.026   3.776   2.765 -2.4423  0.2219 -0.7848
 4208TIP3   OH234182   4.939   0.134   2.185  0.1497  0.4441  0.6496
 4208TIP3    H134183   4.880   0.179   2.244 -0.4808 -0.7370  0.9509
 4208TIP3    H234184   4.929   0.041   2.206 -1.2238 -0.1771 -2.2663
 4209TIP3   OH234185   0.466   4.986   7.576 -0.4666 -0.3674  0.2334
 4209TIP3    H134186   0.490   4.934   7.653  2.0298  0.2648 -0.0178
 4209TIP3    H234187   0.505   5.072   7.592  0.8240 -0.4446 -2.0406
 4210TIP3   OH234188   6.572   6.320   2.150 -0.1109  0.1318  0.2129
 4210TIP3    H134189   6.536   6.403   2.117  0.1072 -0.2954 -1.1559
 4210TIP3    H234190   6.511   6.253   2.118 -0.6789 -0.2035  1.9013
 4211TIP3   OH234191   4.566   5.803   0.788 -0.2555  0.0039  0.0288
 4211TIP3    H134192   4.650   5.813   0.832  0.8608 -0.0132 -2.0094
 4211TIP3    H234193   4.562   5.875   0.726 -0.8899 -1.0463 -1.2037
 4212TIP3   OH234194   6.717   4.010   1.256  0.6828 -0.3339 -0.1116
 4212TIP3    H134195   6.766   4.019   1.175  2.2222 -1.9474  0.5799
 4212TIP3    H234196   6.783   3.992   1.323 -0.7820 -2.1245  0.9585
 4213TIP3   OH234197   4.612   2.988   2.950 -0.3152  0.0045  0.1579
 4213TIP3    H134198   4.676   3.043   2.995 -0.4538  0.4299 -0.1590
 4213TIP3    H234199   4.556   2.954   3.020  0.5425 -0.7654  0.4961
 4214TIP3   OH234200   2.209   6.445   1.317 -0.7667  0.3388  0.1574
 4214TIP3    H134201   2.255   6.466   1.399 -1.7066  1.8037  0.3499
 4214TIP3    H234202   2.279   6.438   1.252 -0.1753  1.8191  0.5814
 4215TIP3   OH234203   4.187   0.936   8.300 -0.3030  0.2276  0.0110
 4215TIP3    H134204   4.186   1.028   8.324 -1.4325  0.3999 -0.6111
 4215TIP3    H234205   4.280   0.914   8.291  0.0796  0.7038  2.3189
 4216TIP3   OH234206   3.575   2.290   0.248 -0.5301 -0.1764 -0.3403
 4216TIP3    H134207   3.610   2.201   0.247 -0.4117 -0.1795  1.3078
 4216TIP3    H234208   3.634   2.338   0.306 -0.9128  0.8472 -0.7769
 4217TIP3   OH234209   1.867   0.940   1.920  0.7909 -0.1473  0.1351
 4217TIP3    H134210   1.778   0.941   1.885  0.9918  0.1341 -0.3854
 4217TIP3    H234211   1.919   0.984   1.852  1.9635 -3.4517 -1.3013
 4218TIP3   OH234212   1.765   1.766   1.091  0.0461 -0.1456  0.1631
 4218TIP3    H134213   1.792   1.677   1.068  0.3329  0.0456 -0.2580
 4218TIP3    H234214   1.755   1.810   1.006  1.3792  0.6575  0.4086
 4219TIP3   OH234215   6.115   3.659   1.743  0.1644  0.3577  0.0552
 4219TIP3    H134216   6.158   3.615   1.669 -1.9433 -1.1738 -0.3575
 4219TIP3    H234217   6.162   3.626   1.820  0.4841 -0.3496 -0.4290
 4220TIP3   OH234218   2.392   1.713   1.839 -0.4565  0.0382  0.0001
 4220TIP3    H134219   2.372   1.675   1.753 -0.5716 -0.9682  0.4531
 4220TIP3    H234220   2.306   1.739   1.874 -0.6178 -1.1410  0.5190
 4221TIP3   OH234221   1.416   2.954   7.759 -0.5115 -0.0663  0.0590
 4221TIP3    H134222   1.490   2.894   7.764 -0.7161 -0.3250  0.0011
 4221TIP3    H234223   1.360   2.929   7.833 -0.8021 -0.2188 -0.2128
 4222TIP3   OH234224   5.751   4.519   7.430 -0.1137 -0.2536 -0.0971
 4222TIP3    H134225   5.827   4.512   7.372  0.2767 -2.4242  0.5851
 4222TIP3    H234226   5.692   4.579   7.384  2.0715  1.7304 -0.5161
 4223TIP3   OH234227   3.648   2.308   1.080  0.3858 -0.3798  0.4145
 4223TIP3    H134228   3.625   2.259   1.159 -1.6297 -0.2816 -0.0693
 4223TIP3    H234229   3.692   2.386   1.113  1.4824 -1.3416  1.3108
 4224TIP3   OH234230   5.995   1.067   8.118 -0.8347 -0.6059  0.4938
 4224TIP3    H134231   5.931   1.050   8.048  0.7268 -0.7558 -0.9528
 4224TIP3    H234232   6.077   1.030   8.086  0.7091  2.1295  0.9634
 4225TIP3   OH234233   3.664   2.030   2.557  0.1448  0.3497 -0.5957
 4225TIP3    H134234   3.658   2.003   2.648 -0.0945  2.7844  0.1867
 4225TIP3    H234235   3.575   2.053   2.532  0.4039  0.9443 -1.0064
 4226TIP3   OH234236   5.416   0.385   2.326  0.0162  1.0606  0.0075
 4226TIP3    H134237   5.364   0.448   2.277  0.0508 -0.2267 -1.8040
 4226TIP3    H234238   5.353   0.317   2.351  0.4692  0.3450 -0.7157
 4227TIP3   OH234239   2.723   5.251   0.325 -0.5008  0.4281  0.4075
 4227TIP3    H134240   2.704   5.160   0.348 -0.8885  0.2888 -0.4524
 4227TIP3    H234241   2.770   5.285   0.401 -0.8048 -0.3403  0.9521
 4228TIP3   OH234242   4.483   3.792   0.766  0.1925  0.0127 -0.0102
 4228TIP3    H134243   4.552   3.738   0.727 -0.6564 -2.2837  1.4454
 4228TIP3    H234244   4.524   3.877   0.779  1.0673  0.4497 -4.0802
 4229TIP3   OH234245   3.954   0.989   7.478  0.2389 -0.2156 -0.4745
 4229TIP3    H134246   3.933   0.908   7.431 -0.3895 -0.0849 -0.4199
 4229TIP3    H234247   3.949   1.057   7.410  2.3106 -0.3886 -0.8910
 4230TIP3   OH234248   0.781   1.365   1.469 -1.1560  0.3023 -0.3550
 4230TIP3    H134249   0.733   1.283   1.482 -2.3583  1.2939  1.9528
 4230TIP3    H234250   0.736   1.408   1.396 -1.5536 -0.3501 -0.5042
 4231TIP3   OH234251   3.576   4.096   7.437  0.5551  0.1111  0.2529
 4231TIP3    H134252   3.600   4.185   7.409 -0.6794  0.5154  0.4282
 4231TIP3    H234253   3.500   4.073   7.383 -0.0380 -0.2588  1.2174
 4232TIP3   OH234254   0.093   1.066   1.344  0.0381 -0.5935 -0.2230
 4232TIP3    H134255   0.114   1.145   1.393  0.2692  0.9008 -2.5896
 4232TIP3    H234256   0.177   1.022   1.331  0.0729 -0.6167  0.0771
 4233TIP3   OH234257   1.628   6.421   1.155  0.6031  0.1695 -0.1340
 4233TIP3    H134258   1.645   6.340   1.201  0.2471 -0.0059 -0.3057
 4233TIP3    H234259   1.551   6.402   1.100  0.3742  0.6844 -0.0007
 4234TIP3   OH234260   6.166   5.829   7.686  0.2013 -0.1375 -0.5890
 4234TIP3    H134261   6.206   5.742   7.687  0.3506 -0.2359 -3.9042
 4234TIP3    H234262   6.072   5.813   7.698  0.1834 -0.8411 -1.5287
 4235TIP3   OH234263   4.167   3.799   0.499 -0.4028  0.7667 -0.7071
 4235TIP3    H134264   4.247   3.763   0.462 -0.5311  0.3558 -0.5899
 4235TIP3    H234265   4.196   3.869   0.557  0.1339 -1.4296  1.8825
 4236TIP3   OH234266   1.453   6.484   6.796 -0.7899 -0.4935 -0.5458
 4236TIP3    H134267   1.473   6.393   6.777  1.1084 -0.8751  2.5481
 4236TIP3    H234268   1.389   6.481   6.866 -0.6540  0.5523 -0.3549
 4237TIP3   OH234269   3.123   4.640   1.476  0.4329 -0.0015 -0.2449
 4237TIP3    H134270   3.063   4.567   1.461  1.0973 -0.6350  0.1092
 4237TIP3    H234271   3.208   4.608   1.446  0.9587  0.2071  0.9657
 4238TIP3   OH234272   4.267   5.853   2.376 -0.2242 -1.1581  0.1334
 4238TIP3    H134273   4.220   5.928   2.412 -0.6437 -1.0714 -0.5718
 4238TIP3    H234274   4.215   5.777   2.403  0.0410 -1.1732  0.6018
 4239TIP3   OH234275   3.322   1.483   1.601  0.6647  0.6271  0.4601
 4239TIP3    H134276   3.319   1.447   1.512  0.1531  0.5737  0.4992
 4239TIP3    H234277   3.302   1.576   1.590 -0.4837  0.4119  0.6361
 4240TIP3   OH234278   3.718   3.262   7.976 -0.3559  0.4168  0.0772
 4240TIP3    H134279   3.741   3.238   7.886 -0.4291 -1.9271  0.6337
 4240TIP3    H234280   3.623   3.273   7.975 -0.5942 -1.4157  0.2194
 4241TIP3   OH234281   4.212   3.902   7.713  0.4493 -0.2519  0.3255
 4241TIP3    H134282   4.124   3.935   7.729  0.6249 -0.0938  0.9580
 4241TIP3    H234283   4.199   3.828   7.653 -0.0829 -0.0368  0.1755
 4242TIP3   OH234284   5.986   1.694   8.155  0.2621  0.1509 -0.0320
 4242TIP3    H134285   5.993   1.702   8.060  0.1075 -0.7586 -0.1339
 4242TIP3    H234286   5.947   1.776   8.183  1.1641  0.8062 -0.6501
 4243TIP3   OH234287   2.319   1.919   2.030  0.8460 -0.1078 -0.2843
 4243TIP3    H134288   2.352   1.858   2.096  1.3393  0.8574  0.3991
 4243TIP3    H234289   2.381   1.911   1.957 -0.0762 -1.6665 -0.9461
 4244TIP3   OH234290   2.241   1.586   7.410 -0.2220 -0.4843 -0.1778
 4244TIP3    H134291   2.194   1.511   7.373  0.7136 -0.2427 -1.9884
 4244TIP3    H234292   2.191   1.662   7.382  0.7123 -0.2747 -1.3676
 4245TIP3   OH234293   6.363   6.267   0.494  0.0680  0.1296  0.0633
 4245TIP3    H134294   6.387   6.331   0.427 -0.7364 -0.4441 -0.7929
 4245TIP3    H234295   6.420   6.289   0.569  2.9417 -0.8716 -1.6606
 4246TIP3   OH234296   0.577   0.172   7.163 -0.6122 -0.1844 -0.4434
 4246TIP3    H134297   0.653   0.202   7.213  0.0136 -3.1769  0.6027
 4246TIP3    H234298   0.588   0.210   7.076  2.0003 -0.3522 -0.2510
 4247TIP3   OH234299   6.415   2.421   2.647  0.0593 -0.9526 -0.4733
 4247TIP3    H134300   6.463   2.451   2.570 -0.4542  0.0303 -0.4254
 4247TIP3    H234301   6.456   2.468   2.720 -1.1278  0.1148 -0.4633
 4248TIP3   OH234302   4.747   0.291   8.136 -0.1355  0.7882 -0.5110
 4248TIP3    H134303   4.811   0.360   8.153  1.8159 -0.7280 -1.3064
 4248TIP3    H234304   4.798   0.219   8.100 -1.9798 -1.3596  0.9093
 4249TIP3   OH234305   3.401   3.841   2.421  0.0637 -0.7646 -0.0509
 4249TIP3    H134306   3.361   3.771   2.472 -0.2006 -0.2459  0.4698
 4249TIP3    H234307   3.356   3.920   2.450 -0.0408 -0.4478 -1.0418
 4250TIP3   OH234308   2.517   6.152   0.910  0.3099 -0.0838  0.2653
 4250TIP3    H134309   2.606   6.133   0.938  0.5152 -0.4071 -0.5813
 4250TIP3    H234310   2.498   6.239   0.946  1.1009  0.1457  0.1423
 4251TIP3   OH234311   2.184   3.450   7.058 -0.0183  0.0856 -0.4724
 4251TIP3    H134312   2.101   3.496   7.070  1.2532  2.0172  1.6097
 4251TIP3    H234313   2.160   3.358   7.055 -2.3389  0.6430 -1.3172
 4252TIP3   OH234314   5.962   1.843   1.996 -0.0125  0.2619 -0.1265
 4252TIP3    H134315   5.977   1.845   1.902  1.9319 -0.2002  0.1295
 4252TIP3    H234316   5.945   1.934   2.020 -0.7866  0.3385 -0.9424
 4253TIP3   OH234317   1.380   1.092   1.636 -0.3359 -0.6339 -0.4505
 4253TIP3    H134318   1.379   1.054   1.548 -1.4366 -0.9686 -0.3157
 4253TIP3    H234319   1.473   1.099   1.659 -0.0533 -0.9557 -1.4594
 4254TIP3   OH234320   1.250   3.628   7.247 -1.0249  0.5840  0.2152
 4254TIP3    H134321   1.160   3.641   7.218 -0.5754  1.0594 -1.0149
 4254TIP3    H234322   1.260   3.686   7.322 -1.4593  1.2442 -0.2301
 4255TIP3   OH234323   4.233   6.147   1.424  0.9172 -0.9445  0.1318
 4255TIP3    H134324   4.150   6.154   1.375  1.2776  1.0836 -0.2903
 4255TIP3    H234325   4.299   6.134   1.356  1.1462 -0.6314  0.2942
 4256TIP3   OH234326   2.525   2.746   7.498  0.1556 -0.2523  0.5659
 4256TIP3    H134327   2.604   2.755   7.444 -0.8954 -1.5078 -1.3196
 4256TIP3    H234328   2.454   2.738   7.435 -1.4423  0.2990  2.2071
 4257TIP3   OH234329   5.193   2.316   1.101 -0.3891  0.1331  0.1397
 4257TIP3    H134330   5.230   2.376   1.166 -1.1232 -0.7595  1.4235
 4257TIP3    H234331   5.099   2.323   1.113 -0.5100 -2.8639  1.9196
 4258TIP3   OH234332   6.230   2.811   2.358  0.1194  0.1392 -0.2544
 4258TIP3    H134333   6.262   2.723   2.377 -0.4077  0.2447  1.2461
 4258TIP3    H234334   6.236   2.819   2.263  1.3531 -1.0533 -0.3025
 4259TIP3   OH234335   0.346   0.929   1.333 -0.8245 -0.5388  0.2978
 4259TIP3    H134336   0.339   0.854   1.393 -0.9412 -0.0969  0.8456
 4259TIP3    H234337   0.430   0.969   1.355 -0.2254 -1.1657 -0.7803
 4260TIP3   OH234338   1.117   0.836   7.729 -0.2769  0.4585  0.2779
 4260TIP3    H134339   1.207   0.867   7.729 -0.7371  1.9004 -0.0602
 4260TIP3    H234340   1.116   0.763   7.790  1.1523  0.2902  0.1296
 4261TIP3   OH234341   0.640   2.543   8.180 -0.0725  0.4076 -0.2947
 4261TIP3    H134342   0.573   2.552   8.248 -0.3332 -0.2479 -0.4589
 4261TIP3    H234343   0.609   2.601   8.110 -0.5216  0.0334 -0.4101
 4262TIP3   OH234344   2.005   1.333   3.059 -0.3562  0.0389  0.4165
 4262TIP3    H134345   2.021   1.378   2.976 -2.0196  0.8675  0.5110
 4262TIP3    H234346   2.093   1.319   3.095  0.3026  1.5684 -0.4752
 4263TIP3   OH234347   4.495   4.469   2.328 -0.2423 -0.1921 -0.5860
 4263TIP3    H134348   4.468   4.559   2.315  0.8976  0.2527 -0.0185
 4263TIP3    H234349   4.562   4.454   2.261 -0.2859 -0.5577 -0.5541
 4264TIP3   OH234350   3.448   4.893   1.066 -0.4357  0.0351 -0.6037
 4264TIP3    H134351   3.398   4.945   1.003 -0.3051  0.4335 -0.3796
 4264TIP3    H234352   3.518   4.852   1.013  0.1351  0.9722 -0.5961
 4265TIP3   OH234353   6.689   4.912   1.566 -0.1901 -0.5797 -0.3909
 4265TIP3    H134354   6.721   4.826   1.541 -1.3491 -1.1267 -0.0370
 4265TIP3    H234355   6.659   4.952   1.485  3.3894  0.9047 -1.1914
 4266TIP3   OH234356   1.659   2.039   7.573 -0.0773 -0.0574  0.3105
 4266TIP3    H134357   1.655   1.946   7.596  0.6878 -0.2100 -0.1458
 4266TIP3    H234358   1.691   2.082   7.653 -1.5523 -0.0144  0.9110
 4267TIP3   OH234359   3.073   1.831   1.391 -0.5284  0.0558 -0.0665
 4267TIP3    H134360   2.996   1.775   1.387 -0.8190  0.4635 -0.2140
 4267TIP3    H234361   3.039   1.920   1.385  0.0196  0.2117 -1.1285
 4268TIP3   OH234362   4.356   4.992   7.869  0.0636 -0.1449  0.1564
 4268TIP3    H134363   4.448   5.007   7.891  0.3386  0.7274 -1.4526
 4268TIP3    H234364   4.349   5.015   7.777 -2.4415  2.9572  0.9542
 4269TIP3   OH234365   1.132   2.856   1.856 -0.2849  0.3666 -0.0697
 4269TIP3    H134366   1.190   2.916   1.809  0.1206  0.1416  0.1326
 4269TIP3    H234367   1.162   2.861   1.947 -0.5913  0.2510  0.0382
 4270TIP3   OH234368   1.543   4.701   7.808  0.0143  0.8501  0.3366
 4270TIP3    H134369   1.516   4.651   7.731  1.4764  1.3202 -0.5077
 4270TIP3    H234370   1.469   4.761   7.824 -1.8037 -1.5019  1.4117
 4271TIP3   OH234371   0.451   3.455   7.656  0.3324 -0.7407 -0.1116
 4271TIP3    H134372   0.497   3.538   7.649  1.5104 -1.4599 -1.3712
 4271TIP3    H234373   0.380   3.461   7.592  0.9346 -1.0114 -0.8136
 4272TIP3   OH234374   4.244   6.605   7.902 -0.4799 -0.2278  0.2763
 4272TIP3    H134375   4.317   6.606   7.965 -1.1816  0.3494  1.1069
 4272TIP3    H234376   4.217   6.697   7.897 -0.3102 -0.2393 -1.0323
 4273TIP3   OH234377   2.627   6.512   0.663 -0.2094  0.3475  0.4031
 4273TIP3    H134378   2.596   6.428   0.630 -0.8742  0.8300 -0.2343
 4273TIP3    H234379   2.608   6.574   0.593 -0.1425  1.1112  1.0442
 4274TIP3   OH234380   3.063   1.817   2.063 -0.7851 -0.2337  0.2835
 4274TIP3    H134381   2.973   1.829   2.033 -0.2457 -0.3262 -1.4687
 4274TIP3    H234382   3.060   1.837   2.156 -2.6098 -0.2051  0.2544
 4275TIP3   OH234383   0.946   2.842   7.622 -0.3651  0.9138  0.2788
 4275TIP3    H134384   0.882   2.857   7.552 -0.7378 -0.4914  0.2812
 4275TIP3    H234385   0.922   2.904   7.691 -1.3306  0.8414  0.0209
 4276TIP3   OH234386   3.573   3.604   2.204 -0.0994  0.5803 -0.5961
 4276TIP3    H134387   3.477   3.601   2.193  0.0518 -0.0804 -1.9224
 4276TIP3    H234388   3.607   3.554   2.130  1.2033 -2.1796  1.7274
 4277TIP3   OH234389   3.476   6.705   1.978  0.3128  0.2175  0.4122
 4277TIP3    H134390   3.426   6.784   1.993  0.0361  0.0199  0.5437
 4277TIP3    H234391   3.416   6.634   2.000  0.2994 -0.0506 -0.4447
 4278TIP3   OH234392   5.733   4.442   8.222  0.7991  0.2692 -0.2877
 4278TIP3    H134393   5.684   4.524   8.230  0.2368 -0.1542  0.7665
 4278TIP3    H234394   5.667   4.375   8.206  1.3136  0.0800 -1.7835
 4279TIP3   OH234395   2.181   6.540   7.420  0.2378 -0.1467 -0.3401
 4279TIP3    H134396   2.277   6.549   7.417  0.4412 -1.3049  1.4583
 4279TIP3    H234397   2.150   6.624   7.453  0.8567 -0.5813  1.4231
 4280TIP3   OH234398   4.931   5.957   1.845 -0.3574 -0.1765  0.4588
 4280TIP3    H134399   4.904   6.010   1.921 -1.0007  0.0496  0.0736
 4280TIP3    H234400   4.880   5.991   1.772  0.6338 -0.0447 -0.1960
 4281TIP3   OH234401   0.473   0.979   8.215  0.0157 -0.4299  0.0072
 4281TIP3    H134402   0.393   0.927   8.223  0.4812 -1.0016  1.1525
 4281TIP3    H234403   0.464   1.025   8.131 -3.3520  2.6548  1.7679
 4282TIP3   OH234404   0.212   3.097   1.926  0.3044  0.7816  0.2965
 4282TIP3    H134405   0.203   3.176   1.872 -0.2231  0.8550  0.4903
 4282TIP3    H234406   0.136   3.098   1.984 -0.5457 -0.6336 -0.6995
 4283TIP3   OH234407   3.526   2.595   0.386  0.3537 -0.2760  0.2850
 4283TIP3    H134408   3.478   2.548   0.454 -1.1997 -0.7160 -1.0694
 4283TIP3    H234409   3.569   2.668   0.432  1.2053 -1.8389  2.0841
 4284TIP3   OH234410   3.042   6.261   1.453 -0.4179  0.8083 -0.5389
 4284TIP3    H134411   3.054   6.354   1.470  0.1756  0.6778 -0.2149
 4284TIP3    H234412   2.956   6.255   1.411 -1.0766  1.3363  0.7058
 4285TIP3   OH234413   2.157   6.264   0.594  0.2483 -0.3824  0.6951
 4285TIP3    H134414   2.240   6.227   0.627  1.3226  1.7276  0.5658
 4285TIP3    H234415   2.111   6.292   0.673  0.3649 -0.2138  0.7063
 4286TIP3   OH234416   4.629   3.672   6.701 -0.4845  0.4710  0.1734
 4286TIP3    H134417   4.575   3.663   6.623  0.7323  0.0072 -0.6534
 4286TIP3    H234418   4.719   3.674   6.668  0.0795  0.0156  1.5757
 4287TIP3   OH234419   2.864   1.013   7.183 -0.3572 -0.6971  0.3014
 4287TIP3    H134420   2.959   1.019   7.182 -0.4003 -0.0713 -0.2474
 4287TIP3    H234421   2.834   1.100   7.158 -1.0780 -0.8532  0.5992
 4288TIP3   OH234422   4.148   1.928   8.407  0.0726  0.2983 -0.1653
 4288TIP3    H134423   4.176   1.921   8.498  0.4732  2.5093 -0.0445
 4288TIP3    H234424   4.063   1.885   8.404  0.0263  0.2568  1.2873
 4289TIP3   OH234425   6.107   2.332   7.245  0.4659 -0.0499  0.0652
 4289TIP3    H134426   6.050   2.383   7.187  0.9079  0.4497  0.0629
 4289TIP3    H234427   6.172   2.293   7.186 -0.8479 -2.0195 -0.1653
 4290TIP3   OH234428   1.257   2.193   3.099 -0.5280 -0.5736  0.2882
 4290TIP3    H134429   1.310   2.156   3.029 -2.1967 -1.9855 -0.3090
 4290TIP3    H234430   1.177   2.140   3.099 -0.7551 -0.3779  2.9988
 4291TIP3   OH234431   6.626   1.572   0.859  0.1994  0.4284 -0.1398
 4291TIP3    H134432   6.718   1.590   0.878  0.6762 -0.6119 -1.2889
 4291TIP3    H234433   6.578   1.614   0.930  1.2623  4.2851 -1.4116
 4292TIP3   OH234434   1.814   3.022   1.825  0.1697 -0.5751  0.1785
 4292TIP3    H134435   1.853   3.105   1.851  0.8137 -0.5970 -0.6756
 4292TIP3    H234436   1.850   2.958   1.886  0.1406 -0.3257  0.4578
 4293TIP3   OH234437   3.120   6.261   1.105 -0.0308  0.4489  0.2293
 4293TIP3    H134438   3.136   6.179   1.059  0.0590 -0.0190  1.0785
 4293TIP3    H234439   3.205   6.285   1.142  0.0260  1.1198 -0.3101
 4294TIP3   OH234440   2.663   0.966   8.286  0.0347 -0.3820 -0.2480
 4294TIP3    H134441   2.747   0.924   8.305 -0.7010 -1.9607 -0.3418
 4294TIP3    H234442   2.633   0.924   8.205 -1.5874 -1.0099  0.6404
 4295TIP3   OH234443   1.126   2.910   0.720 -0.5176 -0.2518 -0.4511
 4295TIP3    H134444   1.068   2.917   0.645 -2.3610 -0.0588  0.9246
 4295TIP3    H234445   1.092   2.837   0.771 -0.0371  0.3398  0.7845
 4296TIP3   OH234446   3.540   3.568   0.422 -0.0099 -0.2221 -0.2461
 4296TIP3    H134447   3.451   3.537   0.403 -0.4085  0.4959  0.3724
 4296TIP3    H234448   3.586   3.491   0.456 -0.8664 -0.2589  0.9060
 4297TIP3   OH234449   5.122   2.875   2.652 -0.1814 -0.5028  0.2127
 4297TIP3    H134450   5.192   2.886   2.715  0.9722 -2.0282 -0.7187
 4297TIP3    H234451   5.041   2.885   2.703  0.7044 -1.1754  1.8166
 4298TIP3   OH234452   4.718   5.446   8.448 -0.4046 -0.3513 -0.2521
 4298TIP3    H134453   4.793   5.397   8.415  0.0511  1.7132 -2.5672
 4298TIP3    H234454   4.664   5.463   8.370 -1.3744  1.3601  0.7157
 4299TIP3   OH234455   1.928   0.442   8.325 -0.4194 -0.5340  0.6504
 4299TIP3    H134456   1.946   0.483   8.410  0.4954 -0.1572  0.2914
 4299TIP3    H234457   1.857   0.381   8.343  0.2161 -0.9654  1.8485
 4300TIP3   OH234458   5.375   1.267   7.632  0.4219  0.1245  0.2620
 4300TIP3    H134459   5.335   1.322   7.700  0.1674 -0.3303  0.4827
 4300TIP3    H234460   5.335   1.181   7.644 -0.1154  0.1957 -0.8891
 4301TIP3   OH234461   2.728   6.261   1.262  0.2406  1.1587 -0.5999
 4301TIP3    H134462   2.754   6.185   1.210  0.5354  0.6451  0.2774
 4301TIP3    H234463   2.633   6.268   1.249  0.3091  1.0392 -1.1967
 4302TIP3   OH234464   0.042   2.101   0.725 -0.2591  0.4543 -0.7064
 4302TIP3    H134465   0.136   2.083   0.737 -0.3256 -1.9491 -2.8910
 4302TIP3    H234466   0.039   2.190   0.692  1.2708  0.5380 -0.7142
 4303TIP3   OH234467   1.133   4.098   8.122  0.6522  1.1766  0.1027
 4303TIP3    H134468   1.158   4.183   8.160  1.8632  1.1120 -0.4984
 4303TIP3    H234469   1.167   4.101   8.033  0.4518  0.1721 -0.0148
 4304TIP3   OH234470   4.119   5.515   7.729  0.0646  0.1906  0.3685
 4304TIP3    H134471   4.069   5.522   7.647 -1.0210 -2.4561  0.6833
 4304TIP3    H234472   4.074   5.573   7.790 -2.0882 -1.3232  0.3323
 4305TIP3   OH234473   2.713   2.341   7.775  0.5322 -0.1136 -0.4701
 4305TIP3    H134474   2.641   2.403   7.780 -0.2344 -1.0343  0.5356
 4305TIP3    H234475   2.784   2.389   7.733 -0.4541  1.0160 -0.8882
 4306TIP3   OH234476   1.631   3.066   1.071 -0.2539 -0.1790 -0.5610
 4306TIP3    H134477   1.671   3.125   1.007 -1.0201  0.7489 -0.2020
 4306TIP3    H234478   1.639   3.112   1.154 -0.6903 -0.6703 -0.2454
 4307TIP3   OH234479   3.559   5.804   1.013  0.0383 -0.1452  0.2996
 4307TIP3    H134480   3.562   5.898   0.995  2.2341 -0.1103  0.5880
 4307TIP3    H234481   3.538   5.799   1.107 -1.6809 -0.0475 -0.0333
 4308TIP3   OH234482   5.945   4.229   0.596  0.2725  0.3572  0.3087
 4308TIP3    H134483   5.952   4.184   0.511  0.5302  0.7446  0.1231
 4308TIP3    H234484   5.864   4.195   0.634 -0.0312  0.4461 -0.2480
 4309TIP3   OH234485   0.096   1.216   8.611 -0.0447  0.1520 -0.2271
 4309TIP3    H134486   0.164   1.180   8.554 -1.9696 -0.3510 -2.3464
 4309TIP3    H234487   0.109   1.311   8.607 -0.3550  0.1480 -1.8416
 4310TIP3   OH234488   1.093   3.517   1.178 -0.6118 -0.3393  1.0039
 4310TIP3    H134489   1.020   3.457   1.198  0.3294 -1.1591  2.1236
 4310TIP3    H234490   1.127   3.486   1.094 -1.2940 -0.1800  0.6537
 4311TIP3   OH234491   1.716   2.842   8.498  0.4952 -0.2218 -0.2881
 4311TIP3    H134492   1.800   2.839   8.543  0.2976 -0.0138  0.1024
 4311TIP3    H234493   1.679   2.754   8.511 -0.6771  0.5276  2.1607
 4312TIP3   OH234494   0.218   0.860   8.222 -0.1377  0.8837 -0.2631
 4312TIP3    H134495   0.153   0.827   8.284 -0.2430 -1.7107 -1.6080
 4312TIP3    H234496   0.168   0.885   8.144  0.3777 -1.2903 -1.3725
 4313TIP3   OH234497   5.523   2.524   0.461  0.5383  0.7538 -0.6961
 4313TIP3    H134498   5.526   2.476   0.544 -2.1798 -0.4005 -1.1845
 4313TIP3    H234499   5.534   2.616   0.486  2.4603  0.2228  0.6087
 4314TIP3   OH234500   2.621   4.936   1.793  0.1323 -0.0418 -0.7052
 4314TIP3    H134501   2.626   4.972   1.881 -0.9599 -1.3416 -0.0891
 4314TIP3    H234502   2.689   4.982   1.744  0.1874  1.3034  0.5888
 4315TIP3   OH234503   2.794   5.643   8.786 -0.3701  0.4261  0.0131
 4315TIP3    H134504   2.832   5.560   8.757 -0.8920  0.9339 -2.4399
 4315TIP3    H234505   2.716   5.617   8.835  0.4003 -0.5403  0.7682
 4316TIP3   OH234506   0.563   2.223   8.143 -0.0234  0.1368  0.0933
 4316TIP3    H134507   0.507   2.154   8.107 -0.5395 -0.1551  1.3787
 4316TIP3    H234508   0.596   2.270   8.067 -2.5820  0.7531 -0.7344
 4317TIP3   OH234509   5.326   3.671   8.195 -0.3710 -0.0576 -0.3335
 4317TIP3    H134510   5.298   3.714   8.114  2.3185  0.6729 -0.9689
 4317TIP3    H234511   5.260   3.603   8.210 -0.8418 -0.3769 -3.2718
 4318TIP3   OH234512   6.187   1.040   2.412  0.1072  0.0639  0.0149
 4318TIP3    H134513   6.205   1.127   2.447 -2.6361  0.0791  1.6515
 4318TIP3    H234514   6.179   0.984   2.490 -2.1017 -0.7786 -0.7494
 4319TIP3   OH234515   3.876   2.783   8.760 -0.4908  0.3884  0.5932
 4319TIP3    H134516   3.911   2.861   8.805  0.9517 -0.0305  0.2506
 4319TIP3    H234517   3.908   2.710   8.813 -1.2528 -0.0026  0.5150
 4320TIP3   OH234518   6.746   3.761   2.260  0.3819  0.6832 -0.0278
 4320TIP3    H134519   6.789   3.846   2.270  0.0276  0.8503  0.0727
 4320TIP3    H234520   6.775   3.730   2.174  0.4703  0.9259 -0.0870
 4321TIP3   OH234521   2.439   5.451   6.916  1.3416  0.4012 -0.4244
 4321TIP3    H134522   2.416   5.394   6.990 -2.0748 -2.1478 -3.1510
 4321TIP3    H234523   2.494   5.397   6.860 -0.9011  0.0533 -2.4416
 4322TIP3   OH234524   5.080   1.424   7.341 -0.0959 -0.0119  0.1899
 4322TIP3    H134525   5.031   1.504   7.324 -0.4297  0.1603  1.7809
 4322TIP3    H234526   5.159   1.432   7.287 -1.0705  0.4317 -1.1954
 4323TIP3   OH234527   4.862   3.218   8.338  0.0975  0.9376  0.2125
 4323TIP3    H134528   4.805   3.181   8.272  3.1619 -4.7218  0.0710
 4323TIP3    H234529   4.817   3.202   8.421 -0.1199 -0.0627 -0.0886
 4324TIP3   OH234530   0.772   2.414   6.946  0.0819 -0.4744  0.2539
 4324TIP3    H134531   0.772   2.329   6.991  0.8602 -0.8332 -0.4008
 4324TIP3    H234532   0.817   2.473   7.007 -1.4276 -0.2274  1.2027
 4325TIP3   OH234533   6.370   4.925   8.155  0.2690  0.6326 -0.3063
 4325TIP3    H134534   6.301   4.939   8.219  1.5113 -2.5959  1.9775
 4325TIP3    H234535   6.327   4.882   8.081 -0.4089  0.0508  0.4183
 4326TIP3   OH234536   0.953   3.066   7.781  0.0333 -0.1264 -0.0606
 4326TIP3    H134537   0.864   3.068   7.816 -0.8943  2.1082 -2.1718
 4326TIP3    H234538   1.006   3.113   7.846 -0.5164 -0.6352  0.7676
 4327TIP3   OH234539   2.367   3.363   2.395 -0.6637 -0.0817 -0.6788
 4327TIP3    H134540   2.421   3.336   2.469 -1.1624  1.5805  0.3438
 4327TIP3    H234541   2.417   3.431   2.351 -0.5075 -0.8398 -1.7246
 4328TIP3   OH234542   3.732   2.392   0.033  0.6131 -0.3006  0.2031
 4328TIP3    H134543   3.671   2.357   0.098  1.0855  0.7916  1.2785
 4328TIP3    H234544   3.737   2.486   0.053  1.1716 -0.0370 -1.0862
 4329TIP3   OH234545   1.038   2.738   2.369  0.0041 -0.0636 -0.1008
 4329TIP3    H134546   0.951   2.776   2.381  0.3653  1.5572 -2.0990
 4329TIP3    H234547   1.025   2.644   2.383 -2.1521  0.0944 -0.7269
 4330TIP3   OH234548   0.964   4.170   6.688  0.2643  0.9172  0.0142
 4330TIP3    H134549   0.969   4.264   6.705 -0.5043  1.0495 -0.4357
 4330TIP3    H234550   0.955   4.130   6.775  0.4015  1.2672  0.1904
 4331TIP3   OH234551   5.893   2.823   1.394 -0.2517  0.0571  0.1037
 4331TIP3    H134552   5.842   2.749   1.361 -1.0783  0.3870  0.6228
 4331TIP3    H234553   5.836   2.899   1.385 -0.3788  0.2301  1.8883
 4332TIP3   OH234554   6.510   2.149   1.650 -0.7157  1.0837 -0.3500
 4332TIP3    H134555   6.481   2.106   1.730 -0.2149 -1.0330 -1.2311
 4332TIP3    H234556   6.591   2.193   1.674 -0.7286  0.7217  0.3914
 4333TIP3   OH234557   4.815   0.726   1.175  0.0802 -0.0239 -0.4213
 4333TIP3    H134558   4.909   0.712   1.182  0.3444  0.5864 -2.2119
 4333TIP3    H234559   4.802   0.817   1.203 -0.1673 -0.4460  0.9230
 4334TIP3   OH234560   4.508   1.699   7.709  0.8531 -0.2514 -0.3317
 4334TIP3    H134561   4.590   1.659   7.738  0.6945 -1.1435 -1.0680
 4334TIP3    H234562   4.499   1.777   7.764  0.5698 -1.8310  1.9935
 4335TIP3   OH234563   3.963   5.979   0.023  0.2506  0.9304  0.5327
 4335TIP3    H134564   3.946   5.932  -0.058  0.5252 -1.1427  1.6143
 4335TIP3    H234565   3.878   6.018   0.046 -0.1136  0.5628 -0.1633
 4336TIP3   OH234566   4.942   5.219   8.661  0.5505  0.4433  0.0935
 4336TIP3    H134567   4.981   5.153   8.719 -0.1976  0.3225  0.4786
 4336TIP3    H234568   4.934   5.175   8.577 -1.0438 -0.3983  0.6429
 4337TIP3   OH234569   3.140   1.386   0.068  0.6168 -0.6043 -0.0090
 4337TIP3    H134570   3.193   1.466   0.079 -0.7239  0.2905  0.1514
 4337TIP3    H234571   3.073   1.393   0.136  0.4656 -1.8816 -0.0069
 4338TIP3   OH234572   5.482   4.531   0.370 -0.6164  0.1539 -0.0347
 4338TIP3    H134573   5.568   4.505   0.403  0.2186 -0.9399 -2.7327
 4338TIP3    H234574   5.422   4.466   0.407  0.0162 -0.1219  0.5337
 4339TIP3   OH234575   0.101   2.541   8.013  0.0012  0.1367  0.3492
 4339TIP3    H134576   0.032   2.510   7.954 -1.5214  3.1200  0.3565
 4339TIP3    H234577   0.112   2.471   8.077 -2.6085 -0.7111 -0.0229
 4340TIP3   OH234578   3.885   0.362   8.650 -0.3151  0.1320 -0.1253
 4340TIP3    H134579   3.965   0.379   8.700 -0.9467 -0.1843  1.0115
 4340TIP3    H234580   3.833   0.442   8.659 -0.7215 -0.1752  0.2836
 4341TIP3   OH234581   5.223   1.061   1.563  0.3121 -0.0966  0.2192
 4341TIP3    H134582   5.192   1.128   1.624 -0.0693 -0.8791  0.9107
 4341TIP3    H234583   5.213   1.100   1.477 -0.2875  0.5850  0.5871
 4342TIP3   OH234584   6.814   0.082   2.227 -0.1829 -0.0196 -0.6238
 4342TIP3    H134585   6.815   0.099   2.321  2.8873  0.2831 -0.5993
 4342TIP3    H234586   6.748   0.142   2.192 -1.0625  0.1895  1.2400
 4343TIP3   OH234587   2.289   0.894   1.001  0.6010 -0.8983  0.0111
 4343TIP3    H134588   2.281   0.799   0.997  0.2715 -0.8875  0.3211
 4343TIP3    H234589   2.381   0.912   0.983  1.0760 -1.3842  1.7611
 4344TIP3   OH234590   4.120   3.332   7.531  0.4675  0.4437  0.5004
 4344TIP3    H134591   4.169   3.401   7.486  0.5254 -1.0404 -1.9082
 4344TIP3    H234592   4.047   3.313   7.473 -0.5851 -0.2814  1.9999
 4345TIP3   OH234593   6.307   5.836   1.278  0.1161 -0.5739 -0.2239
 4345TIP3    H134594   6.380   5.897   1.291 -0.3875 -0.3641  2.1434
 4345TIP3    H234595   6.345   5.762   1.232  1.2338  0.5903 -1.2394
 4346TIP3   OH234596   5.431   6.103   0.734 -0.2371  0.1353 -0.1775
 4346TIP3    H134597   5.490   6.075   0.804 -0.4417 -1.3696 -0.5733
 4346TIP3    H234598   5.447   6.197   0.725  0.0796  0.2855  1.6039
 4347TIP3   OH234599   6.499   0.388   2.300 -0.4835 -0.5917 -0.4848
 4347TIP3    H134600   6.413   0.365   2.333 -0.5421 -0.8335 -0.8012
 4347TIP3    H234601   6.497   0.365   2.207 -0.0249 -0.7587 -0.4590
 4348TIP3   OH234602   5.433   5.349   0.529  0.2360  0.0178 -0.4575
 4348TIP3    H134603   5.416   5.349   0.435 -0.2205 -2.5761 -0.4613
 4348TIP3    H234604   5.363   5.295   0.566 -0.4301  2.1010  1.5988
 4349TIP3   OH234605   0.783   6.084   0.492 -0.6439  0.2445  0.2211
 4349TIP3    H134606   0.808   5.996   0.519 -0.9159  0.4040  1.0257
 4349TIP3    H234607   0.749   6.125   0.572 -2.2996  0.4487 -0.5390
 4350TIP3   OH234608   5.409   2.922   1.693 -0.0104 -0.0394  0.2866
 4350TIP3    H134609   5.344   2.918   1.763 -0.1413 -2.1256  0.1229
 4350TIP3    H234610   5.493   2.912   1.737  0.2044  1.9376  0.4230
 4351TIP3   OH234611   3.670   5.950   2.546 -0.4611 -0.0146 -0.1660
 4351TIP3    H134612   3.713   5.910   2.622 -1.8678 -0.2617  0.5297
 4351TIP3    H234613   3.731   6.018   2.517 -0.0428  0.3183  1.4053
 4352TIP3   OH234614   2.421   1.007   0.258 -0.5368  0.2100 -1.0892
 4352TIP3    H134615   2.516   1.002   0.247 -0.6942 -1.1984 -2.1313
 4352TIP3    H234616   2.386   0.987   0.171 -1.8029  0.4387 -0.6560
 4353TIP3   OH234617   3.724   6.656   1.594 -0.4476 -0.0349  0.4455
 4353TIP3    H134618   3.694   6.678   1.505 -1.2876 -0.4484  0.6260
 4353TIP3    H234619   3.796   6.594   1.580 -1.5078 -1.2314  0.0654
 4354TIP3   OH234620   4.252   1.139   1.916  0.5807  0.1956 -0.0093
 4354TIP3    H134621   4.220   1.216   1.963  2.5178 -0.2035  2.1236
 4354TIP3    H234622   4.344   1.132   1.941  0.8762 -1.8905 -1.4394
 4355TIP3   OH234623   2.138   2.138   3.017  0.1549 -0.3779 -0.5122
 4355TIP3    H134624   2.205   2.182   2.964 -0.9308  1.5079 -0.3891
 4355TIP3    H234625   2.087   2.088   2.954 -0.2089  0.6578 -1.0592
 4356TIP3   OH234626   5.051   6.815   1.237 -0.8759  0.4375 -0.2513
 4356TIP3    H134627   4.967   6.777   1.212 -0.3959 -1.8835  1.3054
 4356TIP3    H234628   5.110   6.792   1.165 -1.5319  2.2446 -1.4445
 4357TIP3   OH234629   4.141   0.322   0.254 -0.4231  0.4169 -0.2158
 4357TIP3    H134630   4.177   0.237   0.281  0.6773  0.7997 -0.4402
 4357TIP3    H234631   4.152   0.378   0.331 -2.0906  0.1155  0.2944
 4358TIP3   OH234632   0.411   2.087   7.947 -0.0375  0.4538 -0.1847
 4358TIP3    H134633   0.483   2.111   7.890  0.3752  0.7237  0.4315
 4358TIP3    H234634   0.401   1.993   7.936  0.7439  0.3327  0.0944
 4359TIP3   OH234635   2.826   2.358   8.782  0.0150 -0.4932  0.1278
 4359TIP3    H134636   2.903   2.314   8.817  0.5078  0.9871  0.9645
 4359TIP3    H234637   2.752   2.309   8.818  0.5133  0.5028  2.7153
 4360TIP3   OH234638   2.092   3.599   0.444 -0.5638  0.2204  0.4838
 4360TIP3    H134639   2.110   3.506   0.455 -2.2921 -0.1649  0.2512
 4360TIP3    H234640   2.028   3.620   0.512 -1.2742  0.8965 -0.3707
 4361TIP3   OH234641   1.486   3.050   2.151 -0.5700 -0.6255 -0.1605
 4361TIP3    H134642   1.462   3.106   2.225  0.0287  1.2204 -1.3068
 4361TIP3    H234643   1.573   3.079   2.126 -0.7789 -1.1617 -1.6225
 4362TIP3   OH234644   5.264   2.616   7.195  0.3449  0.1598  0.2893
 4362TIP3    H134645   5.170   2.623   7.212  0.2910 -0.1091  0.0991
 4362TIP3    H234646   5.273   2.539   7.140  0.8822 -0.9969  1.9059
 4363TIP3   OH234647   4.912   0.186   7.958  0.2452 -0.1759 -0.1104
 4363TIP3    H134648   4.881   0.174   7.869  1.5296  0.6474 -0.6988
 4363TIP3    H234649   4.958   0.104   7.979  1.0500  0.1104 -0.6975
 4364TIP3   OH234650   2.147   4.636   7.598  0.2445  0.3200  0.0741
 4364TIP3    H134651   2.170   4.544   7.584  1.2638  0.3462  1.4133
 4364TIP3    H234652   2.224   4.685   7.570  1.2878  0.5055  2.9425
 4365TIP3   OH234653   1.311   0.729   1.994 -0.2650 -0.4633  0.2354
 4365TIP3    H134654   1.269   0.697   1.915 -0.6702 -0.0433  0.2684
 4365TIP3    H234655   1.304   0.657   2.056 -0.5314 -0.5640  0.0912
 4366TIP3   OH234656   0.411   3.289   1.205  0.2432  0.2682 -0.7631
 4366TIP3    H134657   0.396   3.371   1.158  0.8566 -0.2294 -1.8924
 4366TIP3    H234658   0.484   3.248   1.157  0.8544 -0.3000  0.6167
 4367TIP3   OH234659   0.888   2.134   7.867 -0.1503  0.2642 -0.1027
 4367TIP3    H134660   0.803   2.146   7.826  0.1561  0.8244 -0.5829
 4367TIP3    H234661   0.905   2.216   7.913  0.5872  0.5555 -0.8687
 4368TIP3   OH234662   6.321   4.799   7.919  0.0232  0.5016  0.0880
 4368TIP3    H134663   6.233   4.765   7.903  0.0594  0.5053 -0.1279
 4368TIP3    H234664   6.328   4.875   7.862 -0.1208  0.9796  0.7062
 4369TIP3   OH234665   6.255   5.413   0.728  0.3002 -0.4352  0.1481
 4369TIP3    H134666   6.181   5.397   0.787  0.2034 -0.3720  0.0458
 4369TIP3    H234667   6.327   5.440   0.785  0.0460  0.1833  0.1815
 4370TIP3   OH234668   4.378   1.366   0.052  0.3126 -0.1920 -0.2583
 4370TIP3    H134669   4.373   1.379   0.147  1.1024 -2.6609  0.1829
 4370TIP3    H234670   4.423   1.444   0.020 -0.4905  0.9753  1.2907
 4371TIP3   OH234671   3.578   4.601   0.506  0.3877 -0.0027 -0.0128
 4371TIP3    H134672   3.534   4.582   0.589  2.5935  1.4240  1.6041
 4371TIP3    H234673   3.549   4.532   0.447 -0.6963 -1.5274  2.1753
 4372TIP3   OH234674   2.797   2.369   1.843 -0.1616  0.0318  0.2106
 4372TIP3    H134675   2.827   2.281   1.865 -3.7288 -1.9785 -1.9566
 4372TIP3    H234676   2.765   2.406   1.925  1.7396 -0.4602  1.2146
 4373TIP3   OH234677   2.834   6.761   8.241  0.3040  0.3563  0.8073
 4373TIP3    H134678   2.790   6.828   8.188  2.2739 -0.5972 -2.2891
 4373TIP3    H234679   2.925   6.765   8.214  1.1378 -1.3345  3.0646
 4374TIP3   OH234680   1.426   5.442   0.854  0.3704  0.3804  0.1487
 4374TIP3    H134681   1.402   5.354   0.883  1.3814  0.1688  0.3805
 4374TIP3    H234682   1.407   5.499   0.929  0.0066  0.3178  0.1050
 4375TIP3   OH234683   4.467   1.715   0.345  0.1654 -0.2965  0.2918
 4375TIP3    H134684   4.390   1.683   0.393 -0.5114  0.8226 -0.0229
 4375TIP3    H234685   4.432   1.739   0.259  0.9590 -0.1809  0.0015
 4376TIP3   OH234686   6.390   0.468   0.633  0.0381 -0.8284 -0.6800
 4376TIP3    H134687   6.309   0.509   0.600 -0.7007 -1.4668  0.2714
 4376TIP3    H234688   6.448   0.466   0.557 -0.4143  0.6846 -1.1035
 4377TIP3   OH234689   4.503   1.430   7.987  0.4251  0.3644 -0.4459
 4377TIP3    H134690   4.559   1.459   7.916 -2.0401  0.7241 -2.3885
 4377TIP3    H234691   4.449   1.506   8.007 -0.4639 -0.4208  0.2211
 4378TIP3   OH234692   6.024   5.510   0.625  0.4186 -0.2910  0.2604
 4378TIP3    H134693   6.036   5.563   0.547 -1.4795  0.4433  0.4053
 4378TIP3    H234694   6.113   5.487   0.653  1.1274 -0.7587 -2.2011
 4379TIP3   OH234695   5.203   2.996   7.460  0.2362 -0.3135  0.0588
 4379TIP3    H134696   5.263   2.940   7.412  0.3672 -0.3396  0.2533
 4379TIP3    H234697   5.120   2.990   7.411  0.3562 -0.3706 -0.1396
 4380TIP3   OH234698   4.913   1.047   1.189 -0.0045 -0.2336  0.2763
 4380TIP3    H134699   4.915   1.127   1.137  0.8987  0.7961  1.8210
 4380TIP3    H234700   4.994   1.001   1.164  1.1312  0.9023  1.6454
 4381TIP3   OH234701   2.045   1.712   8.140 -0.3035 -0.0996 -0.0106
 4381TIP3    H134702   2.138   1.693   8.150 -0.2564 -0.5648 -1.1791
 4381TIP3    H234703   2.008   1.633   8.100 -0.7832  0.8581 -1.5832
 4382TIP3   OH234704   3.819   2.414   2.236 -0.5632 -0.0950  0.1777
 4382TIP3    H134705   3.793   2.329   2.272 -0.8807 -0.3096 -0.5510
 4382TIP3    H234706   3.744   2.442   2.183 -0.3278  0.4835  0.1454
 4383TIP3   OH234707   6.121   3.964   7.844 -0.2912  0.3731  0.2036
 4383TIP3    H134708   6.193   3.901   7.841 -1.6924 -1.2869  0.1270
 4383TIP3    H234709   6.136   4.020   7.767  1.3084  0.5693  0.6082
 4384TIP3   OH234710   0.415   0.118   8.085 -0.2375 -0.6406  0.1173
 4384TIP3    H134711   0.502   0.080   8.073 -0.1069 -1.2443  2.4532
 4384TIP3    H234712   0.419   0.203   8.041  1.0767 -1.2330 -0.9573
 4385TIP3   OH234713   0.668   1.457   1.225  0.0844 -0.3940  0.1107
 4385TIP3    H134714   0.606   1.523   1.255  1.1128  0.3622  0.6615
 4385TIP3    H234715   0.704   1.493   1.144 -0.3268 -0.9107 -0.3019
 4386TIP3   OH234716   4.823   5.772   8.696 -0.2623  0.7477 -0.0358
 4386TIP3    H134717   4.741   5.805   8.660  0.0810  1.3330 -0.3014
 4386TIP3    H234718   4.888   5.792   8.629  0.0874  0.2121  0.1352
 4387TIP3   OH234719   1.812   4.007   8.416 -0.1935 -0.5269 -0.5329
 4387TIP3    H134720   1.744   3.950   8.451 -0.3727  0.1116  0.2115
 4387TIP3    H234721   1.832   4.067   8.489 -0.8889  1.1372 -1.6394
 4388TIP3   OH234722   6.802   1.887   2.625  0.1966 -0.3220 -0.0001
 4388TIP3    H134723   6.844   1.899   2.710  0.6708 -0.9565 -0.1356
 4388TIP3    H234724   6.755   1.969   2.610 -0.4692 -0.4627  1.1874
 4389TIP3   OH234725   5.843   0.829   0.384  0.3462  0.1284 -0.8823
 4389TIP3    H134726   5.881   0.741   0.373  2.4897  0.7693  0.6355
 4389TIP3    H234727   5.914   0.881   0.422 -1.5596  1.9550  0.3968
 4390TIP3   OH234728   3.247   1.962   8.408 -0.0185  0.1430 -0.3061
 4390TIP3    H134729   3.273   1.888   8.463  0.5874 -0.1354 -0.9584
 4390TIP3    H234730   3.329   1.996   8.373 -0.3436  0.7457 -0.5034
 4391TIP3   OH234731   4.986   4.371   8.480 -0.0837  0.0359 -0.3438
 4391TIP3    H134732   5.048   4.303   8.506  0.1625  0.3886  0.0073
 4391TIP3    H234733   4.913   4.323   8.441 -0.3016 -0.4963  0.6696
 4392TIP3   OH234734   3.634   4.069   1.574 -0.0588 -0.4120  1.0901
 4392TIP3    H134735   3.638   3.993   1.516 -0.4724 -1.4660  2.3918
 4392TIP3    H234736   3.599   4.140   1.519  0.3645 -1.1439 -0.1514
 4393TIP3   OH234737   2.728   2.381   1.213  0.3087  0.0940 -0.2888
 4393TIP3    H134738   2.766   2.418   1.133  0.5363  0.0506 -0.1997
 4393TIP3    H234739   2.642   2.349   1.185 -0.3536  1.6590 -0.1437
 4394TIP3   OH234740   1.673   6.439   8.755 -0.2348 -0.0213  0.5108
 4394TIP3    H134741   1.637   6.417   8.670  0.2637 -0.3699  0.3842
 4394TIP3    H234742   1.767   6.422   8.747  0.1715  1.9263  0.4767
 4395TIP3   OH234743   1.307   6.609   1.758  0.3834  0.4757 -0.6494
 4395TIP3    H134744   1.316   6.643   1.847  0.5457  2.4130 -1.3689
 4395TIP3    H234745   1.260   6.526   1.769 -1.7212  1.7948  1.0757
 4396TIP3   OH234746   1.401   2.088   1.623  0.0054 -0.2064  0.1012
 4396TIP3    H134747   1.479   2.121   1.668 -1.0086  0.7868  1.2404
 4396TIP3    H234748   1.427   2.079   1.532  1.0074  1.6880  0.1461
 4397TIP3   OH234749   3.827   4.172   8.356  0.2824 -0.0153 -0.2187
 4397TIP3    H134750   3.915   4.204   8.334  0.2365 -0.2214 -0.6981
 4397TIP3    H234751   3.834   4.077   8.351 -0.5197 -0.0082 -2.4741
 4398TIP3   OH234752   4.154   1.953   1.079 -0.1139 -0.2747 -0.7545
 4398TIP3    H134753   4.121   1.951   0.989 -1.4630  0.7794 -0.3241
 4398TIP3    H234754   4.125   1.870   1.117  1.1994 -1.1134 -1.4962
 4399TIP3   OH234755   0.161   1.923   1.698 -0.4163  0.0483 -0.5803
 4399TIP3    H134756   0.098   1.900   1.766  0.2043  1.0065  0.3340
 4399TIP3    H234757   0.189   2.011   1.719  4.0726 -1.5550  1.3350
 4400TIP3   OH234758   5.146   6.232   8.225  0.6837 -0.5740  0.3660
 4400TIP3    H134759   5.067   6.209   8.176  0.8005 -2.9119  1.1654
 4400TIP3    H234760   5.114   6.253   8.313  0.9441 -1.7899  0.7662
 4401TIP3   OH234761   0.849   4.122   1.800 -0.0204 -0.4960 -0.2823
 4401TIP3    H134762   0.924   4.179   1.786 -1.0132  0.8972 -0.1268
 4401TIP3    H234763   0.831   4.084   1.714 -1.1359  1.7688 -1.1419
 4402TIP3   OH234764   5.080   0.377   2.467 -0.6209 -0.0093  0.6972
 4402TIP3    H134765   5.140   0.324   2.520 -0.2074 -0.2248  0.0304
 4402TIP3    H234766   5.095   0.466   2.497 -0.3131 -0.1152  0.8751
 4403TIP3   OH234767   1.262   3.786   8.392 -0.2541  0.5979  0.0546
 4403TIP3    H134768   1.282   3.718   8.455 -0.2360  1.4356  0.9831
 4403TIP3    H234769   1.273   3.868   8.440  2.9864  1.4900 -1.8444
 4404TIP3   OH234770   1.755   2.920   0.346 -0.4660  0.0712  0.4583
 4404TIP3    H134771   1.709   2.840   0.370  1.4201 -1.8618 -1.8286
 4404TIP3    H234772   1.815   2.937   0.419 -1.6543  0.1135  1.4604
 4405TIP3   OH234773   4.054   0.700   7.627 -0.2099 -0.0526  0.0405
 4405TIP3    H134774   4.080   0.623   7.575  2.7691  0.8420 -0.0006
 4405TIP3    H234775   4.131   0.757   7.624 -1.8697  2.3774  1.1466
 4406TIP3   OH234776   3.609   2.449   8.155  0.4586  0.3096  0.4373
 4406TIP3    H134777   3.617   2.545   8.156  1.4490  0.2324  0.5936
 4406TIP3    H234778   3.696   2.418   8.131  0.2066 -0.5646  0.6240
 4407TIP3   OH234779   4.038   1.485   0.809 -0.0024 -0.4585  0.2082
 4407TIP3    H134780   3.964   1.432   0.840  0.7128 -0.2010  2.4782
 4407TIP3    H234781   4.112   1.425   0.808  0.2797 -0.1145  0.3175
 4408TIP3   OH234782   4.777   2.758   1.036 -0.3314 -0.2478  0.6485
 4408TIP3    H134783   4.722   2.679   1.039 -1.6775  0.5613 -0.9890
 4408TIP3    H234784   4.715   2.831   1.045  0.1818  0.7543 -2.5514
 4409TIP3   OH234785   4.857   6.473   8.261  0.5691  0.2762  0.5538
 4409TIP3    H134786   4.908   6.439   8.335  1.7392 -1.1639 -0.8297
 4409TIP3    H234787   4.910   6.450   8.184 -1.3099  0.4230 -0.8321
 4410TIP3   OH234788   5.902   0.484   2.628  0.1128  0.1249 -0.6365
 4410TIP3    H134789   5.914   0.455   2.537  2.3799 -1.4096  0.0632
 4410TIP3    H234790   5.835   0.425   2.663  1.0741 -0.9864 -0.6268
 4411TIP3   OH234791   6.310   3.545   1.558 -0.1298 -0.1383 -0.0630
 4411TIP3    H134792   6.356   3.623   1.588  0.1949 -0.3944  0.1048
 4411TIP3    H234793   6.374   3.497   1.506 -0.2612 -0.4095  0.0218
 4412TIP3   OH234794   1.132   2.479   1.183 -0.7710 -0.0073  0.1115
 4412TIP3    H134795   1.110   2.457   1.092 -0.5255 -0.2633  0.1141
 4412TIP3    H234796   1.058   2.532   1.213  0.4013  2.5077 -1.1280
 4413TIP3   OH234797   1.627   4.916   8.604  0.3969  0.1834 -0.1796
 4413TIP3    H134798   1.636   4.903   8.510  1.8947  1.1259 -0.1951
 4413TIP3    H234799   1.547   4.968   8.613 -0.1332 -0.4885 -0.8614
 4414TIP3   OH234800   6.540   4.755   1.881  0.7871 -0.2458 -0.0298
 4414TIP3    H134801   6.542   4.673   1.930  0.9527 -0.3134 -0.1491
 4414TIP3    H234802   6.631   4.785   1.882  0.5713  0.4363  0.8537
 4415TIP3   OH234803   6.122   0.278   0.153  0.5948 -0.1967 -0.5674
 4415TIP3    H134804   6.127   0.183   0.153  0.2722 -0.2161 -0.4358
 4415TIP3    H234805   6.071   0.299   0.232 -1.0002 -0.0106 -1.6001
 4416TIP3   OH234806   0.125   5.998   0.629 -0.0031 -0.0692  0.2171
 4416TIP3    H134807   0.139   5.919   0.578  0.6250  0.4553 -0.4422
 4416TIP3    H234808   0.213   6.035   0.641 -0.1174 -0.2381  1.7725
 4417TIP3   OH234809   6.353   6.797   7.740 -0.3131 -0.5598 -0.2092
 4417TIP3    H134810   6.419   6.845   7.790 -0.7438 -2.8358  2.7763
 4417TIP3    H234811   6.272   6.847   7.754 -0.0247  0.0071 -0.5054
 4418TIP3   OH234812   0.675   4.267   7.501 -0.1898 -0.4940 -1.0932
 4418TIP3    H134813   0.616   4.198   7.530  0.4803 -0.6429 -0.0304
 4418TIP3    H234814   0.669   4.334   7.569  2.5908 -1.5214  0.3109
 4419TIP3   OH234815   2.913   2.258   2.681  0.0579 -0.3735  0.6675
 4419TIP3    H134816   2.924   2.163   2.682  4.7651 -0.2902 -3.1557
 4419TIP3    H234817   2.831   2.273   2.634 -0.8281 -2.4860  1.4340
 4420TIP3   OH234818   1.943   2.815   3.134 -0.3658  0.3816  0.3689
 4420TIP3    H134819   1.977   2.730   3.162  0.1089 -0.3377 -2.1141
 4420TIP3    H234820   1.848   2.802   3.125 -0.5005  0.5761  1.3777
 4421TIP3   OH234821   4.396   0.200   8.239 -0.2539 -0.1358 -0.3521
 4421TIP3    H134822   4.404   0.271   8.176 -1.4751 -0.5484 -1.0200
 4421TIP3    H234823   4.469   0.141   8.220 -0.7590 -0.3826 -1.5763
 4422TIP3   OH234824   0.070   0.041   1.363  0.5737 -0.4714 -0.7305
 4422TIP3    H134825   0.018  -0.035   1.388 -0.3159 -0.6475 -2.8633
 4422TIP3    H234826   0.143   0.005   1.314  2.2374 -0.1466  1.3899
 4423TIP3   OH234827   5.736   1.889   1.749  0.0739 -0.2826 -1.0903
 4423TIP3    H134828   5.768   1.800   1.765  1.6664  0.6709  1.7692
 4423TIP3    H234829   5.641   1.879   1.745  0.0003 -1.8951  1.7688
 4424TIP3   OH234830   4.198   1.052   7.351 -0.3208  0.4412  0.0603
 4424TIP3    H134831   4.117   1.003   7.366  0.1839  0.0758  1.8351
 4424TIP3    H234832   4.264   0.985   7.335 -0.5767  0.7737 -2.9827
 4425TIP3   OH234833   1.382   3.813   2.195  0.6992 -0.2744 -0.0701
 4425TIP3    H134834   1.412   3.767   2.273 -0.1086 -0.4685  0.1302
 4425TIP3    H234835   1.328   3.750   2.148 -1.0526  0.6760  0.5928
 4426TIP3   OH234836   1.973   1.852   1.245  0.2561  0.1715  0.3693
 4426TIP3    H134837   1.922   1.799   1.184  1.3656  1.3453 -1.6945
 4426TIP3    H234838   2.044   1.888   1.192  2.1676  0.0969  2.6951
 4427TIP3   OH234839   1.771   3.148   8.484 -0.3296  0.2726  0.1945
 4427TIP3    H134840   1.846   3.088   8.475 -1.8443 -1.7760  0.4027
 4427TIP3    H234841   1.780   3.184   8.572  2.5782  3.3370 -1.1410
 4428TIP3   OH234842   1.602   6.697   1.130 -0.4705  0.2204  0.1179
 4428TIP3    H134843   1.506   6.700   1.131 -0.5396 -1.5184  0.3149
 4428TIP3    H234844   1.624   6.605   1.140  1.2256  0.4397 -1.1220
 4429TIP3   OH234845   2.901   4.168   8.218  0.1244 -0.3479  0.3125
 4429TIP3    H134846   2.921   4.260   8.202  0.3961 -0.0997  1.8794
 4429TIP3    H234847   2.815   4.168   8.259  0.7689 -0.6366  1.7220
 4430TIP3   OH234848   5.504   0.587   8.039  0.3998  0.5390 -0.1528
 4430TIP3    H134849   5.450   0.667   8.042  0.1723  0.3584  0.8724
 4430TIP3    H234850   5.557   0.591   8.118  0.3927 -0.3239 -0.0963
 4431TIP3   OH234851   5.481   0.374   8.368 -0.4711  0.0949 -0.4431
 4431TIP3    H134852   5.428   0.312   8.418 -1.4871  0.3280 -1.2065
 4431TIP3    H234853   5.552   0.320   8.331  0.1419 -0.1222  0.9903
 4432TIP3   OH234854   3.002   4.993   8.297  0.2130  0.2087  0.0122
 4432TIP3    H134855   3.066   5.014   8.229  0.2103  0.6378  0.1344
 4432TIP3    H234856   2.977   5.078   8.333 -0.2823  0.0319  0.0991
 4433TIP3   OH234857   0.933   0.666   1.957  0.0925 -0.1875  0.3420
 4433TIP3    H134858   0.909   0.674   2.049  0.7245 -0.7508  0.5750
 4433TIP3    H234859   0.856   0.629   1.914 -0.7758  1.5701  0.3219
 4434TIP3   OH234860   0.318   2.375   0.417  0.2479 -0.0148  0.0806
 4434TIP3    H134861   0.267   2.324   0.354  0.3656  1.5140 -1.3314
 4434TIP3    H234862   0.318   2.464   0.381  0.6732  0.8366  2.0466
 4435TIP3   OH234863   1.103   3.039   2.577 -0.1011 -0.1682 -0.5714
 4435TIP3    H134864   1.063   3.084   2.652 -0.3240  0.2154 -0.9130
 4435TIP3    H234865   1.030   3.024   2.517  0.3053  0.8487 -1.3601
 4436TIP3   OH234866   0.390   6.460   0.582  0.0803 -0.1091 -0.2207
 4436TIP3    H134867   0.367   6.407   0.658  1.7850 -1.1912 -0.4119
 4436TIP3    H234868   0.468   6.509   0.609  0.6946 -0.4975 -1.2474
 4437TIP3   OH234869   6.624   2.108   1.937 -0.0922 -0.4303 -0.0913
 4437TIP3    H134870   6.529   2.105   1.939 -0.0669 -0.8859  1.3088
 4437TIP3    H234871   6.645   2.184   1.883 -1.2185 -1.4372 -2.0400
 4438TIP3   OH234872   3.679   5.232   2.324  0.0240 -0.1017  0.6946
 4438TIP3    H134873   3.682   5.201   2.414  0.3653 -0.2636  0.6286
 4438TIP3    H234874   3.767   5.215   2.290 -0.8039 -2.3699 -0.4576
 4439TIP3   OH234875   4.834   6.378   7.875 -0.1923  0.0929  0.4344
 4439TIP3    H134876   4.901   6.356   7.810  0.0551  1.2474  0.2708
 4439TIP3    H234877   4.753   6.342   7.839 -0.1566  1.1678 -0.8162
 4440TIP3   OH234878   1.688   2.375   8.753  0.1142  0.3613  0.0453
 4440TIP3    H134879   1.772   2.338   8.777 -0.0512 -0.3528 -0.4630
 4440TIP3    H234880   1.624   2.306   8.772 -0.3326  0.8112  0.2123
 4441TIP3   OH234881   4.579   0.946   8.729  0.3513  0.2548 -0.3116
 4441TIP3    H134882   4.581   1.025   8.783  1.0454 -0.2353  0.3945
 4441TIP3    H234883   4.617   0.878   8.784  2.5200  0.0559 -1.9170
 4442TIP3   OH234884   1.863   1.721   2.210  0.8623 -0.3643  0.6396
 4442TIP3    H134885   1.916   1.787   2.166  1.9915 -0.8794  1.1967
 4442TIP3    H234886   1.897   1.718   2.299  1.0962 -1.9493  0.5336
 4443TIP3   OH234887   1.152   0.138   0.397 -0.5778  0.3666 -0.3719
 4443TIP3    H134888   1.088   0.072   0.422 -1.4133  1.0596 -0.6504
 4443TIP3    H234889   1.189   0.105   0.315  1.2260 -1.2530  0.9893
 4444TIP3   OH234890   2.691   4.374   2.115 -0.5265 -0.2030  0.2161
 4444TIP3    H134891   2.670   4.319   2.039 -1.3159 -0.8664  0.8830
 4444TIP3    H234892   2.605   4.398   2.151 -0.1677 -0.2561  1.1402
 4445TIP3   OH234893   1.384   3.334   7.308 -0.1354 -0.0165  0.4490
 4445TIP3    H134894   1.413   3.292   7.389  2.4309  0.8355  0.0722
 4445TIP3    H234895   1.374   3.262   7.246 -2.3438 -0.7055  1.4856
 4446TIP3   OH234896   6.016   5.118   1.129  0.1712 -0.7807  0.0450
 4446TIP3    H134897   6.056   5.093   1.213  0.3511  0.3171  0.3051
 4446TIP3    H234898   6.076   5.084   1.063 -0.1066 -1.8912  0.3388
 4447TIP3   OH234899   6.108   6.419   0.280  0.2109  0.4200 -0.1775
 4447TIP3    H134900   6.191   6.466   0.287  1.1598 -1.3308  1.0953
 4447TIP3    H234901   6.133   6.330   0.256 -1.3300 -0.0928  0.0161
 4448TIP3   OH234902   0.616   2.203   8.398  0.3043 -0.6510 -0.2246
 4448TIP3    H134903   0.595   2.237   8.311  0.1415  2.4019  0.9048
 4448TIP3    H234904   0.573   2.263   8.459 -0.9768 -3.6071  2.0481
 4449TIP3   OH234905   0.210   3.101   0.252 -0.3177  0.8070  0.4609
 4449TIP3    H134906   0.158   3.131   0.327 -1.3516 -1.1015  0.5961
 4449TIP3    H234907   0.279   3.047   0.291 -1.7542 -1.4652  0.0798
 4450TIP3   OH234908   4.908   5.656   8.429 -0.8056  0.2567  0.3085
 4450TIP3    H134909   4.868   5.572   8.448  0.4090 -0.0085  1.8987
 4450TIP3    H234910   4.920   5.657   8.334 -2.9632 -0.3395 -0.0164
 4451TIP3   OH234911   2.240   6.112   1.439  0.3439 -0.0702 -0.3280
 4451TIP3    H134912   2.333   6.094   1.430  0.0215 -1.4836 -1.1416
 4451TIP3    H234913   2.207   6.119   1.349 -0.3213  0.5286 -0.0526
 4452TIP3   OH234914   2.704   0.317   8.684  0.6310  0.0485 -0.1406
 4452TIP3    H134915   2.661   0.271   8.756  3.0649 -1.8462  0.2562
 4452TIP3    H234916   2.661   0.402   8.680 -1.8161 -1.0246  1.3472
 4453TIP3   OH234917   0.898   1.079   7.444  0.1321  0.3447  0.2334
 4453TIP3    H134918   0.805   1.100   7.429  0.1707  0.1345 -0.3482
 4453TIP3    H234919   0.931   1.059   7.356  0.6500  0.1021  0.4864
 4454TIP3   OH234920   1.467   4.235   2.498  0.9977  0.0723 -0.0083
 4454TIP3    H134921   1.532   4.184   2.547  0.6460 -0.5123 -0.1488
 4454TIP3    H234922   1.437   4.301   2.560  0.1590 -0.9968  0.7589
 4455TIP3   OH234923   3.930   6.349   8.580 -0.1056  0.2858 -0.1080
 4455TIP3    H134924   3.862   6.373   8.517  0.4295 -0.1767 -0.8884
 4455TIP3    H234925   3.965   6.267   8.547  2.2887  1.5366 -0.9729
 4456TIP3   OH234926   1.631   6.741   2.057 -0.4142 -0.1214  0.2086
 4456TIP3    H134927   1.676   6.757   2.140  0.3568  0.3656 -0.2800
 4456TIP3    H234928   1.693   6.688   2.007 -0.5152  0.2910 -0.3582
 4457TIP3   OH234929   4.456   3.965   2.252  0.1428  0.3359  0.0550
 4457TIP3    H134930   4.511   3.942   2.177 -1.6150 -0.5921 -1.0293
 4457TIP3    H234931   4.508   4.028   2.302  2.2213 -0.6116 -0.7960
 4458TIP3   OH234932   6.593   6.555   1.990 -0.0182  0.0633 -0.1067
 4458TIP3    H134933   6.666   6.579   2.047  0.3152 -2.3331  0.5706
 4458TIP3    H234934   6.634   6.521   1.911 -0.4856  3.0712 -1.8181
 4459TIP3   OH234935   4.434   4.901   0.107 -0.3765 -0.1752 -0.4329
 4459TIP3    H134936   4.415   4.929   0.018  1.0140 -1.7737 -1.2972
 4459TIP3    H234937   4.527   4.879   0.106 -0.6531 -1.6376  0.9916
 4460TIP3   OH234938   6.139   2.609   1.329 -0.1917  0.5255 -0.1076
 4460TIP3    H134939   6.079   2.643   1.262 -0.6943 -0.2965 -0.0889
 4460TIP3    H234940   6.089   2.539   1.372  0.0096  1.2317  1.3342
 4461TIP3   OH234941   3.135   5.692   2.546  0.7386  0.1662 -0.1939
 4461TIP3    H134942   3.077   5.689   2.471  0.4519  1.8012 -0.0854
 4461TIP3    H234943   3.197   5.620   2.532 -1.0942 -1.4263 -0.4550
 4462TIP3   OH234944   3.835   3.226   8.654 -0.0829  0.1771  0.1605
 4462TIP3    H134945   3.868   3.136   8.644  0.1183  0.2466  0.1995
 4462TIP3    H234946   3.881   3.276   8.587  2.1365  0.8789  2.0636
 4463TIP3   OH234947   3.334   5.965   6.951  0.2526  0.5957 -0.2177
 4463TIP3    H134948   3.333   5.940   6.858  0.0284  0.2380 -0.1207
 4463TIP3    H234949   3.415   5.926   6.985 -0.4907 -0.6930  0.1165
 4464TIP3   OH234950   3.502   3.867   2.122 -0.9091 -0.0269  0.2354
 4464TIP3    H134951   3.482   3.836   2.211 -1.5197 -1.5126 -0.3954
 4464TIP3    H234952   3.418   3.864   2.077 -0.0981 -2.3697 -1.2902
 4465TIP3   OH234953   5.736   1.549   1.828  0.4929 -0.5001  0.0447
 4465TIP3    H134954   5.743   1.474   1.768  0.5997 -0.2862 -0.2159
 4465TIP3    H234955   5.642   1.559   1.842  0.4961 -0.8896  0.3460
 4466TIP3   OH234956   5.901   4.271   8.690 -0.1672 -0.4998 -0.4484
 4466TIP3    H134957   5.972   4.328   8.719  0.0374 -0.7724 -0.4104
 4466TIP3    H234958   5.823   4.304   8.736 -0.2000  0.2110 -0.9931
 4467TIP3   OH234959   1.675   2.214   0.913  0.6841  0.2396  0.7584
 4467TIP3    H134960   1.638   2.208   0.825  2.4340 -1.9430  0.0883
 4467TIP3    H234961   1.676   2.308   0.932 -0.9823  0.6600 -0.9723
 4468TIP3   OH234962   5.519   1.839   0.385  0.1260 -0.1518 -0.1114
 4468TIP3    H134963   5.550   1.813   0.298 -0.0488  1.5509 -0.7133
 4468TIP3    H234964   5.553   1.771   0.443 -0.5051 -1.8318 -1.6010
 4469TIP3   OH234965   5.950   1.347   8.465 -0.0631 -0.5396  0.2141
 4469TIP3    H134966   6.043   1.366   8.456  0.0311 -0.9631  0.2942
 4469TIP3    H234967   5.911   1.429   8.495  0.2566 -0.3104 -0.0003
 4470TIP3   OH234968   6.058   1.793   1.753 -0.3952 -0.0347  0.0143
 4470TIP3    H134969   6.126   1.833   1.700 -0.4259  1.2698  0.9169
 4470TIP3    H234970   6.062   1.700   1.731  1.2659  0.1060 -0.3897
 4471TIP3   OH234971   1.423   3.191   8.207 -0.1002  0.4459 -0.3230
 4471TIP3    H134972   1.491   3.257   8.192  0.9134 -0.8467 -1.7099
 4471TIP3    H234973   1.408   3.152   8.121 -1.5865 -0.3005  0.2315
 4472TIP3   OH234974   1.499   6.736   6.663  0.3878 -0.3645  0.1633
 4472TIP3    H134975   1.592   6.754   6.648  0.4216 -0.7986 -0.1905
 4472TIP3    H234976   1.495   6.641   6.675 -0.2418 -0.6254 -1.7619
 4473TIP3   OH234977   0.421   5.699   1.759  0.1427 -0.2866  0.7493
 4473TIP3    H134978   0.376   5.769   1.805 -0.0510  0.3599 -0.3747
 4473TIP3    H234979   0.351   5.639   1.732  0.0731  0.0877  0.0637
 4474TIP3   OH234980   4.815   1.376   1.930  0.0696  0.3277 -0.2561
 4474TIP3    H134981   4.836   1.334   2.013  1.2040  0.1484 -0.6020
 4474TIP3    H234982   4.793   1.303   1.871  0.0991  0.3823 -0.3356
 4475TIP3   OH234983   4.516   4.375   7.195 -0.1086  0.2234 -0.0681
 4475TIP3    H134984   4.433   4.401   7.154 -0.4787  0.3248  0.7303
 4475TIP3    H234985   4.490   4.322   7.270  0.5535  0.2444  0.1839
 4476TIP3   OH234986   1.692   5.466   0.772 -0.9270 -0.8498  0.0647
 4476TIP3    H134987   1.667   5.507   0.690  1.3475 -1.0481 -0.7964
 4476TIP3    H234988   1.609   5.449   0.817 -2.1313  0.7271 -1.4521
 4477TIP3   OH234989   0.128   0.721   7.249  0.1534 -0.4671 -0.4451
 4477TIP3    H134990   0.095   0.809   7.230 -0.3620 -0.5624 -0.0167
 4477TIP3    H234991   0.130   0.677   7.165 -2.5685 -1.0509 -0.2703
 4478TIP3   OH234992   3.396   1.896   7.646  0.2651 -0.0588 -0.8053
 4478TIP3    H134993   3.300   1.903   7.650  0.2393 -0.8421  0.3975
 4478TIP3    H234994   3.421   1.956   7.576 -1.2180 -0.8548 -2.0997
 4479TIP3   OH234995   6.309   0.542   2.039  0.0898 -0.1875 -0.1521
 4479TIP3    H134996   6.338   0.455   2.012  1.6895 -0.0796  1.0619
 4479TIP3    H234997   6.237   0.526   2.100  1.0033 -0.7392  0.8170
 4480TIP3   OH234998   3.314   1.957   6.732 -0.1685  0.3781  0.2137
 4480TIP3    H134999   3.218   1.953   6.734 -0.1210 -0.6010  1.2622
 4480TIP3    H235000   3.339   1.894   6.664 -0.2841  1.6921 -1.1109
 4481TIP3   OH235001   3.224   1.690   8.797  0.1998  0.8532  0.5196
 4481TIP3    H135002   3.239   1.683   8.891  0.9334  2.7742  0.5692
 4481TIP3    H235003   3.133   1.660   8.785  0.4126 -0.3191  1.6764
 4482TIP3   OH235004   1.285   6.464   8.404 -0.0890  0.2304 -0.0890
 4482TIP3    H135005   1.273   6.551   8.366 -1.2953  0.3316  0.4784
 4482TIP3    H235006   1.375   6.441   8.381 -0.1073  1.1457 -1.2105
 4483TIP3   OH235007   3.264   3.737   8.038 -0.5934 -0.0852  0.7735
 4483TIP3    H135008   3.259   3.828   8.010 -0.1969 -0.3487 -0.1645
 4483TIP3    H235009   3.181   3.721   8.082 -1.3688  0.2484 -0.5286
 4484TIP3   OH235010   0.702   5.376   1.226 -0.4638  0.4141  0.2948
 4484TIP3    H135011   0.728   5.464   1.254  0.5784 -0.2249  1.4312
 4484TIP3    H235012   0.633   5.350   1.287  1.6757 -0.9039  2.3066
 4485TIP3   OH235013   6.608   2.269   0.092  0.0726 -0.3319 -0.4597
 4485TIP3    H135014   6.686   2.220   0.067 -0.3011 -0.7440 -0.8431
 4485TIP3    H235015   6.547   2.256   0.019 -0.2943  0.1255 -0.2447
 4486TIP3   OH235016   6.440   5.073   7.446  0.2770  0.2123  0.1818
 4486TIP3    H135017   6.411   4.984   7.466  0.4491  0.3718  1.2186
 4486TIP3    H235018   6.393   5.097   7.367 -0.5447 -0.4359  0.4657
 4487TIP3   OH235019   6.634   3.358   2.224  0.2084 -0.1761 -0.4877
 4487TIP3    H135020   6.571   3.294   2.193 -1.0740  1.4180 -1.3682
 4487TIP3    H235021   6.634   3.349   2.319 -0.2179 -1.2202 -0.5816
 4488TIP3   OH235022   5.923   4.679   1.457  0.9053  0.4190  0.1290
 4488TIP3    H135023   6.005   4.632   1.443  0.4114 -0.1622 -0.9815
 4488TIP3    H235024   5.869   4.654   1.382 -1.4712 -1.7431  2.3857
 4489TIP3   OH235025   2.103   6.518   7.747 -0.3007  0.1665 -0.1503
 4489TIP3    H135026   2.100   6.443   7.688  1.5287 -0.6112  0.6543
 4489TIP3    H235027   2.197   6.532   7.763 -0.5992  2.5555 -0.1603
 4490TIP3   OH235028   6.711   4.221   1.998 -0.1719 -0.0125 -0.0387
 4490TIP3    H135029   6.716   4.215   2.093  1.7987 -1.2131 -0.1661
 4490TIP3    H235030   6.657   4.146   1.973  1.0891 -0.9881  0.0497
 4491TIP3   OH235031   6.230   4.977   3.210  0.4075  0.0834 -0.9620
 4491TIP3    H135032   6.202   4.956   3.121  2.0343 -0.4808 -1.3751
 4491TIP3    H235033   6.310   5.029   3.199  0.4244  0.3231  0.1539
 4492TIP3   OH235034   1.053   2.460   2.112  0.4972  0.4577 -0.3937
 4492TIP3    H135035   1.016   2.400   2.046  0.3428  0.2961 -0.1604
 4492TIP3    H235036   0.976   2.504   2.148  0.4898 -0.1887  0.4008
 4493TIP3   OH235037   4.160   5.878   0.193  0.0207 -0.5647  0.1385
 4493TIP3    H135038   4.228   5.933   0.155  1.3879 -1.9821  0.4260
 4493TIP3    H235039   4.083   5.895   0.140  1.1643 -0.4910 -1.5761
 4494TIP3   OH235040   1.754   4.136   1.107  0.2587  0.0109 -0.1585
 4494TIP3    H135041   1.797   4.220   1.125  0.6987 -0.3817  0.7195
 4494TIP3    H235042   1.818   4.071   1.134 -0.0872 -0.6142 -0.8260
 4495TIP3   OH235043   1.947   0.259   2.896 -0.2344  0.8660  0.3444
 4495TIP3    H135044   1.893   0.314   2.840 -0.7034  1.8160  1.6696
 4495TIP3    H235045   1.998   0.321   2.948 -0.2431  0.0478  1.3695
 4496TIP3   OH235046   6.255   4.139   8.648  0.1213 -0.0127  0.6558
 4496TIP3    H135047   6.274   4.154   8.740  0.9451 -2.0417  0.8812
 4496TIP3    H235048   6.190   4.068   8.648 -1.7433  1.5895 -0.3057
 4497TIP3   OH235049   2.307   2.049   0.892 -0.1130 -0.0328 -0.4056
 4497TIP3    H135050   2.276   2.139   0.905  1.7020  0.4623  0.9833
 4497TIP3    H235051   2.237   1.994   0.928 -1.7219  0.7114 -2.2120
 4498TIP3   OH235052   3.162   4.128   8.223 -0.1461 -0.0823  0.1397
 4498TIP3    H135053   3.067   4.125   8.212 -0.0928 -0.7329 -0.2026
 4498TIP3    H235054   3.181   4.059   8.286 -0.0217  0.9147  1.2293
 4499TIP3   OH235055   4.589   2.565   6.989  0.2252  0.1062 -0.3500
 4499TIP3    H135056   4.545   2.634   6.940 -0.2350  0.8403  1.0706
 4499TIP3    H235057   4.566   2.484   6.942  0.5770  0.8509 -1.8823
 4500TIP3   OH235058   6.006   2.209   7.632  0.2721 -0.1600  0.3126
 4500TIP3    H135059   6.057   2.166   7.700  0.5661 -1.8973 -0.9220
 4500TIP3    H235060   6.056   2.194   7.551 -1.6984 -1.1578 -0.8092
 4501TIP3   OH235061   5.272   1.097   0.418 -0.1485  0.4033 -0.2963
 4501TIP3    H135062   5.203   1.068   0.476  0.2421  1.9548  1.0069
 4501TIP3    H235063   5.283   1.025   0.355 -1.6104 -0.6603  0.6194
 4502TIP3   OH235064   1.280   3.715   8.089 -0.3463  0.1357 -0.0036
 4502TIP3    H135065   1.266   3.714   8.184  0.5363 -1.5554  0.1372
 4502TIP3    H235066   1.235   3.794   8.060 -1.3497  0.2592  1.7140
 4503TIP3   OH235067   1.950   3.775   7.366  0.1415 -0.3316  0.3575
 4503TIP3    H135068   1.927   3.759   7.274  1.9129  0.4164 -0.2699
 4503TIP3    H235069   1.888   3.722   7.416 -4.8683  3.5530 -0.8949
 4504TIP3   OH235070   2.946   0.612   1.758 -0.3065 -0.5088 -0.8699
 4504TIP3    H135071   2.977   0.686   1.810  1.7205 -2.0585  0.2272
 4504TIP3    H235072   2.889   0.653   1.691 -0.5589  1.8319  0.6512
 4505TIP3   OH235073   0.151   5.726   1.413  0.1341 -0.5552 -0.2844
 4505TIP3    H135074   0.082   5.707   1.350  0.1660 -0.4532 -0.3510
 4505TIP3    H235075   0.226   5.754   1.359 -0.2494  0.8275 -0.1509
 4506TIP3   OH235076   5.342   6.433   8.146 -0.6482  0.3634  0.5302
 4506TIP3    H135077   5.378   6.471   8.227 -1.5621  2.1665  0.1490
 4506TIP3    H235078   5.297   6.354   8.175  0.9801 -0.2871  1.4300
 4507TIP3   OH235079   1.432   5.099   0.188  0.1901  0.1238  0.4392
 4507TIP3    H135080   1.347   5.141   0.193  0.1453  0.2607 -0.9754
 4507TIP3    H235081   1.415   5.007   0.210 -0.5186 -0.0486 -0.7186
 4508TIP3   OH235082   5.261   3.985   0.778  0.5259  0.2927  0.1795
 4508TIP3    H135083   5.315   4.045   0.829 -1.7653  1.6720  1.1368
 4508TIP3    H235084   5.281   4.006   0.687  2.2773  0.0735  0.4922
 4509TIP3   OH235085   1.147   5.269   1.121 -0.2482 -0.1673 -0.2421
 4509TIP3    H135086   1.202   5.298   1.194 -0.2181 -1.8034  0.4166
 4509TIP3    H235087   1.197   5.199   1.080 -0.6482  0.1732 -1.3330
 4510TIP3   OH235088   0.310   3.478   7.421 -0.9155 -0.0904  0.2823
 4510TIP3    H135089   0.291   3.572   7.417  1.3751  0.4468  0.6569
 4510TIP3    H235090   0.225   3.436   7.406 -2.6687  2.0175  3.0717
 4511TIP3   OH235091   0.028   6.522   8.403  0.0003  0.3205  0.0363
 4511TIP3    H135092  -0.040   6.458   8.383  1.6634 -1.3762 -0.5856
 4511TIP3    H235093   0.106   6.469   8.421  0.8448  2.1240  2.1438
 4512TIP3   OH235094   4.615   2.704   7.316  0.0907  0.4493 -0.5806
 4512TIP3    H135095   4.631   2.633   7.253  0.1426 -0.9024  0.9030
 4512TIP3    H235096   4.677   2.773   7.290 -0.3749  0.2384 -2.4265
 4513TIP3   OH235097   1.403   0.071   7.746  0.6968  0.2391  0.0604
 4513TIP3    H135098   1.469   0.124   7.701  2.1269 -2.4190 -1.2658
 4513TIP3    H235099   1.331   0.064   7.683  2.9717 -4.0365 -2.5371
 4514TIP3   OH235100   4.571   2.544   2.988  0.0243 -0.4085 -0.1387
 4514TIP3    H135101   4.510   2.596   2.936  1.5414 -0.4587 -2.0895
 4514TIP3    H235102   4.574   2.459   2.944  2.9742  0.2323 -1.4216
 4515TIP3   OH235103   2.605   0.976   0.728 -0.1041  0.1379  0.3632
 4515TIP3    H135104   2.619   0.963   0.822  0.5397 -2.9508 -0.0660
 4515TIP3    H235105   2.514   0.952   0.713 -0.0944  0.2375  0.1366
 4516TIP3   OH235106   6.138   0.694   8.514  0.0399  0.2065 -0.5501
 4516TIP3    H135107   6.188   0.727   8.588  3.5018 -2.0798 -1.5813
 4516TIP3    H235108   6.107   0.772   8.469  0.8222  1.7288  1.3868
 4517TIP3   OH235109   4.809   2.435   2.688 -0.9709 -0.6980 -0.2022
 4517TIP3    H135110   4.856   2.508   2.728 -0.5808  0.8794 -3.2386
 4517TIP3    H235111   4.769   2.389   2.761  1.6714  0.4564  2.1717
 4518TIP3   OH235112   3.806   5.687   2.521  0.2487 -0.2260 -0.7583
 4518TIP3    H135113   3.746   5.751   2.482 -1.9260 -0.2501  2.1443
 4518TIP3    H235114   3.751   5.635   2.579  2.5007 -2.8187 -0.7624
 4519TIP3   OH235115   5.568   3.715   1.756 -0.4015  0.3765  0.5146
 4519TIP3    H135116   5.641   3.776   1.768  1.6206 -1.9142  0.6201
 4519TIP3    H235117   5.563   3.666   1.838 -1.2264 -0.3252  0.0656
 4520TIP3   OH235118   2.893   5.939   1.664 -0.0225  0.8828 -0.1379
 4520TIP3    H135119   2.871   5.897   1.581  3.2839 -1.2338 -0.1326
 4520TIP3    H235120   2.878   5.872   1.730 -1.2762  2.0875  0.8606
 4521TIP3   OH235121   5.561   4.774   7.967  0.4870  0.3296  0.8059
 4521TIP3    H135122   5.532   4.711   7.902 -1.3154  1.5397  0.3887
 4521TIP3    H235123   5.549   4.729   8.051  1.9971 -0.9060  0.4257
 4522TIP3   OH235124   6.549   2.325   0.611 -0.0491  0.1912  0.0987
 4522TIP3    H135125   6.512   2.302   0.525 -1.5838 -1.1116  1.0636
 4522TIP3    H235126   6.554   2.420   0.610 -0.5947  0.2330 -1.2138
 4523TIP3   OH235127   5.033   6.053   1.489  0.1995 -0.1490  0.3549
 4523TIP3    H135128   5.028   5.964   1.454 -1.3746  0.2165 -0.4435
 4523TIP3    H235129   4.950   6.066   1.534  0.2478  1.0514  0.1262
 4524TIP3   OH235130   0.452   3.097   7.762 -0.2595 -0.2516  0.0893
 4524TIP3    H135131   0.417   3.017   7.724 -0.2348 -0.4980  0.5793
 4524TIP3    H235132   0.405   3.107   7.845  0.2815 -0.1687  0.3902
 4525TIP3   OH235133   1.366   2.988   1.763  0.0535  0.0909 -0.1788
 4525TIP3    H135134   1.377   3.083   1.761  2.4594 -0.1149 -0.7765
 4525TIP3    H235135   1.339   2.965   1.674  0.5523  0.1534 -0.3535
 4526TIP3   OH235136   0.504   2.342   1.203 -0.3354 -0.2456 -0.2488
 4526TIP3    H135137   0.449   2.420   1.201  2.3934  1.8806  1.5171
 4526TIP3    H235138   0.473   2.294   1.280  0.1214  0.8781  0.6700
 4527TIP3   OH235139   0.950   0.388   2.745  0.2281 -0.0503 -0.0793
 4527TIP3    H135140   0.938   0.316   2.683  2.3156 -0.7121  0.1851
 4527TIP3    H235141   0.965   0.346   2.829  1.3497  0.6646  0.1041
 4528TIP3   OH235142   1.647   2.075   0.045 -0.1170 -0.5804  0.0405
 4528TIP3    H135143   1.552   2.087   0.053 -0.6034 -1.6704 -2.9110
 4528TIP3    H235144   1.657   1.988   0.007  1.8780  0.5930 -2.3820
 4529TIP3   OH235145   3.361   3.643   0.035  0.1136 -0.1426  0.2471
 4529TIP3    H135146   3.325   3.728   0.008 -0.3415 -0.2760  0.4386
 4529TIP3    H235147   3.377   3.597  -0.047  1.8006  0.6996  0.0431
 4530TIP3   OH235148   6.307   6.445   0.923  0.3977  0.1122  0.1411
 4530TIP3    H135149   6.303   6.442   0.827 -0.2651  1.1271  0.1133
 4530TIP3    H235150   6.347   6.530   0.942 -0.8547  0.5827  0.7690
 4531TIP3   OH235151   4.501   6.530   1.038  0.5384 -0.3865  0.2073
 4531TIP3    H135152   4.443   6.472   1.087  0.1297 -0.2720 -0.1335
 4531TIP3    H235153   4.489   6.616   1.079 -0.5758 -0.0728 -0.7169
 4532TIP3   OH235154   3.605   4.348   7.636 -0.5569  0.3437 -0.0746
 4532TIP3    H135155   3.663   4.273   7.646 -1.7000 -0.5127  0.2459
 4532TIP3    H235156   3.607   4.367   7.542 -0.1411  0.0210 -0.1346
 4533TIP3   OH235157   1.821   5.749   7.114 -0.6245 -0.2264  0.6868
 4533TIP3    H135158   1.847   5.837   7.142  0.4625  0.0649 -1.0759
 4533TIP3    H235159   1.737   5.762   7.069 -1.3483 -0.3912  1.9402
 4534TIP3   OH235160   4.318   0.585   2.706  0.2824  0.0249  0.1525
 4534TIP3    H135161   4.402   0.598   2.750 -0.1288 -0.4670  1.1234
 4534TIP3    H235162   4.341   0.555   2.618  1.1240  0.8565  0.0829
 4535TIP3   OH235163   3.067   5.904   7.339 -0.0120 -0.7348  0.0836
 4535TIP3    H135164   3.050   5.984   7.289  0.3353 -0.9659 -0.4157
 4535TIP3    H235165   2.987   5.853   7.333  0.0031 -0.7269 -0.1781
 4536TIP3   OH235166   1.445   4.701   2.050  1.1260  0.2974 -0.0752
 4536TIP3    H135167   1.526   4.651   2.052  0.2306 -1.2182  1.2462
 4536TIP3    H235168   1.422   4.712   2.142 -1.1570 -1.0967 -0.3842
 4537TIP3   OH235169   0.165   5.134   8.018  0.2401 -0.2473 -0.2685
 4537TIP3    H135170   0.092   5.140   8.078 -0.3959  1.3265 -1.1459
 4537TIP3    H235171   0.145   5.057   7.964 -0.0276 -0.6657  0.4108
 4538TIP3   OH235172   3.716   5.855   8.668  0.2103  0.4245  0.1867
 4538TIP3    H135173   3.699   5.892   8.754 -3.1038  2.0887 -1.0176
 4538TIP3    H235174   3.672   5.769   8.669  1.2470 -0.1242  0.4897
 4539TIP3   OH235175   4.459   0.608   8.050  0.0286 -0.0085 -0.1369
 4539TIP3    H135176   4.436   0.612   8.143 -0.6306  0.3595 -0.3112
 4539TIP3    H235177   4.485   0.697   8.027 -0.4519  0.0531 -0.4599
 4540TIP3   OH235178   6.369   5.354   3.103 -0.2117  0.3688 -0.5190
 4540TIP3    H135179   6.402   5.443   3.108  0.0488  0.2285  0.4490
 4540TIP3    H235180   6.300   5.349   3.170 -1.5724  0.3827 -1.8703
 4541TIP3   OH235181   4.249   6.541   0.212  0.1945 -0.3718 -0.2550
 4541TIP3    H135182   4.183   6.588   0.263 -1.9657 -1.7070 -1.6676
 4541TIP3    H235183   4.327   6.596   0.217 -0.9870  1.2662  1.5114
 4542TIP3   OH235184   3.162   3.141   7.270 -0.4519 -0.0963  0.0617
 4542TIP3    H135185   3.082   3.113   7.225  0.1725 -1.9452  0.0293
 4542TIP3    H235186   3.207   3.196   7.207 -0.9166 -0.3824 -0.5319
 4543TIP3   OH235187   0.938   1.587   1.728  0.0573  0.0636  0.5159
 4543TIP3    H135188   1.010   1.553   1.781 -0.6103 -0.8469  0.8634
 4543TIP3    H235189   0.967   1.674   1.701  1.4821 -0.4522  0.2736
 4544TIP3   OH235190   1.374   1.760   7.660 -0.5088 -0.1188 -0.2266
 4544TIP3    H135191   1.324   1.841   7.646  0.2668  0.4408  0.1465
 4544TIP3    H235192   1.353   1.705   7.584 -2.4944 -0.3399  0.4198
 4545TIP3   OH235193   0.428   2.007   1.780  0.6748  0.0939 -0.3211
 4545TIP3    H135194   0.473   2.020   1.864 -0.8517  1.1580  0.3742
 4545TIP3    H235195   0.458   1.921   1.751  0.7730 -0.5970  1.6273
 4546TIP3   OH235196   5.760   3.764   8.314 -0.3552 -0.2319  0.3930
 4546TIP3    H135197   5.753   3.811   8.398  2.1408  0.7122  0.1451
 4546TIP3    H235198   5.688   3.799   8.262 -0.5749  0.8656  1.3725
 4547TIP3   OH235199   3.595   5.129   1.638  0.2011  0.1517 -0.1063
 4547TIP3    H135200   3.514   5.146   1.591 -0.5094 -2.6274 -0.0156
 4547TIP3    H235201   3.659   5.109   1.570  0.5859  1.3633 -0.1217
 4548TIP3   OH235202   2.109   3.521   0.140 -0.0768  0.6161  0.4273
 4548TIP3    H135203   2.106   3.614   0.117  0.9103  0.8934  1.3363
 4548TIP3    H235204   2.100   3.520   0.235  1.2969 -0.1105  0.5728
 4549TIP3   OH235205   4.060   5.760   2.099  0.0783  0.2104  0.0098
 4549TIP3    H135206   4.115   5.810   2.038  0.1969 -0.1807 -0.2102
 4549TIP3    H235207   3.982   5.814   2.110 -0.2401 -0.0070 -1.0116
 4550TIP3   OH235208   2.106   6.393   1.991  0.5169 -0.4643 -0.0262
 4550TIP3    H135209   2.050   6.401   2.068  0.5484  0.0831 -0.0539
 4550TIP3    H235210   2.103   6.300   1.969 -1.3111 -0.2974 -0.7030
 4551TIP3   OH235211   6.031   1.102   2.728  0.1249 -0.0262 -0.6369
 4551TIP3    H135212   6.072   1.024   2.692  0.1673 -0.0370 -0.5656
 4551TIP3    H235213   6.103   1.162   2.744  0.2032 -0.3212  0.1807
 4552TIP3   OH235214   5.371   2.893   2.830 -0.7344  0.6853 -0.1615
 4552TIP3    H135215   5.437   2.959   2.850 -0.7874  0.6283  0.2138
 4552TIP3    H235216   5.413   2.836   2.766 -0.4719  0.7338 -0.0331
 4553TIP3   OH235217   3.041   3.407   0.966  0.1300 -0.3108  0.0007
 4553TIP3    H135218   3.106   3.455   1.017 -0.1864 -0.6522  0.7303
 4553TIP3    H235219   3.026   3.326   1.015  0.6934 -1.2050 -1.2259
 4554TIP3   OH235220   5.216   6.553   1.390 -0.2465 -0.1023  0.0353
 4554TIP3    H135221   5.162   6.476   1.408 -0.7819 -0.2488 -2.0167
 4554TIP3    H235222   5.208   6.567   1.296  1.3330  1.3734  0.0772
 4555TIP3   OH235223   2.531   0.574   1.662 -0.0947  0.0779  0.2823
 4555TIP3    H135224   2.518   0.491   1.708 -0.7385  0.9062  1.6459
 4555TIP3    H235225   2.443   0.603   1.638 -0.0525  1.2738  1.4903
 4556TIP3   OH235226   6.498   4.525   1.199  0.2438  0.3540 -0.1171
 4556TIP3    H135227   6.451   4.544   1.118  0.6417 -3.5129 -1.4770
 4556TIP3    H235228   6.590   4.526   1.173  0.8303  3.6176  1.5298
 4557TIP3   OH235229   5.553   2.732   8.371  0.2018  0.9652 -0.0868
 4557TIP3    H135230   5.590   2.819   8.356 -0.9160  1.6465  0.9848
 4557TIP3    H235231   5.573   2.684   8.290  0.5205  2.3217 -0.8461
 4558TIP3   OH235232   3.444   1.034   8.345 -0.0504  0.2152 -0.1942
 4558TIP3    H135233   3.442   1.128   8.326 -2.3973  0.3039  0.1557
 4558TIP3    H235234   3.449   0.992   8.259  1.4343  0.6177 -0.3375
 4559TIP3   OH235235   5.573   4.212   1.522 -0.2012 -0.0853 -0.0934
 4559TIP3    H135236   5.583   4.161   1.442  1.2730  1.0358 -0.6811
 4559TIP3    H235237   5.645   4.183   1.578 -0.5952 -0.1182  0.3997
 4560TIP3   OH235238   0.237   4.229   8.235  0.1473  0.5554 -0.1539
 4560TIP3    H135239   0.303   4.215   8.304  0.5484  1.9422 -0.2171
 4560TIP3    H235240   0.286   4.220   8.153 -0.2985 -0.9383 -0.2830
 4561TIP3   OH235241   5.635   3.563   2.549  0.3154  0.3850  0.3936
 4561TIP3    H135242   5.656   3.487   2.495 -0.8051 -0.6041  1.2953
 4561TIP3    H235243   5.587   3.527   2.624 -0.3764  2.0001  0.7751
 4562TIP3   OH235244   2.398   2.221   1.567  0.0321  0.3696 -0.1333
 4562TIP3    H135245   2.488   2.201   1.592 -0.3699 -0.1267  0.9880
 4562TIP3    H235246   2.358   2.136   1.549  0.3739  0.6980 -2.9074
 4563TIP3   OH235247   5.584   0.762   0.045 -0.3427  0.4557 -0.1323
 4563TIP3    H135248   5.580   0.831  -0.021 -1.2430  1.5027  0.9798
 4563TIP3    H235249   5.672   0.768   0.082  0.4625 -0.6730 -1.7501
 4564TIP3   OH235250   4.729   0.777   8.544  0.2242 -0.5083 -0.4899
 4564TIP3    H135251   4.679   0.702   8.576  1.4718 -0.7400  1.0516
 4564TIP3    H235252   4.694   0.852   8.593  0.3033 -0.4143 -0.5766
 4565TIP3   OH235253   3.203   2.766   1.532  0.4340 -0.2812  0.4072
 4565TIP3    H135254   3.206   2.774   1.628  0.3612  0.5540  0.3466
 4565TIP3    H235255   3.153   2.686   1.516 -0.4410  0.1260  1.0540
 4566TIP3   OH235256   5.126   1.733   0.586 -0.2823 -0.0579  0.4723
 4566TIP3    H135257   5.102   1.778   0.667 -1.5012  1.1074 -0.4872
 4566TIP3    H235258   5.049   1.680   0.565  0.5609 -1.4656  0.7758
 4567TIP3   OH235259   4.855   3.527   7.216 -0.0257  0.2321  0.2883
 4567TIP3    H135260   4.943   3.490   7.211  0.5238  0.6194  4.0920
 4567TIP3    H235261   4.854   3.598   7.152  2.0871 -0.3844 -0.4940
 4568TIP3   OH235262   6.576   6.145   7.582  0.2274 -0.4567  0.4409
 4568TIP3    H135263   6.557   6.217   7.522  0.8724 -1.9035 -1.5701
 4568TIP3    H235264   6.492   6.124   7.622 -0.3276  0.1674 -0.3698
 4569TIP3   OH235265   0.334   2.800   0.709 -0.8711  0.0431  0.2064
 4569TIP3    H135266   0.375   2.746   0.642 -2.1839 -0.1351 -0.4774
 4569TIP3    H235267   0.403   2.813   0.775  0.4709  0.3161 -1.2043
 4570TIP3   OH235268   0.847   2.456   1.259 -0.5624 -0.3152  0.1687
 4570TIP3    H135269   0.872   2.404   1.336  0.6769 -0.4699 -0.3298
 4570TIP3    H235270   0.829   2.390   1.192 -0.5136 -0.1411 -0.0134
 4571TIP3   OH235271   5.231   2.724   7.805  0.0147 -0.1413  0.3714
 4571TIP3    H135272   5.260   2.635   7.787  1.1697  0.5093 -1.1794
 4571TIP3    H235273   5.136   2.720   7.795  0.1977 -0.8479 -1.4915
 4572TIP3   OH235274   5.038   0.815   8.524  0.0899 -0.0689  0.0614
 4572TIP3    H135275   4.943   0.822   8.536 -0.2823 -3.3063 -0.2743
 4572TIP3    H235276   5.074   0.852   8.605 -1.2830  2.6675 -0.4366
 4573TIP3   OH235277   6.730   3.987   8.570 -0.2147  0.3793 -0.2760
 4573TIP3    H135278   6.640   3.983   8.537  0.1758  0.4430 -1.4252
 4573TIP3    H235279   6.767   4.064   8.527 -0.0185  1.2094  1.3111
 4574TIP3   OH235280   0.719   5.537   7.350 -0.0701 -0.0312  0.0917
 4574TIP3    H135281   0.678   5.457   7.317 -1.7736  0.3967  1.0216
 4574TIP3    H235282   0.674   5.608   7.303 -1.5098  0.5210  2.1562
 4575TIP3   OH235283   5.577   4.670   0.980  0.3985  0.0254  0.7867
 4575TIP3    H135284   5.512   4.609   0.946 -1.4609  1.6182  1.3500
 4575TIP3    H235285   5.613   4.712   0.902  0.8394 -0.8936  0.4707
 4576TIP3   OH235286   3.256   6.792   0.726 -0.1389  0.0328 -0.4278
 4576TIP3    H135287   3.221   6.808   0.814 -1.1413  0.5405 -0.9091
 4576TIP3    H235288   3.224   6.866   0.674  1.2795  0.2785 -0.9958
 4577TIP3   OH235289   0.352   4.458   7.025 -0.0338  0.0188  0.0340
 4577TIP3    H135290   0.304   4.383   6.989 -0.1120 -1.3388  2.7620
 4577TIP3    H235291   0.442   4.427   7.033 -0.4643 -0.7510  3.3111
 4578TIP3   OH235292   6.287   5.519   1.529 -0.0477  0.4083 -0.2728
 4578TIP3    H135293   6.321   5.538   1.617  1.8705  1.4913 -1.1924
 4578TIP3    H235294   6.209   5.574   1.521 -0.2571  0.2841  0.7335
 4579TIP3   OH235295   4.659   4.808   8.281 -0.2910  0.2039  0.4003
 4579TIP3    H135296   4.725   4.754   8.238  1.5052  1.6212  1.2523
 4579TIP3    H235297   4.633   4.757   8.358 -1.5719 -1.1452 -0.8452
 4580TIP3   OH235298   3.975   5.670   1.257  0.6196  0.7838  0.1532
 4580TIP3    H135299   4.029   5.749   1.248  1.5274  0.0379 -1.2965
 4580TIP3    H235300   4.027   5.613   1.313 -0.2078  1.3325  1.5129
 4581TIP3   OH235301   5.854   0.859   2.687 -0.2897 -0.2633  0.3652
 4581TIP3    H135302   5.888   0.948   2.695  0.4475 -0.4892 -0.1476
 4581TIP3    H235303   5.771   0.869   2.639  0.3025  0.0450 -0.6110
 4582TIP3   OH235304   4.523   1.155   7.910  0.1284  0.4801  0.0401
 4582TIP3    H135305   4.464   1.150   7.835  0.0482  0.1523  0.1247
 4582TIP3    H235306   4.537   1.249   7.923 -0.4598  0.5646  0.0918
 4583TIP3   OH235307   4.538   1.376   7.649 -0.7592  0.6365 -0.2356
 4583TIP3    H135308   4.450   1.371   7.613 -1.0751  2.5503  0.1303
 4583TIP3    H235309   4.531   1.437   7.723  1.1075  1.9942 -1.0832
 4584TIP3   OH235310   1.901   6.684   0.378 -0.1343 -0.0029  0.4438
 4584TIP3    H135311   1.932   6.632   0.303 -1.3238  0.4045 -0.3617
 4584TIP3    H235312   1.886   6.620   0.447  0.8675 -0.4055  0.3075
 4585TIP3   OH235313   3.915   0.831   7.026  0.0997  0.7529  0.5285
 4585TIP3    H135314   3.932   0.857   6.935 -0.3478 -1.8055 -0.3485
 4585TIP3    H235315   4.001   0.805   7.060  0.1206  0.8650  0.5632
 4586TIP3   OH235316   6.616   5.455   8.633 -0.0705 -0.2448  0.2989
 4586TIP3    H135317   6.708   5.434   8.616 -0.3385 -1.3441  0.1141
 4586TIP3    H235318   6.617   5.546   8.663  1.0886 -0.2818  0.4188
 4587TIP3   OH235319   6.515   6.642   8.235  0.8537  0.6226 -0.3551
 4587TIP3    H135320   6.588   6.670   8.180  0.5284  1.9832 -0.1105
 4587TIP3    H235321   6.509   6.547   8.219  2.8904  0.3882 -0.1185
 4588TIP3   OH235322   3.826   6.527   0.016 -0.5539  0.5437 -0.3554
 4588TIP3    H135323   3.866   6.499  -0.066 -0.8971  2.3078 -1.1839
 4588TIP3    H235324   3.772   6.453   0.044  0.3763 -0.4641 -1.1616
 4589TIP3   OH235325   4.039   4.660   1.782  0.5536  0.1098 -0.0921
 4589TIP3    H135326   4.002   4.737   1.738 -2.0195 -0.9820 -0.0192
 4589TIP3    H235327   4.034   4.681   1.875  0.3209  0.0544 -0.0917
 4590TIP3   OH235328   3.218   6.394   7.682  0.0489 -0.2605  0.0709
 4590TIP3    H135329   3.166   6.317   7.706 -0.7787  0.1973 -0.1969
 4590TIP3    H235330   3.155   6.466   7.678  1.0277  0.7377  1.6700
 4591TIP3   OH235331   0.222   2.277   7.849 -0.1017 -0.0754 -0.2738
 4591TIP3    H135332   0.182   2.253   7.933  0.1473 -0.2411 -0.2010
 4591TIP3    H235333   0.213   2.198   7.796  0.9813 -0.4416  0.0616
 4592TIP3   OH235334   5.076   6.279   1.930 -0.1120 -0.3724  0.2154
 4592TIP3    H135335   5.163   6.262   1.965 -0.2311  0.3809  0.9057
 4592TIP3    H235336   5.075   6.235   1.845  1.0887 -0.0314  0.0101
 4593TIP3   OH235337   4.562   5.275   1.474 -0.5887 -0.1148 -0.0632
 4593TIP3    H135338   4.652   5.243   1.462  0.4448  1.9948  1.4907
 4593TIP3    H235339   4.525   5.275   1.385  1.8497  1.4190 -1.1879
 4594TIP3   OH235340   3.808   5.495   0.172 -0.3198 -0.3218 -0.4185
 4594TIP3    H135341   3.850   5.414   0.200  0.5124  0.5240  0.8916
 4594TIP3    H235342   3.728   5.501   0.225 -1.1866 -0.9971 -1.5864
 4595TIP3   OH235343   3.307   2.511   8.279  0.0457 -0.0078 -0.1580
 4595TIP3    H135344   3.372   2.468   8.224  0.7690  1.0246 -0.1292
 4595TIP3    H235345   3.278   2.442   8.340  1.5585 -0.3311  0.2244
 4596TIP3   OH235346   5.225   5.919   0.695 -0.5353  0.3403  0.5064
 4596TIP3    H135347   5.311   5.957   0.716 -1.2633  2.0214  0.6032
 4596TIP3    H235348   5.164   5.968   0.749 -1.6530 -0.3679 -0.0780
 4597TIP3   OH235349   6.134   6.297   8.554 -0.1095 -0.2338  0.0943
 4597TIP3    H135350   6.092   6.347   8.625 -0.7751 -0.3111 -0.2373
 4597TIP3    H235351   6.206   6.353   8.526  1.4642 -1.0920  2.1982
 4598TIP3   OH235352   3.038   3.572   0.063  0.4386  0.6136 -0.1752
 4598TIP3    H135353   3.001   3.639   0.005  2.4765  2.1345  0.1621
 4598TIP3    H235354   3.071   3.622   0.138 -0.9281 -1.1638  1.7362
 4599TIP3   OH235355   6.766   1.033   2.406  0.4629 -0.2314  0.5336
 4599TIP3    H135356   6.806   0.955   2.443 -1.3025 -1.2827  0.3641
 4599TIP3    H235357   6.722   1.003   2.327 -0.2365  0.9293  0.4496
 4600TIP3   OH235358   2.335   2.675   1.904 -0.0345 -0.3366 -0.1790
 4600TIP3    H135359   2.275   2.748   1.890 -0.6179 -0.7574  0.0752
 4600TIP3    H235360   2.347   2.637   1.817 -1.2195 -1.0714 -0.0507
 4601TIP3   OH235361   3.082   6.640   0.210  0.0771  0.5001 -0.0396
 4601TIP3    H135362   3.025   6.695   0.156 -0.0316  0.9952  0.5655
 4601TIP3    H235363   3.047   6.552   0.200  0.6215  0.4275 -1.4986
 4602TIP3   OH235364   1.279   6.338   0.708  0.4129  0.1639  0.0439
 4602TIP3    H135365   1.186   6.333   0.686  0.2524 -1.5149  0.9476
 4602TIP3    H235366   1.295   6.261   0.763  2.4607  0.1144 -0.5440
 4603TIP3   OH235367   2.633   1.312   1.121 -0.4101  0.1818  0.0619
 4603TIP3    H135368   2.666   1.308   1.031  2.0636 -0.8521  0.9521
 4603TIP3    H235369   2.543   1.344   1.111 -0.8339 -1.5492 -2.9122
 4604TIP3   OH235370   5.204   4.691   0.838 -0.1839 -0.0795 -0.3383
 4604TIP3    H135371   5.273   4.630   0.814  0.7654 -0.5657  3.0981
 4604TIP3    H235372   5.244   4.777   0.831  0.3429 -0.2678  0.3030
 4605TIP3   OH235373   3.853   3.167   0.449  0.0556 -0.2151 -0.1586
 4605TIP3    H135374   3.848   3.072   0.447 -1.6056 -0.1483 -0.8582
 4605TIP3    H235375   3.908   3.189   0.374 -0.3493 -0.5943 -0.5714
 4606TIP3   OH235376   6.357   6.777   0.443 -0.2219  0.2061 -0.1348
 4606TIP3    H135377   6.376   6.862   0.403  1.8545 -0.1574 -0.0422
 4606TIP3    H235378   6.413   6.774   0.521  1.9466 -2.2901 -1.6017
 4607TIP3   OH235379   4.827   5.164   7.214 -0.2554  0.1843  0.1881
 4607TIP3    H135380   4.856   5.236   7.270  2.6501 -1.4442  0.9455
 4607TIP3    H235381   4.868   5.182   7.129 -2.0798  0.9798 -0.5816
 4608TIP3   OH235382   4.477   2.787   6.880 -1.4141 -0.0904  0.2946
 4608TIP3    H135383   4.408   2.831   6.829 -1.5955  0.6949  1.1926
 4608TIP3    H235384   4.532   2.858   6.913  1.4960 -0.7579 -2.5969
 4609TIP3   OH235385   5.871   5.570   8.415  0.1279 -0.3927  0.0617
 4609TIP3    H135386   5.919   5.614   8.345  1.3697 -1.8757 -0.0856
 4609TIP3    H235387   5.875   5.477   8.391  1.2928 -1.0499  2.4838
 4610TIP3   OH235388   0.229   2.722   7.345  0.1709 -0.8669 -0.1024
 4610TIP3    H135389   0.184   2.802   7.316  0.6981 -0.1077  1.0983
 4610TIP3    H235390   0.171   2.651   7.319 -1.2681  0.0257  0.5489
 4611TIP3   OH235391   2.928   0.463   2.421 -0.1638  0.2303  0.3994
 4611TIP3    H135392   2.834   0.475   2.408 -0.3317  0.3480  1.6023
 4611TIP3    H235393   2.963   0.453   2.332 -1.2305  0.7099 -0.1038
 4612TIP3   OH235394   6.738   5.769   8.329 -0.4308 -0.3810 -0.1524
 4612TIP3    H135395   6.834   5.775   8.325 -0.3423 -1.3290  0.4442
 4612TIP3    H235396   6.718   5.682   8.295 -1.0138 -0.5325  0.5623
 4613TIP3   OH235397   1.043   1.780   7.858 -0.1582 -0.3113 -0.3143
 4613TIP3    H135398   1.074   1.695   7.890 -0.3737  0.1492  1.1501
 4613TIP3    H235399   1.019   1.829   7.936  1.1629  1.5996 -1.0257
 4614TIP3   OH235400   3.762   4.786   2.383  0.3592  0.2740  0.1139
 4614TIP3    H135401   3.846   4.760   2.421  0.5081 -0.0503 -0.4270
 4614TIP3    H235402   3.705   4.711   2.395 -0.0290  0.6930  0.9752
 4615TIP3   OH235403   6.040   3.261   0.909  0.3245  0.0191  0.0952
 4615TIP3    H135404   5.997   3.218   0.983  0.2352  0.6455  0.4218
 4615TIP3    H235405   6.027   3.355   0.926 -0.1302  0.1637 -0.9701
 4616TIP3   OH235406   6.406   5.074   2.576  0.1020  0.2393  0.2376
 4616TIP3    H135407   6.470   5.088   2.506  0.0778  3.9640  0.7738
 4616TIP3    H235408   6.322   5.068   2.530  0.4285 -1.6473 -0.2366
 4617TIP3   OH235409   2.001   2.506   1.730  0.4325 -0.3813  0.5217
 4617TIP3    H135410   2.056   2.429   1.741 -0.4606 -0.9032  1.4840
 4617TIP3    H235411   1.932   2.496   1.796 -0.4217  0.5944 -0.1956
 4618TIP3   OH235412   0.061   0.988   7.163 -0.4169  0.7352 -0.2882
 4618TIP3    H135413  -0.003   0.973   7.093  0.2709  0.3544 -0.8464
 4618TIP3    H235414   0.041   1.076   7.195 -1.8727  0.2322  0.2485
 4619TIP3   OH235415   2.488   6.544   2.836  0.1531  0.2810 -0.0891
 4619TIP3    H135416   2.456   6.590   2.759 -2.0178 -1.0429 -0.0412
 4619TIP3    H235417   2.433   6.575   2.908 -2.0489 -2.9258 -0.2196
 4620TIP3   OH235418   0.411   6.524   0.309 -0.4594  0.3508  0.0342
 4620TIP3    H135419   0.400   6.617   0.324 -0.9704  0.3686 -0.4231
 4620TIP3    H235420   0.398   6.484   0.396  2.0026  0.8570  0.6992
 4621TIP3   OH235421   4.617   3.887   0.520 -0.2553  0.0053 -0.3225
 4621TIP3    H135422   4.586   3.935   0.597  0.3500 -0.7716  0.4198
 4621TIP3    H235423   4.652   3.954   0.462 -0.6400  0.5920  0.1146
 4622TIP3   OH235424   4.450   3.996   0.164  0.3056  0.3626 -0.7152
 4622TIP3    H135425   4.361   3.980   0.134 -0.2719  1.2680  0.4410
 4622TIP3    H235426   4.483   4.065   0.107 -0.5573  1.6199  0.2519
 4623TIP3   OH235427   0.075   6.471   1.877  0.3940 -0.0861  0.4900
 4623TIP3    H135428   0.066   6.560   1.843  0.7701  0.0109  0.6325
 4623TIP3    H235429   0.170   6.454   1.874  0.1969 -1.1179 -1.1453
 4624TIP3   OH235430   2.301   3.041   0.744 -0.3261 -0.4701 -0.2003
 4624TIP3    H135431   2.250   2.962   0.759  0.0610 -0.9164 -1.1285
 4624TIP3    H235432   2.248   3.112   0.779 -0.4853 -1.1795  1.0502
 4625TIP3   OH235433   4.604   2.478   1.555 -0.0252  0.1860 -0.2895
 4625TIP3    H135434   4.695   2.453   1.569 -0.3522 -1.1028 -0.3506
 4625TIP3    H235435   4.597   2.490   1.461  0.2240  0.9348 -0.2229
 4626TIP3   OH235436   4.652   3.411   0.855 -1.1528 -0.3807  0.1419
 4626TIP3    H135437   4.641   3.471   0.929  0.5869  0.0336  0.1122
 4626TIP3    H235438   4.576   3.354   0.859 -1.9736  0.7306  1.2111
 4627TIP3   OH235439   3.474   1.993   1.174 -0.0256  0.2423  0.1179
 4627TIP3    H135440   3.406   1.942   1.218  0.0391  1.2000  1.3854
 4627TIP3    H235441   3.452   1.986   1.081 -1.9984  0.7016  0.5035
 4628TIP3   OH235442   1.143   0.226   1.859  0.0227 -0.4689 -0.5381
 4628TIP3    H135443   1.225   0.276   1.858  0.5555 -1.2306  1.3500
 4628TIP3    H235444   1.076   0.289   1.833  0.7285  1.1708  1.3515
 4629TIP3   OH235445   4.838   2.646   8.441 -0.3207  0.2387  0.1963
 4629TIP3    H135446   4.795   2.636   8.356  0.2134 -3.1676  0.2208
 4629TIP3    H235447   4.791   2.588   8.500  0.5945  1.0128  1.7636
 4630TIP3   OH235448   4.740   3.161   8.558  0.8040 -0.4838 -0.3197
 4630TIP3    H135449   4.792   3.151   8.637 -0.8423 -1.0963  0.7407
 4630TIP3    H235450   4.649   3.151   8.587 -0.0301  1.8230 -1.8633
 4631TIP3   OH235451   5.238   2.565   1.998 -0.0208  0.1480  0.2782
 4631TIP3    H135452   5.205   2.544   2.086  2.3868 -0.8595  1.0312
 4631TIP3    H235453   5.191   2.505   1.940 -0.2148 -0.5878  1.1566
 4632TIP3   OH235454   5.181   5.090   1.287 -0.9650 -0.1735 -0.2418
 4632TIP3    H135455   5.193   5.177   1.249  0.1791  0.7488  2.0096
 4632TIP3    H235456   5.215   5.098   1.376  0.2371 -3.2221 -0.2884
 4633TIP3   OH235457   4.489   1.209   2.967 -0.0678 -0.4039 -0.2284
 4633TIP3    H135458   4.460   1.138   2.909 -0.8053  0.2765 -0.7117
 4633TIP3    H235459   4.544   1.264   2.911 -1.0023  0.4023 -0.3772
 4634TIP3   OH235460   0.315   1.596   1.799  0.0158 -0.0782  0.2701
 4634TIP3    H135461   0.348   1.642   1.876  0.1628 -2.9603  2.0847
 4634TIP3    H235462   0.392   1.553   1.761 -0.5839 -1.7926  0.8706
 4635TIP3   OH235463   2.885   0.836   8.291 -0.1669 -0.2163  0.3256
 4635TIP3    H135464   2.920   0.749   8.312  1.8477  0.7286  1.1455
 4635TIP3    H235465   2.949   0.873   8.230 -0.8716  0.8008  0.1826
 4636TIP3   OH235466   6.228   5.541   7.519  0.5391 -0.6763 -0.8141
 4636TIP3    H135467   6.306   5.485   7.526  0.2496 -0.9738  0.2926
 4636TIP3    H235468   6.159   5.481   7.490  0.4534 -0.6771 -0.6087
 4637TIP3   OH235469   3.426   2.102   2.485 -0.1047 -0.2984  0.5931
 4637TIP3    H135470   3.363   2.079   2.416 -1.0090 -0.2821  1.3903
 4637TIP3    H235471   3.372   2.144   2.553  0.8624  0.2425  1.0403
 4638TIP3   OH235472   5.954   5.202   2.202 -0.1392  0.3494 -0.0535
 4638TIP3    H135473   6.000   5.129   2.160 -1.1971 -0.9656  0.9614
 4638TIP3    H235474   5.908   5.246   2.131 -0.1496 -0.4893 -0.5836
 4639TIP3   OH235475   2.622   3.142   2.327 -0.2564  0.2542 -0.1562
 4639TIP3    H135476   2.576   3.225   2.337 -1.5000 -0.4860  0.4863
 4639TIP3    H235477   2.586   3.085   2.396  1.6488 -0.3642  0.4048
 4640TIP3   OH235478   2.102   0.230   8.213 -0.4896  0.2726  0.3018
 4640TIP3    H135479   2.084   0.317   8.250 -0.6258  0.4413 -0.1550
 4640TIP3    H235480   2.188   0.206   8.248  1.0889  1.9977 -2.0770
 4641TIP3   OH235481   2.887   2.939   0.474 -0.6320 -0.4209 -0.3590
 4641TIP3    H135482   2.975   2.935   0.437  0.0942 -0.4087  1.2972
 4641TIP3    H235483   2.831   2.963   0.400  1.1046  2.2940 -0.9214
 4642TIP3   OH235484   0.075   3.389   8.477 -0.0049  0.0059 -0.0750
 4642TIP3    H135485   0.158   3.342   8.482  0.1273  0.0799 -1.2522
 4642TIP3    H235486   0.024   3.340   8.412 -1.8618 -1.4849  2.3069
 4643TIP3   OH235487   6.527   4.992   0.104 -0.0270  0.6775 -0.2766
 4643TIP3    H135488   6.543   5.041   0.185 -0.6323  2.6549 -1.2832
 4643TIP3    H235489   6.550   5.053   0.034  0.1305 -0.8547 -1.6339
 4644TIP3   OH235490   2.366   4.580   1.476  0.5886  0.0390 -0.0418
 4644TIP3    H135491   2.444   4.548   1.520  0.6645  0.3732  0.0695
 4644TIP3    H235492   2.294   4.553   1.533  0.8156  2.5002  1.5891
 4645TIP3   OH235493   5.170   2.814   2.963  0.1428 -0.9122  0.5383
 4645TIP3    H135494   5.209   2.735   2.999  0.3673 -0.9109  0.2977
 4645TIP3    H235495   5.240   2.854   2.911 -0.0350 -0.6689  0.4842
 4646TIP3   OH235496   3.731   2.616   0.212 -0.3037 -0.5553  0.7080
 4646TIP3    H135497   3.639   2.625   0.237  0.1681 -1.5614  3.0519
 4646TIP3    H235498   3.779   2.668   0.277  0.8362 -0.3869 -0.2262
 4647TIP3   OH235499   0.312   6.285   0.791  0.2955  0.2346  0.2101
 4647TIP3    H135500   0.280   6.234   0.866 -4.5920  0.9205 -1.0160
 4647TIP3    H235501   0.309   6.223   0.718  1.0916  0.5726 -0.1139
 4648TIP3   OH235502   3.356   5.563   8.749  0.1881 -0.0313  0.4222
 4648TIP3    H135503   3.295   5.514   8.694 -0.7724  0.0599  1.3857
 4648TIP3    H235504   3.343   5.654   8.722 -0.7669  0.0872  1.2377
 4649TIP3   OH235505   4.288   5.554   8.328 -0.3180 -0.0721 -0.1651
 4649TIP3    H135506   4.238   5.507   8.395 -1.1017 -0.2115 -0.8304
 4649TIP3    H235507   4.223   5.611   8.286  0.3471  0.6475 -0.2421
 4650TIP3   OH235508   3.588   4.275   0.477 -0.2247  0.2213 -0.0455
 4650TIP3    H135509   3.663   4.221   0.501  2.3285  2.5839 -2.1286
 4650TIP3    H235510   3.589   4.277   0.382 -2.1568  1.3797 -0.0924
 4651TIP3   OH235511   3.331   4.027   8.488 -0.3339  0.8042 -0.1679
 4651TIP3    H135512   3.410   3.992   8.446 -0.0217 -0.4328  1.3407
 4651TIP3    H235513   3.266   3.958   8.480 -0.3017  0.5753  1.2163
 4652TIP3   OH235514   1.583   2.459   8.325 -0.4613  0.5630 -0.2440
 4652TIP3    H135515   1.666   2.425   8.291 -0.8031 -1.9224  1.1349
 4652TIP3    H235516   1.608   2.513   8.400 -0.0332 -1.8646  1.5050
 4653TIP3   OH235517   0.068   3.998   1.477  0.2533  0.2794 -1.3924
 4653TIP3    H135518   0.163   3.987   1.468  0.5093 -0.7591  1.4659
 4653TIP3    H235519   0.059   4.081   1.525 -0.1371 -0.3940 -0.2598
 4654TIP3   OH235520   4.384   3.545   8.574 -0.3296  0.2792  0.2686
 4654TIP3    H135521   4.392   3.470   8.633 -0.5536  0.5361  0.6287
 4654TIP3    H235522   4.360   3.618   8.631 -1.1522  0.4027 -0.2247
 4655TIP3   OH235523   4.617   1.528   8.796  0.3068  0.0036  0.3354
 4655TIP3    H135524   4.695   1.526   8.740  0.8684 -0.7859  1.1217
 4655TIP3    H235525   4.645   1.484   8.876 -0.6962  0.5029  0.9622
 4656TIP3   OH235526   5.535   1.242   8.559  0.4244  0.1577  0.2013
 4656TIP3    H135527   5.548   1.315   8.498  1.1445  0.0077  0.1699
 4656TIP3    H235528   5.452   1.203   8.532  0.7100  0.1252 -0.6428
 4657TIP3   OH235529   0.146   5.873   2.888 -0.0199  0.3530 -0.4064
 4657TIP3    H135530   0.144   5.913   2.801 -1.7788  0.0388 -0.5446
 4657TIP3    H235531   0.228   5.824   2.890 -0.3768 -0.4124 -2.2681
 4658TIP3   OH235532   3.459   5.796   1.282 -0.1919  0.1932  0.3434
 4658TIP3    H135533   3.462   5.853   1.359  2.3819  0.0013  0.4483
 4658TIP3    H235534   3.467   5.708   1.317 -0.1594  0.0317 -0.0650
 4659TIP3   OH235535   5.627   5.816   7.657  0.2973 -0.0971 -0.6438
 4659TIP3    H135536   5.633   5.790   7.565  0.1034 -1.0530 -0.3959
 4659TIP3    H235537   5.560   5.885   7.658  0.3704 -0.0136 -1.2260
 4660TIP3   OH235538   1.872   6.769   7.773  0.6497  0.0739  0.0782
 4660TIP3    H135539   1.960   6.734   7.781  0.9754  0.8848  0.1253
 4660TIP3    H235540   1.881   6.845   7.716 -0.0553  0.0449 -0.0864
 4661TIP3   OH235541   3.153   4.297   7.998  0.4409  0.2598 -0.4037
 4661TIP3    H135542   3.239   4.340   7.997  0.9164 -0.4496  1.9720
 4661TIP3    H235543   3.171   4.210   8.034 -0.9524 -0.8029 -2.1717
 4662TIP3   OH235544   5.074   1.681   8.699  0.3239 -0.6388  0.4618
 4662TIP3    H135545   5.125   1.686   8.780  3.3022 -1.3913 -1.2132
 4662TIP3    H235546   5.079   1.770   8.663 -4.0366  0.7491  2.5873
 4663TIP3   OH235547   5.121   3.436   7.114 -0.6131 -0.1165  0.9465
 4663TIP3    H135548   5.110   3.342   7.105  1.4490 -0.4839  1.6427
 4663TIP3    H235549   5.133   3.468   7.025 -0.3930 -0.6777  0.7695
 4664TIP3   OH235550   4.612   2.396   0.037  0.1191 -0.1140  0.1161
 4664TIP3    H135551   4.605   2.422   0.129 -0.3347  2.4469 -0.5593
 4664TIP3    H235552   4.540   2.442  -0.006  0.6981 -0.7699 -1.6328
 4665TIP3   OH235553   1.177   3.649   1.398  0.3581  0.4057  0.1599
 4665TIP3    H135554   1.127   3.620   1.321 -0.2354  0.0340  0.6790
 4665TIP3    H235555   1.156   3.584   1.465  0.3198  1.1247  0.8490
 4666TIP3   OH235556   3.114   5.615   1.643 -0.3958  0.6412  0.4999
 4666TIP3    H135557   3.079   5.655   1.722 -0.7490 -0.2391  0.8033
 4666TIP3    H235558   3.166   5.684   1.602  0.2996  0.9331  1.8067
 4667TIP3   OH235559   2.721   4.110   6.917  0.6268 -0.5812  0.2995
 4667TIP3    H135560   2.798   4.163   6.894  0.5949 -0.0673  1.3498
 4667TIP3    H235561   2.656   4.132   6.851  0.2377  1.5254  1.3212
 4668TIP3   OH235562   6.233   3.447   7.745 -0.4712  0.3265  0.0939
 4668TIP3    H135563   6.198   3.440   7.656  2.3539  0.7079 -1.1316
 4668TIP3    H235564   6.246   3.356   7.773 -1.8103  0.1940  0.3639
 4669TIP3   OH235565   1.769   3.331   7.588  0.5701 -0.2336 -0.8245
 4669TIP3    H135566   1.832   3.264   7.564 -0.6095 -2.0395  0.7886
 4669TIP3    H235567   1.711   3.288   7.651 -0.6090  2.1447 -0.1495
 4670TIP3   OH235568   5.230   1.174   1.055 -0.1254 -0.9633 -0.2993
 4670TIP3    H135569   5.296   1.215   0.999  2.1115 -1.9646  1.4152
 4670TIP3    H235570   5.241   1.080   1.040 -1.3540 -1.1431 -0.1501
 4671TIP3   OH235571   5.819   2.137   2.099  0.6772  0.8103 -0.2820
 4671TIP3    H135572   5.864   2.174   2.175  0.4433 -0.0582  0.3033
 4671TIP3    H235573   5.763   2.068   2.136  1.7150 -0.6887 -1.3915
 4672TIP3   OH235574   0.258   5.613   7.693 -1.0268 -0.1105 -0.7114
 4672TIP3    H135575   0.280   5.558   7.768  0.1359 -1.0856 -1.7067
 4672TIP3    H235576   0.177   5.658   7.718 -2.2837 -2.5942  0.0125
 4673TIP3   OH235577   6.116   6.331   7.195 -0.4053  0.2089  0.5289
 4673TIP3    H135578   6.037   6.351   7.144  0.0905  1.1596  0.1077
 4673TIP3    H235579   6.151   6.416   7.218  0.9012 -0.1891  0.0775
 4674TIP3   OH235580   6.815   0.707   2.165 -0.1959 -0.3869  1.0447
 4674TIP3    H135581   6.770   0.791   2.151 -0.4086 -0.7561 -0.7546
 4674TIP3    H235582   6.903   0.722   2.131 -0.4685 -1.1008 -0.0172
 4675TIP3   OH235583   2.840   0.739   0.335 -0.8623 -0.4585  0.0901
 4675TIP3    H135584   2.935   0.740   0.332 -0.8822  0.0603 -0.5025
 4675TIP3    H235585   2.814   0.830   0.325 -1.4143 -0.5464  0.6636
 4676TIP3   OH235586   0.337   1.234   1.742 -0.6089 -0.0189  0.1753
 4676TIP3    H135587   0.274   1.284   1.795 -2.1989 -2.7033  1.0224
 4676TIP3    H235588   0.393   1.191   1.806 -1.6618 -2.1877 -0.2355
 4677TIP3   OH235589   1.566   4.828   0.556  0.5765 -0.3230 -0.2471
 4677TIP3    H135590   1.495   4.835   0.492  0.3481 -0.3910 -0.0005
 4677TIP3    H235591   1.632   4.773   0.514  0.3955 -0.4251 -0.3935
 4678TIP3   OH235592   0.137   1.952   0.260 -0.2532  0.2609 -0.2663
 4678TIP3    H135593   0.156   1.902   0.339  2.7891  0.4776 -0.7427
 4678TIP3    H235594   0.179   2.036   0.273 -1.7122  1.1821 -1.1968
 4679TIP3   OH235595   5.428   2.885   8.673 -0.5133  0.6280  0.0713
 4679TIP3    H135596   5.395   2.966   8.712 -0.3885  1.0331 -0.6518
 4679TIP3    H235597   5.453   2.910   8.584  1.5357  0.2978  0.5041
 4680TIP3   OH235598   2.524   5.225   2.581  0.0300 -0.3696  0.3473
 4680TIP3    H135599   2.443   5.274   2.590  0.1267  0.0547 -0.9500
 4680TIP3    H235600   2.588   5.273   2.633 -0.3696 -0.2862  0.7608
 4681TIP3   OH235601   2.406   0.231   7.997 -0.8988  0.7351  0.5004
 4681TIP3    H135602   2.407   0.324   7.977  0.5133  0.8903  1.2049
 4681TIP3    H235603   2.498   0.206   8.005 -1.0358 -1.3902 -2.5808
 4682TIP3   OH235604   6.336   5.457   8.320  0.5065 -0.1831  0.3063
 4682TIP3    H135605   6.281   5.400   8.266  1.5537 -0.6832 -0.2557
 4682TIP3    H235606   6.316   5.545   8.290 -1.2785 -0.1906  1.3141
 4683TIP3   OH235607   4.473   3.949   7.610 -0.4805 -0.1519  0.0236
 4683TIP3    H135608   4.385   3.938   7.649 -0.1399  0.6321  1.0784
 4683TIP3    H235609   4.511   3.862   7.613 -0.9246 -0.3429  0.3332
 4684TIP3   OH235610   5.665   1.560   2.331 -0.6690 -0.7137 -0.1784
 4684TIP3    H135611   5.575   1.580   2.357  0.3785  0.7905  2.7748
 4684TIP3    H235612   5.711   1.643   2.338  1.3167 -1.7803  0.0747
 4685TIP3   OH235613   2.236   1.682   2.160  0.4341  0.7310 -0.2865
 4685TIP3    H135614   2.284   1.656   2.238  0.9193 -2.1445 -1.4113
 4685TIP3    H235615   2.177   1.751   2.190  1.7619  0.9098  2.2040
 4686TIP3   OH235616   2.639   5.617   0.855 -0.2649 -0.3325 -0.3101
 4686TIP3    H135617   2.635   5.578   0.768 -0.3093  1.3596 -1.1061
 4686TIP3    H235618   2.731   5.635   0.870 -0.1878 -1.1284  0.2559
 4687TIP3   OH235619   3.394   2.869   7.983  1.0086 -0.2493  0.0744
 4687TIP3    H135620   3.378   2.870   7.889  1.0299 -2.2278  0.0036
 4687TIP3    H235621   3.310   2.842   8.021  1.8513 -2.7121  0.3298
 4688TIP3   OH235622   2.800   0.806   2.741  0.5749  0.1437  0.6241
 4688TIP3    H135623   2.854   0.744   2.791 -0.0291 -0.9296 -0.0233
 4688TIP3    H235624   2.761   0.754   2.672 -0.5226  1.1114  0.4822
 4689TIP3   OH235625   3.924   1.830   0.898 -0.1523 -0.6632 -0.0142
 4689TIP3    H135626   3.848   1.779   0.927 -0.8588 -0.1093 -0.8618
 4689TIP3    H235627   3.894   1.921   0.900  1.4648 -0.0741  2.6873
 4690TIP3   OH235628   0.515   3.336   8.565  0.0662 -0.0342  0.3774
 4690TIP3    H135629   0.569   3.275   8.616 -0.7452  0.0906  1.4084
 4690TIP3    H235630   0.574   3.408   8.544  0.3620  0.0059  1.3052
 4691TIP3   OH235631   1.019   2.184   7.265 -0.4108 -0.1387 -0.8343
 4691TIP3    H135632   0.951   2.121   7.240 -1.4164  0.1146  1.1206
 4691TIP3    H235633   1.070   2.196   7.184 -0.8965 -2.5152 -1.5939
 4692TIP3   OH235634   6.585   4.317   8.078 -0.0987  0.1029 -0.3007
 4692TIP3    H135635   6.560   4.230   8.111 -3.3666 -0.0579 -2.6270
 4692TIP3    H235636   6.524   4.377   8.121 -0.5884  0.6338 -1.6771
 4693TIP3   OH235637   1.930   5.956   0.687 -0.3604 -0.3457 -0.6709
 4693TIP3    H135638   1.894   5.997   0.608  1.0270  1.0228 -0.6241
 4693TIP3    H235639   2.019   5.930   0.662 -0.7920 -2.3175 -0.3301
 4694TIP3   OH235640   5.994   2.909   7.275  0.2813  0.0965  0.9286
 4694TIP3    H135641   6.088   2.911   7.257  0.5650 -0.6115  2.1885
 4694TIP3    H235642   5.956   2.861   7.201  1.0775 -0.6867  1.0111
 4695TIP3   OH235643   6.479   3.756   1.277 -0.6096 -0.8944  0.1069
 4695TIP3    H135644   6.499   3.849   1.281  2.6890 -1.4630 -0.0852
 4695TIP3    H235645   6.384   3.751   1.277 -0.8923  2.3915  1.4622
 4696TIP3   OH235646   4.869   3.106   0.750  0.9161 -0.9773 -0.3154
 4696TIP3    H135647   4.925   3.172   0.709  2.5511 -1.2448  1.3239
 4696TIP3    H235648   4.929   3.056   0.806 -1.2402  0.0898  3.2776
 4697TIP3   OH235649   6.233   3.571   0.246 -0.6250 -0.5809  0.6313
 4697TIP3    H135650   6.268   3.498   0.297 -1.9586 -0.5607  1.6148
 4697TIP3    H235651   6.207   3.636   0.311 -3.4932 -1.0573  0.1144
 4698TIP3   OH235652   5.805   3.168   1.799  0.1099  0.9304  0.3115
 4698TIP3    H135653   5.827   3.147   1.890  0.2012  0.4717  0.1875
 4698TIP3    H235654   5.774   3.085   1.762 -0.9907  1.3493  0.2338
 4699TIP3   OH235655   1.251   4.885   2.357  0.3258  0.5779 -0.2715
 4699TIP3    H135656   1.291   4.937   2.286 -0.2212  0.3426 -0.7597
 4699TIP3    H235657   1.311   4.811   2.368 -0.8904 -0.8198 -2.3360
 4700TIP3   OH235658   1.308   0.065   0.687  0.2501 -0.2398 -0.3788
 4700TIP3    H135659   1.341  -0.003   0.628 -0.2545 -0.1022 -0.8232
 4700TIP3    H235660   1.298   0.142   0.632 -0.4912 -0.1889 -0.1805
 4701TIP3   OH235661   5.921   4.195   7.177 -0.3881  0.0698 -0.4864
 4701TIP3    H135662   5.937   4.115   7.129 -0.1064 -0.0930 -0.1276
 4701TIP3    H235663   5.951   4.265   7.119  0.7484 -0.1732 -0.2156
 4702TIP3   OH235664   3.912   2.725   6.885 -0.3456 -0.1008 -0.6047
 4702TIP3    H135665   3.877   2.675   6.811 -2.5407  2.0456 -1.1418
 4702TIP3    H235666   3.835   2.744   6.939  0.6675  1.3279  0.4011
 4703TIP3   OH235667   5.491   5.614   1.260  0.8931  0.1081 -0.2288
 4703TIP3    H135668   5.536   5.630   1.177 -1.1347  0.1028 -1.4025
 4703TIP3    H235669   5.490   5.698   1.304  1.9581  0.1206 -0.1966
 4704TIP3   OH235670   1.121   1.010   1.707  0.0301 -0.1294  0.0961
 4704TIP3    H135671   1.208   1.028   1.671 -0.4304 -0.9503 -1.5231
 4704TIP3    H235672   1.065   1.078   1.669 -0.1992 -0.1434  0.4073
 4705TIP3   OH235673   2.240   5.150   2.226  0.1991 -0.3518  0.9522
 4705TIP3    H135674   2.225   5.209   2.299 -1.8400 -0.4982  0.7235
 4705TIP3    H235675   2.318   5.101   2.250 -0.5763 -0.6072  3.1794
 4706TIP3   OH235676   1.977   4.337   7.749  0.6252  0.4630 -0.5119
 4706TIP3    H135677   2.014   4.298   7.669 -1.9270 -1.3135 -0.9566
 4706TIP3    H235678   1.926   4.412   7.717 -0.3076 -0.1833 -0.5845
 4707TIP3   OH235679   3.617   6.415   2.377 -0.3343  0.0672  0.3109
 4707TIP3    H135680   3.597   6.507   2.396  0.5805 -0.0588  2.0721
 4707TIP3    H235681   3.689   6.393   2.436  1.8776 -0.8142 -2.4941
 4708TIP3   OH235682   5.516   5.064   1.040 -0.2812  0.0866  0.3065
 4708TIP3    H135683   5.602   5.044   1.004 -0.3046 -3.0010  1.6219
 4708TIP3    H235684   5.527   5.056   1.135 -1.7881  0.6541  0.5627
 4709TIP3   OH235685   5.779   3.888   1.821 -0.2597  0.3744 -0.0456
 4709TIP3    H135686   5.831   3.847   1.890 -0.4205 -0.7008 -0.5296
 4709TIP3    H235687   5.753   3.973   1.856  1.3714  0.7065  0.4147
 4710TIP3   OH235688   1.048   2.627   8.797 -0.1223 -0.0049 -0.1454
 4710TIP3    H135689   1.103   2.614   8.874  0.9314 -1.1628 -1.0425
 4710TIP3    H235690   1.103   2.676   8.736 -0.6550  0.2059 -0.4684
 4711TIP3   OH235691   3.005   1.951   0.127 -0.7701  0.3486  0.0114
 4711TIP3    H135692   3.003   1.899   0.207 -0.2895  0.6262  0.2042
 4711TIP3    H235693   3.078   1.915   0.077 -0.6775  0.5902 -0.0274
 4712TIP3   OH235694   2.547   0.202   0.079  0.3132  0.1693 -0.1065
 4712TIP3    H135695   2.543   0.129   0.141  2.3345  0.5577  0.5549
 4712TIP3    H235696   2.512   0.276   0.128 -3.1160 -0.5230 -1.2395
 4713TIP3   OH235697   6.804   0.951   0.546 -0.2938  0.0534 -0.0490
 4713TIP3    H135698   6.898   0.934   0.536  0.3046  2.8276 -0.1133
 4713TIP3    H235699   6.761   0.885   0.492  1.5043 -2.2668  1.1954
 4714TIP3   OH235700   6.486   5.456   0.915 -0.2553  0.0298 -0.0241
 4714TIP3    H135701   6.478   5.526   0.979 -1.1976 -0.2967  0.2310
 4714TIP3    H235702   6.580   5.434   0.914 -0.1667  0.3469  0.8927
 4715TIP3   OH235703   5.760   4.104   7.814  0.2843  0.0834  0.0994
 4715TIP3    H135704   5.836   4.130   7.761 -0.2125 -1.9979 -1.7646
 4715TIP3    H235705   5.766   4.159   7.892  0.0047  4.8138 -2.7977
 4716TIP3   OH235706   1.711   2.238   8.013 -0.5142 -0.4831  0.5622
 4716TIP3    H135707   1.768   2.261   8.087  1.5117  1.1521 -1.3623
 4716TIP3    H235708   1.682   2.149   8.032 -0.9142  0.1914  3.7704
 4717TIP3   OH235709   0.202   0.012   8.571  0.1820 -0.1788  0.0497
 4717TIP3    H135710   0.279  -0.017   8.523  0.5166  1.0539 -0.1913
 4717TIP3    H235711   0.158  -0.069   8.596  1.4870 -0.9118  0.0916
 4718TIP3   OH235712   5.762   1.218   0.006  0.5139  0.9887  0.4481
 4718TIP3    H135713   5.779   1.169  -0.075 -0.8769 -0.6944  1.1169
 4718TIP3    H235714   5.844   1.210   0.056  1.0661  1.2721 -0.3860
 4719TIP3   OH235715   0.340   3.960   1.150  0.3793 -0.0312 -0.2565
 4719TIP3    H135716   0.377   4.048   1.161  0.6000 -0.0819 -0.5689
 4719TIP3    H235717   0.295   3.963   1.066  0.5421 -0.2697 -0.3530
 4720TIP3   OH235718   1.299   1.693   1.023  0.3412  0.2659 -0.1330
 4720TIP3    H135719   1.263   1.781   1.025 -2.3250 -0.6890 -1.3249
 4720TIP3    H235720   1.317   1.676   0.930  2.3457  0.0555  0.2380
 4721TIP3   OH235721   2.347   2.153   7.036 -0.2247 -0.4008 -0.2548
 4721TIP3    H135722   2.367   2.174   6.945 -2.8126 -0.2989 -0.8720
 4721TIP3    H235723   2.351   2.057   7.040 -0.0634 -0.4039 -0.4562
 4722TIP3   OH235724   1.221   4.378   1.358 -0.0455  0.0284 -0.0258
 4722TIP3    H135725   1.239   4.284   1.362 -1.8164 -0.4080 -0.9378
 4722TIP3    H235726   1.132   4.387   1.393 -0.2411  1.2425 -0.7657
 4723TIP3   OH235727   1.038   5.330   2.227  0.4825 -0.3426 -0.4984
 4723TIP3    H135728   1.081   5.271   2.289 -0.5907 -1.3222 -0.6336
 4723TIP3    H235729   0.955   5.353   2.270  0.4827  0.3418 -0.8489
 4724TIP3   OH235730   3.719   5.093   1.937 -0.5409 -0.5306  0.5616
 4724TIP3    H135731   3.779   5.031   1.980  0.7182 -0.0363 -0.4070
 4724TIP3    H235732   3.678   5.042   1.867  2.5646  0.2654 -2.0757
 4725TIP3   OH235733   2.788   0.116   1.984 -0.5787  0.7156 -0.1152
 4725TIP3    H135734   2.712   0.165   2.016 -1.0911 -0.3139  0.2772
 4725TIP3    H235735   2.863   0.166   2.015 -1.0692  2.0355 -0.9440
 4726TIP3   OH235736   4.611   0.315   6.993  0.3805  0.2491  0.7894
 4726TIP3    H135737   4.693   0.364   7.005  2.1130 -1.8746 -1.2415
 4726TIP3    H235738   4.586   0.334   6.902 -0.5887 -0.2488  0.9434
 4727TIP3   OH235739   6.461   0.653   1.082  0.6886  0.7443 -0.3945
 4727TIP3    H135740   6.491   0.640   1.172 -2.1171  1.2288  0.7182
 4727TIP3    H235741   6.483   0.745   1.063 -0.5252  1.2690  0.6116
 4728TIP3   OH235742   5.952   1.086   8.572  0.2401  0.3595  0.3546
 4728TIP3    H135743   5.954   1.164   8.517  0.0266 -1.4174 -2.4159
 4728TIP3    H235744   6.039   1.079   8.609  0.4389  1.5832  0.1367
 4729TIP3   OH235745   1.558   3.700   8.155  0.2385  0.1539 -0.2943
 4729TIP3    H135746   1.465   3.697   8.135  0.1682  0.8379 -0.0929
 4729TIP3    H235747   1.570   3.634   8.224 -0.0929  0.0460 -0.3397
 4730TIP3   OH235748   6.243   0.901   2.178 -0.1541 -0.2051 -0.3899
 4730TIP3    H135749   6.264   0.969   2.114  2.9196 -1.7280 -1.1946
 4730TIP3    H235750   6.227   0.948   2.259  0.6139  1.5485 -1.2060
 4731TIP3   OH235751   0.548   0.301   0.076  0.1115  0.3522 -0.6028
 4731TIP3    H135752   0.576   0.264  -0.007  1.8500 -0.7662  0.4186
 4731TIP3    H235753   0.628   0.308   0.128 -0.9020  1.0963  0.9550
 4732TIP3   OH235754   4.245   0.184   1.925 -0.2873  0.1543 -0.0529
 4732TIP3    H135755   4.241   0.115   1.991 -0.2867  0.1510 -0.0564
 4732TIP3    H235756   4.187   0.155   1.856 -0.0562  0.0152 -0.1901
 4733TIP3   OH235757   2.526   0.367   0.923 -0.2452 -0.8739  0.1598
 4733TIP3    H135758   2.590   0.353   0.852  1.6796  1.7953  1.1783
 4733TIP3    H235759   2.543   0.296   0.985 -0.7725 -2.2442 -1.2036
 4734TIP3   OH235760   4.247   3.614   6.457  0.7202  0.4047 -0.3261
 4734TIP3    H135761   4.175   3.618   6.520  0.3965  0.9183 -0.7134
 4734TIP3    H235762   4.204   3.614   6.371  1.1621  0.0645 -0.5506
 4735TIP3   OH235763   3.753   5.293   0.859  0.0016 -0.1752  0.1776
 4735TIP3    H135764   3.746   5.331   0.772  1.9015  0.0753  0.0861
 4735TIP3    H235765   3.742   5.367   0.919  0.3516 -0.0575  0.0970
 4736TIP3   OH235766   2.618   2.353   0.697 -0.5052 -0.0182 -0.1837
 4736TIP3    H135767   2.578   2.278   0.739 -0.0507 -0.3672 -0.3614
 4736TIP3    H235768   2.632   2.416   0.768 -1.4659  0.1560 -0.1463
 4737TIP3   OH235769   4.965   3.578   0.455 -0.0915 -0.3177 -0.2114
 4737TIP3    H135770   4.962   3.499   0.508  0.3495  0.0487  0.3812
 4737TIP3    H235771   5.044   3.569   0.402  1.0950  0.6018  1.3129
 4738TIP3   OH235772   5.109   2.865   8.478 -0.5849 -0.0974 -0.6804
 4738TIP3    H135773   5.091   2.942   8.424  0.8896 -0.9819 -2.5388
 4738TIP3    H235774   5.178   2.893   8.539 -0.9887  0.4022 -0.4451
 4739TIP3   OH235775   4.496   2.041   8.586  0.0277 -0.3965  0.1475
 4739TIP3    H135776   4.551   1.970   8.618 -0.6961 -2.1061 -2.1952
 4739TIP3    H235777   4.557   2.108   8.557  0.9711 -2.1010 -2.0620
 4740TIP3   OH235778   1.366   5.087   8.608 -0.4082 -0.1617 -0.2594
 4740TIP3    H135779   1.389   5.173   8.644  0.9857  0.5726 -2.6964
 4740TIP3    H235780   1.285   5.064   8.654 -0.0689  1.7608  1.4961
 4741TIP3   OH235781   5.844   2.240   1.165  0.1292 -0.0134  0.1126
 4741TIP3    H135782   5.883   2.152   1.159  0.7674  0.3247 -1.1125
 4741TIP3    H235783   5.905   2.289   1.221  1.5405  0.4956 -1.7446
 4742TIP3   OH235784   1.711   0.021   1.752 -0.3492  0.0474 -0.1644
 4742TIP3    H135785   1.773  -0.027   1.807  0.8102  0.4533 -1.0539
 4742TIP3    H235786   1.667  -0.046   1.700  1.0190 -0.1266 -1.1613
 4743TIP3   OH235787   2.791   0.872   2.045 -0.2470 -0.2909 -0.6395
 4743TIP3    H135788   2.715   0.907   2.092 -0.4952  0.2040 -1.3801
 4743TIP3    H235789   2.769   0.885   1.953 -0.1916 -2.0917 -0.9418
 4744TIP3   OH235790   1.582   2.733   7.746 -0.0611 -0.2550  0.5936
 4744TIP3    H135791   1.597   2.660   7.686 -2.0367 -0.4795  0.3243
 4744TIP3    H235792   1.669   2.773   7.757  0.5273 -0.8001 -1.6127
 4745TIP3   OH235793   0.495   4.810   8.723 -0.0442 -0.0318  0.4846
 4745TIP3    H135794   0.547   4.805   8.643 -1.9778  0.6070 -0.8794
 4745TIP3    H235795   0.462   4.722   8.736 -1.9159  0.3931 -1.0131
 4746TIP3   OH235796   6.566   3.491   1.184  0.3455  0.1516 -0.1364
 4746TIP3    H135797   6.531   3.487   1.095  1.2438  0.6621 -0.5270
 4746TIP3    H235798   6.501   3.541   1.233  0.7149  1.4648 -0.9497
 4747TIP3   OH235799   4.296   3.602   0.734 -0.2212  0.8322  0.3683
 4747TIP3    H135800   4.206   3.625   0.754 -0.7383  0.6329 -1.5216
 4747TIP3    H235801   4.346   3.681   0.753 -0.6842  0.7856  1.9127
 4748TIP3   OH235802   3.909   3.393   2.045 -0.1950  0.3015  0.3429
 4748TIP3    H135803   3.842   3.443   1.999  0.7509  3.5388  2.0893
 4748TIP3    H235804   3.872   3.378   2.132 -0.3917 -2.0738 -0.0991
 4749TIP3   OH235805   1.978   2.626   0.601 -0.4846  0.3034 -0.6044
 4749TIP3    H135806   2.040   2.554   0.598  0.6485  1.2526 -0.9174
 4749TIP3    H235807   1.967   2.652   0.509 -0.1994  1.0785 -0.4280
 4750TIP3   OH235808   2.936   0.203   8.132 -0.3264 -0.4029 -0.1590
 4750TIP3    H135809   3.000   0.221   8.202 -1.9997 -1.2434  1.6994
 4750TIP3    H235810   2.979   0.136   8.078  1.5963  1.3148 -0.8733
 4751TIP3   OH235811   1.784   4.538   7.735  0.0912 -0.3758  0.0770
 4751TIP3    H135812   1.757   4.627   7.711  3.0440  0.0686 -2.2021
 4751TIP3    H235813   1.799   4.542   7.829  0.1804  1.5680  0.0216
 4752TIP3   OH235814   6.421   2.100   8.328  0.0102  0.1062 -0.4813
 4752TIP3    H135815   6.358   2.164   8.361 -0.4492 -1.2167  1.4058
 4752TIP3    H235816   6.487   2.152   8.283 -1.2358  1.7295 -0.5455
 4753TIP3   OH235817   0.299   4.207   8.637 -0.1520 -0.3296 -0.1103
 4753TIP3    H135818   0.219   4.251   8.666 -0.0259  0.0837 -0.3627
 4753TIP3    H235819   0.338   4.269   8.575  0.8765 -0.0806  0.7493
 4754TIP3   OH235820   4.814   4.658   0.611  0.0094 -0.6057  0.0367
 4754TIP3    H135821   4.861   4.588   0.566  0.6290  0.9549 -1.8780
 4754TIP3    H235822   4.739   4.615   0.652  0.2538 -2.3397 -1.2380
 4755TIP3   OH235823   1.079   0.756   0.224  0.0607  0.2430  0.2271
 4755TIP3    H135824   1.132   0.690   0.270 -1.0053 -0.6449  0.2108
 4755TIP3    H235825   1.111   0.840   0.258  0.9484 -0.3053  0.7831
 4756TIP3   OH235826   3.503   3.714   8.194  0.0255 -0.4767  0.0999
 4756TIP3    H135827   3.439   3.717   8.123  0.7011  0.4589 -0.5000
 4756TIP3    H235828   3.496   3.800   8.237  0.6112 -0.4994  0.2588
 4757TIP3   OH235829   2.431   0.193   1.308 -0.0585 -0.7341 -0.2401
 4757TIP3    H135830   2.405   0.163   1.395 -1.2772  0.0758 -0.3041
 4757TIP3    H235831   2.348   0.208   1.262  0.5652 -0.9427 -1.4794
 4758TIP3   OH235832   5.921   3.766   7.456 -0.0975 -0.7516 -0.0205
 4758TIP3    H135833   5.992   3.716   7.414 -0.8042 -1.7328 -0.0998
 4758TIP3    H235834   5.929   3.854   7.420  0.3780 -1.1442 -0.9091
 4759TIP3   OH235835   6.171   4.689   0.114  0.0096 -0.5411 -0.3839
 4759TIP3    H135836   6.195   4.670   0.205 -0.1524 -1.6785 -0.5682
 4759TIP3    H235837   6.104   4.756   0.121  1.2269  0.6656  0.2555
 4760TIP3   OH235838   6.448   5.561   7.801 -0.4742 -0.9779 -0.0120
 4760TIP3    H135839   6.527   5.535   7.849 -0.7438 -1.2727  0.2767
 4760TIP3    H235840   6.452   5.656   7.797  0.2066 -1.0231 -0.5329
 4761TIP3   OH235841   6.476   1.708   1.063  0.0565  0.1854  0.0322
 4761TIP3    H135842   6.428   1.768   1.119  0.6678  0.2597  0.4773
 4761TIP3    H235843   6.541   1.667   1.120 -1.3273 -2.0726  0.1363
 4762TIP3   OH235844   4.094   5.146   1.337  0.5664 -0.8652  0.1391
 4762TIP3    H135845   4.056   5.218   1.287  1.4527 -0.0389  0.6302
 4762TIP3    H235846   4.059   5.157   1.425  0.4099 -1.2678  0.1304
 4763TIP3   OH235847   3.922   2.095   2.483  0.1383 -0.1247  0.4823
 4763TIP3    H135848   3.956   2.049   2.560  0.5722 -0.9804 -0.2015
 4763TIP3    H235849   3.830   2.109   2.502  0.3167  0.0152  1.3149
 4764TIP3   OH235850   3.240   3.892   0.516 -0.7726 -0.1447  0.5570
 4764TIP3    H135851   3.197   3.893   0.602  0.3358  0.3056  1.1214
 4764TIP3    H235852   3.227   3.980   0.481  1.0181  0.5237  1.4394
 4765TIP3   OH235853   1.678   5.256   8.005  0.2154  0.5439  0.9521
 4765TIP3    H135854   1.674   5.347   8.034  2.0961  0.5900  1.1858
 4765TIP3    H235855   1.632   5.207   8.074  1.8246  1.0183  2.4178
 4766TIP3   OH235856   3.197   3.351   1.431 -0.2341  0.3280  0.3500
 4766TIP3    H135857   3.205   3.256   1.427  0.9054  0.3189  1.9447
 4766TIP3    H235858   3.282   3.384   1.404 -0.5557  0.9078  0.0132
 4767TIP3   OH235859   5.811   2.560   1.660 -0.3608 -0.4968 -0.3698
 4767TIP3    H135860   5.786   2.539   1.570 -0.6462 -0.1131 -0.3854
 4767TIP3    H235861   5.801   2.655   1.666 -2.6596 -0.7448  0.7523
 4768TIP3   OH235862   1.541   3.538   0.657  0.4712 -0.0782 -0.0534
 4768TIP3    H135863   1.550   3.552   0.563 -1.4603  0.4091 -0.2198
 4768TIP3    H235864   1.491   3.614   0.687  0.6540 -0.4699  1.2773
 4769TIP3   OH235865   0.973   2.018   0.310 -0.3477 -0.2860 -0.0419
 4769TIP3    H135866   1.017   1.954   0.254 -0.8735 -0.6229 -0.0724
 4769TIP3    H235867   0.881   2.014   0.283 -0.7229 -0.8970  1.2663
 4770TIP3   OH235868   2.542   1.551   1.641 -0.2607 -0.5885 -0.2224
 4770TIP3    H135869   2.472   1.493   1.670 -1.0635  0.4594  0.0094
 4770TIP3    H235870   2.616   1.532   1.699  0.2870 -2.9600 -1.5928
 4771TIP3   OH235871   2.665   0.947   7.494 -0.6186  0.2342  0.5628
 4771TIP3    H135872   2.745   0.894   7.496 -0.6266  0.2157  0.4069
 4771TIP3    H235873   2.622   0.928   7.577  0.2709  1.3699  1.3211
 4772TIP3   OH235874   3.688   4.789   0.954  0.6495  0.4621  0.5006
 4772TIP3    H135875   3.763   4.767   1.010  0.4141  0.2727  0.7442
 4772TIP3    H235876   3.713   4.755   0.867  0.8079  0.3151  0.6020
 4773TIP3   OH235877   5.843   2.991   7.720  0.1693 -0.3165 -0.2799
 4773TIP3    H135878   5.856   3.042   7.800 -0.5291 -0.1647 -0.2516
 4773TIP3    H235879   5.866   2.901   7.745  0.8643 -0.1146 -0.1753
 4774TIP3   OH235880   6.262   1.946   6.891  0.2946 -0.7493 -0.1818
 4774TIP3    H135881   6.339   2.001   6.877  0.5875 -1.7065 -3.1716
 4774TIP3    H235882   6.193   2.007   6.916  1.3503  0.5307 -0.2883
 4775TIP3   OH235883   3.602   0.864   0.022  0.2816 -1.0477  0.5561
 4775TIP3    H135884   3.692   0.889   0.041 -0.0269  0.0946  0.5655
 4775TIP3    H235885   3.559   0.946  -0.001 -1.3473 -1.1816  2.8276
 4776TIP3   OH235886   0.043   1.589   1.708 -0.8018 -0.2527 -0.0187
 4776TIP3    H135887   0.131   1.610   1.737 -0.8564 -0.6657  0.4550
 4776TIP3    H235888   0.049   1.584   1.613  0.4499 -3.5951  0.1174
 4777TIP3   OH235889   4.355   5.679   0.914 -0.8535 -0.4492  0.2917
 4777TIP3    H135890   4.431   5.703   0.862 -0.5384 -2.4552 -0.2656
 4777TIP3    H235891   4.281   5.722   0.871 -0.2171  0.3788  0.0097
 4778TIP3   OH235892   4.775   6.369   1.638 -0.0095  0.3061  0.5465
 4778TIP3    H135893   4.812   6.438   1.694  0.8729 -0.3433  0.7853
 4778TIP3    H235894   4.802   6.393   1.549 -1.5466  1.4267  0.3270
 4779TIP3   OH235895   2.059   4.154   8.448  0.7384 -0.1279  0.1352
 4779TIP3    H135896   2.033   4.245   8.434 -0.9189 -0.6778 -0.6255
 4779TIP3    H235897   1.994   4.102   8.400  0.8547 -1.7680  1.6230
 4780TIP3   OH235898   6.128   4.431   0.601  0.1946  0.3417 -0.1052
 4780TIP3    H135899   6.079   4.351   0.619 -0.9745  0.9086 -0.6718
 4780TIP3    H235900   6.178   4.447   0.681  4.1693 -3.4439 -1.4191
 4781TIP3   OH235901   5.469   0.246   3.027  0.8171 -0.5722  0.8651
 4781TIP3    H135902   5.447   0.248   3.120 -2.3543  0.1482  0.2194
 4781TIP3    H235903   5.529   0.319   3.014  0.5229 -0.0772  2.2057
 4782TIP3   OH235904   3.857   3.369   1.351  0.3930 -0.2565 -0.1233
 4782TIP3    H135905   3.874   3.401   1.262 -0.0212  0.4585  0.0454
 4782TIP3    H235906   3.873   3.274   1.346  1.1683 -0.1022 -0.7538
 4783TIP3   OH235907   2.805   0.436   8.069 -0.1155  0.4386 -0.7820
 4783TIP3    H135908   2.863   0.510   8.052 -0.6162  0.3572 -3.1582
 4783TIP3    H235909   2.860   0.358   8.059 -0.3864  0.3941 -2.0217
 4784TIP3   OH235910   5.988   6.704   1.698  0.2619 -0.8349  0.2308
 4784TIP3    H135911   6.074   6.735   1.669  0.5739 -2.8451 -1.1992
 4784TIP3    H235912   5.928   6.728   1.627  0.2514 -2.1152 -0.2273
 4785TIP3   OH235913   1.488   1.276   7.417  0.1452 -0.5532 -0.3714
 4785TIP3    H135914   1.457   1.237   7.498 -1.1408  1.0661 -0.0494
 4785TIP3    H235915   1.529   1.203   7.370 -0.3804 -1.8272  1.0752
 4786TIP3   OH235916   2.186   5.680   8.751  0.2901  0.3276  0.1586
 4786TIP3    H135917   2.166   5.586   8.749 -1.9295  0.7665 -0.8825
 4786TIP3    H235918   2.106   5.720   8.786  0.5742  1.9503 -0.9622
 4787TIP3   OH235919   2.260   1.875   7.856  0.3487  0.3636 -0.2789
 4787TIP3    H135920   2.272   1.953   7.802  0.7788  1.3008  1.1171
 4787TIP3    H235921   2.344   1.863   7.900  0.4650 -1.2348 -0.8748
 4788TIP3   OH235922   4.004   3.301   8.436  0.5149  0.0599 -0.0686
 4788TIP3    H135923   4.034   3.221   8.393 -0.8249 -0.7405  0.4361
 4788TIP3    H235924   4.079   3.360   8.431  1.1674 -0.8314 -1.4160
 4789TIP3   OH235925   5.015   1.602   8.402  0.1229  0.0951 -0.1946
 4789TIP3    H135926   4.996   1.516   8.440 -0.8031  0.5540  0.4082
 4789TIP3    H235927   4.938   1.622   8.349  0.5213  0.3723 -0.6780
 4790TIP3   OH235928   1.147   4.691   0.965  0.1094  0.5605  0.3554
 4790TIP3    H135929   1.242   4.690   0.957  0.1206  1.7376  0.1506
 4790TIP3    H235930   1.132   4.715   1.057 -0.0072 -1.1406  0.8077
 4791TIP3   OH235931   3.529   0.752   0.801 -0.4069  0.3688 -0.1337
 4791TIP3    H135932   3.586   0.782   0.730 -2.3006  1.4394 -1.3336
 4791TIP3    H235933   3.497   0.833   0.842 -1.3490 -0.1587  0.2197
 4792TIP3   OH235934   0.845   3.702   0.410 -0.0089  0.5350 -0.1069
 4792TIP3    H135935   0.859   3.747   0.327  1.0696  1.1812  0.4036
 4792TIP3    H235936   0.909   3.741   0.470 -1.1490  0.5041  1.1896
 4793TIP3   OH235937   1.466   0.450   0.272 -0.3230 -0.2837  0.6336
 4793TIP3    H135938   1.532   0.519   0.269  0.3232 -0.8183  1.9537
 4793TIP3    H235939   1.404   0.473   0.203  0.3647  1.1188  0.4588
 4794TIP3   OH235940   0.450   4.112   7.534 -0.7635  0.2075  0.2261
 4794TIP3    H135941   0.386   4.045   7.512 -0.3510 -0.2070  0.2929
 4794TIP3    H235942   0.397   4.190   7.552 -1.2726 -0.2313  0.6484
 4795TIP3   OH235943   3.296   0.777   8.445 -0.5082 -0.5761 -0.1153
 4795TIP3    H135944   3.362   0.720   8.405 -0.5293 -1.2431  0.7565
 4795TIP3    H235945   3.332   0.865   8.437 -0.2897 -0.7458 -1.1385
 4796TIP3   OH235946   0.331   6.204   1.738 -0.6494  0.3763 -0.6996
 4796TIP3    H135947   0.356   6.132   1.679 -0.4971 -0.6495  0.5589
 4796TIP3    H235948   0.362   6.283   1.694  1.0019 -0.4917 -1.1976
 4797TIP3   OH235949   4.583   5.281   0.695  0.0589  0.3174  0.3270
 4797TIP3    H135950   4.550   5.201   0.738  1.8732 -0.4293  0.4364
 4797TIP3    H235951   4.526   5.293   0.619  1.1778 -2.5205 -1.1003
 4798TIP3   OH235952   1.903   6.551   1.643 -0.2463  0.3037  0.0669
 4798TIP3    H135953   1.906   6.603   1.723 -1.0088  0.4879 -0.0182
 4798TIP3    H235954   1.991   6.513   1.636  0.0423  0.8527  0.6073
 4799TIP3   OH235955   3.291   4.731   7.102 -0.2026 -0.4507 -0.3300
 4799TIP3    H135956   3.201   4.760   7.085 -0.7222  0.0839  2.7476
 4799TIP3    H235957   3.332   4.806   7.145  0.8314 -1.6116  0.7792
 4800TIP3   OH235958   0.179   0.835   2.008 -0.1571  0.7059 -0.2052
 4800TIP3    H135959   0.148   0.907   1.953  0.1765  0.2911 -0.9453
 4800TIP3    H235960   0.272   0.855   2.023  0.2155 -0.1083 -1.3057
 4801TIP3   OH235961   1.951   2.694   0.297  0.0690  0.4623 -0.0536
 4801TIP3    H135962   1.875   2.644   0.267 -0.8261  0.7628  1.6174
 4801TIP3    H235963   1.989   2.729   0.216  0.7007 -2.7617 -1.3191
 4802TIP3   OH235964   5.058   6.393   8.439  0.4427  0.4022 -0.8537
 4802TIP3    H135965   5.100   6.474   8.413  2.3754 -0.8555 -1.8991
 4802TIP3    H235966   5.081   6.382   8.531 -0.8101  1.5715 -0.3702
 4803TIP3   OH235967   5.016   1.440   1.631  0.1727 -0.7741  0.6410
 4803TIP3    H135968   4.926   1.435   1.663 -0.1976  2.4947  0.4539
 4803TIP3    H235969   5.009   1.486   1.547  2.1362  1.8605  1.7867
 4804TIP3   OH235970   2.744   3.673   1.005  0.0842 -0.3559 -0.3151
 4804TIP3    H135971   2.675   3.730   1.040 -0.8349 -0.0436 -2.4907
 4804TIP3    H235972   2.708   3.585   1.012  0.1497 -0.3565  0.0404
 4805TIP3   OH235973   3.816   0.616   1.302 -0.1256  0.3708  0.1499
 4805TIP3    H135974   3.819   0.709   1.323 -3.6322  0.2477  1.8299
 4805TIP3    H235975   3.857   0.573   1.378  1.1646  0.4693 -0.4630
 4806TIP3   OH235976   3.536   1.512   8.783  0.4590  0.4683 -0.4079
 4806TIP3    H135977   3.529   1.576   8.713  0.4484  0.1740 -0.6795
 4806TIP3    H235978   3.470   1.446   8.762  0.5446  0.3119 -0.1920
 4807TIP3   OH235979   6.195   6.770   0.775 -0.1602  0.2091  0.7356
 4807TIP3    H135980   6.139   6.848   0.779 -1.0603 -0.4871  1.8783
 4807TIP3    H235981   6.135   6.698   0.756  0.6673 -0.2430 -0.2963
 4808TIP3   OH235982   3.534   0.478   0.730 -0.0541 -0.2978 -0.0352
 4808TIP3    H135983   3.604   0.428   0.772  0.6510  0.3800 -0.3782
 4808TIP3    H235984   3.548   0.568   0.759  0.1598  0.1018 -1.3218
 4809TIP3   OH235985   3.267   5.121   7.692  0.2027 -0.6954  0.0661
 4809TIP3    H135986   3.251   5.199   7.639 -0.5007 -0.1699  1.0226
 4809TIP3    H235987   3.244   5.048   7.634 -0.3523 -0.1437 -0.4253
 4810TIP3   OH235988   4.146   1.857   8.693 -0.5069 -0.0590 -0.1096
 4810TIP3    H135989   4.143   1.856   8.789 -0.7635 -0.0119 -0.1146
 4810TIP3    H235990   4.126   1.767   8.668  0.7246 -0.3458 -0.0981
 4811TIP3   OH235991   6.030   4.654   7.784 -0.2762  0.8373 -0.0187
 4811TIP3    H135992   6.045   4.694   7.699  0.5081 -3.5967 -2.2413
 4811TIP3    H235993   5.937   4.631   7.784  0.2302 -1.4504 -0.9285
 4812TIP3   OH235994   2.909   1.687   1.067  0.0207  0.0856 -0.3104
 4812TIP3    H135995   2.830   1.738   1.083  0.0245 -0.2736  1.0043
 4812TIP3    H235996   2.919   1.634   1.146  1.1129 -0.4896 -0.8140
 4813TIP3   OH235997   2.372   6.355   2.074 -0.6872  0.1346  0.2088
 4813TIP3    H135998   2.290   6.404   2.080 -0.1963  1.0384 -0.2387
 4813TIP3    H235999   2.433   6.416   2.033 -1.0356 -2.0993 -4.2212
 4814TIP3   OH236000   3.159   2.512   0.878  0.7496 -0.0873  0.4046
 4814TIP3    H136001   3.244   2.477   0.906  0.4847 -1.1210 -0.0640
 4814TIP3    H236002   3.182   2.590   0.827  1.4562 -0.6053 -0.0947
 4815TIP3   OH236003   1.068   2.605   1.774  0.0703 -0.1107 -0.0252
 4815TIP3    H136004   1.099   2.683   1.820 -0.6807 -0.7907  1.7560
 4815TIP3    H236005   1.137   2.540   1.788  0.5642  0.1248 -1.2609
 4816TIP3   OH236006   4.744   1.669   1.989 -0.0515  0.5433 -0.4365
 4816TIP3    H136007   4.757   1.592   1.935 -0.3077 -0.8334  1.3639
 4816TIP3    H236008   4.685   1.640   2.059 -1.7969  2.9238 -0.7975
 4817TIP3   OH236009   4.595   2.288   2.819  0.4490  0.0746 -0.5081
 4817TIP3    H136010   4.539   2.224   2.862 -0.5299 -0.0904 -1.9577
 4817TIP3    H236011   4.642   2.238   2.751 -2.7385  1.2522 -3.9254
 4818TIP3   OH236012   3.593   2.210   1.358  0.6821 -0.3575  0.3406
 4818TIP3    H136013   3.651   2.175   1.427 -0.1678 -1.0732  0.7084
 4818TIP3    H236014   3.526   2.143   1.347 -0.7832  0.9638  0.7854
 4819TIP3   OH236015   3.828   5.881   2.783  0.0341  0.4003  0.3075
 4819TIP3    H136016   3.909   5.905   2.829  1.5266 -2.3141 -0.7254
 4819TIP3    H236017   3.825   5.786   2.787 -1.4055  0.2331 -2.5232
 4820TIP3   OH236018   1.153   5.720   1.783 -0.0077  0.6226  0.5281
 4820TIP3    H136019   1.176   5.628   1.780 -0.1914  0.5742  0.6030
 4820TIP3    H236020   1.105   5.731   1.865  0.3065  0.8539  0.6859
 4821TIP3   OH236021   0.664   2.339   7.879 -0.0397 -0.1992  0.8531
 4821TIP3    H136022   0.586   2.396   7.882 -1.7306 -1.8645 -3.4763
 4821TIP3    H236023   0.689   2.338   7.787  1.2466 -4.6716  1.0559
 4822TIP3   OH236024   1.915   4.861   0.861  0.3022 -0.3022  0.0598
 4822TIP3    H136025   1.907   4.857   0.766  0.4886 -0.3847  0.0479
 4822TIP3    H236026   1.859   4.935   0.887  0.4633 -0.1097 -0.1386
 4823TIP3   OH236027   4.535   3.878   2.986 -0.1985  0.9317  0.5639
 4823TIP3    H136028   4.535   3.930   3.066  1.4670  1.1315  0.4748
 4823TIP3    H236029   4.622   3.891   2.949 -0.4892 -0.1995 -0.6049
 4824TIP3   OH236030   5.282   5.002   0.262  0.0617 -0.3858 -0.7007
 4824TIP3    H136031   5.212   5.053   0.303  0.5192 -0.4701  0.2202
 4824TIP3    H236032   5.272   4.914   0.299  2.0557  0.1319  1.3199
 4825TIP3   OH236033   3.067   0.367   2.775 -0.2560 -0.1133  0.3924
 4825TIP3    H136034   3.117   0.286   2.765  1.1384  0.8806 -1.3328
 4825TIP3    H236035   2.976   0.342   2.761  0.0963 -1.4365  0.3829
 4826TIP3   OH236036   5.023   1.226   1.358  1.1127  0.1261 -0.3955
 4826TIP3    H136037   4.974   1.159   1.309  1.1460  0.2114 -0.5469
 4826TIP3    H236038   4.970   1.242   1.436  0.9086  0.2018 -0.5474
 4827TIP3   OH236039   1.790   4.512   8.034 -0.0506  0.1527 -0.3910
 4827TIP3    H136040   1.792   4.417   8.039  0.1114  0.1646 -0.2145
 4827TIP3    H236041   1.731   4.539   8.105  0.6125  0.2236  0.1542
 4828TIP3   OH236042   0.033   1.808   2.151 -0.5330  0.4954 -0.2541
 4828TIP3    H136043   0.048   1.886   2.204  0.6841 -0.7688  1.3552
 4828TIP3    H236044   0.043   1.735   2.212  0.2654 -1.0145 -2.1020
 4829TIP3   OH236045   4.216   2.019   7.742  0.3166 -0.3847  0.0915
 4829TIP3    H136046   4.242   2.105   7.710 -0.5542 -0.0473  0.2448
 4829TIP3    H236047   4.297   1.969   7.748  0.7044  0.0806 -1.0268
 4830TIP3   OH236048   4.520   6.760   1.166 -0.0795  0.0539 -0.2673
 4830TIP3    H136049   4.606   6.726   1.189  0.4839  1.5881 -0.0438
 4830TIP3    H236050   4.482   6.788   1.249 -0.5547 -0.0458 -0.4470
 4831TIP3   OH236051   4.416   5.584   1.586  0.1489  0.4933  0.0158
 4831TIP3    H136052   4.508   5.568   1.563  0.4252  0.0857  1.3249
 4831TIP3    H236053   4.400   5.527   1.661 -1.6111 -0.4961 -1.0607
 4832TIP3   OH236054   6.485   5.656   3.012  0.2437  0.0737 -0.4145
 4832TIP3    H136055   6.563   5.711   3.014 -0.1379  0.6844 -1.4763
 4832TIP3    H236056   6.480   5.625   2.921 -0.5467 -0.2621 -0.2641
 4833TIP3   OH236057   1.016   5.223   0.864  0.0678  0.2866  0.4390
 4833TIP3    H136058   1.057   5.153   0.915  0.6467 -0.1846 -0.6450
 4833TIP3    H236059   0.928   5.190   0.846 -0.5448  0.9270  2.0233
 4834TIP3   OH236060   2.202   0.493   7.981  0.5779 -0.0544  0.1701
 4834TIP3    H136061   2.219   0.469   8.072  1.9197 -1.9419 -0.5148
 4834TIP3    H236062   2.164   0.414   7.942 -0.0650  0.7523 -0.8976
 4835TIP3   OH236063   1.716   3.172   2.085 -0.1209 -0.2470  0.4245
 4835TIP3    H136064   1.676   3.236   2.144 -0.3887 -1.1693  1.2523
 4835TIP3    H236065   1.810   3.182   2.099 -0.1995 -0.7917  1.3580
 4836TIP3   OH236066   1.379   2.308   8.357  0.8056 -0.1819  0.3620
 4836TIP3    H136067   1.461   2.355   8.345  0.1332  1.4494  1.6091
 4836TIP3    H236068   1.326   2.367   8.411 -1.1441 -1.2247 -0.3073
 4837TIP3   OH236069   1.228   4.335   6.539  0.5473 -0.4535 -0.2830
 4837TIP3    H136070   1.135   4.352   6.548  0.6837  0.3794 -0.3567
 4837TIP3    H236071   1.241   4.248   6.578 -0.2044 -0.4399  0.0055
 4838TIP3   OH236072   5.902   1.971   1.114 -0.4052 -0.3088 -0.5722
 4838TIP3    H136073   5.966   1.900   1.118  0.3452  0.2552 -1.8733
 4838TIP3    H236074   5.819   1.930   1.136  0.3453 -1.0889  1.0049
 4839TIP3   OH236075   1.032   1.581   8.599  0.0931  0.4717  0.3871
 4839TIP3    H136076   1.126   1.566   8.605  0.0745  0.3083  0.2971
 4839TIP3    H236077   1.018   1.606   8.507  0.1448  1.2149  0.5736
 4840TIP3   OH236078   4.287   2.242   1.148  0.3622  0.2234  0.2253
 4840TIP3    H136079   4.278   2.146   1.145 -1.0682  0.3518 -0.4224
 4840TIP3    H236080   4.315   2.266   1.060  1.2233  0.3738  0.5308
 4841TIP3   OH236081   5.403   4.984   8.168 -0.2181 -0.3415  0.5101
 4841TIP3    H136082   5.363   4.935   8.240 -0.3845 -0.6219  0.2290
 4841TIP3    H236083   5.478   4.930   8.141  0.3152  0.1492  0.9920
 4842TIP3   OH236084   1.230   3.765   1.784 -0.3879 -0.1390  0.4678
 4842TIP3    H136085   1.212   3.722   1.868  2.3095 -0.1651  1.1287
 4842TIP3    H236086   1.279   3.700   1.734 -1.1178  0.2364 -0.7870
 4843TIP3   OH236087   5.356   2.456   7.794 -0.2951 -0.3148  0.2265
 4843TIP3    H136088   5.293   2.394   7.759 -0.2920 -1.0226  1.4196
 4843TIP3    H236089   5.334   2.463   7.887  0.2306  0.8405  0.2882
 4844TIP3   OH236090   6.774   4.054   0.397 -0.4554 -0.1355  0.3569
 4844TIP3    H136091   6.783   4.128   0.457 -2.6216  1.2328 -0.8704
 4844TIP3    H236092   6.735   3.985   0.450 -0.6414  0.4196  0.9570
 4845TIP3   OH236093   0.282   6.543   8.181  0.1693  0.1929 -0.3277
 4845TIP3    H136094   0.206   6.486   8.165  0.5041 -0.1763 -0.6314
 4845TIP3    H236095   0.355   6.498   8.138  0.6553  0.3098  0.3564
 4846TIP3   OH236096   5.866   1.297   8.203 -0.4266  0.1998 -0.2586
 4846TIP3    H136097   5.905   1.329   8.285 -0.6452  0.6922 -0.3426
 4846TIP3    H236098   5.921   1.222   8.178 -0.0062  0.4041  0.0334
 4847TIP3   OH236099   0.528   0.869   0.735 -0.5466 -0.5800 -0.0365
 4847TIP3    H136100   0.623   0.883   0.737 -0.3486 -1.7710  0.0384
 4847TIP3    H236101   0.501   0.901   0.649 -0.1335  0.0647  0.0661
 4848TIP3   OH236102   6.202   6.041   8.277  0.2486 -0.7263  0.1121
 4848TIP3    H136103   6.203   6.055   8.372  0.0488 -0.7155  0.1114
 4848TIP3    H236104   6.148   6.112   8.242 -0.6838 -1.4218  0.1025
 4849TIP3   OH236105   4.614   6.193   0.419  0.0507 -0.3510 -0.4314
 4849TIP3    H136106   4.590   6.110   0.377  0.5857  0.3309 -2.2149
 4849TIP3    H236107   4.643   6.168   0.507  0.6153 -2.1158 -1.0632
 4850TIP3   OH236108   3.589   2.504   2.490 -0.2613 -0.2229  0.2130
 4850TIP3    H136109   3.641   2.581   2.514  1.2097 -1.8948  2.7990
 4850TIP3    H236110   3.506   2.515   2.537  0.5397 -0.8784  1.8530
 4851TIP3   OH236111   3.566   1.167   7.927 -0.0504  0.4862  0.2262
 4851TIP3    H136112   3.645   1.149   7.876  0.0304 -1.2965  0.9129
 4851TIP3    H236113   3.518   1.232   7.875 -0.2214 -1.5825 -2.4442
 4852TIP3   OH236114   1.966   5.567   2.105  0.0177 -0.0374  0.4263
 4852TIP3    H136115   1.892   5.607   2.151 -0.7650 -1.0462  0.0787
 4852TIP3    H236116   2.010   5.641   2.063 -1.2915  0.5049 -0.0596
 4853TIP3   OH236117   2.045   5.149   0.307  0.1150  0.3098 -0.3423
 4853TIP3    H136118   2.046   5.235   0.351  0.0701  0.2891 -0.3010
 4853TIP3    H236119   2.101   5.094   0.362 -2.6522 -0.6977  1.6468
 4854TIP3   OH236120   3.974   6.387   0.482 -0.5071 -0.6477  0.5953
 4854TIP3    H136121   3.887   6.423   0.501 -0.2381 -0.1011  0.7879
 4854TIP3    H236122   4.023   6.395   0.564 -0.0158 -0.2003  0.2661
 4855TIP3   OH236123   6.576   4.273   7.807 -0.8586 -0.6191  0.0548
 4855TIP3    H136124   6.575   4.306   7.897  1.0136  1.1014 -0.4914
 4855TIP3    H236125   6.653   4.215   7.804  1.0520  1.7981 -1.1548
 4856TIP3   OH236126   4.583   3.053   2.243  0.4074  0.0435  0.2143
 4856TIP3    H136127   4.655   3.045   2.181  0.6652  0.2706  0.4814
 4856TIP3    H236128   4.624   3.085   2.324  0.5542 -2.8287  1.4149
 4857TIP3   OH236129   3.145   2.872   7.512 -0.1465  0.9856  0.3423
 4857TIP3    H136130   3.086   2.946   7.529 -0.0730  1.2743 -0.6097
 4857TIP3    H236131   3.190   2.896   7.431  0.0362 -0.0151  0.1431
 4858TIP3   OH236132   2.403   3.474   8.503 -0.0410  0.3703  0.1730
 4858TIP3    H136133   2.339   3.514   8.444  0.1491  1.0171  0.3940
 4858TIP3    H236134   2.373   3.498   8.590  0.8015  1.1536  0.2577
 4859TIP3   OH236135   5.321   3.817   2.132  0.1941 -0.2356 -0.4177
 4859TIP3    H136136   5.297   3.772   2.051  2.0146 -2.4564  0.1646
 4859TIP3    H236137   5.257   3.786   2.197 -0.4283  0.4608 -0.6948
 4860TIP3   OH236138   2.215   4.846   1.678  0.5243 -0.0100 -0.2561
 4860TIP3    H136139   2.131   4.843   1.724  0.1985  0.8153 -0.7674
 4860TIP3    H236140   2.275   4.890   1.740  0.8679 -1.5028  0.5127
 4861TIP3   OH236141   0.910   2.848   2.685  0.3220  0.1428 -0.1581
 4861TIP3    H136142   0.969   2.777   2.658  0.3864  0.5607 -1.1637
 4861TIP3    H236143   0.844   2.805   2.740 -0.9337 -1.1430 -2.5130
 4862TIP3   OH236144   0.634   0.876   2.455  0.3208  0.5953 -0.1198
 4862TIP3    H136145   0.539   0.876   2.443  0.1528 -1.1616  0.8632
 4862TIP3    H236146   0.659   0.969   2.452 -1.1484  0.9695 -2.1992
 4863TIP3   OH236147   3.788   5.739   7.169 -0.4118 -0.3791 -0.2501
 4863TIP3    H136148   3.851   5.764   7.237 -0.4247 -0.3727 -0.2407
 4863TIP3    H236149   3.840   5.735   7.088 -0.4598 -0.0650 -0.2989
 4864TIP3   OH236150   6.156   1.357   2.286  0.1991  0.4015  0.2952
 4864TIP3    H136151   6.068   1.391   2.299  0.2411  0.5439  0.2049
 4864TIP3    H236152   6.191   1.346   2.375 -0.0819 -0.1100  0.3464
 4865TIP3   OH236153   0.134   5.193   1.343  0.3051 -0.1879 -0.2851
 4865TIP3    H136154   0.162   5.242   1.266  1.3678  0.1741  0.3116
 4865TIP3    H236155   0.069   5.248   1.385  0.4460  0.0569 -0.3881
 4866TIP3   OH236156   2.422   1.207   0.543  0.2973  0.4562  0.9069
 4866TIP3    H136157   2.421   1.122   0.500 -1.0493  0.9968 -0.2160
 4866TIP3    H236158   2.371   1.194   0.624 -0.8007  0.4254  0.2260
 4867TIP3   OH236159   5.565   5.911   7.383 -0.8184  0.1384  0.1169
 4867TIP3    H136160   5.589   5.859   7.307 -3.0432 -0.1065 -0.4907
 4867TIP3    H236161   5.482   5.952   7.359 -0.0377  2.5809  1.2482
 4868TIP3   OH236162   0.372   5.295   0.796 -0.7777  0.7109  0.5510
 4868TIP3    H136163   0.444   5.275   0.855 -0.3892 -0.5873 -0.3145
 4868TIP3    H236164   0.294   5.264   0.842 -0.4071 -0.9215  0.1419
 4869TIP3   OH236165   5.583   4.182   2.150  0.0280  0.0966  0.3193
 4869TIP3    H136166   5.565   4.091   2.174  0.1155 -0.1407 -0.4573
 4869TIP3    H236167   5.572   4.183   2.054 -0.8704  1.1105  0.4201
 4870TIP3   OH236168   5.855   6.229   7.961 -0.2268  0.5520  0.3363
 4870TIP3    H136169   5.770   6.188   7.949  0.5710 -0.7919 -0.9796
 4870TIP3    H236170   5.874   6.218   8.054 -0.5811 -0.9985  0.2412
 4871TIP3   OH236171   5.735   6.450   0.676  0.1741 -0.0806  0.5367
 4871TIP3    H136172   5.779   6.441   0.591 -2.3549  0.4216 -0.9045
 4871TIP3    H236173   5.735   6.545   0.693  1.3734 -0.2249  1.5713
 4872TIP3   OH236174   6.060   5.078   1.612 -0.4457  0.5102 -0.4459
 4872TIP3    H136175   6.107   4.994   1.605  1.4192  1.5504 -1.1420
 4872TIP3    H236176   5.968   5.053   1.625 -0.0726 -1.6394 -1.4731
 4873TIP3   OH236177   0.008   4.181   7.956  0.6413 -0.4788  0.1259
 4873TIP3    H136178  -0.042   4.217   8.029 -1.4814  1.3977 -2.0932
 4873TIP3    H236179  -0.017   4.088   7.954 -2.6171  0.2695 -0.6049
 4874TIP3   OH236180   1.183   4.317   1.801  0.3396 -0.0367  0.2061
 4874TIP3    H136181   1.141   4.384   1.748 -1.2566 -2.5581 -2.0065
 4874TIP3    H236182   1.277   4.331   1.789  0.0172  0.7838 -1.5488
 4875TIP3   OH236183   2.381   5.099   8.228 -0.1299 -0.6783 -0.6398
 4875TIP3    H136184   2.419   5.157   8.163 -1.0709  0.9954  0.2438
 4875TIP3    H236185   2.450   5.036   8.248  1.7587  1.4607 -0.0182
 4876TIP3   OH236186   0.289   1.394   7.714 -0.4724  0.1978 -0.4912
 4876TIP3    H136187   0.245   1.410   7.798  0.4320 -0.4552  0.1187
 4876TIP3    H236188   0.268   1.471   7.661  0.8402  1.7474  1.1315
 4877TIP3   OH236189   2.151   6.502   0.415  0.2394  0.3639 -0.0238
 4877TIP3    H136190   2.056   6.492   0.423  0.1385  0.6322 -0.7982
 4877TIP3    H236191   2.187   6.432   0.469 -0.4229 -1.1655 -1.4612
 4878TIP3   OH236192   5.052   4.671   1.185 -0.0992  0.1232  0.0394
 4878TIP3    H136193   5.103   4.742   1.148  1.2959  0.1467  1.8295
 4878TIP3    H236194   4.981   4.714   1.233 -0.4571  0.1994 -0.5554
 4879TIP3   OH236195   1.689   3.785   2.348  0.2625  0.8052 -0.0998
 4879TIP3    H136196   1.772   3.826   2.376 -0.2652  0.7841  1.6041
 4879TIP3    H236197   1.628   3.804   2.419 -0.9571  0.0273 -0.9084
 4880TIP3   OH236198   2.969   1.204   0.930 -0.0771 -0.0333 -0.0168
 4880TIP3    H136199   2.890   1.250   0.902 -0.0213 -0.4915 -0.9470
 4880TIP3    H236200   2.938   1.122   0.966 -0.1263  0.4323  1.0478
 4881TIP3   OH236201   0.080   0.580   7.496  1.2170 -0.0457 -0.4791
 4881TIP3    H136202   0.114   0.639   7.429  1.9808  0.5418  0.4037
 4881TIP3    H236203   0.117   0.494   7.472 -1.0808 -0.5385 -2.6048
 4882TIP3   OH236204   3.385   4.192   1.267  0.1661  0.3599 -0.1048
 4882TIP3    H136205   3.420   4.123   1.211 -1.3968  2.3609 -3.8539
 4882TIP3    H236206   3.313   4.149   1.315 -0.4845 -0.7817 -2.0057
 4883TIP3   OH236207   6.079   2.095   8.669 -0.1115 -0.2217  0.8489
 4883TIP3    H136208   6.066   2.169   8.728 -2.9654  0.1101 -0.0188
 4883TIP3    H236209   6.124   2.133   8.593  1.2252 -0.1005  1.6644
 4884TIP3   OH236210   5.680   4.863   0.791  0.0411  0.8144 -0.0459
 4884TIP3    H136211   5.625   4.926   0.743  1.3142  1.2433 -0.9918
 4884TIP3    H236212   5.734   4.918   0.848  0.4980  0.5133 -0.1838
 4885TIP3   OH236213   5.317   0.519   7.564 -0.2861 -0.4119 -0.2945
 4885TIP3    H136214   5.287   0.524   7.474 -0.2147 -1.0638 -0.3610
 4885TIP3    H236215   5.246   0.474   7.611  0.1228 -1.0127 -0.2418
 4886TIP3   OH236216   1.660   0.287   8.239  0.0029  0.7781 -0.1975
 4886TIP3    H136217   1.578   0.336   8.239  0.2674  1.2629  1.4909
 4886TIP3    H236218   1.683   0.278   8.331  1.1523 -0.5451 -0.5812
 4887TIP3   OH236219   3.932   0.354   1.862  0.1535  0.0182  0.2555
 4887TIP3    H136220   3.873   0.320   1.796 -0.2187 -2.0312  1.5487
 4887TIP3    H236221   3.918   0.448   1.861 -1.1529 -0.1547 -1.3106
 4888TIP3   OH236222   0.623   5.200   2.147 -0.3886 -0.2779 -0.0768
 4888TIP3    H136223   0.685   5.139   2.187  1.7558 -0.1115 -2.8228
 4888TIP3    H236224   0.621   5.275   2.206  4.6492  1.1052 -1.1782
 4889TIP3   OH236225   6.137   1.821   0.907 -0.0995  0.5011 -0.2790
 4889TIP3    H136226   6.176   1.880   0.971 -0.6149  0.7145 -0.1498
 4889TIP3    H236227   6.211   1.778   0.864  0.3036 -1.4736  2.1203
 4890TIP3   OH236228   4.382   6.649   8.120  0.3359 -0.5100 -0.0434
 4890TIP3    H136229   4.474   6.677   8.120  1.7176 -4.3578  0.8706
 4890TIP3    H236230   4.353   6.663   8.210  1.3899 -2.7207  0.7192
 4891TIP3   OH236231   0.295   2.158   0.896 -0.9737 -0.0941 -0.3821
 4891TIP3    H136232   0.274   2.248   0.869  1.0638 -0.3331 -3.1931
 4891TIP3    H236233   0.388   2.161   0.919 -0.5081 -1.7206 -1.8905
 4892TIP3   OH236234   5.312   2.090   1.751  0.5574 -0.0651  0.7321
 4892TIP3    H136235   5.396   2.111   1.791 -0.3626  1.2744  2.0809
 4892TIP3    H236236   5.254   2.162   1.777 -0.9596 -0.8327 -0.3249
 4893TIP3   OH236237   3.397   6.816   1.255 -0.0236 -0.0445  0.0699
 4893TIP3    H136238   3.400   6.762   1.334 -3.7446 -1.4803 -0.5467
 4893TIP3    H236239   3.412   6.754   1.183 -1.2123  0.3144 -0.5091
 4894TIP3   OH236240   1.511   3.953   8.274  0.7763 -0.5269 -0.3893
 4894TIP3    H136241   1.541   3.866   8.247  0.7938 -0.5904 -0.1645
 4894TIP3    H236242   1.488   3.997   8.192  2.1007 -0.2416 -0.6236
 4895TIP3   OH236243   0.010   1.870   1.383  0.1073  0.3617 -0.2921
 4895TIP3    H136244   0.039   1.902   1.468  1.5572 -1.2217 -0.1227
 4895TIP3    H236245  -0.084   1.888   1.381  0.0015  0.2567  1.7199
 4896TIP3   OH236246   5.110   6.465   2.727  0.4361  0.5714  0.4380
 4896TIP3    H136247   5.114   6.413   2.807 -0.9925  0.6901  0.6062
 4896TIP3    H236248   5.105   6.401   2.656  1.7414  0.4650  0.4089
 4897TIP3   OH236249   3.478   4.976   0.672 -0.2680 -0.5154 -0.0465
 4897TIP3    H136250   3.409   4.913   0.650  0.2375  0.0145 -3.7463
 4897TIP3    H236251   3.430   5.056   0.695 -0.9181 -0.5732 -1.1385
 4898TIP3   OH236252   4.600   0.349   6.723  0.2990 -0.1452  0.5274
 4898TIP3    H136253   4.659   0.275   6.709 -0.3821 -0.6987  0.5364
 4898TIP3    H236254   4.658   0.424   6.738  1.0676 -1.1329  3.0951
 4899TIP3   OH236255   4.584   4.254   0.207 -0.2094  0.0006  0.1567
 4899TIP3    H136256   4.595   4.238   0.301  0.1832  2.6705  0.6470
 4899TIP3    H236257   4.490   4.245   0.191 -0.1910 -1.1961  0.6195
 4900TIP3   OH236258   4.477   1.105   0.613  0.0370  0.0292  0.2425
 4900TIP3    H136259   4.409   1.167   0.588  0.5195  0.4344 -0.1027
 4900TIP3    H236260   4.557   1.140   0.573  0.1158 -1.4623 -1.0012
 4901TIP3   OH236261   2.613   0.688   0.473 -0.1489  0.6232 -0.6423
 4901TIP3    H136262   2.622   0.778   0.504  2.5907  0.5922 -1.1116
 4901TIP3    H236263   2.696   0.669   0.431 -0.5140 -2.2872 -0.2105
 4902TIP3   OH236264   5.856   4.812   7.451  0.3161 -0.3254  0.6259
 4902TIP3    H136265   5.894   4.726   7.468 -0.8503 -0.5557  2.2713
 4902TIP3    H236266   5.767   4.806   7.486  0.1005  1.4502  0.4540
 4903TIP3   OH236267   3.256   1.123   1.908 -0.5919  0.3298  0.2440
 4903TIP3    H136268   3.298   1.048   1.865 -0.4804  0.4611  0.1205
 4903TIP3    H236269   3.208   1.167   1.837 -1.1706  0.0219  0.4405
 4904TIP3   OH236270   3.887   4.879   1.664 -0.6233 -0.5022 -0.1206
 4904TIP3    H136271   3.867   4.876   1.570  1.3886  1.0908 -0.6812
 4904TIP3    H236272   3.865   4.968   1.691 -0.3544 -0.6801  0.7204
 4905TIP3   OH236273   4.342   1.597   0.587  0.4515 -0.1921 -0.0098
 4905TIP3    H136274   4.257   1.569   0.619 -0.7275  2.2165 -0.8462
 4905TIP3    H236275   4.404   1.539   0.631 -1.6132 -2.4774  0.0833
 4906TIP3   OH236276   0.744   1.702   8.251  0.8447 -0.6024 -0.2551
 4906TIP3    H136277   0.690   1.624   8.240  1.3117 -0.9905  0.2072
 4906TIP3    H236278   0.761   1.732   8.161 -2.4417  1.1562 -0.4439
 4907TIP3   OH236279   2.804   1.921   0.442 -0.1937  0.6395 -0.5965
 4907TIP3    H136280   2.775   1.870   0.517 -1.0275  0.5031 -1.0044
 4907TIP3    H236281   2.788   2.012   0.467  3.2258  0.9560  0.9899
 4908TIP3   OH236282   1.624   1.351   0.975  0.2822 -0.1963  1.1779
 4908TIP3    H136283   1.538   1.310   0.963  0.7400 -1.1481  1.0520
 4908TIP3    H236284   1.632   1.362   1.070 -0.8870  1.9582  1.0932
 4909TIP3   OH236285   0.064   6.684   0.063 -0.1928 -0.2428 -0.2443
 4909TIP3    H136286   0.010   6.669   0.141 -2.5332 -0.4492 -1.7898
 4909TIP3    H236287   0.080   6.778   0.063  0.2711 -0.3161  0.7477
 4910TIP3   OH236288   5.086   4.079   7.538  0.0839  0.6379 -0.1269
 4910TIP3    H136289   5.026   4.019   7.581  1.8175 -1.1303 -0.0769
 4910TIP3    H236290   5.089   4.049   7.447 -0.2933  1.7228 -0.5210
 4911TIP3   OH236291   1.941   0.084   0.102 -0.7675  0.2920 -0.0498
 4911TIP3    H136292   1.925   0.178   0.093 -0.1267  0.3335 -0.8281
 4911TIP3    H236293   1.944   0.069   0.197  1.1082  1.4010  0.1140
 4912TIP3   OH236294   5.574   0.050   6.922  0.0411  0.5012  1.0412
 4912TIP3    H136295   5.623   0.014   6.997  0.3512 -1.5853 -0.0989
 4912TIP3    H236296   5.485   0.017   6.934  0.6178 -2.0666 -0.7318
 4913TIP3   OH236297   6.811   5.947   1.159  0.3765 -0.6307  0.2440
 4913TIP3    H136298   6.783   5.856   1.167  1.4807 -1.1001 -0.8199
 4913TIP3    H236299   6.907   5.942   1.155  0.5561  0.7399  1.8322
 4914TIP3   OH236300   2.873   5.723   0.475  0.6697 -0.1020  0.0887
 4914TIP3    H136301   2.953   5.746   0.427  0.0536  0.7419 -0.5549
 4914TIP3    H236302   2.803   5.735   0.411 -0.0577 -0.0156  0.8922
 4915TIP3   OH236303   2.621   2.906   1.410 -0.6049 -0.2108  0.0395
 4915TIP3    H136304   2.626   2.811   1.404  1.7613 -0.5058  3.6184
 4915TIP3    H236305   2.712   2.935   1.405 -0.7631  1.3160  3.4771
 4916TIP3   OH236306   2.534   6.132   2.103  0.1247 -0.2464 -0.3345
 4916TIP3    H136307   2.476   6.209   2.108 -1.5793 -1.5643  1.7446
 4916TIP3    H236308   2.621   6.169   2.086 -0.5282  2.2096  1.1257
 4917TIP3   OH236309   2.766   5.370   2.382  0.0332 -0.0707  0.4152
 4917TIP3    H136310   2.861   5.359   2.384  0.5666  3.1490 -1.0448
 4917TIP3    H236311   2.735   5.295   2.331  1.8455 -0.8452  0.3590
 4918TIP3   OH236312   6.461   1.067   2.536  0.4204  0.3562 -0.5517
 4918TIP3    H136313   6.395   1.136   2.528 -0.5202 -0.3402  0.6822
 4918TIP3    H236314   6.461   1.024   2.450  0.2618  1.2159 -0.9953
 4919TIP3   OH236315   1.945   4.494   2.125 -0.6264  0.2717  1.1622
 4919TIP3    H136316   1.957   4.560   2.194 -1.5164  0.2183  1.3838
 4919TIP3    H236317   2.033   4.461   2.107 -0.1148  1.7829  0.7763
 4920TIP3   OH236318   1.608   2.499   1.216  0.0661  0.2312 -0.0538
 4920TIP3    H136319   1.609   2.513   1.121 -2.2654  1.2589 -0.0109
 4920TIP3    H236320   1.519   2.523   1.243  0.7533  0.3047  2.4529
 4921TIP3   OH236321   6.018   2.671   2.155 -0.8045  0.1956 -0.0604
 4921TIP3    H136322   5.956   2.665   2.082 -2.2842 -0.3561  1.2061
 4921TIP3    H236323   6.093   2.718   2.118 -1.3775 -0.3450 -2.0194
 4922TIP3   OH236324   5.508   6.602   8.306 -0.2018  0.9276 -0.0082
 4922TIP3    H136325   5.592   6.582   8.264 -0.5372 -1.2869  0.2783
 4922TIP3    H236326   5.527   6.603   8.399 -0.9282 -2.7402  0.3405
 4923TIP3   OH236327   1.512   6.164   8.633 -0.1754  0.2328  0.0228
 4923TIP3    H136328   1.595   6.143   8.678  0.3149 -0.2477 -1.0784
 4923TIP3    H236329   1.538   6.224   8.563 -1.0267  1.4885  0.7322
 4924TIP3   OH236330   6.094   4.121   6.698 -0.0566  0.3604  0.7396
 4924TIP3    H136331   6.011   4.083   6.668 -0.4324  1.4554  0.3348
 4924TIP3    H236332   6.156   4.099   6.628 -0.3165  0.6582  0.4110
 4925TIP3   OH236333   4.595   5.487   2.729 -0.6164 -0.1268  0.0679
 4925TIP3    H136334   4.566   5.556   2.788  0.0749 -0.0118  0.2709
 4925TIP3    H236335   4.513   5.450   2.694 -0.9986  0.4637  0.3268
 4926TIP3   OH236336   1.723   6.594   8.388  0.1835  0.2410  1.0104
 4926TIP3    H136337   1.665   6.596   8.311  0.4800  0.4139  0.7888
 4926TIP3    H236338   1.712   6.680   8.428  0.1244  0.1950  1.0946
 4927TIP3   OH236339   2.578   0.916   1.697  0.3649 -0.5238 -0.2210
 4927TIP3    H136340   2.666   0.878   1.690  0.0932 -1.1846 -0.0572
 4927TIP3    H236341   2.530   0.880   1.623 -0.5436 -2.2673  1.1624
 4928TIP3   OH236342   5.702   0.915   8.149 -0.8463  0.4134  0.0063
 4928TIP3    H136343   5.675   1.002   8.178 -0.3290  0.3825  0.5923
 4928TIP3    H236344   5.683   0.858   8.223 -0.3139  0.1909 -0.0245
 4929TIP3   OH236345   4.389   3.774   7.892 -0.1624 -0.1149 -0.2094
 4929TIP3    H136346   4.368   3.682   7.907  0.6651 -0.5023 -1.2998
 4929TIP3    H236347   4.312   3.809   7.846 -1.6546  0.4730  2.5112
 4930TIP3   OH236348   1.064   5.868   6.833 -0.2048 -0.1004 -0.3878
 4930TIP3    H136349   1.113   5.855   6.914 -0.2911 -0.2469 -0.3569
 4930TIP3    H236350   1.025   5.782   6.815  0.1668 -0.1850 -0.8158
 4931TIP3   OH236351   6.415   5.309   2.724  0.3403  0.2004  0.1848
 4931TIP3    H136352   6.419   5.227   2.675  0.4060  0.2956  0.0302
 4931TIP3    H236353   6.507   5.336   2.733  0.3049  0.3864  0.0137
 4932TIP3   OH236354   1.621   6.295   0.215 -0.3099  0.0540  0.3827
 4932TIP3    H136355   1.629   6.335   0.128  0.0783 -0.3129  0.2457
 4932TIP3    H236356   1.702   6.245   0.225 -0.3204  0.1557  0.9876
 4933TIP3   OH236357   0.945   2.045   7.527  0.9631  0.6892 -0.0255
 4933TIP3    H136358   0.877   2.044   7.459  1.9566 -0.6167 -1.0530
 4933TIP3    H236359   0.964   2.137   7.540  0.1443  1.0033 -0.9160
 4934TIP3   OH236360   1.370   0.820   2.903 -0.4827 -0.0186  0.1377
 4934TIP3    H136361   1.378   0.847   2.812 -0.6472 -0.6895 -0.0826
 4934TIP3    H236362   1.448   0.767   2.920  1.2092  2.6502  1.3483
 4935TIP3   OH236363   5.166   6.421   0.228 -0.1963  0.1402 -0.1106
 4935TIP3    H136364   5.245   6.443   0.180 -0.5702  0.3872 -0.6227
 4935TIP3    H236365   5.154   6.328   0.213 -0.6937  0.3470 -1.0949
 4936TIP3   OH236366   4.236   4.849   2.700  0.6944 -0.0121  0.1947
 4936TIP3    H136367   4.148   4.841   2.738  1.0271 -0.4411  0.8922
 4936TIP3    H236368   4.221   4.845   2.606 -0.1088  0.6551  0.2771
 4937TIP3   OH236369   2.169   5.599   1.701 -0.4143  0.2167  0.1911
 4937TIP3    H136370   2.091   5.548   1.678 -1.0831  1.6164 -0.7688
 4937TIP3    H236371   2.215   5.613   1.618  0.1468  0.5350  0.5474
 4938TIP3   OH236372   0.227   3.004   7.011 -0.3479 -0.3855  0.0845
 4938TIP3    H136373   0.263   3.088   6.981  2.7798 -1.3426  0.7949
 4938TIP3    H236374   0.283   2.938   6.970 -0.1091 -1.9454  2.7095
 4939TIP3   OH236375   3.240   2.167   2.665  0.0579  0.1058  0.3972
 4939TIP3    H136376   3.152   2.129   2.669  0.3456 -0.5376  0.8509
 4939TIP3    H236377   3.244   2.227   2.739  0.5409 -1.1065  1.4019
 4940TIP3   OH236378   3.439   0.421   0.494 -0.5681 -0.0142 -0.1846
 4940TIP3    H136379   3.483   0.344   0.459  0.2702  1.5776 -2.9081
 4940TIP3    H236380   3.472   0.429   0.584 -0.2483 -2.4314 -0.0320
 4941TIP3   OH236381   3.863   5.721   0.437 -0.7424 -0.1423 -0.0746
 4941TIP3    H136382   3.808   5.673   0.500 -0.2811 -1.7976 -0.8812
 4941TIP3    H236383   3.811   5.724   0.357 -0.0207 -0.9672 -0.5902
 4942TIP3   OH236384   2.639   2.399   2.248  0.4433 -0.2658  0.2848
 4942TIP3    H136385   2.725   2.438   2.268 -0.5868  1.2219  2.1111
 4942TIP3    H236386   2.601   2.458   2.183 -0.4083  0.8680  1.7627
 4943TIP3   OH236387   3.285   4.551   7.301 -0.2617  0.6205  0.3698
 4943TIP3    H136388   3.327   4.604   7.232 -2.2448  1.0029 -0.6329
 4943TIP3    H236389   3.228   4.491   7.253  1.7132 -2.3733  1.4847
 4944TIP3   OH236390   3.409   6.061   0.709 -0.0756  0.2329 -0.0096
 4944TIP3    H136391   3.472   6.066   0.781  1.9529 -0.1143 -1.6668
 4944TIP3    H236392   3.367   6.147   0.708  1.8567  1.2398 -0.0826
 4945TIP3   OH236393   0.351   4.936   0.795 -0.4105  1.6144  0.6300
 4945TIP3    H136394   0.304   4.862   0.756  1.8720  0.1232  0.5272
 4945TIP3    H236395   0.285   4.979   0.850 -1.4043 -1.7527  2.4048
 4946TIP3   OH236396   2.493   3.157   8.468  0.0294 -0.0750  0.2530
 4946TIP3    H136397   2.527   3.117   8.388 -1.5473 -0.4352 -0.2709
 4946TIP3    H236398   2.475   3.248   8.443 -0.1067 -0.0884  0.3016
 4947TIP3   OH236399   2.724   6.641   0.884 -0.2131 -0.0820 -0.4111
 4947TIP3    H136400   2.728   6.585   0.806 -2.2741  0.2693 -0.8214
 4947TIP3    H236401   2.635   6.674   0.885 -0.7446 -1.2505  2.9391
 4948TIP3   OH236402   1.882   5.267   0.503 -0.1353 -0.1722 -0.0845
 4948TIP3    H136403   1.821   5.199   0.477  1.0109 -1.1522 -0.3112
 4948TIP3    H236404   1.833   5.348   0.495 -1.0402 -0.8119 -1.4395
 4949TIP3   OH236405   6.571   1.434   8.497  0.2016  0.1568 -0.1475
 4949TIP3    H136406   6.566   1.404   8.587 -1.8033 -2.2136 -0.9283
 4949TIP3    H236407   6.510   1.508   8.492  0.2431  0.2281  0.4067
 4950TIP3   OH236408   0.613   6.317   0.280 -0.2319 -0.1166  0.3155
 4950TIP3    H136409   0.526   6.340   0.249 -0.0300 -0.1891 -0.3314
 4950TIP3    H236410   0.643   6.395   0.326  0.2227  0.7734 -1.3840
 4951TIP3   OH236411   2.306   4.141   3.262 -0.3073 -0.3439 -0.3782
 4951TIP3    H136412   2.292   4.058   3.215 -1.6475  0.9544 -2.4501
 4951TIP3    H236413   2.359   4.193   3.202  0.8392  0.2095  1.0684
 4952TIP3   OH236414   3.904   2.760   1.014  0.4959  0.1367 -0.7315
 4952TIP3    H136415   3.926   2.805   1.095  2.4671  0.6549 -1.5023
 4952TIP3    H236416   3.824   2.802   0.984  0.2465  0.5543  0.4619
 4953TIP3   OH236417   1.143   5.549   8.211  0.2996  0.3166  0.0555
 4953TIP3    H136418   1.137   5.565   8.117 -0.9607 -1.6565 -0.2553
 4953TIP3    H236419   1.234   5.524   8.226  0.4414  0.3857 -0.6788
 4954TIP3   OH236420   0.488   4.304   0.509 -0.0214  0.7981 -0.2054
 4954TIP3    H136421   0.490   4.389   0.465  0.8584 -0.5341 -3.0348
 4954TIP3    H236422   0.578   4.272   0.504 -0.7259 -1.2262 -1.3548
 4955TIP3   OH236423   1.872   0.754   7.712  0.4221  0.3370 -0.0404
 4955TIP3    H136424   1.896   0.704   7.635  0.2580  1.7704 -1.0585
 4955TIP3    H236425   1.811   0.820   7.680 -0.5489  0.2577  1.5262
 4956TIP3   OH236426   3.119   5.533   2.061 -0.6997  0.1419  0.4502
 4956TIP3    H136427   3.095   5.476   1.987  1.9837 -0.6338  0.0936
 4956TIP3    H236428   3.212   5.551   2.049 -0.3777  0.7223  3.1717
 4957TIP3   OH236429   1.525   2.888   7.485  0.1169  0.3112  0.2210
 4957TIP3    H136430   1.473   2.834   7.545 -1.1737 -1.0695 -1.9847
 4957TIP3    H236431   1.610   2.845   7.482  0.5496  1.0003  1.8016
 4958TIP3   OH236432   0.982   4.673   2.050 -0.4978  0.1193 -0.2465
 4958TIP3    H136433   0.921   4.636   2.113  1.2065 -1.2437  0.6935
 4958TIP3    H236434   1.028   4.743   2.097  0.2782 -0.4244 -0.1715
 4959TIP3   OH236435   3.853   2.993   0.179  0.4205  0.1688 -0.0811
 4959TIP3    H136436   3.805   2.958   0.254  0.7149 -1.5487 -0.6424
 4959TIP3    H236437   3.787   3.035   0.124 -0.0074  0.2058  0.4623
 4960TIP3   OH236438   1.689   2.767   8.044 -0.0731  0.1432 -0.3019
 4960TIP3    H136439   1.730   2.817   7.973 -0.6602  0.3230 -0.5286
 4960TIP3    H236440   1.754   2.702   8.069  1.0869  1.5997  0.6396
 4961TIP3   OH236441   6.509   6.682   1.370  0.0546 -0.2081  0.0342
 4961TIP3    H136442   6.507   6.607   1.430 -1.4005 -0.5053 -0.3430
 4961TIP3    H236443   6.585   6.665   1.314  1.1673 -0.1582  1.4579
 4962TIP3   OH236444   1.431   0.607   1.495 -0.4179 -0.1017 -0.0292
 4962TIP3    H136445   1.489   0.594   1.420 -3.2531 -1.6711 -2.1085
 4962TIP3    H236446   1.352   0.645   1.457 -0.0252  4.6051  3.0462
 4963TIP3   OH236447   1.787   6.608   1.393  0.4198  0.2430 -0.0070
 4963TIP3    H136448   1.845   6.573   1.461 -1.7722 -0.4138  1.6406
 4963TIP3    H236449   1.741   6.531   1.359  1.6723  0.4977 -2.5728
 4964TIP3   OH236450   1.567   1.962   8.326  0.2941  0.8072 -0.0326
 4964TIP3    H136451   1.603   1.950   8.238  1.4075  1.3887  0.3169
 4964TIP3    H236452   1.483   2.006   8.312  1.2201  2.4556 -0.7553
 4965TIP3   OH236453   3.036   6.550   6.824  0.0927  0.6689  0.1569
 4965TIP3    H136454   3.127   6.555   6.794 -0.2334  0.3912 -0.9286
 4965TIP3    H236455   3.009   6.461   6.803 -0.4210  0.7300  0.5396
 4966TIP3   OH236456   5.616   0.290   2.534  0.4708 -0.2389 -0.8704
 4966TIP3    H136457   5.650   0.223   2.475  2.8339 -0.0900  0.1957
 4966TIP3    H236458   5.538   0.323   2.491  0.4733 -2.1394 -2.4822
 4967TIP3   OH236459   0.635   1.940   2.280 -0.5476  0.0187  0.1978
 4967TIP3    H136460   0.603   1.972   2.364  1.0816 -0.9482  1.2393
 4967TIP3    H236461   0.629   1.845   2.286  0.9258 -0.1358 -0.1641
 4968TIP3   OH236462   1.060   1.439   8.212  0.2129  0.1101 -0.0554
 4968TIP3    H136463   1.066   1.520   8.162 -0.2401 -0.2831 -0.7579
 4968TIP3    H236464   1.119   1.378   8.167 -1.8284 -0.9256 -1.4905
 4969TIP3   OH236465   1.991   1.608   0.901 -0.9877 -0.1743  0.0833
 4969TIP3    H136466   1.925   1.561   0.851 -1.6099 -1.0927  1.7035
 4969TIP3    H236467   2.017   1.548   0.970 -0.6687  1.2819  1.2957
 4970TIP3   OH236468   5.894   3.165   7.256  0.0175  0.3600  0.4539
 4970TIP3    H136469   5.914   3.072   7.262  0.9690  0.3806 -1.6244
 4970TIP3    H236470   5.822   3.171   7.193 -0.3120  0.9997  0.8774
 4971TIP3   OH236471   6.348   3.604   8.308 -0.5528 -0.2290  0.7968
 4971TIP3    H136472   6.395   3.633   8.230  0.9528  0.2350  1.8405
 4971TIP3    H236473   6.343   3.509   8.300 -0.5313 -0.1685  0.0690
 4972TIP3   OH236474   4.926   3.718   8.157  0.7176 -0.3399 -0.6236
 4972TIP3    H136475   4.831   3.714   8.145  0.1274  1.8303  2.1891
 4972TIP3    H236476   4.962   3.699   8.071 -2.3052  0.1702 -2.1372
 4973TIP3   OH236477   4.283   1.799   1.791 -0.1747  0.1906 -0.0146
 4973TIP3    H136478   4.377   1.811   1.790  0.0474 -1.0791  1.6984
 4973TIP3    H236479   4.256   1.823   1.880 -0.7440 -3.6822  1.0598
 4974TIP3   OH236480   0.152   1.478   8.565  0.0544 -0.0689 -0.2538
 4974TIP3    H136481   0.144   1.452   8.473 -0.4641 -0.2481 -0.1557
 4974TIP3    H236482   0.206   1.558   8.561 -1.4163  0.9530 -0.8905
 4975TIP3   OH236483   1.861   3.228   2.318  0.1879  0.1299 -0.7286
 4975TIP3    H136484   1.954   3.241   2.333 -0.0989  1.6169  0.0328
 4975TIP3    H236485   1.835   3.161   2.381  1.0727 -1.7857 -2.3023
 4976TIP3   OH236486   1.927   5.598   0.792 -0.2599 -0.1999 -0.9719
 4976TIP3    H136487   1.852   5.540   0.777 -0.4303 -0.2014 -0.1485
 4976TIP3    H236488   1.976   5.556   0.863  0.0249  0.2721 -0.8830
 4977TIP3   OH236489   1.300   4.095   1.294 -0.6789  0.1147  0.0232
 4977TIP3    H136490   1.282   4.003   1.314 -1.9314  0.1378 -0.8894
 4977TIP3    H236491   1.396   4.101   1.294 -0.5932 -0.9643  1.0373
 4978TIP3   OH236492   2.868   4.749   7.279  0.0975 -0.0255  0.5202
 4978TIP3    H136493   2.932   4.714   7.341  1.1296 -0.1008 -0.5426
 4978TIP3    H236494   2.880   4.844   7.283 -0.2345  0.0055  0.8385
 4979TIP3   OH236495   0.334   4.047   1.521  0.4631  0.5469 -0.6739
 4979TIP3    H136496   0.303   4.050   1.612 -0.3086  0.1482 -0.9106
 4979TIP3    H236497   0.410   4.106   1.519  0.3633  0.7167  0.1794
 4980TIP3   OH236498   2.155   1.401   1.582  0.2262 -0.1656  0.7746
 4980TIP3    H136499   2.069   1.359   1.576 -0.8286  2.0227 -1.3354
 4980TIP3    H236500   2.209   1.353   1.519 -0.4571  0.5115 -0.3508
 4981TIP3   OH236501   4.940   2.570   0.633 -0.1297 -0.0014  0.2835
 4981TIP3    H136502   4.855   2.539   0.601  0.6186 -1.3739 -0.5103
 4981TIP3    H236503   4.965   2.505   0.699  0.7903 -0.2502 -0.2946
 4982TIP3   OH236504   3.923   4.438   8.517 -0.0606 -0.2559 -0.4253
 4982TIP3    H136505   4.003   4.487   8.536 -0.0980 -0.2325 -0.3302
 4982TIP3    H236506   3.878   4.490   8.451 -1.1659  0.9645  1.2181
 4983TIP3   OH236507   1.993   4.794   7.446  0.0466 -0.2540  0.2055
 4983TIP3    H136508   1.991   4.777   7.351  0.2398 -2.1642  0.4993
 4983TIP3    H236509   2.052   4.727   7.480  0.6452  0.9380  1.6032
 4984TIP3   OH236510   0.492   1.117   8.434  0.2331 -0.6537 -0.6992
 4984TIP3    H136511   0.535   1.065   8.501  1.4576  0.2593 -0.7280
 4984TIP3    H236512   0.499   1.065   8.354 -1.9397 -2.1045 -0.0331
 4985TIP3   OH236513   2.809   3.410   7.641 -0.3253 -0.7893 -0.0247
 4985TIP3    H136514   2.896   3.441   7.666 -0.2916 -0.4494 -0.5438
 4985TIP3    H236515   2.825   3.333   7.587 -0.2698  0.1976 -1.4533
 4986TIP3   OH236516   4.382   6.285   0.648  0.1091 -0.0635 -0.2792
 4986TIP3    H136517   4.399   6.363   0.596 -0.2496 -0.6971 -1.3650
 4986TIP3    H236518   4.332   6.227   0.590 -0.3006 -0.7868  0.7628
 4987TIP3   OH236519   0.576   6.188   8.023 -0.1102 -0.8156  0.3248
 4987TIP3    H136520   0.619   6.115   7.981  0.3998 -0.2203 -0.2034
 4987TIP3    H236521   0.628   6.265   7.999 -1.1831 -0.1456  0.0579
 4988TIP3   OH236522   3.940   3.637   0.794 -0.4321 -0.2878  0.0696
 4988TIP3    H136523   3.925   3.642   0.699 -0.0177  1.0834  0.0521
 4988TIP3    H236524   3.925   3.545   0.816  0.6531 -0.8946 -1.5329
 4989TIP3   OH236525   3.830   2.483   7.343  1.2612  0.1192  0.2754
 4989TIP3    H136526   3.909   2.475   7.397 -0.3686 -0.8455  2.6571
 4989TIP3    H236527   3.804   2.393   7.324 -0.2739  0.3557  1.1066
 4990TIP3   OH236528   2.903   1.445   2.137  0.5183 -0.7319  1.0796
 4990TIP3    H136529   2.943   1.375   2.188 -1.1228 -1.8893  0.8755
 4990TIP3    H236530   2.815   1.455   2.174 -0.5296 -1.2294 -1.0715
 4991TIP3   OH236531   3.984   2.155   1.227  0.4649  0.1125  0.3994
 4991TIP3    H136532   4.063   2.124   1.181 -0.0416 -0.1020 -0.3351
 4991TIP3    H236533   3.920   2.085   1.216 -0.1094  0.6482  0.2713
 4992TIP3   OH236534   5.409   1.246   7.369 -0.3141  0.1863  0.3088
 4992TIP3    H136535   5.386   1.277   7.456  2.2717  1.5328  0.5931
 4992TIP3    H236536   5.387   1.318   7.310  0.1313  0.1950  0.1520
 4993TIP3   OH236537   0.301   2.571   1.253  0.3905 -0.0477 -0.0953
 4993TIP3    H136538   0.212   2.535   1.244  0.2620  0.5824 -1.8343
 4993TIP3    H236539   0.294   2.633   1.326 -0.6535  0.1091 -0.3052
 4994TIP3   OH236540   3.432   6.312   7.084  0.6734 -0.1051 -0.2170
 4994TIP3    H136541   3.345   6.273   7.083  0.8711 -0.5515 -0.3665
 4994TIP3    H236542   3.483   6.259   7.023  1.6269 -1.2406  1.4779
 4995TIP3   OH236543   3.212   2.300   1.507 -0.3410 -0.7498 -0.8266
 4995TIP3    H136544   3.254   2.297   1.421 -0.7056 -0.7021 -1.0059
 4995TIP3    H236545   3.262   2.237   1.560 -0.2622 -0.9504 -1.1358
 4996TIP3   OH236546   0.063   6.154   7.333  0.1348  0.4042 -0.1085
 4996TIP3    H136547   0.115   6.232   7.313 -1.1782  1.8048  1.6138
 4996TIP3    H236548  -0.007   6.154   7.269  0.3407  0.4183 -0.3348
 4997TIP3   OH236549   5.072   2.573   7.507 -0.2152 -0.2930  0.2647
 4997TIP3    H136550   5.033   2.612   7.429 -0.8438 -0.6923  0.3770
 4997TIP3    H236551   5.041   2.483   7.508 -0.3766 -0.2351  1.0820
 4998TIP3   OH236552   6.686   6.803   1.043 -0.3627 -0.2919 -0.1985
 4998TIP3    H136553   6.594   6.799   1.070 -0.8594  0.9248 -1.5591
 4998TIP3    H236554   6.685   6.857   0.963  1.3891 -1.2275 -0.9027
 4999TIP3   OH236555   6.662   6.203   8.083 -0.0951  0.4045 -0.3284
 4999TIP3    H136556   6.747   6.208   8.128 -0.2788 -1.1145  0.2246
 4999TIP3    H236557   6.683   6.219   7.991  1.0059 -1.1883 -0.3902
 5000TIP3   OH236558   2.775   4.715   0.791 -0.7204  0.8840  0.0066
 5000TIP3    H136559   2.736   4.768   0.860 -1.2677  1.1182 -0.4748
 5000TIP3    H236560   2.700   4.679   0.743 -0.3536  0.0425  0.0487
 5001TIP3   OH236561   5.323   5.548   1.510 -0.0882  0.7756 -0.5372
 5001TIP3    H136562   5.229   5.559   1.522 -0.4259 -1.4259 -0.8661
 5001TIP3    H236563   5.334   5.535   1.416  0.2543 -1.1402 -0.2600
 5002TIP3   OH236564   4.567   4.679   8.532  0.0421  0.3230 -0.0949
 5002TIP3    H136565   4.514   4.600   8.523 -0.7271  0.8243 -0.0665
 5002TIP3    H236566   4.503   4.749   8.545  0.4147  1.5096 -3.5905
 5003TIP3   OH236567   2.305   6.104   7.843 -0.0722 -0.4455 -0.2501
 5003TIP3    H136568   2.264   6.087   7.928 -0.3857  0.8126 -0.1276
 5003TIP3    H236569   2.242   6.071   7.779 -0.3605 -0.3509 -0.0164
 5004TIP3   OH236570   0.921   0.319   0.743 -0.5512 -1.0234 -0.0549
 5004TIP3    H136571   0.979   0.249   0.774  0.1504 -0.1866  0.5309
 5004TIP3    H236572   0.958   0.344   0.658 -1.5999 -2.2734 -0.9322
 5005TIP3   OH236573   1.896   6.510   0.577 -0.1307 -0.0622  0.2020
 5005TIP3    H136574   1.874   6.437   0.634  2.4180 -1.0415  0.0621
 5005TIP3    H236575   1.959   6.562   0.627  1.3048 -0.3256 -1.2113
 5006TIP3   OH236576   0.709   6.402   1.703 -0.2474 -1.1883  0.9119
 5006TIP3    H136577   0.721   6.337   1.773  0.8431 -0.4202  1.4745
 5006TIP3    H236578   0.784   6.461   1.713 -1.3261  0.2938  0.5701
 5007TIP3   OH236579   0.830   4.334   2.167 -0.5046  0.5764 -0.3095
 5007TIP3    H136580   0.871   4.421   2.164  3.1413 -0.9730 -0.3546
 5007TIP3    H236581   0.827   4.312   2.260  0.6155 -0.0816 -0.4174
 5008TIP3   OH236582   6.358   4.746   2.099 -0.6034  0.1691  0.4826
 5008TIP3    H136583   6.392   4.751   2.009 -0.8423 -0.5688  0.3384
 5008TIP3    H236584   6.415   4.803   2.150 -0.9562  1.2325 -0.2840
 5009TIP3   OH236585   2.571   2.987   7.700 -0.4540  0.1401 -0.0075
 5009TIP3    H136586   2.541   3.031   7.621 -1.1447 -0.2839  0.0045
 5009TIP3    H236587   2.646   2.934   7.672 -1.2972 -0.7756 -0.6018
 5010TIP3   OH236588   0.969   4.327   8.018 -0.3418 -0.1186 -1.2310
 5010TIP3    H136589   1.010   4.255   7.971  1.6529 -0.8681  1.4392
 5010TIP3    H236590   1.042   4.377   8.054 -1.6843 -0.3753  2.1525
 5011TIP3   OH236591   5.788   6.738   0.172  0.3206 -0.4548  0.2960
 5011TIP3    H136592   5.831   6.740   0.257  0.0600 -0.1970  0.4205
 5011TIP3    H236593   5.727   6.812   0.173  1.7942  0.8432 -0.8959
 5012TIP3   OH236594   4.669   0.369   1.789  0.2230  0.3416 -0.1634
 5012TIP3    H136595   4.634   0.338   1.706 -1.2402  0.4705  0.3650
 5012TIP3    H236596   4.760   0.390   1.771 -0.2507  1.0505 -1.9197
 5013TIP3   OH236597   0.569   0.583   1.203  0.0177 -0.4218 -0.6258
 5013TIP3    H136598   0.534   0.567   1.116 -0.6969 -0.5479 -0.3286
 5013TIP3    H236599   0.563   0.677   1.215 -2.2730 -0.5856  0.2092
 5014TIP3   OH236600   2.128   3.958   1.354  0.1724 -0.7129  0.8031
 5014TIP3    H136601   2.182   4.022   1.401 -0.8730 -0.1881  1.3405
 5014TIP3    H236602   2.188   3.887   1.333  1.1440  0.0021  1.0728
 5015TIP3   OH236603   4.233   5.108   0.142 -0.2128 -0.3368  0.3969
 5015TIP3    H136604   4.199   5.024   0.172 -0.2327 -0.2961  0.4907
 5015TIP3    H236605   4.223   5.166   0.218  0.4985 -0.4490  0.5852
 5016TIP3   OH236606   6.723   6.189   2.737 -0.0077 -0.0572 -0.6762
 5016TIP3    H136607   6.676   6.107   2.750 -0.7522  0.8506  3.5399
 5016TIP3    H236608   6.659   6.248   2.697  0.1735 -1.0597 -2.5845
 5017TIP3   OH236609   2.943   5.917   2.223 -0.5611 -0.4362  0.1095
 5017TIP3    H136610   2.848   5.904   2.224 -0.6275 -0.4998 -2.0559
 5017TIP3    H236611   2.958   5.991   2.282 -1.9113 -0.6120  0.7047
 5018TIP3   OH236612   0.905   5.182   1.227  0.1665  0.0074 -0.1117
 5018TIP3    H136613   0.980   5.240   1.212  0.6937 -0.7571 -0.4961
 5018TIP3    H236614   0.829   5.238   1.211  0.6711  0.4631 -1.0617
 5019TIP3   OH236615   3.179   6.365   0.338 -0.3744 -0.0853 -0.2786
 5019TIP3    H136616   3.215   6.326   0.258 -1.9155 -1.7188 -0.2552
 5019TIP3    H236617   3.105   6.309   0.360  2.0478 -2.0489  4.3510
 5020TIP3   OH236618   6.462   6.051   0.239  0.4117 -0.2828 -0.4017
 5020TIP3    H136619   6.475   6.085   0.150  0.3796  3.8909  1.0036
 5020TIP3    H236620   6.543   6.074   0.285 -0.7498  0.4228  1.3819
 5021TIP3   OH236621   5.163   5.718   1.946  0.2993  0.4019 -0.3221
 5021TIP3    H136622   5.198   5.759   2.025  0.1963 -0.4504  0.1777
 5021TIP3    H236623   5.219   5.642   1.931 -0.0077  0.2588 -0.7754
 5022TIP3   OH236624   3.662   0.664   6.965  0.1439  1.0787  0.4659
 5022TIP3    H136625   3.743   0.712   6.982  0.9867 -0.2407  0.3304
 5022TIP3    H236626   3.593   0.720   7.001  1.1540  2.0065  1.0229
 5023TIP3   OH236627   4.506   0.830   0.718 -0.5314 -0.4160 -0.3498
 5023TIP3    H136628   4.542   0.847   0.805  0.8794 -2.0546 -0.5692
 5023TIP3    H236629   4.490   0.917   0.681  2.1774  0.4075  0.2120
 5024TIP3   OH236630   0.312   1.959   2.084  0.3766 -0.5984  0.8351
 5024TIP3    H136631   0.242   1.895   2.070  0.5374 -0.8917  1.3347
 5024TIP3    H236632   0.391   1.915   2.053  0.0706  0.5119 -1.7356
 5025TIP3   OH236633   2.281   4.796   7.837 -0.2379 -0.5766 -0.0611
 5025TIP3    H136634   2.297   4.780   7.744  0.0840  0.4784 -0.2100
 5025TIP3    H236635   2.234   4.880   7.839  1.6600  0.5435  0.8059
 5026TIP3   OH236636   2.731   6.032   1.023 -0.0147 -0.6718  0.2534
 5026TIP3    H136637   2.804   6.028   1.085  0.6529 -0.9465 -0.5338
 5026TIP3    H236638   2.672   5.961   1.050 -0.9955  0.7698  2.0981
 5027TIP3   OH236639   3.210   0.274   6.876  0.2097  0.4818 -0.2696
 5027TIP3    H136640   3.198   0.331   6.800  1.0085 -0.4486 -1.1222
 5027TIP3    H236641   3.182   0.187   6.847  2.1521 -0.2603 -0.0915
 5028TIP3   OH236642   1.648   0.133   0.559 -0.2892 -0.0871  0.0220
 5028TIP3    H136643   1.608   0.113   0.474  0.4776  0.2219 -0.4311
 5028TIP3    H236644   1.618   0.222   0.580 -0.2476 -0.0496 -0.0752
 5029TIP3   OH236645   4.855   2.792   8.778  0.8288  0.4238  0.8783
 5029TIP3    H136646   4.896   2.877   8.760 -0.4746  0.7679 -0.6507
 5029TIP3    H236647   4.911   2.729   8.733  0.7812  0.6797  0.4549
 5030TIP3   OH236648   5.191   4.492   8.719  0.5129 -0.4353  0.6437
 5030TIP3    H136649   5.216   4.584   8.710  1.9085 -0.9239 -1.0545
 5030TIP3    H236650   5.099   4.494   8.746 -0.0317  1.4638 -1.1478
 5031TIP3   OH236651   6.296   0.268   1.653  0.0106  0.1415 -0.5962
 5031TIP3    H136652   6.372   0.247   1.599  0.4786  0.5856 -0.1221
 5031TIP3    H236653   6.327   0.261   1.743 -1.1665 -2.1945 -0.2979
 5032TIP3   OH236654   3.038   4.787   0.755 -0.6825  0.4200 -0.1057
 5032TIP3    H136655   2.958   4.747   0.724 -0.5926  0.5470 -0.5061
 5032TIP3    H236656   3.009   4.864   0.804 -0.7239  2.0284 -2.5228
 5033TIP3   OH236657   1.282   0.417   1.172 -0.2791  0.3804 -0.2972
 5033TIP3    H136658   1.316   0.409   1.261  2.6902  1.0879 -1.2772
 5033TIP3    H236659   1.204   0.472   1.182 -0.1943  0.2063  1.8809
 5034TIP3   OH236660   5.318   0.150   7.580  0.0613 -0.0432  0.4164
 5034TIP3    H136661   5.272   0.074   7.544  0.6672 -0.6463  0.8866
 5034TIP3    H236662   5.258   0.223   7.566  0.1982 -0.2760 -1.6102
 5035TIP3   OH236663   1.334   4.537   8.225 -0.5757 -0.5276  0.5350
 5035TIP3    H136664   1.393   4.480   8.176 -0.2291  1.5159 -1.6440
 5035TIP3    H236665   1.389   4.577   8.292 -0.7945 -2.5285  1.9929
 5036TIP3   OH236666   0.956   3.889   0.987 -0.3556 -0.4419  0.5052
 5036TIP3    H136667   0.937   3.953   1.055  0.6076 -0.0112  0.3835
 5036TIP3    H236668   1.046   3.861   1.005  0.4991  0.8416 -1.4755
 5037TIP3   OH236669   0.968   4.947   0.574  0.1453 -0.0900  0.2246
 5037TIP3    H136670   1.038   4.953   0.638 -0.1794  0.1885  0.5630
 5037TIP3    H236671   0.888   4.945   0.627 -0.3005  2.7483 -0.1862
 5038TIP3   OH236672   4.494   3.710   7.341  0.6591 -0.6392  0.0336
 5038TIP3    H136673   4.537   3.666   7.415  0.7273 -0.3119  0.1891
 5038TIP3    H236674   4.564   3.761   7.300  0.9292 -1.8224 -1.0399
 5039TIP3   OH236675   6.049   3.586   2.161  0.0368 -0.0753 -0.5211
 5039TIP3    H136676   6.101   3.513   2.127 -0.0685  0.7467 -2.5873
 5039TIP3    H236677   5.995   3.547   2.229  0.7454 -1.7037 -0.8504
 5040TIP3   OH236678   4.622   0.611   2.351 -0.1924  0.0346 -0.0976
 5040TIP3    H136679   4.648   0.666   2.425 -2.1893  1.2180 -0.2133
 5040TIP3    H236680   4.546   0.562   2.383 -1.7930  1.3935 -1.6444
 5041TIP3   OH236681   5.657   3.826   0.053  1.2164  0.1637 -0.0547
 5041TIP3    H136682   5.746   3.856   0.036  1.2603 -0.3311 -0.7539
 5041TIP3    H236683   5.602   3.902   0.035  1.3060 -0.1796 -1.9960
 5042TIP3   OH236684   2.784   5.191   7.106 -0.5855 -0.1553 -0.2646
 5042TIP3    H136685   2.858   5.248   7.086 -0.3772 -0.5827 -0.7379
 5042TIP3    H236686   2.741   5.178   7.021 -0.3316 -1.1054 -0.2554
 5043TIP3   OH236687   5.946   5.806   7.379  0.1070  0.1638 -0.7130
 5043TIP3    H136688   6.034   5.795   7.416 -1.6047  0.2240  4.0503
 5043TIP3    H236689   5.931   5.901   7.382 -0.0043  0.2240 -2.1300
 5044TIP3   OH236690   5.741   4.425   0.446  0.2911 -0.4546  0.4256
 5044TIP3    H136691   5.799   4.368   0.498 -0.1302 -1.0352  0.2707
 5044TIP3    H236692   5.799   4.466   0.382  0.8339  0.3163  1.3765
 5045TIP3   OH236693   1.604   3.446   2.468  0.0133  0.6402  0.6139
 5045TIP3    H136694   1.627   3.378   2.532  0.3639  0.5570  0.4024
 5045TIP3    H236695   1.628   3.528   2.511  3.1314  0.4715 -0.5207
 5046TIP3   OH236696   0.412   2.830   7.629 -0.0676 -0.0878  0.1099
 5046TIP3    H136697   0.419   2.863   7.539 -0.2599 -0.7055 -0.1299
 5046TIP3    H236698   0.484   2.767   7.637 -1.0643 -1.2939 -0.1561
 5047TIP3   OH236699   4.372   3.618   1.735  0.1296  0.4411 -0.2352
 5047TIP3    H136700   4.426   3.669   1.675 -0.1597  2.0183  0.7866
 5047TIP3    H236701   4.418   3.535   1.745 -0.5083 -0.4962 -3.6985
 5048TIP3   OH236702   1.963   1.095   0.357  0.4538  0.1124 -0.1813
 5048TIP3    H136703   1.966   1.158   0.285 -0.7522 -0.0753 -0.4190
 5048TIP3    H236704   2.004   1.140   0.431  1.5820  0.3542 -0.9327
 5049TIP3   OH236705   1.187   6.808   8.716 -0.1318  0.4395 -0.5613
 5049TIP3    H136706   1.249   6.743   8.684 -0.2056 -0.2999  0.7405
 5049TIP3    H236707   1.156   6.852   8.637  1.7736  0.5986 -1.2609
 5050TIP3   OH236708   2.522   2.930   1.716  0.2279  0.1472 -0.3585
 5050TIP3    H136709   2.547   2.842   1.689 -3.7718 -1.4988  0.6525
 5050TIP3    H236710   2.470   2.964   1.643 -2.9197 -0.6976  1.3229
 5051TIP3   OH236711   5.541   2.772   0.565  0.3814 -0.6674  0.0056
 5051TIP3    H136712   5.478   2.788   0.636 -0.2988  1.0272 -0.9150
 5051TIP3    H236713   5.615   2.828   0.586  0.2777 -0.3390 -0.4885
 5052TIP3   OH236714   6.320   1.450   7.311 -0.0126 -0.8314 -0.2038
 5052TIP3    H136715   6.280   1.454   7.398  1.0449 -2.1629  0.4027
 5052TIP3    H236716   6.410   1.422   7.328 -0.0023 -1.8984 -1.7856
 5053TIP3   OH236717   1.953   3.124   7.876 -0.0980  0.1381  0.0271
 5053TIP3    H136718   1.892   3.132   7.949 -0.2503 -0.0167 -0.0803
 5053TIP3    H236719   1.964   3.213   7.844 -2.8638 -0.1075 -2.0434
 5054TIP3   OH236720   4.901   4.951   7.396  0.9740 -0.1862 -0.1376
 5054TIP3    H136721   4.896   4.869   7.347 -1.4367 -0.1197 -0.1213
 5054TIP3    H236722   4.868   5.018   7.335  2.1094  0.6533  0.1315
 5055TIP3   OH236723   0.977   5.273   0.029  0.4869  0.2090  0.1133
 5055TIP3    H136724   0.886   5.280   0.057  0.7994  2.1304  0.7910
 5055TIP3    H236725   0.972   5.230  -0.057 -1.3217  2.4955 -1.0493
 5056TIP3   OH236726   4.247   3.938   0.712 -0.1115  0.2331 -0.6486
 5056TIP3    H136727   4.341   3.921   0.717 -0.1208  0.5143  1.4705
 5056TIP3    H236728   4.210   3.895   0.789 -2.0950 -1.8281 -2.6085
 5057TIP3   OH236729   4.204   3.746   2.657  0.1371 -0.4544 -0.3565
 5057TIP3    H136730   4.251   3.778   2.581  1.7472 -1.6685  0.0612
 5057TIP3    H236731   4.257   3.774   2.732 -1.5464  0.9448  0.3937
 5058TIP3   OH236732   4.921   3.607   8.402 -0.2844  0.4908 -0.1674
 5058TIP3    H136733   4.928   3.646   8.315 -0.0191  1.2827  0.1931
 5058TIP3    H236734   5.011   3.605   8.434 -0.2214 -0.9783 -0.3976
 5059TIP3   OH236735   0.638   4.145   6.852 -0.7757 -1.3989 -0.5339
 5059TIP3    H136736   0.727   4.114   6.838 -0.3654  0.0367 -1.2238
 5059TIP3    H236737   0.648   4.229   6.897 -1.8998 -2.8073  2.6193
 5060TIP3   OH236738   4.108   0.415   0.014 -0.5271 -0.1760 -0.7925
 5060TIP3    H136739   4.096   0.507   0.036  2.4275  0.4701 -1.5578
 5060TIP3    H236740   4.141   0.375   0.094  2.4344  0.4525 -1.6025
 5061TIP3   OH236741   2.001   4.774   8.266 -0.0322  0.2257  0.2542
 5061TIP3    H136742   1.936   4.706   8.285  0.9261 -0.8345 -0.1544
 5061TIP3    H236743   2.055   4.737   8.197  1.4262  0.8040  1.0313
 5062TIP3   OH236744   5.947   3.615   8.159  0.3334 -0.4277 -0.5567
 5062TIP3    H136745   5.885   3.647   8.225 -2.8340 -1.2863 -2.9028
 5062TIP3    H236746   5.963   3.691   8.102  0.1057 -0.6421 -0.9068
 5063TIP3   OH236747   6.149   2.500   2.615 -0.1234 -0.7060  0.1088
 5063TIP3    H136748   6.230   2.453   2.633  0.1391 -0.5354 -0.6087
 5063TIP3    H236749   6.133   2.486   2.522 -1.0632 -0.9631  0.2941
 5064TIP3   OH236750   5.194   4.885   1.111  0.1437 -0.3987 -0.1022
 5064TIP3    H136751   5.278   4.842   1.129  0.0701 -0.1453  0.9332
 5064TIP3    H236752   5.187   4.952   1.179 -0.2450  0.5388 -1.0315
 5065TIP3   OH236753   2.776   3.629   8.746 -0.6610  0.1405  0.3715
 5065TIP3    H136754   2.807   3.720   8.746  3.4082 -0.9992 -1.1363
 5065TIP3    H236755   2.719   3.623   8.669  1.1425  0.9295 -1.1091
 5066TIP3   OH236756   0.643   0.911   7.632  0.3596 -0.2875 -0.0502
 5066TIP3    H136757   0.627   1.001   7.661 -1.8216 -0.9584  0.9780
 5066TIP3    H236758   0.718   0.882   7.684  1.3613  1.0149 -0.6946
 5067TIP3   OH236759   2.731   6.806   7.653 -0.0570 -0.5995 -0.5851
 5067TIP3    H136760   2.742   6.749   7.577 -1.9993  0.6798 -1.9417
 5067TIP3    H236761   2.640   6.835   7.647  0.4708  1.5397  0.8067
 5068TIP3   OH236762   5.200   1.806   0.164  0.3035 -0.4133 -0.1482
 5068TIP3    H136763   5.131   1.829   0.227  0.6900 -1.9768  0.8999
 5068TIP3    H236764   5.236   1.891   0.136 -1.5131  0.3972 -0.1436
 5069TIP3   OH236765   5.067   2.423   8.366  0.4863  0.3414 -0.2103
 5069TIP3    H136766   5.072   2.380   8.452 -0.1587  0.8485  0.0827
 5069TIP3    H236767   5.127   2.372   8.311  0.5489 -0.2782  0.4152
 5070TIP3   OH236768   2.775   0.154   0.528 -0.2712  0.6458 -0.0308
 5070TIP3    H136769   2.779   0.224   0.462 -0.7282 -0.6370 -1.4758
 5070TIP3    H236770   2.842   0.092   0.501 -0.5694  0.0233  0.6291
 5071TIP3   OH236771   5.401   3.807   1.125 -0.3031 -0.3871 -0.0313
 5071TIP3    H136772   5.399   3.719   1.088  2.0725 -0.5899  0.1617
 5071TIP3    H236773   5.456   3.857   1.064 -0.5614  0.6298  0.5468
 5072TIP3   OH236774   0.610   4.493   7.662  0.4350 -0.1104 -0.5480
 5072TIP3    H136775   0.603   4.459   7.751  1.1421  0.2118 -0.3594
 5072TIP3    H236776   0.666   4.571   7.671 -1.1286  1.0989 -0.9630
 5073TIP3   OH236777   0.570   0.194   6.896  0.2705 -0.3316  0.0506
 5073TIP3    H136778   0.574   0.100   6.915 -1.3626 -0.4545 -0.0504
 5073TIP3    H236779   0.488   0.204   6.848 -0.7666  1.4837  2.0508
 5074TIP3   OH236780   6.738   5.044   2.623 -0.1277 -0.1373  0.1766
 5074TIP3    H136781   6.715   5.041   2.716  1.9841  0.3632  0.7777
 5074TIP3    H236782   6.805   5.112   2.618  1.2792 -1.5710 -1.3410
 5075TIP3   OH236783   1.612   5.835   8.566  0.1307  0.3571  0.1746
 5075TIP3    H136784   1.604   5.757   8.621  0.0057 -2.2360 -3.2186
 5075TIP3    H236785   1.522   5.866   8.557 -0.4693 -1.6708 -1.6834
 5076TIP3   OH236786   1.397   1.200   0.922 -0.0201  0.1998  0.3884
 5076TIP3    H136787   1.367   1.180   0.833 -0.3746  0.7441  0.3750
 5076TIP3    H236788   1.335   1.155   0.979  0.3289 -0.3168  0.3592
 5077TIP3   OH236789   5.111   3.087   0.204  0.2975 -0.0083 -0.0858
 5077TIP3    H136790   5.037   3.129   0.249  0.6466 -0.4404  0.9114
 5077TIP3    H236791   5.165   3.160   0.173 -0.5796  0.3126 -0.9037
 5078TIP3   OH236792   2.442   5.074   1.605 -0.3440 -0.1941 -0.1977
 5078TIP3    H136793   2.509   5.011   1.633  1.1392  0.9392 -1.0592
 5078TIP3    H236794   2.372   5.020   1.567  1.4918 -1.3228 -2.1848
 5079TIP3   OH236795   0.355   0.981   7.727 -0.1552  0.8422  0.5956
 5079TIP3    H136796   0.417   1.044   7.692 -0.0440  0.6163  0.3790
 5079TIP3    H236797   0.374   0.900   7.679 -2.0506  1.3116 -1.0629
 5080TIP3   OH236798   3.053   4.212   0.208  0.5674 -1.1186  0.5765
 5080TIP3    H136799   3.133   4.166   0.235  1.1723  0.3057  1.3384
 5080TIP3    H236800   3.073   4.304   0.222 -1.4476 -0.7633  1.4297
 5081TIP3   OH236801   5.904   6.375   7.483 -0.7056 -0.3733  0.6950
 5081TIP3    H136802   5.897   6.423   7.401 -0.4821 -0.7361  0.4582
 5081TIP3    H236803   5.851   6.296   7.470 -0.8609 -0.3188  0.9842
 5082TIP3   OH236804   5.540   3.674   3.111 -0.2686 -0.4592  0.5599
 5082TIP3    H136805   5.459   3.709   3.074 -0.4418 -0.8256  0.5957
 5082TIP3    H236806   5.514   3.635   3.195  0.0365 -0.0936  0.8343
 5083TIP3   OH236807   5.488   1.884   7.877  0.0592  0.1431  0.0272
 5083TIP3    H136808   5.492   1.816   7.811 -0.0329 -1.0502  1.2062
 5083TIP3    H236809   5.541   1.955   7.842  2.0255 -1.4013 -0.2940
 5084TIP3   OH236810   3.790   4.632   0.717 -0.4248  0.0319 -0.1822
 5084TIP3    H136811   3.724   4.635   0.647  2.4206 -2.4998 -3.3449
 5084TIP3    H236812   3.790   4.540   0.745  0.1598  0.5076  1.4734
 5085TIP3   OH236813   2.434   1.739   8.655  1.0111  0.4454 -0.0754
 5085TIP3    H136814   2.498   1.760   8.723  1.6057  0.8591 -0.7521
 5085TIP3    H236815   2.350   1.766   8.693  1.1861 -0.3524  0.9259
 5086TIP3   OH236816   3.484   0.490   6.763 -0.5430  0.0835  0.2174
 5086TIP3    H136817   3.571   0.459   6.737 -0.3132  0.6329  0.3057
 5086TIP3    H236818   3.477   0.577   6.724 -1.9917 -0.8291 -1.7149
 5087TIP3   OH236819   5.118   5.175   2.189  0.7341  0.4068 -0.3085
 5087TIP3    H136820   5.177   5.208   2.256  0.9139 -0.3310 -0.0954
 5087TIP3    H236821   5.175   5.155   2.115  0.5992  0.7362 -0.5083
 5088TIP3   OH236822   0.493   5.929   2.114  0.5084  0.4435  0.5713
 5088TIP3    H136823   0.398   5.933   2.118  0.5243  0.5997  0.7754
 5088TIP3    H236824   0.513   5.945   2.021  0.2983 -0.4051  0.3780
 5089TIP3   OH236825   0.981   4.038   8.756  0.7231  0.0239  0.1726
 5089TIP3    H136826   0.955   4.072   8.670 -2.2196 -0.9507  0.5829
 5089TIP3    H236827   0.969   4.111   8.816  2.3045  0.5587 -0.1185
 5090TIP3   OH236828   2.974   1.307   7.314 -0.5558  0.0483  0.4507
 5090TIP3    H136829   3.028   1.238   7.275  1.8413  1.4534  1.0585
 5090TIP3    H236830   2.957   1.367   7.241 -4.1221 -1.8411 -0.5210
 5091TIP3   OH236831   5.411   2.970   2.343  0.1936 -0.2323  0.2616
 5091TIP3    H136832   5.455   3.051   2.367  0.1863 -0.4074  0.8914
 5091TIP3    H236833   5.469   2.901   2.375 -0.0997 -0.4702  0.2861
 5092TIP3   OH236834   4.488   2.762   2.823 -0.2042  0.1481 -0.0554
 5092TIP3    H136835   4.541   2.833   2.859  1.2267 -0.5043 -0.7867
 5092TIP3    H236836   4.404   2.768   2.870  0.2813  1.6041  0.6845
 5093TIP3   OH236837   5.512   4.300   2.858 -0.6535  0.4041  0.3700
 5093TIP3    H136838   5.516   4.260   2.772 -0.6760 -0.0233  0.5670
 5093TIP3    H236839   5.419   4.309   2.877 -0.7075 -1.5360  1.2763
 5094TIP3   OH236840   4.950   6.580   0.341  0.0453  0.6829 -0.0215
 5094TIP3    H136841   5.019   6.521   0.312 -0.3831  1.3586 -2.6775
 5094TIP3    H236842   4.895   6.526   0.398 -0.1424 -1.4566 -2.0655
 5095TIP3   OH236843   1.900   5.996   1.595 -0.7164  0.3310  0.5380
 5095TIP3    H136844   1.843   6.017   1.669 -0.0955  1.0530  0.8201
 5095TIP3    H236845   1.903   6.077   1.544 -0.8858 -0.0664 -0.1135
 5096TIP3   OH236846   0.941   1.321   8.457 -0.0604  0.4544 -0.6018
 5096TIP3    H136847   1.026   1.351   8.488 -0.5144  1.1420  0.0084
 5096TIP3    H236848   0.922   1.377   8.381 -0.1945  0.6420 -0.4303
 5097TIP3   OH236849   0.291   5.670   2.146 -0.4064 -0.6704  0.0843
 5097TIP3    H136850   0.385   5.676   2.134 -0.3388  0.8306  1.0454
 5097TIP3    H236851   0.272   5.576   2.141  1.6368 -1.4058  3.2240
 5098TIP3   OH236852   0.639   0.914   2.876 -0.0225 -0.6913  0.4709
 5098TIP3    H136853   0.580   0.907   2.951 -0.8683  0.7269 -0.0213
 5098TIP3    H236854   0.596   0.864   2.807  0.9207 -2.2831  0.9783
 5099TIP3   OH236855   2.369   6.686   1.509  0.2656 -0.0028 -0.2721
 5099TIP3    H136856   2.428   6.669   1.436 -2.1504 -1.0830 -2.1054
 5099TIP3    H236857   2.391   6.775   1.538  1.5684  0.3002 -2.0418
 5100TIP3   OH236858   6.722   3.482   8.192 -0.1358  0.3198 -0.1402
 5100TIP3    H136859   6.763   3.400   8.220 -0.6015 -0.1436 -0.7609
 5100TIP3    H236860   6.787   3.524   8.137  0.7883  1.2427  1.5877
 5101TIP3   OH236861   3.713   5.552   7.813  0.2840 -0.4315 -0.0753
 5101TIP3    H136862   3.689   5.511   7.896 -0.3779 -1.9398 -0.9863
 5101TIP3    H236863   3.808   5.565   7.820  0.1617 -0.0203  1.1156
 5102TIP3   OH236864   2.863   2.841   1.929  0.4802 -0.3292  0.3454
 5102TIP3    H136865   2.793   2.832   1.993  0.2272 -1.0949 -0.0302
 5102TIP3    H236866   2.863   2.758   1.881  1.1886 -0.0734 -0.1179
 5103TIP3   OH236867   1.533   4.303   8.563  0.1465 -0.4886  0.5150
 5103TIP3    H136868   1.570   4.226   8.605  0.1279 -1.4024 -1.0668
 5103TIP3    H236869   1.581   4.311   8.481 -1.0542  0.1334 -0.1584
 5104TIP3   OH236870   1.868   0.383   1.485  0.5596  0.0585  0.2256
 5104TIP3    H136871   1.900   0.300   1.450  1.4368  0.5583 -0.1700
 5104TIP3    H236872   1.911   0.450   1.433 -1.3742  0.7679 -0.5322
 5105TIP3   OH236873   0.480   1.204   7.638  0.1712 -0.0587 -0.4305
 5105TIP3    H136874   0.560   1.226   7.686  0.5332  1.2116 -1.5618
 5105TIP3    H236875   0.415   1.268   7.669 -0.4035 -1.0040  0.3913
 5106TIP3   OH236876   4.226   2.703   1.189 -0.2547  0.3070  0.3876
 5106TIP3    H136877   4.222   2.777   1.129 -1.3409 -0.1935 -0.1949
 5106TIP3    H236878   4.138   2.664   1.185  0.5310 -1.5514 -0.0352
 5107TIP3   OH236879   5.001   4.826   0.728  0.5581 -0.1428 -0.3997
 5107TIP3    H136880   4.930   4.799   0.670  1.3140 -0.3895 -1.2456
 5107TIP3    H236881   5.061   4.751   0.728  0.7471 -0.0014  0.4193
 5108TIP3   OH236882   1.425   3.321   8.720  0.0991  0.2303 -0.0737
 5108TIP3    H136883   1.469   3.307   8.636  1.3533 -1.7241  0.8371
 5108TIP3    H236884   1.380   3.239   8.737 -0.1304  0.5989  1.1743
 5109TIP3   OH236885   3.653   4.345   7.329  0.3833  0.5367  0.3567
 5109TIP3    H136886   3.621   4.431   7.301  0.8890  0.5496 -0.1917
 5109TIP3    H236887   3.730   4.329   7.275  0.7513  0.0844  1.0041
 5110TIP3   OH236888   6.504   4.112   1.080 -0.4831  0.1153  0.0972
 5110TIP3    H136889   6.574   4.084   1.139 -0.2974  0.2536 -0.0605
 5110TIP3    H236890   6.548   4.134   0.999 -0.7448 -0.1081 -0.1087
 5111TIP3   OH236891   1.019   1.995   0.888  0.2029  0.2361 -0.0329
 5111TIP3    H136892   0.977   2.046   0.957 -0.1776 -1.3927  0.9973
 5111TIP3    H236893   0.950   1.936   0.857  0.4972  0.6448 -1.5170
 5112TIP3   OH236894   0.068   2.644   0.508  0.2667 -0.1579  0.1500
 5112TIP3    H136895   0.118   2.644   0.426  1.5872  0.5721  0.9371
 5112TIP3    H236896   0.125   2.685   0.572 -0.8784 -0.4073  1.3846
 5113TIP3   OH236897   5.304   0.099   1.690 -0.0588  0.7103  0.3432
 5113TIP3    H136898   5.314   0.008   1.716 -0.5719 -0.1672 -2.2811
 5113TIP3    H236899   5.355   0.148   1.755  0.9149 -1.4860  1.3310
 5114TIP3   OH236900   6.640   0.609   7.198 -0.4977 -0.0689  0.5932
 5114TIP3    H136901   6.697   0.635   7.271  0.0636 -0.6215  0.3632
 5114TIP3    H236902   6.681   0.530   7.163  0.2424  1.1006 -1.3952
 5115TIP3   OH236903   4.825   5.203   1.420 -0.1996 -0.6182  0.4554
 5115TIP3    H136904   4.903   5.172   1.465 -0.1329 -0.1860  0.6343
 5115TIP3    H236905   4.855   5.276   1.366 -0.5148 -0.3310  0.6674
 5116TIP3   OH236906   6.114   5.148   0.562 -0.4363  0.5275  0.0196
 5116TIP3    H136907   6.030   5.194   0.561 -0.7966 -0.1202 -0.0741
 5116TIP3    H236908   6.094   5.063   0.602  0.0144  0.0687 -0.7216
 5117TIP3   OH236909   2.004   3.670   1.289 -0.2009  0.2910  0.0409
 5117TIP3    H136910   1.986   3.628   1.374 -2.1947 -2.3877 -1.5432
 5117TIP3    H236911   1.918   3.673   1.246  0.7338  1.8031 -1.8197
 5118TIP3   OH236912   5.718   6.274   0.236 -0.1567  0.8597  0.8699
 5118TIP3    H136913   5.628   6.241   0.242  0.7890 -1.8088  1.5242
 5118TIP3    H236914   5.742   6.262   0.144  0.3636 -0.9629  1.2055
 5119TIP3   OH236915   0.828   0.283   7.875 -0.1653  0.1192  0.1225
 5119TIP3    H136916   0.859   0.374   7.872  1.4560 -0.4506 -1.3103
 5119TIP3    H236917   0.845   0.255   7.965 -1.5437  1.4700  0.8675
 5120TIP3   OH236918   4.868   5.353   2.161  0.0350 -0.0073  0.2407
 5120TIP3    H136919   4.832   5.272   2.197  0.3632 -1.2502 -2.0334
 5120TIP3    H236920   4.963   5.343   2.169  0.0558  0.8527  1.3015
 5121TIP3   OH236921   3.539   4.869   1.867  0.3167 -0.1025 -0.2432
 5121TIP3    H136922   3.537   4.862   1.772  2.3812  2.2992 -0.5544
 5121TIP3    H236923   3.489   4.949   1.886 -1.3273 -1.3263  0.8841
 5122TIP3   OH236924   0.135   3.475   0.594 -0.3859 -0.6335  0.1691
 5122TIP3    H136925   0.109   3.418   0.666  1.3692 -0.9969  0.5515
 5122TIP3    H236926   0.203   3.426   0.548 -0.2964  0.2966 -0.7274
 5123TIP3   OH236927   3.927   6.677   7.414  0.2909 -0.1548 -0.6169
 5123TIP3    H136928   3.842   6.677   7.370 -0.1021  2.2715  0.0306
 5123TIP3    H236929   3.906   6.692   7.506  1.3587 -0.9639 -0.2220
 5124TIP3   OH236930   6.370   1.001   8.398 -0.3682 -0.6182  0.2296
 5124TIP3    H136931   6.424   0.929   8.430 -0.9215 -0.4157  1.6671
 5124TIP3    H236932   6.433   1.071   8.379  0.0438 -1.0239  0.0661
 5125TIP3   OH236933   6.002   1.170   0.415  0.1646 -0.1127 -0.0864
 5125TIP3    H136934   6.044   1.091   0.451  0.7236  0.6863  1.0915
 5125TIP3    H236935   6.060   1.241   0.440  0.0673  0.6216 -1.7997
 5126TIP3   OH236936   4.874   5.406   1.243 -0.1091  0.2613  0.7717
 5126TIP3    H136937   4.943   5.388   1.179 -0.8730 -1.2661  0.3138
 5126TIP3    H236938   4.816   5.468   1.200  0.8939  1.5122  1.1375
 5127TIP3   OH236939   1.794   6.395   0.795  1.0360  0.1052 -0.0095
 5127TIP3    H136940   1.805   6.300   0.792 -0.3378 -0.1600  1.7748
 5127TIP3    H236941   1.703   6.408   0.823  1.1425  1.9638 -0.3917
 5128TIP3   OH236942   1.657   2.657   2.246 -0.4016 -0.0211  0.4025
 5128TIP3    H136943   1.626   2.683   2.159  0.3417 -1.6588 -0.3972
 5128TIP3    H236944   1.582   2.615   2.287 -0.2189 -1.0300 -0.2523
 5129TIP3   OH236945   6.361   5.967   2.251  0.2463 -0.1956  0.4005
 5129TIP3    H136946   6.344   6.008   2.167  0.3643 -0.1291  0.4101
 5129TIP3    H236947   6.324   5.879   2.242  2.7576 -1.2103 -0.7097
 5130TIP3   OH236948   3.465   4.501   0.780 -0.1908  0.2743  0.1103
 5130TIP3    H136949   3.543   4.448   0.798 -0.1083 -0.0296 -1.0999
 5130TIP3    H236950   3.415   4.498   0.862  1.4314  1.1380  1.1925
 5131TIP3   OH236951   3.430   3.268   2.175 -0.6923  0.4101 -0.0454
 5131TIP3    H136952   3.449   3.239   2.086 -0.4316 -1.2932  0.5450
 5131TIP3    H236953   3.341   3.304   2.169 -1.3868 -1.2868 -0.6793
 5132TIP3   OH236954   0.875   1.876   1.916 -0.0709 -0.0926  0.2996
 5132TIP3    H136955   0.911   1.808   1.974 -0.4907 -0.3692  0.2428
 5132TIP3    H236956   0.940   1.887   1.848  0.3057  0.0385  0.6784
 5133TIP3   OH236957   3.041   1.362   1.153 -0.1352 -0.1507  0.6091
 5133TIP3    H136958   3.018   1.303   1.081 -0.7992  0.1359  0.5796
 5133TIP3    H236959   3.105   1.422   1.114 -1.4898  0.8608 -0.1582
 5134TIP3   OH236960   6.460   1.367   2.009  0.3131 -0.6339  0.1789
 5134TIP3    H136961   6.371   1.404   2.005 -0.3338 -2.0698  0.4304
 5134TIP3    H236962   6.509   1.413   1.941 -1.1679 -1.1381 -1.3054
 5135TIP3   OH236963   6.708   3.781   7.038  0.0205  0.3922  0.0166
 5135TIP3    H136964   6.678   3.868   7.066 -0.4083 -0.0109  0.8527
 5135TIP3    H236965   6.649   3.756   6.968  1.3341  1.5781 -1.5944
 5136TIP3   OH236966   6.645   6.221   8.629  0.4469 -0.3901  0.1483
 5136TIP3    H136967   6.674   6.130   8.631 -0.4902 -0.7116  1.9737
 5136TIP3    H236968   6.717   6.270   8.671  1.3950 -0.0998 -1.7343
 5137TIP3   OH236969   0.795   4.806   1.869  0.1072 -0.3264 -0.2025
 5137TIP3    H136970   0.852   4.753   1.924 -0.6830 -0.3186  0.6336
 5137TIP3    H236971   0.734   4.847   1.930 -2.1198 -1.9296 -1.2417
 5138TIP3   OH236972   1.329   0.393   7.807  0.4412 -0.0470 -0.3439
 5138TIP3    H136973   1.394   0.323   7.802  0.9428  0.4909 -1.6159
 5138TIP3    H236974   1.362   0.461   7.748  0.1407  1.4126  1.0938
 5139TIP3   OH236975   4.126   6.400   0.708  0.0201 -0.5518  0.0715
 5139TIP3    H136976   4.201   6.400   0.649  1.1694 -0.4879  1.4513
 5139TIP3    H236977   4.112   6.308   0.730  0.7687 -0.4479  1.0654
 5140TIP3   OH236978   4.719   1.738   0.288 -0.4169  0.3619  0.3489
 5140TIP3    H136979   4.717   1.794   0.210 -0.3464  0.3926  0.3695
 5140TIP3    H236980   4.630   1.743   0.324 -0.3362  0.6731  0.5038
 5141TIP3   OH236981   4.993   4.399   6.897  0.0436 -0.7714 -0.0262
 5141TIP3    H136982   5.053   4.459   6.852  0.7212 -1.4976 -0.1214
 5141TIP3    H236983   5.009   4.416   6.990  0.9789 -1.5066 -0.0426
 5142TIP3   OH236984   2.031   6.477   6.780 -0.2110 -0.4192  0.2772
 5142TIP3    H136985   2.013   6.392   6.740 -0.3610  0.6144 -2.0602
 5142TIP3    H236986   1.947   6.506   6.814  0.0075 -1.5250  1.8482
 5143TIP3   OH236987   3.575   6.305   2.718 -0.0841  0.1947  0.3818
 5143TIP3    H136988   3.657   6.332   2.677  0.2690 -0.7751  0.4426
 5143TIP3    H236989   3.519   6.383   2.712  0.5819  0.6341 -0.3103
 5144TIP3   OH236990   5.612   1.356   2.167 -0.1686  0.4222 -0.0845
 5144TIP3    H136991   5.631   1.435   2.217  2.6999 -0.2073  0.0053
 5144TIP3    H236992   5.560   1.301   2.226 -1.1707  1.7048  0.2659
 5145TIP3   OH236993   3.109   5.214   2.174 -0.0155  0.0200 -0.0422
 5145TIP3    H136994   3.107   5.127   2.135 -0.4452 -0.1279  0.3020
 5145TIP3    H236995   3.065   5.270   2.111  0.8114  0.1088 -0.5486
 5146TIP3   OH236996   0.860   4.097   1.126  0.1870  0.3269 -0.0398
 5146TIP3    H136997   0.947   4.137   1.130  0.4889 -0.3466  0.5045
 5146TIP3    H236998   0.829   4.098   1.217  0.2756 -0.8029  0.0186
 5147TIP3   OH236999   1.402   3.550   1.115  0.3992 -0.1474 -0.5417
 5147TIP3    H137000   1.361   3.630   1.082  0.0004 -0.4744 -0.8535
 5147TIP3    H237001   1.419   3.568   1.207  0.2212  0.2599 -0.5872
 5148TIP3   OH237002   4.435   3.605   2.954  0.3600  0.0537 -0.5381
 5148TIP3    H137003   4.471   3.556   3.027  1.1627  0.4371 -0.6625
 5148TIP3    H237004   4.476   3.691   2.960 -1.2391  0.8368 -0.1388
 5149TIP3   OH237005   6.455   4.980   2.822 -0.2569  0.2114 -0.2752
 5149TIP3    H137006   6.498   4.895   2.813 -1.0236 -0.1322 -0.7994
 5149TIP3    H237007   6.440   5.009   2.732 -2.1120 -0.2044 -0.1532
 5150TIP3   OH237008   3.482   2.095   0.555  0.5792 -0.3284 -0.3667
 5150TIP3    H137009   3.505   2.178   0.597  0.7183 -0.5301 -0.0436
 5150TIP3    H237010   3.521   2.101   0.468  0.9553 -0.2274 -0.1931
 5151TIP3   OH237011   2.869   3.319   2.398 -0.2902  0.5168  0.8142
 5151TIP3    H137012   2.928   3.395   2.391  0.3718  0.1438  2.0401
 5151TIP3    H237013   2.901   3.271   2.475 -0.2724 -1.3739 -0.3182
 5152TIP3   OH237014   6.513   1.477   1.461 -0.2547  0.4211  0.1949
 5152TIP3    H137015   6.458   1.551   1.439  0.7055  0.8701 -0.8149
 5152TIP3    H237016   6.454   1.412   1.498 -1.3643  1.0699 -0.4096
 5153TIP3   OH237017   6.083   6.467   1.801  0.2189 -0.2937  0.7071
 5153TIP3    H137018   6.033   6.530   1.750  0.6833 -1.7078 -1.6489
 5153TIP3    H237019   6.023   6.393   1.812  0.5956 -0.5555  1.0305
 5154TIP3   OH237020   1.812   1.540   1.510  0.2937  0.0741  0.9516
 5154TIP3    H137021   1.875   1.609   1.530  1.6204 -0.0338 -2.2285
 5154TIP3    H237022   1.728   1.585   1.508  1.0917  1.6590 -0.7654
 5155TIP3   OH237023   2.976   0.718   2.227  0.3780  0.0282 -0.5988
 5155TIP3    H137024   2.904   0.753   2.279  0.8525 -1.8890  1.5039
 5155TIP3    H237025   2.962   0.624   2.226  3.3314 -0.5601  0.8210
 5156TIP3   OH237026   4.151   3.440   1.915 -0.4478  0.2372  0.6824
 5156TIP3    H137027   4.062   3.427   1.945 -0.9025  0.4832 -0.5057
 5156TIP3    H237028   4.142   3.470   1.824  0.8681 -1.1508  0.0459
 5157TIP3   OH237029   1.616   0.257   1.632 -0.2985 -0.6201 -0.3584
 5157TIP3    H137030   1.696   0.283   1.586 -1.0108  0.5818 -0.9624
 5157TIP3    H237031   1.640   0.177   1.678  1.6492  0.4337  0.5844
 5158TIP3   OH237032   2.376   2.384   0.511  0.0124 -0.1458 -0.1559
 5158TIP3    H137033   2.452   2.368   0.567 -0.3274 -1.0855  0.0397
 5158TIP3    H237034   2.352   2.298   0.478 -0.7244  0.2045 -0.5468
 5159TIP3   OH237035   4.413   3.194   7.484 -0.3866 -0.1897  0.3171
 5159TIP3    H137036   4.360   3.200   7.405 -0.4347 -2.5486  0.0954
 5159TIP3    H237037   4.398   3.105   7.516  2.5509 -0.5986  0.8587
 5160TIP3   OH237038   4.726   6.514   2.170  0.7444  0.5667  0.5564
 5160TIP3    H137039   4.751   6.444   2.230  2.0363 -0.7277 -1.3839
 5160TIP3    H237040   4.693   6.469   2.092 -0.8071  2.1885  0.2065
 5161TIP3   OH237041   2.402   1.985   2.342 -0.0938 -0.1175  0.9222
 5161TIP3    H137042   2.429   2.047   2.410  0.0666 -0.6807  1.3762
 5161TIP3    H237043   2.310   1.968   2.360 -0.8873  1.9540 -0.7434
 5162TIP3   OH237044   5.540   2.122   1.947 -0.1426 -0.6077  0.4193
 5162TIP3    H137045   5.621   2.133   1.996 -0.0129 -2.2775  0.6430
 5162TIP3    H237046   5.471   2.142   2.010  0.0598 -1.3103  0.8762
 5163TIP3   OH237047   4.899   4.332   1.179  0.3567  0.0179  0.4064
 5163TIP3    H137048   4.929   4.373   1.098 -0.0204 -0.2958  0.1021
 5163TIP3    H237049   4.852   4.402   1.225 -1.4043 -0.3856 -0.7101
 5164TIP3   OH237050   1.997   5.580   7.228  0.2958 -0.4996 -0.2715
 5164TIP3    H137051   1.907   5.606   7.210 -0.3424 -2.0906  0.4630
 5164TIP3    H237052   2.019   5.520   7.157  0.6542 -0.3888 -0.2537
 5165TIP3   OH237053   2.433   1.418   1.864  0.2829 -0.2036  0.0925
 5165TIP3    H137054   2.483   1.495   1.890  1.2830  0.0354 -2.2919
 5165TIP3    H237055   2.341   1.443   1.880  0.6988  0.6182  1.3649
 5166TIP3   OH237056   5.054   1.955   8.093 -0.0865 -0.2095 -0.1341
 5166TIP3    H137057   5.057   1.988   8.183  1.8491  0.6965 -0.4894
 5166TIP3    H237058   4.961   1.937   8.078 -0.3694 -1.3081  2.3564
 5167TIP3   OH237059   1.705   5.670   8.332  0.2643 -0.5053  0.3364
 5167TIP3    H137060   1.698   5.765   8.342  0.3821 -0.2925 -1.3431
 5167TIP3    H237061   1.647   5.634   8.400 -3.1288  0.8638 -1.6162
 5168TIP3   OH237062   1.386   2.614   7.913  0.3699  0.2013 -0.0911
 5168TIP3    H137063   1.451   2.651   7.853  1.1562 -0.0848  0.5708
 5168TIP3    H237064   1.407   2.653   7.998 -0.7776  0.6533 -0.0034
 5169TIP3   OH237065   1.443   4.717   1.683 -0.1302 -0.4898  0.0424
 5169TIP3    H137066   1.405   4.681   1.763 -0.3780 -1.8215 -0.6402
 5169TIP3    H237067   1.431   4.647   1.618  0.3893  0.4227 -1.0587
 5170TIP3   OH237068   0.138   1.313   1.468  0.0102  0.7175 -0.3995
 5170TIP3    H137069   0.198   1.388   1.465  0.2810  0.4638 -2.0847
 5170TIP3    H237070   0.059   1.344   1.423 -1.2835  1.1268  1.9877
 5171TIP3   OH237071   6.224   0.531   0.965  0.1737  0.5056 -0.1591
 5171TIP3    H137072   6.197   0.592   0.896 -1.4355  0.2628  0.2081
 5171TIP3    H237073   6.314   0.555   0.984  0.2707  1.3506 -1.5280
 5172TIP3   OH237074   5.986   0.819   2.120  0.6600  0.6678 -0.1820
 5172TIP3    H137075   5.981   0.904   2.164  0.6352  1.8388 -2.3038
 5172TIP3    H237076   6.079   0.807   2.101  0.5113  0.8784 -1.0669
 5173TIP3   OH237077   6.008   0.697   2.475  0.0262 -0.6183  0.3286
 5173TIP3    H137078   6.026   0.646   2.554  1.0652 -0.6134  0.1104
 5173TIP3    H237079   6.010   0.788   2.504  0.1295 -0.6289  0.3570
 5174TIP3   OH237080   4.192   5.793   0.720  0.0160 -0.0384 -0.0937
 5174TIP3    H137081   4.125   5.847   0.762 -0.1143  0.1418 -0.5262
 5174TIP3    H237082   4.168   5.794   0.627 -0.4131 -1.4380 -0.0240
 5175TIP3   OH237083   6.797   3.292   0.775  0.2566  0.4043  0.0047
 5175TIP3    H137084   6.811   3.208   0.818 -0.2407 -0.8581 -2.1264
 5175TIP3    H237085   6.702   3.295   0.759  0.5530  0.1566 -2.1305
 5176TIP3   OH237086   5.680   2.972   0.647 -0.6800  0.2648  0.0559
 5176TIP3    H137087   5.652   3.049   0.597  2.3910  0.5703 -1.4864
 5176TIP3    H237088   5.774   2.986   0.661 -0.3614 -2.4262  1.2112
 5177TIP3   OH237089   4.890   0.078   1.717 -0.5383 -0.1783  0.0720
 5177TIP3    H137090   4.822   0.116   1.661  1.9855  1.8119 -1.9471
 5177TIP3    H237091   4.948   0.033   1.657  0.7676 -0.4650  1.4794
 5178TIP3   OH237092   1.845   2.539   1.958 -0.5537 -0.2900 -0.1035
 5178TIP3    H137093   1.912   2.549   2.025 -0.0253  3.5221 -0.9142
 5178TIP3    H237094   1.763   2.560   2.002 -0.3111  1.3366 -0.3308
 5179TIP3   OH237095   3.543   6.592   8.674  0.9871 -0.2214 -0.1797
 5179TIP3    H137096   3.637   6.593   8.689  0.7543  2.4150  2.1021
 5179TIP3    H237097   3.526   6.667   8.616  0.2160  0.3323  0.7164
 5180TIP3   OH237098   2.776   0.650   8.508  0.2275 -0.1457 -0.4720
 5180TIP3    H137099   2.870   0.649   8.493  0.2103 -0.5749 -0.5805
 5180TIP3    H237100   2.738   0.618   8.426  0.0710 -1.3546  0.0476
 5181TIP3   OH237101   2.717   1.007   0.262  0.1999 -0.6432  0.4533
 5181TIP3    H137102   2.731   1.046   0.349 -0.7180  2.9219 -0.8156
 5181TIP3    H237103   2.799   1.023   0.215 -0.5421  0.8318 -0.4057
 5182TIP3   OH237104   5.584   6.698   0.827 -0.2997 -0.4855  0.2952
 5182TIP3    H137105   5.509   6.664   0.778 -1.2372  2.3147 -0.4049
 5182TIP3    H237106   5.591   6.640   0.903 -1.9849 -1.9577 -0.5874
 5183TIP3   OH237107   4.612   3.100   0.173 -0.2644  0.2279 -0.0118
 5183TIP3    H137108   4.618   3.007   0.196 -1.0294  0.2289  0.2559
 5183TIP3    H237109   4.702   3.128   0.159  0.2016 -0.0330  2.0368
 5184TIP3   OH237110   5.516   1.223   0.414 -0.0604  0.3525 -0.1173
 5184TIP3    H137111   5.424   1.202   0.403  0.0193  0.5917 -1.3550
 5184TIP3    H237112   5.561   1.139   0.404 -0.1651  0.1420  1.0340
 5185TIP3   OH237113   5.693   3.560   1.384 -0.2467  0.2111  0.1392
 5185TIP3    H137114   5.602   3.579   1.406 -0.2122 -0.3638  0.8164
 5185TIP3    H237115   5.742   3.579   1.464  0.1627  0.0460 -0.0660
 5186TIP3   OH237116   5.273   3.895   7.952  0.2213 -0.2015  0.2191
 5186TIP3    H137117   5.368   3.904   7.958  0.0842  1.6128  0.3696
 5186TIP3    H237118   5.254   3.910   7.859 -0.0702  2.1572  0.5723
 5187TIP3   OH237119   3.565   2.654   0.656  0.0435 -0.2830  0.3843
 5187TIP3    H137120   3.564   2.707   0.736  0.5210 -1.1778  0.9960
 5187TIP3    H237121   3.604   2.712   0.591  0.0656  0.3061  0.9022
 5188TIP3   OH237122   3.927   2.510   7.666  0.4083 -0.8536 -0.6244
 5188TIP3    H137123   3.998   2.457   7.701  0.7550 -0.6431 -1.0105
 5188TIP3    H237124   3.970   2.582   7.622 -0.0675 -0.0736  0.1493
 5189TIP3   OH237125   2.264   5.834   1.342 -0.0939 -0.0330 -0.4220
 5189TIP3    H137126   2.302   5.798   1.423  0.1708 -1.8207 -1.3057
 5189TIP3    H237127   2.224   5.917   1.370 -1.8061 -1.5316  1.9828
 5190TIP3   OH237128   1.190   6.606   0.840 -0.4329  0.2696  0.2100
 5190TIP3    H137129   1.149   6.521   0.824  1.1878 -0.4941 -0.0724
 5190TIP3    H237130   1.137   6.646   0.909 -1.8898 -0.4723 -0.4474
 5191TIP3   OH237131   4.196   0.862   1.430 -0.5492  0.2547 -0.2019
 5191TIP3    H137132   4.175   0.769   1.426  1.3568 -0.1822 -2.1189
 5191TIP3    H237133   4.170   0.896   1.344 -1.2390  1.5212  0.4817
 5192TIP3   OH237134   3.467   2.000   8.773  0.2590  0.2890 -0.0567
 5192TIP3    H137135   3.494   2.086   8.742 -1.5778  0.9777  0.1492
 5192TIP3    H237136   3.442   1.953   8.693 -2.5103  1.3583  0.0905
 5193TIP3   OH237137   3.874   2.959   0.724  0.1917  0.0020  0.4412
 5193TIP3    H137138   3.939   2.889   0.724 -0.4978 -0.6829  2.0950
 5193TIP3    H237139   3.809   2.931   0.660  0.0981 -0.7281  0.8402
 5194TIP3   OH237140   6.310   4.437   0.808 -0.5610  0.1053  0.3223
 5194TIP3    H137141   6.306   4.530   0.833 -0.8053  0.2882 -0.3587
 5194TIP3    H237142   6.280   4.390   0.886  1.0990  0.4900  1.2206
 5195TIP3   OH237143   3.146   5.011   8.622 -0.1014 -0.7559  0.1625
 5195TIP3    H137144   3.208   5.038   8.555  2.8138 -3.0921  1.7012
 5195TIP3    H237145   3.091   4.945   8.579 -0.1282 -0.2148 -0.6424
 5196TIP3   OH237146   2.237   3.704   2.940  0.5634 -0.7434  0.5939
 5196TIP3    H137147   2.143   3.702   2.957  0.4764  0.5533  0.3905
 5196TIP3    H237148   2.244   3.715   2.845  0.7602  2.9556  0.8605
 5197TIP3   OH237149   6.054   1.199   2.028  0.4291  0.4235  0.0981
 5197TIP3    H137150   5.984   1.155   1.978 -0.3730  0.9250  0.7542
 5197TIP3    H237151   6.029   1.186   2.119  1.8350 -0.4071  0.3813
 5198TIP3   OH237152   0.950   3.497   8.533  0.4088  0.3086  0.0994
 5198TIP3    H137153   0.986   3.413   8.562  0.8635  0.7315  0.8048
 5198TIP3    H237154   0.988   3.510   8.446  2.8482  1.1989  1.1905
 5199TIP3   OH237155   3.970   5.160   2.283 -0.3269  0.7004  0.0103
 5199TIP3    H137156   3.951   5.125   2.370  1.7433  0.4607  0.4192
 5199TIP3    H237157   3.949   5.088   2.224 -0.8968  0.5457  0.3948
 5200TIP3   OH237158   4.471   2.202   2.592 -0.6847 -0.2006  0.1877
 5200TIP3    H137159   4.490   2.271   2.656  0.6693  0.0258 -0.4098
 5200TIP3    H237160   4.405   2.147   2.634 -1.2029  0.9897  1.0116
 5201TIP3   OH237161   1.969   2.841   7.562 -0.3855 -0.2090  0.4284
 5201TIP3    H137162   2.056   2.827   7.600  0.6514  0.3494 -1.6041
 5201TIP3    H237163   1.977   2.811   7.471 -2.7597 -1.5301  0.5645
 5202TIP3   OH237164   1.133   6.037   8.121 -0.2517  0.3366  0.1721
 5202TIP3    H137165   1.140   6.031   8.216  1.0115 -1.3009  0.0046
 5202TIP3    H237166   1.164   6.126   8.100  1.6294 -0.0501  1.1232
 5203TIP3   OH237167   0.952   4.425   2.620  0.1682 -0.4476 -0.5013
 5203TIP3    H137168   0.900   4.352   2.585  0.4112 -0.7379 -0.2679
 5203TIP3    H237169   0.895   4.501   2.613 -0.3146 -0.7775 -0.1789
 5204TIP3   OH237170   1.022   0.626   2.629 -0.3973  0.4040 -0.4632
 5204TIP3    H137171   1.001   0.681   2.705  3.1152  0.8675  0.3366
 5204TIP3    H237172   1.017   0.536   2.662  0.1952  0.5639  0.0820
 5205TIP3   OH237173   4.279   6.107   0.911  0.2224  0.2625 -0.1406
 5205TIP3    H137174   4.186   6.099   0.890  0.0070  2.1977 -0.1236
 5205TIP3    H237175   4.316   6.021   0.893 -1.5519 -0.5028 -0.2522
 5206TIP3   OH237176   3.447   0.930   1.498 -0.6396  0.5631  0.6605
 5206TIP3    H137177   3.492   0.846   1.505 -0.5814  0.4192 -0.9574
 5206TIP3    H237178   3.457   0.970   1.584  0.1543 -0.6706  1.1766
 5207TIP3   OH237179   0.828   4.918   6.507  0.1793  0.1645  0.2789
 5207TIP3    H137180   0.739   4.930   6.542  0.1262 -1.7558  0.8739
 5207TIP3    H237181   0.850   5.004   6.471 -1.7840  0.7906  0.4119
 5208TIP3   OH237182   2.024   5.925   8.214 -0.4723  0.4247 -0.2529
 5208TIP3    H137183   2.006   5.915   8.121 -0.8766  1.2930 -0.2826
 5208TIP3    H237184   2.078   6.004   8.220  1.1302 -0.6396  0.0950
 5209TIP3   OH237185   0.842   6.455   2.339 -0.4414 -0.0942 -0.2486
 5209TIP3    H137186   0.797   6.398   2.401  0.5272  1.4876  2.0112
 5209TIP3    H237187   0.923   6.408   2.318 -0.4810 -0.3618  0.1827
 5210TIP3   OH237188   2.337   0.862   1.889  0.4737  0.0578 -0.5261
 5210TIP3    H137189   2.293   0.881   1.971 -0.7074  1.1910 -1.3901
 5210TIP3    H237190   2.417   0.915   1.891  0.3911  0.1712 -0.1702
 5211TIP3   OH237191   4.082   2.896   1.649 -0.0574  0.6667 -0.0897
 5211TIP3    H137192   4.108   2.988   1.661 -0.3526  0.6730  0.5695
 5211TIP3    H237193   4.124   2.870   1.567 -2.4215  2.2997 -1.9784
 5212TIP3   OH237194   1.010   2.311   7.518  0.3469  0.2935  0.3143
 5212TIP3    H137195   1.036   2.272   7.435  0.1501 -0.2498  0.5038
 5212TIP3    H237196   1.062   2.392   7.524  0.7907  0.0408 -0.0599
 5213TIP3   OH237197   0.775   0.956   2.164  0.3843 -0.9111  0.0387
 5213TIP3    H137198   0.737   0.913   2.088 -0.2376  0.0225 -0.1952
 5213TIP3    H237199   0.728   1.039   2.171  0.9158 -0.6728  1.0243
 5214TIP3   OH237200   1.737   4.901   1.680  0.5061 -0.0239 -0.2343
 5214TIP3    H137201   1.749   4.968   1.748 -0.2235  1.1353 -1.2186
 5214TIP3    H237202   1.801   4.924   1.612  0.8908 -0.8905 -0.1921
 5215TIP3   OH237203   0.252   3.699   0.756  0.1624 -0.4047  0.4303
 5215TIP3    H137204   0.241   3.624   0.813 -0.2647  0.1849  1.1381
 5215TIP3    H237205   0.243   3.664   0.667  0.3734 -1.2444  0.7354
 5216TIP3   OH237206   4.982   5.078   1.032 -0.1460  0.4485 -0.2877
 5216TIP3    H137207   5.042   5.008   1.007 -0.5206 -0.2846  0.7927
 5216TIP3    H237208   5.034   5.135   1.089 -0.1085  0.5094 -0.3843
 5217TIP3   OH237209   4.196   3.968   0.072  0.1475 -0.2990  0.6976
 5217TIP3    H137210   4.153   3.943   0.154  0.2691 -0.7369  0.6324
 5217TIP3    H237211   4.149   4.046   0.043 -0.4118 -0.5960  0.7813
 5218TIP3   OH237212   3.425   2.038   8.176 -0.7451 -0.5192  0.0811
 5218TIP3    H137213   3.496   2.006   8.120  0.9286  0.7941  1.3142
 5218TIP3    H237214   3.345   2.016   8.129  0.4849 -1.6480 -1.6150
 5219TIP3   OH237215   1.404   6.601   8.182  0.7190  0.0119  0.1244
 5219TIP3    H137216   1.312   6.621   8.199  0.7459  1.1601 -0.9152
 5219TIP3    H237217   1.431   6.666   8.116  1.8806 -1.1845 -0.6357
 5220TIP3   OH237218   0.294   4.277   6.722  0.2660  0.5244  0.0670
 5220TIP3    H137219   0.381   4.283   6.683  1.1487 -0.4219  1.7552
 5220TIP3    H237220   0.297   4.197   6.775 -1.0089  1.4825  1.6636
 5221TIP3   OH237221   6.367   1.883   1.291  0.3108 -0.6170  0.0708
 5221TIP3    H137222   6.424   1.953   1.261  0.3798 -0.2325  1.0525
 5221TIP3    H237223   6.407   1.852   1.372 -1.5893  0.6517  1.5996
 5222TIP3   OH237224   4.668   3.867   2.016  0.3163 -0.3012  0.4099
 5222TIP3    H137225   4.609   3.792   2.024 -0.5769  0.0544 -1.9775
 5222TIP3    H237226   4.616   3.933   1.970  2.7049 -0.1738 -2.3733
 5223TIP3   OH237227   6.225   5.888   1.561 -0.5290  0.4572 -0.0763
 5223TIP3    H137228   6.169   5.811   1.572 -2.2543  1.3589 -1.8125
 5223TIP3    H237229   6.284   5.864   1.490 -0.0068  0.2002  0.4382
 5224TIP3   OH237230   5.936   3.628   1.257  0.1528  0.4668 -0.0067
 5224TIP3    H137231   5.922   3.576   1.178  0.1944 -0.6340  0.6807
 5224TIP3    H237232   5.852   3.627   1.303  0.0084  1.4546 -0.2300
 5225TIP3   OH237233   5.106   3.597   2.180  0.5372  0.6086  0.0766
 5225TIP3    H137234   5.161   3.532   2.223 -0.0773  0.6978  1.0146
 5225TIP3    H237235   5.097   3.667   2.244  0.4444  1.2123 -0.5857
 5226TIP3   OH237236   5.820   0.135   6.811 -0.1229  0.1866  0.3121
 5226TIP3    H137237   5.733   0.101   6.830  1.2594 -3.6942  0.6872
 5226TIP3    H237238   5.873   0.111   6.888  2.0858 -1.3355 -1.5396
 5227TIP3   OH237239   0.401   3.208   2.912  0.4791  0.3340  0.4410
 5227TIP3    H137240   0.412   3.279   2.849  1.4936  1.2058  1.5636
 5227TIP3    H237241   0.307   3.203   2.927  0.1851 -0.0665 -1.3050
 5228TIP3   OH237242   4.039   4.312   1.148 -0.4150 -0.6479  0.2771
 5228TIP3    H137243   4.067   4.234   1.100 -2.4010 -2.1862  1.4587
 5228TIP3    H237244   4.094   4.314   1.226  0.4166 -0.1827 -0.3125
 5229TIP3   OH237245   6.087   0.615   0.121 -0.3858  0.3547 -0.0018
 5229TIP3    H137246   6.051   0.526   0.128 -0.4753  0.3864 -0.0481
 5229TIP3    H237247   6.143   0.625   0.198  1.4727 -0.5752 -1.1622
 5230TIP3   OH237248   3.781   1.894   3.043 -0.1219 -0.4278 -0.8771
 5230TIP3    H137249   3.703   1.941   3.072 -0.3401 -1.2017 -0.1762
 5230TIP3    H237250   3.843   1.904   3.115 -0.6495 -2.3194 -0.1022
 5231TIP3   OH237251   5.352   6.162   7.833 -0.1370 -0.3766 -0.4002
 5231TIP3    H137252   5.359   6.089   7.895 -0.9691 -1.1036 -1.1336
 5231TIP3    H237253   5.438   6.167   7.792  0.4995  0.2584  0.9476
 5232TIP3   OH237254   2.029   2.272   0.308 -0.3106  0.1621  0.1137
 5232TIP3    H137255   2.091   2.345   0.314 -0.5457  0.3555  0.2037
 5232TIP3    H237256   2.013   2.262   0.214 -2.8776  2.4513  0.1890
 5233TIP3   OH237257   0.785   5.050   2.282  0.5378  0.0588 -0.0289
 5233TIP3    H137258   0.758   4.959   2.296 -1.1666  0.5301  0.0120
 5233TIP3    H237259   0.880   5.047   2.279  0.5367 -1.6153  0.7338
 5234TIP3   OH237260   2.908   0.576   2.932  0.3815  0.0729 -0.2068
 5234TIP3    H137261   3.003   0.580   2.921  0.6177 -0.1236  1.4841
 5234TIP3    H237262   2.878   0.515   2.865  1.5013 -0.2205 -0.4573
 5235TIP3   OH237263   4.431   6.408   8.759 -0.3044  0.0647 -0.3220
 5235TIP3    H137264   4.515   6.453   8.774 -1.0388  1.0714  1.0049
 5235TIP3    H237265   4.445   6.357   8.679  1.5419  0.2781 -0.1750
 5236TIP3   OH237266   3.939   0.186   1.124  0.4149 -0.5295  0.2246
 5236TIP3    H137267   3.924   0.107   1.073 -0.5199  1.2173 -2.4145
 5236TIP3    H237268   3.859   0.196   1.176 -0.1625 -0.4852 -0.6524
 5237TIP3   OH237269   6.687   1.241   2.143  0.1463 -0.0485  0.1026
 5237TIP3    H137270   6.677   1.215   2.234  0.1741  0.3997  0.2398
 5237TIP3    H237271   6.602   1.280   2.119 -0.4648 -1.7327 -0.6057
 5238TIP3   OH237272   6.586   6.118   2.365 -0.0858  0.2411  0.2843
 5238TIP3    H137273   6.562   6.182   2.298  1.9175  0.4479 -0.2939
 5238TIP3    H237274   6.518   6.051   2.359 -0.3496  0.6200 -1.4520
 5239TIP3   OH237275   6.769   2.939   2.319  0.1242 -0.3515  0.8680
 5239TIP3    H137276   6.759   3.014   2.378  2.1442  0.2272  0.5660
 5239TIP3    H237277   6.716   2.870   2.358  2.5727 -0.5231  4.3060
 5240TIP3   OH237278   3.605   3.555   2.480  0.4336 -0.3730  0.6193
 5240TIP3    H137279   3.645   3.468   2.476 -0.3342 -0.7392  0.7535
 5240TIP3    H237280   3.556   3.563   2.398  2.4100  0.9037 -0.5206
 5241TIP3   OH237281   6.059   2.140   6.946  0.1464  0.1514  0.0571
 5241TIP3    H137282   6.119   2.204   6.984 -0.0338  0.7678 -0.6636
 5241TIP3    H237283   5.999   2.193   6.893 -1.4166 -0.3707  1.2423
 5242TIP3   OH237284   1.204   1.531   1.404  0.3108  0.0322  0.3950
 5242TIP3    H137285   1.140   1.478   1.357 -0.5641 -0.9333  2.5074
 5242TIP3    H237286   1.244   1.469   1.466  1.4717  1.1939  0.8499
 5243TIP3   OH237287   2.064   0.398   2.456  0.1215 -0.6405  0.3313
 5243TIP3    H137288   2.048   0.318   2.406 -0.4727  0.2701 -1.0160
 5243TIP3    H237289   2.155   0.421   2.437  0.1941 -0.8360  0.4536
 5244TIP3   OH237290   2.047   2.217   8.203 -0.6871 -0.1920 -0.0819
 5244TIP3    H137291   2.131   2.263   8.205 -0.2750 -0.9535  0.7363
 5244TIP3    H237292   2.056   2.154   8.131 -0.9221  0.3663 -0.6135
 5245TIP3   OH237293   3.335   6.291   8.336  0.0156 -0.6222  0.0362
 5245TIP3    H137294   3.405   6.313   8.398 -0.6825  0.3127  0.5206
 5245TIP3    H237295   3.379   6.286   8.251  1.1108 -2.6248  0.6763
 5246TIP3   OH237296   3.741   6.775   1.293  0.2044  0.3557  0.0874
 5246TIP3    H137297   3.814   6.819   1.339 -0.8351  1.2078  0.9746
 5246TIP3    H237298   3.662   6.815   1.329 -0.7043  0.1134 -1.5362
 5247TIP3   OH237299   2.603   2.666   1.662  1.0617  0.1045 -0.1040
 5247TIP3    H137300   2.576   2.587   1.708  2.0978 -0.4355 -0.4015
 5247TIP3    H237301   2.698   2.667   1.668  1.0306  1.9142  0.8468
 5248TIP3   OH237302   0.136   1.947   2.885 -0.0039 -0.7975  0.0145
 5248TIP3    H137303   0.224   1.923   2.856 -1.0761 -2.0022 -2.5546
 5248TIP3    H237304   0.115   2.028   2.839 -0.6140 -1.0672 -0.2014
 5249TIP3   OH237305   1.551   3.294   8.476  0.4636 -0.1908 -0.2211
 5249TIP3    H137306   1.635   3.250   8.464 -0.8261 -2.7206 -0.6401
 5249TIP3    H237307   1.571   3.387   8.465  3.7713 -0.2940  2.7544
 5250TIP3   OH237308   5.283   0.907   1.834 -0.6556  0.4737  0.2083
 5250TIP3    H137309   5.346   0.892   1.764 -0.7283  1.6270 -0.1260
 5250TIP3    H237310   5.235   0.985   1.807 -0.4024  1.1981  1.7277
 5251TIP3   OH237311   3.602   4.698   7.675  0.3763 -0.2728  0.5842
 5251TIP3    H137312   3.510   4.685   7.652  0.2218 -0.6037  1.3395
 5251TIP3    H237313   3.647   4.708   7.591 -0.4248  0.4551  0.2190
 5252TIP3   OH237314   1.106   4.586   7.891  0.2739 -0.6032 -0.3529
 5252TIP3    H137315   1.067   4.519   7.834 -0.5135 -1.8553  1.5502
 5252TIP3    H237316   1.070   4.668   7.859 -0.4425 -1.2928 -1.4162
 5253TIP3   OH237317   3.210   1.948   7.291 -0.0216 -0.6275 -0.7508
 5253TIP3    H137318   3.197   1.913   7.203  0.6548 -1.8547 -0.3838
 5253TIP3    H237319   3.293   1.995   7.286 -0.6673  0.5374 -1.1026
 5254TIP3   OH237320   3.991   5.302   8.282 -0.5499 -0.1994 -0.2632
 5254TIP3    H137321   4.032   5.336   8.202 -0.4452  0.7730  0.1777
 5254TIP3    H237322   4.030   5.355   8.352 -0.5921 -1.0765  0.4367
 5255TIP3   OH237323   3.101   6.152   7.776 -0.3243  0.3997  0.5740
 5255TIP3    H137324   3.179   6.108   7.810  0.2584  0.1082 -1.0963
 5255TIP3    H237325   3.038   6.146   7.848  1.2237  0.8091  2.0302
 5256TIP3   OH237326   0.781   0.624   0.867  0.3920  0.2017  0.2123
 5256TIP3    H137327   0.788   0.540   0.912  1.1808 -0.4925 -1.1465
 5256TIP3    H237328   0.729   0.606   0.789  0.8123  0.9070 -0.2448
 5257TIP3   OH237329   3.791   5.300   1.172 -0.1802 -0.2214 -0.1155
 5257TIP3    H137330   3.755   5.220   1.133 -0.3409 -0.1675 -0.0768
 5257TIP3    H237331   3.797   5.280   1.266 -0.0091 -0.2682 -0.1363
 5258TIP3   OH237332   5.498   4.977   0.095  0.3446 -0.2352  0.1189
 5258TIP3    H137333   5.523   4.891   0.127  1.1394  0.3887  1.2648
 5258TIP3    H237334   5.415   4.996   0.139 -0.2439 -0.7242 -0.7473
 5259TIP3   OH237335   2.031   5.435   0.979  0.0384  0.3693 -0.4173
 5259TIP3    H137336   2.115   5.456   0.939 -1.3930  0.8273 -3.4238
 5259TIP3    H237337   2.006   5.351   0.941 -0.7644  0.1103  0.6375
 5260TIP3   OH237338   4.785   0.317   7.698 -0.1869 -0.3014  0.1383
 5260TIP3    H137339   4.805   0.346   7.609  1.7915 -0.1629  0.5868
 5260TIP3    H237340   4.824   0.384   7.754 -1.9732 -0.0440  1.1325
 5261TIP3   OH237341   5.352   6.306   2.046 -0.1775 -0.2417  0.0329
 5261TIP3    H137342   5.438   6.278   2.014 -0.3635  0.1112 -0.7981
 5261TIP3    H237343   5.360   6.401   2.057  0.3237 -0.4974  2.4456
 5262TIP3   OH237344   2.539   6.033   0.376 -0.8299  0.2141  1.1049
 5262TIP3    H137345   2.481   5.960   0.356  0.4431 -0.7537  0.8060
 5262TIP3    H237346   2.505   6.105   0.322 -1.8044 -0.2928  1.0196
 5263TIP3   OH237347   1.231   6.202   7.668 -0.6700  0.6810  0.5974
 5263TIP3    H137348   1.161   6.210   7.602 -0.9769  1.4399  1.0022
 5263TIP3    H237349   1.301   6.156   7.622 -0.9957  0.9288 -0.1773
 5264TIP3   OH237350   6.497   4.452   1.950 -0.1322  0.3174 -0.1899
 5264TIP3    H137351   6.566   4.397   1.913  0.2762  0.3756  0.4633
 5264TIP3    H237352   6.529   4.476   2.037 -0.9051  0.4806  0.0619
 5265TIP3   OH237353   2.461   4.479   8.622 -0.3208 -0.5246 -0.0904
 5265TIP3    H137354   2.533   4.535   8.593 -2.1462  2.5917  0.9710
 5265TIP3    H237355   2.426   4.441   8.541  1.4726 -0.8351 -0.7697
 5266TIP3   OH237356   2.702   1.679   8.171  0.0879  0.1107 -0.2786
 5266TIP3    H137357   2.689   1.653   8.080  0.7878  1.8391 -0.9213
 5266TIP3    H237358   2.674   1.771   8.174  0.2149  0.1294  1.2170
 5267TIP3   OH237359   4.801   5.256   1.852  0.2601  0.0487  0.3940
 5267TIP3    H137360   4.817   5.171   1.893 -0.4844  0.0383  0.6747
 5267TIP3    H237361   4.718   5.246   1.806 -1.0350  1.2495  2.2758
 5268TIP3   OH237362   5.691   6.466   2.359  0.5389 -0.2133 -0.1632
 5268TIP3    H137363   5.739   6.540   2.396  1.5551  0.3347 -2.4085
 5268TIP3    H237364   5.599   6.489   2.371  0.8397  0.8087  0.3244
 5269TIP3   OH237365   6.175   5.405   1.309  0.3540 -0.8039 -0.6125
 5269TIP3    H137366   6.215   5.413   1.395 -2.2651 -1.1347  0.7469
 5269TIP3    H237367   6.238   5.354   1.258  2.1318 -0.3082  0.9728
 5270TIP3   OH237368   1.814   0.694   2.767  0.7697  0.3717  0.5857
 5270TIP3    H137369   1.770   0.766   2.811  1.1605  2.0890 -1.6597
 5270TIP3    H237370   1.907   0.705   2.789  0.8282  0.5347  0.2543
 5271TIP3   OH237371   1.138   5.549   2.027 -0.6522  0.0002 -0.2902
 5271TIP3    H137372   1.126   5.495   2.105 -0.7078 -0.6298 -0.7266
 5271TIP3    H237373   1.158   5.636   2.061 -1.1817 -0.1479  0.4280
 5272TIP3   OH237374   3.384   5.462   0.195 -0.2188 -0.1554  0.1790
 5272TIP3    H137375   3.359   5.490   0.107 -2.5159  0.5622  0.9752
 5272TIP3    H237376   3.359   5.370   0.200 -2.5880  0.4417  0.8194
 5273TIP3   OH237377   4.017   2.734   7.555 -0.1936 -0.5617  0.2077
 5273TIP3    H137378   4.030   2.676   7.480 -1.7109  0.5057 -0.9385
 5273TIP3    H237379   4.075   2.808   7.538  0.4558 -0.9174  0.7994
 5274TIP3   OH237380   6.339   6.648   7.980  0.3000 -0.0606 -0.2665
 5274TIP3    H137381   6.359   6.689   7.896  0.2189  0.5069 -0.0126
 5274TIP3    H237382   6.337   6.720   8.042 -2.1508 -0.0961 -0.2082
 5275TIP3   OH237383   5.031   3.876   0.548 -0.4235 -0.0738  0.1559
 5275TIP3    H137384   4.973   3.875   0.624  0.0727 -1.1957  0.5421
 5275TIP3    H237385   5.004   3.799   0.497  0.6870 -0.5830  0.3148
 5276TIP3   OH237386   1.498   2.671   2.991 -0.4108  0.5178  0.2265
 5276TIP3    H137387   1.406   2.667   3.019 -0.4191  1.8508  0.4797
 5276TIP3    H237388   1.498   2.638   2.902 -0.8827 -0.9567  0.7524
 5277TIP3   OH237389   0.620   6.651   2.385 -0.6173  0.8377 -0.7562
 5277TIP3    H137390   0.675   6.605   2.322  1.4154  1.3952  0.5198
 5277TIP3    H237391   0.681   6.705   2.435 -2.4497  2.0818  0.2468
 5278TIP3   OH237392   4.036   2.714   8.042 -0.2785 -0.3035 -0.8781
 5278TIP3    H137393   4.091   2.772   8.094  0.0593 -1.5578  0.2295
 5278TIP3    H237394   4.033   2.754   7.955 -1.6208  2.3569  0.2951
 5279TIP3   OH237395   0.583   4.783   6.966  0.2382  0.1860  0.5841
 5279TIP3    H137396   0.613   4.693   6.950  0.6181  0.3179  0.5469
 5279TIP3    H237397   0.527   4.803   6.891  0.2407  0.0201  0.5377
 5280TIP3   OH237398   0.530   6.047   6.759 -0.7598  0.7554 -0.4828
 5280TIP3    H137399   0.470   6.094   6.701  0.7973  1.7563 -1.3469
 5280TIP3    H237400   0.588   5.999   6.700 -1.5223 -1.3223  0.3632
 5281TIP3   OH237401   1.530   1.823   1.225 -0.2388 -0.1370  0.0325
 5281TIP3    H137402   1.603   1.803   1.166 -0.6185  0.1130 -0.5362
 5281TIP3    H237403   1.493   1.738   1.246  0.1536 -0.2576  0.2401
 5282TIP3   OH237404   3.810   5.965   1.077  0.2264 -0.4171 -0.1955
 5282TIP3    H137405   3.724   6.006   1.065 -1.0759 -2.9647 -0.0393
 5282TIP3    H237406   3.815   5.944   1.170  0.3420 -1.6808 -0.4709
 5283TIP3   OH237407   5.589   0.851   8.456 -0.4083  0.4062  0.1428
 5283TIP3    H137408   5.501   0.832   8.487 -0.9969 -0.5258 -1.9416
 5283TIP3    H237409   5.586   0.941   8.424 -1.2168 -0.2555 -1.7743
 5284TIP3   OH237410   0.253   4.392   1.433 -0.3470 -0.2343  0.3525
 5284TIP3    H137411   0.277   4.358   1.347 -1.3550 -0.3402  0.1103
 5284TIP3    H237412   0.337   4.409   1.476  0.1726  0.1104 -0.7613
 5285TIP3   OH237413   2.992   3.567   0.687 -0.0126  0.2589  0.1944
 5285TIP3    H137414   2.904   3.600   0.669  1.3021  1.9842 -4.3841
 5285TIP3    H237415   3.044   3.645   0.705  0.9072 -0.6188  1.5324
 5286TIP3   OH237416   2.593   1.994   0.930 -0.0754 -0.6669 -0.3075
 5286TIP3    H137417   2.626   2.070   0.979 -0.0054 -1.5436  1.0816
 5286TIP3    H237418   2.508   2.022   0.897  0.2759  0.2620 -0.4659
 5287TIP3   OH237419   0.266   0.562   2.015  0.0496  0.0972 -0.3468
 5287TIP3    H137420   0.339   0.551   2.076  0.2847 -1.5394 -0.8799
 5287TIP3    H237421   0.250   0.656   2.014 -0.5657  0.1349  2.9235
 5288TIP3   OH237422   0.842   3.071   1.080 -0.1383 -0.4459 -0.0518
 5288TIP3    H137423   0.935   3.093   1.086 -0.3993  0.6466  0.1722
 5288TIP3    H237424   0.816   3.051   1.170 -0.1982 -0.4319 -0.0661
 5289TIP3   OH237425   3.892   4.589   1.084  0.3026  0.5154 -0.2426
 5289TIP3    H137426   3.919   4.501   1.112 -1.8776  0.4149  1.8212
 5289TIP3    H237427   3.967   4.622   1.034  1.3220 -2.3679 -0.8386
 5290TIP3   OH237428   3.717   5.548   1.366 -0.1790 -0.3965 -0.4346
 5290TIP3    H137429   3.714   5.487   1.293  2.2390 -0.6099 -0.4338
 5290TIP3    H237430   3.780   5.615   1.339  0.4485 -0.2486  1.2476
 5291TIP3   OH237431   0.922   6.103   7.045  0.1166 -0.1096  0.2108
 5291TIP3    H137432   0.836   6.138   7.022 -0.6862 -1.2558  1.3412
 5291TIP3    H237433   0.944   6.043   6.973 -1.0695 -1.5030  0.9650
 5292TIP3   OH237434   1.405   1.225   0.028 -0.6115  0.6670  0.3108
 5292TIP3    H137435   1.405   1.299   0.089 -0.1741  0.0163  1.1308
 5292TIP3    H237436   1.495   1.219  -0.002  0.4617 -2.0247  3.4621
 5293TIP3   OH237437   6.675   5.459   2.734  0.2146  0.0169 -0.3830
 5293TIP3    H137438   6.724   5.421   2.661  1.1664  2.6476 -1.2391
 5293TIP3    H237439   6.718   5.425   2.812  0.5790 -1.1455 -1.0623
 5294TIP3   OH237440   4.144   5.825   0.458 -0.1153 -0.0981  0.1590
 5294TIP3    H137441   4.055   5.789   0.455  0.3725 -1.5766  1.9635
 5294TIP3    H237442   4.170   5.831   0.366 -2.1225  0.5160 -0.4183
 5295TIP3   OH237443   0.821   4.468   1.867 -0.1580  0.3991  0.2068
 5295TIP3    H137444   0.832   4.397   1.931 -0.1078  1.4280  1.3760
 5295TIP3    H237445   0.889   4.531   1.889 -0.4922  1.0204 -0.5157
 5296TIP3   OH237446   3.111   0.559   7.126  0.2239  0.1972  0.1625
 5296TIP3    H137447   3.109   0.611   7.206 -0.5882  2.6407 -1.3255
 5296TIP3    H237448   3.067   0.477   7.149  1.0672  0.3427  2.4765
 5297TIP3   OH237449   5.160   0.254   0.136 -0.3416  0.1144  0.2212
 5297TIP3    H137450   5.178   0.252   0.230 -2.3719 -1.1107  0.6523
 5297TIP3    H237451   5.245   0.238   0.095  0.1968 -2.1474  1.9509
 5298TIP3   OH237452   5.203   1.256   6.952  0.1475 -0.4875 -0.2469
 5298TIP3    H137453   5.289   1.239   6.991  1.3021  1.4497 -1.7680
 5298TIP3    H237454   5.189   1.350   6.963 -2.7618 -1.0372  1.7182
 5299TIP3   OH237455   2.479   6.735   0.886  0.5114 -0.2583 -0.1308
 5299TIP3    H137456   2.386   6.744   0.907  0.6054  1.9378 -0.3945
 5299TIP3    H237457   2.524   6.795   0.946  1.6355 -0.4018 -0.7866
 5300TIP3   OH237458   6.167   2.237   1.223  0.2333 -0.0674 -0.6715
 5300TIP3    H137459   6.139   2.152   1.258  1.7050 -0.2750  0.0677
 5300TIP3    H237460   6.104   2.300   1.259 -0.1904 -0.7050 -0.2811
 5301TIP3   OH237461   2.924   5.161   6.779  0.2488  0.2401  0.1552
 5301TIP3    H137462   2.990   5.214   6.734  1.3850 -1.7462 -0.6376
 5301TIP3    H237463   2.974   5.093   6.824 -1.2508 -1.7277 -1.0019
 5302TIP3   OH237464   4.398   0.857   0.329 -0.1628  0.1507 -0.2457
 5302TIP3    H137465   4.379   0.783   0.386 -0.0055  1.0703  1.0564
 5302TIP3    H237466   4.348   0.840   0.249 -0.7482 -0.9502  0.3386
 5303TIP3   OH237467   0.876   1.082   0.481 -0.0211  0.3539  0.1648
 5303TIP3    H137468   0.927   1.162   0.479  1.1789 -0.3855  0.0108
 5303TIP3    H237469   0.877   1.051   0.390  0.5264 -0.4324  0.4269
 5304TIP3   OH237470   0.818   2.537   1.690  0.1874 -0.4136 -0.3342
 5304TIP3    H137471   0.907   2.522   1.722  0.7207 -0.9917 -1.9899
 5304TIP3    H237472   0.800   2.462   1.633 -1.0542  0.1258 -0.6847
 5305TIP3   OH237473   0.138   3.102   8.547 -0.0295 -0.3315  0.4076
 5305TIP3    H137474   0.070   3.092   8.614  0.4484  0.6333  1.0689
 5305TIP3    H237475   0.218   3.069   8.590  0.4276  0.9684  0.6012
 5306TIP3   OH237476   5.170   3.802   1.871 -0.3375  0.6106 -0.3290
 5306TIP3    H137477   5.080   3.833   1.881 -0.9442 -1.1070 -0.0990
 5306TIP3    H237478   5.195   3.830   1.783 -0.8873  1.5859 -0.1911
 5307TIP3   OH237479   2.243   1.135   8.761 -0.4534  0.1147  0.3316
 5307TIP3    H137480   2.198   1.131   8.677 -0.4669  0.4461  0.3215
 5307TIP3    H237481   2.248   1.044   8.790 -1.1997  0.0821  0.3760
 5308TIP3   OH237482   2.343   0.690   7.801  0.2353  0.0066  0.0296
 5308TIP3    H137483   2.324   0.618   7.861 -0.5875 -0.1776 -0.4463
 5308TIP3    H237484   2.299   0.766   7.839 -1.6485 -0.4492 -1.1419
 5309TIP3   OH237485   3.012   0.410   0.439 -0.2511 -0.3762  0.1193
 5309TIP3    H137486   2.987   0.488   0.489 -1.2512 -0.2838 -0.4946
 5309TIP3    H237487   3.106   0.419   0.426 -0.1673  0.1633  1.0141
 5310TIP3   OH237488   0.243   2.215   0.215  0.1527  0.4032  0.4678
 5310TIP3    H137489   0.179   2.204   0.145 -0.3251 -0.3177  1.0102
 5310TIP3    H237490   0.310   2.272   0.177 -0.5464  0.7491 -0.2727
 5311TIP3   OH237491   0.409   2.217   2.181 -0.2555 -0.0214 -0.0915
 5311TIP3    H137492   0.365   2.173   2.254 -1.1492  1.3808  0.2700
 5311TIP3    H237493   0.439   2.146   2.125 -1.3576 -1.0945  0.6104
 5312TIP3   OH237494   4.688   1.221   1.717  0.0113 -0.1231  0.3010
 5312TIP3    H137495   4.716   1.140   1.674  0.4517 -0.2292  0.7784
 5312TIP3    H237496   4.695   1.288   1.649 -2.1134 -0.7746 -0.6549
 5313TIP3   OH237497   5.074   1.003   0.589 -0.0186  0.3300  0.2529
 5313TIP3    H137498   5.042   1.086   0.624  0.3115  0.5152  0.1221
 5313TIP3    H237499   4.997   0.962   0.550  0.3154  1.9004 -2.3221
 5314TIP3   OH237500   4.131   6.773   8.751 -0.2957  0.0874  0.4754
 5314TIP3    H137501   4.121   6.678   8.745 -2.1677  0.3277 -1.5786
 5314TIP3    H237502   4.202   6.794   8.690 -0.3740  0.0585  0.3733
 5315TIP3   OH237503   6.259   1.236   1.835  0.0810  0.3040  0.2369
 5315TIP3    H137504   6.170   1.206   1.855  0.8267 -1.1962  1.4612
 5315TIP3    H237505   6.279   1.299   1.904 -0.3150  1.3315 -0.5462
 5316TIP3   OH237506   2.344   2.656   0.455 -0.2354 -0.2597 -0.1126
 5316TIP3    H137507   2.386   2.578   0.417  0.9751  0.5259 -0.4366
 5316TIP3    H237508   2.414   2.720   0.463 -1.4643  1.3202 -1.1893
 5317TIP3   OH237509   6.752   2.821   0.222 -0.2641  0.0880  0.1407
 5317TIP3    H137510   6.762   2.866   0.306  1.0935 -0.4835  0.3052
 5317TIP3    H237511   6.693   2.748   0.241  0.6947 -0.5307  0.8104
 5318TIP3   OH237512   6.455   4.480   0.338 -0.1789  0.0840 -0.3586
 5318TIP3    H137513   6.410   4.454   0.258 -1.2692  1.6433 -0.2953
 5318TIP3    H237514   6.397   4.545   0.378  0.5343 -0.3646  1.4979
 5319TIP3   OH237515   1.081   5.671   0.068  0.4467  0.1484  0.1862
 5319TIP3    H137516   0.990   5.693   0.047  0.3584 -0.7682 -0.4377
 5319TIP3    H237517   1.092   5.700   0.159 -0.2553  0.8914  0.0495
 5320TIP3   OH237518   5.398   6.720   2.914  0.1939  0.3154 -0.2213
 5320TIP3    H137519   5.424   6.628   2.918 -0.3370  0.0378 -2.0057
 5320TIP3    H237520   5.467   6.766   2.961  1.6051 -0.8162 -1.0612
 5321TIP3   OH237521   4.586   3.030   7.745 -0.1296  0.1265 -0.4979
 5321TIP3    H137522   4.603   2.943   7.782 -1.7272 -0.1781 -0.4252
 5321TIP3    H237523   4.491   3.036   7.739 -0.0924  2.1469  0.1389
 5322TIP3   OH237524   4.823   6.766   0.188  0.4015  0.2929  0.0635
 5322TIP3    H137525   4.789   6.826   0.254 -0.6055  0.4508 -0.5650
 5322TIP3    H237526   4.852   6.690   0.238 -0.0530  0.5358  0.7183
 5323TIP3   OH237527   3.640   1.697   2.632  0.4323 -0.1188  0.0389
 5323TIP3    H137528   3.673   1.782   2.660  1.0800 -0.3268 -0.0615
 5323TIP3    H237529   3.707   1.635   2.660 -0.4521 -0.7140  0.9179
 5324TIP3   OH237530   1.358   4.835   0.332 -0.2621 -0.6588  0.0039
 5324TIP3    H137531   1.358   4.768   0.263 -0.1116  1.5667 -2.3335
 5324TIP3    H237532   1.266   4.852   0.349 -0.3090 -0.4465 -0.4596
 5325TIP3   OH237533   3.419   2.917   2.865 -0.0182  0.1044 -0.1827
 5325TIP3    H137534   3.446   2.884   2.779  3.2009  0.8733  0.4123
 5325TIP3    H237535   3.378   3.002   2.846 -0.6009 -0.3446 -1.0201
 5326TIP3   OH237536   6.414   6.111   7.318 -0.1985 -0.1398  0.2084
 5326TIP3    H137537   6.375   6.116   7.405 -0.8487 -0.3663 -0.0638
 5326TIP3    H237538   6.457   6.196   7.306 -0.6846  0.1458  0.4794
 5327TIP3   OH237539   0.483   1.094   2.205  0.2997  0.3260  0.0857
 5327TIP3    H137540   0.452   1.078   2.294  2.4252 -0.1703  0.7887
 5327TIP3    H237541   0.471   1.188   2.192 -0.6947  0.2827  0.6122
 5328TIP3   OH237542   1.338   3.667   0.267  0.5280 -0.0323  0.0898
 5328TIP3    H137543   1.334   3.725   0.191 -1.7677 -0.5778 -0.2702
 5328TIP3    H237544   1.273   3.599   0.249  0.6148 -0.7135  2.1103
 5329TIP3   OH237545   4.727   1.649   8.360 -0.4315 -0.1024  0.2128
 5329TIP3    H137546   4.709   1.743   8.354  0.5979  0.1512  0.7441
 5329TIP3    H237547   4.645   1.606   8.336 -0.9795  0.9385  0.1933
 5330TIP3   OH237548   0.043   0.911   0.232 -0.1982  0.1661  0.0731
 5330TIP3    H137549   0.046   0.926   0.138  2.4771 -0.2423  0.0257
 5330TIP3    H237550  -0.024   0.972   0.264  0.9293  2.5107 -1.7336
 5331TIP3   OH237551   6.124   4.661   7.485  0.4620  0.2043  0.2917
 5331TIP3    H137552   6.146   4.675   7.393  1.8142  0.7198  0.6677
 5331TIP3    H237553   6.140   4.568   7.500  0.1959  0.1112 -0.0040
 5332TIP3   OH237554   1.708   3.395   6.862 -0.4087  0.1344 -0.1141
 5332TIP3    H137555   1.706   3.409   6.767  0.9956 -0.9247 -0.3280
 5332TIP3    H237556   1.785   3.443   6.891  0.0264 -0.7804  0.2592
 5333TIP3   OH237557   1.988   1.270   0.146 -1.0345 -0.0122 -0.4685
 5333TIP3    H137558   1.953   1.213   0.077 -0.9781 -1.1435  0.4181
 5333TIP3    H237559   2.082   1.275   0.129 -0.5503 -2.5374  1.0621
 5334TIP3   OH237560   1.129   2.043   7.793 -0.6239  0.3032  0.0525
 5334TIP3    H137561   1.048   2.094   7.790 -0.1802  0.9806 -1.0892
 5334TIP3    H237562   1.101   1.952   7.799 -1.4939  0.4718 -1.1428
 5335TIP3   OH237563   2.460   1.281   7.158  0.0227 -0.1066 -0.4624
 5335TIP3    H137564   2.473   1.223   7.233  1.6612  1.2010  0.3259
 5335TIP3    H237565   2.369   1.309   7.166 -0.0928 -0.7101  0.5076
 5336TIP3   OH237566   3.088   2.513   7.762 -0.5924 -0.1368  0.0513
 5336TIP3    H137567   3.178   2.483   7.777 -1.5362 -3.3086 -0.0102
 5336TIP3    H237568   3.045   2.502   7.847 -0.9373  1.5583  0.1338
 5337TIP3   OH237569   5.849   5.720   1.296 -0.0325 -0.0805  0.2236
 5337TIP3    H137570   5.755   5.732   1.310 -0.0624  0.1637 -0.1872
 5337TIP3    H237571   5.887   5.805   1.317  0.2162 -0.4502  1.3709
 5338TIP3   OH237572   5.502   0.490   0.102 -0.0792  0.3584 -0.4656
 5338TIP3    H137573   5.531   0.578   0.080  0.5167  0.3260  0.1404
 5338TIP3    H237574   5.520   0.438   0.023 -1.2705  0.9448 -1.1489
 5339TIP3   OH237575   4.197   0.477   1.965 -0.1734 -0.2146 -0.2838
 5339TIP3    H137576   4.158   0.452   2.049  0.7480  3.0006  1.2366
 5339TIP3    H237577   4.124   0.513   1.914 -0.0612  1.6349  0.8037
 5340TIP3   OH237578   1.859   1.981   7.860 -0.1390  0.2321 -0.0626
 5340TIP3    H137579   1.949   1.976   7.891 -1.6007  0.8371  5.2405
 5340TIP3    H237580   1.859   2.051   7.795  3.2171 -0.0587 -0.5264
 5341TIP3   OH237581   6.670   6.326   8.354  0.1894  0.1689 -0.3680
 5341TIP3    H137582   6.603   6.292   8.294  0.4602 -0.2185 -0.4585
 5341TIP3    H237583   6.647   6.288   8.439  0.8460 -0.7649 -0.5876
 5342TIP3   OH237584   4.645   6.374   1.961  0.6843  0.1844  0.6991
 5342TIP3    H137585   4.689   6.409   1.883 -2.2452  1.6410 -0.4546
 5342TIP3    H237586   4.552   6.390   1.945 -0.2715 -2.0204  3.3034
 5343TIP3   OH237587   3.298   1.453   6.605  0.2852  0.1651 -0.0990
 5343TIP3    H137588   3.367   1.401   6.647  0.4545  0.2686 -0.2477
 5343TIP3    H237589   3.218   1.403   6.621  0.2798  0.4215  0.7322
 5344TIP3   OH237590   0.937   3.921   7.241 -0.4184  0.0147 -0.0066
 5344TIP3    H137591   1.014   3.947   7.190  0.2929 -0.4233  0.8154
 5344TIP3    H237592   0.964   3.842   7.287 -0.8884  0.6314  1.3847
 5345TIP3   OH237593   4.588   3.842   8.337  0.1458 -0.1542 -0.2786
 5345TIP3    H137594   4.554   3.794   8.261 -0.9347 -1.2126  0.8284
 5345TIP3    H237595   4.618   3.774   8.397  0.3617  0.6440  0.5424
 5346TIP3   OH237596   4.274   1.313   0.800 -0.0118 -0.8829  0.2928
 5346TIP3    H137597   4.352   1.367   0.811  0.2316 -1.3473  0.9470
 5346TIP3    H237598   4.292   1.235   0.852  0.0368 -2.0360 -1.3691
 5347TIP3   OH237599   4.950   3.585   1.442  0.2575  0.2235 -0.1696
 5347TIP3    H137600   4.973   3.511   1.386 -1.8471  0.6494 -1.7023
 5347TIP3    H237601   4.970   3.555   1.530  1.1404 -1.4761 -0.8910
 5348TIP3   OH237602   1.676   0.042   0.058 -0.3092  0.9218 -0.3097
 5348TIP3    H137603   1.632   0.074   0.136  1.3217 -1.9329  1.9934
 5348TIP3    H237604   1.769   0.048   0.079  0.1572 -3.1248 -0.3968
 5349TIP3   OH237605   1.020   0.146   6.904  0.3258  0.1057 -0.9305
 5349TIP3    H137606   1.097   0.122   6.852  0.4958  0.2271 -0.7364
 5349TIP3    H237607   0.946   0.109   6.856  0.3321  1.4854 -2.0856
 5350TIP3   OH237608   6.140   4.287   0.990 -0.0203 -0.7263 -0.2036
 5350TIP3    H137609   6.178   4.288   1.078  0.0856 -2.3390 -0.1963
 5350TIP3    H237610   6.083   4.363   0.988  1.4071  0.4076  0.5968
 5351TIP3   OH237611   0.437   3.458   1.972 -0.4296 -0.4553  0.3295
 5351TIP3    H137612   0.433   3.545   1.933  1.3969 -0.2670  0.4578
 5351TIP3    H237613   0.385   3.465   2.052 -0.7290  0.3674  0.0746
 5352TIP3   OH237614   5.840   0.202   7.747  0.5327 -0.1175  0.3631
 5352TIP3    H137615   5.750   0.234   7.748  0.5159 -0.0985 -0.8056
 5352TIP3    H237616   5.887   0.261   7.806 -0.2871 -0.3969  1.3340
 5353TIP3   OH237617   3.869   2.909   2.009  0.5923  1.2234 -0.0392
 5353TIP3    H137618   3.827   2.969   1.947 -2.2550  0.2151  0.7662
 5353TIP3    H237619   3.823   2.924   2.092  2.1480  0.2915  1.0491
 5354TIP3   OH237620   2.585   2.819   0.401 -0.6554  0.1956 -0.0088
 5354TIP3    H137621   2.580   2.875   0.479 -0.1224  0.7711 -0.3851
 5354TIP3    H237622   2.616   2.877   0.331 -1.5112 -0.2211 -0.7500
 5355TIP3   OH237623   2.907   2.934   7.320  0.1036 -0.4577  0.8723
 5355TIP3    H137624   2.846   2.862   7.301 -0.6836  0.3693  0.2046
 5355TIP3    H237625   2.946   2.955   7.235 -0.0938  0.2822  0.9619
 5356TIP3   OH237626   2.905   4.052   1.522  0.2702  0.4099  0.1321
 5356TIP3    H137627   2.872   3.985   1.582  2.2661 -1.4511 -0.6891
 5356TIP3    H237628   2.938   4.002   1.447  1.6295  2.3432 -0.6325
 5357TIP3   OH237629   6.147   1.702   0.113  0.2298 -0.1778  0.0887
 5357TIP3    H137630   6.184   1.633   0.058  1.1620  1.1717 -1.0302
 5357TIP3    H237631   6.222   1.754   0.140 -0.5167  0.7631  0.3909
 5358TIP3   OH237632   1.413   5.684   8.120 -0.1819  0.3807  0.0758
 5358TIP3    H137633   1.480   5.749   8.101  1.5548 -1.2171  0.3981
 5358TIP3    H237634   1.382   5.706   8.208 -0.2584  1.2547 -0.1606
 5359TIP3   OH237635   0.562   3.248   7.225 -0.0517 -0.2359  0.5016
 5359TIP3    H137636   0.579   3.157   7.197  0.1630 -0.2913  0.8133
 5359TIP3    H237637   0.502   3.239   7.299  1.3274 -0.2221  1.6620
 5360TIP3   OH237638   3.307   1.417   1.964 -0.4899 -0.0995 -0.4112
 5360TIP3    H137639   3.229   1.473   1.957  0.4222  1.5512  1.4102
 5360TIP3    H237640   3.274   1.328   1.953 -2.3476  0.6397 -1.3676
 5361TIP3   OH237641   6.487   0.007   0.144 -0.5206  0.4470  0.2581
 5361TIP3    H137642   6.531   0.060   0.210 -0.2035 -0.2229  0.5944
 5361TIP3    H237643   6.533  -0.076   0.145 -1.8627 -0.3354  0.7266
 5362TIP3   OH237644   0.089   2.255   8.787 -0.2482 -0.2193  0.3200
 5362TIP3    H137645   0.103   2.214   8.701 -0.1087 -0.8456  0.6360
 5362TIP3    H237646   0.119   2.345   8.775  0.7813 -0.5828 -0.0029
 5363TIP3   OH237647   6.099   3.436   1.419  0.1060  0.1115 -0.2858
 5363TIP3    H137648   6.177   3.472   1.459 -0.6791  0.5556  0.9064
 5363TIP3    H237649   6.065   3.506   1.363  0.6099 -0.1241 -0.8974
 5364TIP3   OH237650   3.681   4.614   0.068  0.4172  1.0086 -0.1261
 5364TIP3    H137651   3.746   4.623   0.138  0.0127  1.8804  0.1516
 5364TIP3    H237652   3.644   4.702   0.058 -0.3804  0.6292 -0.6096
 5365TIP3   OH237653   2.850   6.485   8.300 -0.0874 -0.0670 -0.2159
 5365TIP3    H137654   2.833   6.573   8.266  0.5545 -0.0480 -0.5216
 5365TIP3    H237655   2.906   6.500   8.377  1.7058 -0.2685 -1.4127
 5366TIP3   OH237656   3.936   1.651   7.970  0.0104  1.1131 -0.2597
 5366TIP3    H137657   3.873   1.720   7.990 -1.5989 -0.1678 -0.6871
 5366TIP3    H237658   3.982   1.683   7.893 -2.7312  0.5779 -2.2783
 5367TIP3   OH237659   6.000   4.097   2.926 -0.1844  0.5610 -0.0759
 5367TIP3    H137660   5.950   4.157   2.982  0.4427  1.1999 -0.1840
 5367TIP3    H237661   5.946   4.018   2.922  0.4939 -0.1604  2.7692
 5368TIP3   OH237662   4.901   3.734   0.175  0.6855 -0.3451 -0.1591
 5368TIP3    H137663   4.834   3.803   0.175  1.6465  0.6086  0.2066
 5368TIP3    H237664   4.873   3.675   0.245 -0.4350 -0.6406 -0.8300
 5369TIP3   OH237665   4.485   2.360   6.875  0.1277  0.2052  0.4126
 5369TIP3    H137666   4.454   2.302   6.945 -0.3492 -0.9180 -0.6878
 5369TIP3    H237667   4.536   2.302   6.818 -0.8319  0.7168 -1.0202
 5370TIP3   OH237668   1.620   5.761   0.940  0.3033  0.0252  0.1921
 5370TIP3    H137669   1.531   5.727   0.928  0.7012 -1.9603  2.2043
 5370TIP3    H237670   1.674   5.708   0.882  0.4451 -0.1874  0.5183
 5371TIP3   OH237671   4.521   1.194   8.268  0.2166 -0.0202 -0.5101
 5371TIP3    H137672   4.536   1.242   8.349 -1.6557  0.9297 -0.6963
 5371TIP3    H237673   4.577   1.237   8.203 -1.1168  1.6832 -0.5746
 5372TIP3   OH237674   2.881   3.192   7.892  0.2850 -0.0832  0.4303
 5372TIP3    H137675   2.930   3.274   7.890 -0.5243  0.4031 -0.0192
 5372TIP3    H237676   2.945   3.125   7.867  1.3958  0.1534  2.4789
 5373TIP3   OH237677   3.489   1.151   1.167 -0.1933 -0.0082  0.2202
 5373TIP3    H137678   3.548   1.088   1.126 -0.0223  0.5981 -0.4886
 5373TIP3    H237679   3.539   1.232   1.170 -0.6832  0.2898  0.4193
 5374TIP3   OH237680   6.177   0.672   1.829 -0.1429 -0.0586 -0.1970
 5374TIP3    H137681   6.223   0.640   1.907 -1.1363  2.2137  1.4263
 5374TIP3    H237682   6.184   0.767   1.834  1.2962  0.1952 -3.9142
 5375TIP3   OH237683   2.578   0.814   7.723  0.4940  0.9702  0.7146
 5375TIP3    H137684   2.653   0.782   7.773  1.4652 -2.2191 -2.4094
 5375TIP3    H237685   2.502   0.776   7.767  1.3173 -1.7390 -0.0413
 5376TIP3   OH237686   1.149   4.467   2.799  0.2909 -0.3850  0.2608
 5376TIP3    H137687   1.086   4.414   2.750  1.0737 -0.2351 -0.9446
 5376TIP3    H237688   1.114   4.556   2.795 -0.4003 -0.5935  1.2568
 5377TIP3   OH237689   1.254   1.303   2.452  0.6452  0.2323 -0.2908
 5377TIP3    H137690   1.282   1.215   2.477  0.9986  0.5871  0.6285
 5377TIP3    H237691   1.254   1.352   2.535  0.8882  1.2123 -0.8516
 5378TIP3   OH237692   3.880   1.039   8.555  0.5629  0.3913  0.1093
 5378TIP3    H137693   3.829   1.096   8.614  0.5310 -0.3102  0.7784
 5378TIP3    H237694   3.817   0.974   8.525  0.6514  0.5771 -0.4902
 5379TIP3   OH237695   0.557   6.083   7.235 -0.1583 -0.3019 -0.2173
 5379TIP3    H137696   0.503   6.160   7.254  0.6212  0.7298 -1.9005
 5379TIP3    H237697   0.572   6.042   7.320 -0.6485  1.3882  0.7299
 5380TIP3   OH237698   4.826   0.423   7.101  0.2562 -0.3911  0.0518
 5380TIP3    H137699   4.844   0.515   7.084 -1.1091  0.2135  1.6089
 5380TIP3    H237700   4.888   0.399   7.171  1.6672 -1.1366 -1.3898
 5381TIP3   OH237701   4.469   0.340   0.304  0.1015  0.9672  0.0933
 5381TIP3    H137702   4.443   0.432   0.314  1.4546  1.4440 -0.4325
 5381TIP3    H237703   4.444   0.318   0.215 -0.6427  0.6720  0.3718
 5382TIP3   OH237704   2.364   1.458   0.457 -0.4228 -0.5129  0.1418
 5382TIP3    H137705   2.404   1.373   0.478  0.8799  0.3702  1.3947
 5382TIP3    H237706   2.299   1.472   0.526 -1.1832 -0.8132 -0.4950
 5383TIP3   OH237707   1.336   0.431   1.807  0.8071 -0.5250  0.3097
 5383TIP3    H137708   1.424   0.467   1.806  1.0044 -1.0040 -0.3112
 5383TIP3    H237709   1.314   0.420   1.714  0.6754 -1.7956  0.4779
 5384TIP3   OH237710   4.745   4.115   1.450  0.5064 -0.5721  0.1389
 5384TIP3    H137711   4.753   4.079   1.361 -0.4824 -1.4733  0.4086
 5384TIP3    H237712   4.808   4.064   1.502  0.2147 -0.8632  0.2056
 5385TIP3   OH237713   0.429   5.030   2.050  0.1517  0.3735 -0.3726
 5385TIP3    H137714   0.472   5.032   1.964  0.6791 -2.0484 -0.2379
 5385TIP3    H237715   0.483   5.088   2.105 -0.4199  2.2681 -1.6995
 5386TIP3   OH237716   0.709   0.116   7.453 -0.6023 -0.0353 -1.2526
 5386TIP3    H137717   0.788   0.126   7.506 -1.8139  0.9769  0.4540
 5386TIP3    H237718   0.729   0.042   7.395  1.0490 -0.7668  0.1412
 5387TIP3   OH237719   5.984   2.265   2.306 -0.4856  0.2886 -0.1006
 5387TIP3    H137720   6.060   2.322   2.313  0.3457 -0.8877  0.8908
 5387TIP3    H237721   6.007   2.188   2.358 -2.2276 -0.2370 -0.0484
 5388TIP3   OH237722   5.184   5.265   7.859  0.1538  0.0770 -0.2190
 5388TIP3    H137723   5.214   5.303   7.777  0.0994 -0.4775 -0.4968
 5388TIP3    H237724   5.236   5.186   7.870 -1.6470 -1.2900 -1.0650
 5389TIP3   OH237725   0.810   3.707   1.580  0.0648  0.2472 -0.3491
 5389TIP3    H137726   0.781   3.704   1.672 -0.6893  0.1283 -0.5811
 5389TIP3    H237727   0.760   3.637   1.538 -1.2988  1.7352 -1.3191
 5390TIP3   OH237728   2.766   2.382   0.294  0.4790  0.3287 -0.1099
 5390TIP3    H137729   2.848   2.333   0.305 -0.0455 -0.3365  0.9968
 5390TIP3    H237730   2.793   2.474   0.295  1.1059  0.1518  1.4557
 5391TIP3   OH237731   4.779   4.427   7.270 -0.5271  0.3483  0.4843
 5391TIP3    H137732   4.712   4.375   7.228  0.6801 -1.9422  1.2318
 5391TIP3    H237733   4.778   4.399   7.362  0.4716  1.3017  0.8192
 5392TIP3   OH237734   1.148   0.713   8.120 -0.1844  0.2239 -0.2172
 5392TIP3    H137735   1.115   0.794   8.159  0.0065  0.1896  0.0226
 5392TIP3    H237736   1.162   0.655   8.195  2.3900  0.9269 -0.0288
 5393TIP3   OH237737   6.798   3.027   2.837 -0.1224  0.3171 -0.0677
 5393TIP3    H137738   6.739   2.968   2.884  1.8580 -2.4214 -0.7286
 5393TIP3    H237739   6.741   3.085   2.787 -2.2602 -1.7646 -0.2058
 5394TIP3   OH237740   0.636   1.372   2.742  0.0147 -0.3403 -0.0911
 5394TIP3    H137741   0.694   1.411   2.676  0.5514  1.6666  1.4738
 5394TIP3    H237742   0.693   1.314   2.792  0.1099 -0.2246 -0.0650
 5395TIP3   OH237743   2.355   0.906   0.642 -0.1170  0.1978 -0.7665
 5395TIP3    H137744   2.299   0.864   0.707 -1.0234  1.3941 -0.7197
 5395TIP3    H237745   2.318   0.881   0.558 -0.2422  0.3489 -0.7571
 5396TIP3   OH237746   6.765   1.797   8.690  0.3865  0.6647 -0.0705
 5396TIP3    H137747   6.767   1.785   8.595 -0.4274  0.1831 -0.0350
 5396TIP3    H237748   6.675   1.776   8.715  0.6867  0.4344  0.8558
 5397TIP3   OH237749   6.007   3.556   0.663 -0.0382  0.0345 -0.1957
 5397TIP3    H137750   5.965   3.632   0.623 -0.7126 -1.0798 -1.6808
 5397TIP3    H237751   6.005   3.489   0.595  0.8981 -1.1982  0.9504
 5398TIP3   OH237752   0.840   0.570   7.872  0.0430 -0.1193  0.0880
 5398TIP3    H137753   0.818   0.660   7.896  1.1932  0.1244  0.3168
 5398TIP3    H237754   0.936   0.568   7.876  0.0136 -1.4447  0.4222
 5399TIP3   OH237755   1.931   2.069   7.603  0.1508 -0.5537 -0.8450
 5399TIP3    H137756   2.004   2.103   7.551  1.1331  0.2162  0.9788
 5399TIP3    H237757   1.853   2.104   7.559  0.7138 -2.3142 -3.4982
 5400TIP3   OH237758   2.202   3.634   1.884  0.2150 -0.8083 -0.6752
 5400TIP3    H137759   2.277   3.692   1.901 -0.1578 -0.9092  1.5086
 5400TIP3    H237760   2.180   3.651   1.792  1.4106  0.9773 -0.6895
 5401TIP3   OH237761   5.309   5.246   1.512  0.3020  0.0591  0.0203
 5401TIP3    H137762   5.279   5.336   1.521  0.3982  0.0969 -0.0408
 5401TIP3    H237763   5.382   5.250   1.450 -0.2490 -0.1857 -0.6565
 5402TIP3   OH237764   2.004   1.202   7.931  0.7898  0.6272 -0.5953
 5402TIP3    H137765   2.000   1.290   7.893 -0.2974  0.4369 -0.9524
 5402TIP3    H237766   2.004   1.143   7.856 -0.1613  0.2816 -0.3415
 5403TIP3   OH237767   3.971   4.286   1.814  0.3267  0.0005 -0.1288
 5403TIP3    H137768   3.919   4.364   1.799  1.0498  0.6606  0.7076
 5403TIP3    H237769   3.956   4.232   1.736 -0.3024  0.9000 -0.6473
 5404TIP3   OH237770   4.835   3.753   0.712  0.3961 -0.0138  0.4498
 5404TIP3    H137771   4.845   3.680   0.651 -0.3885  1.1308 -1.1266
 5404TIP3    H237772   4.864   3.718   0.796 -0.7587 -2.3793 -0.0559
 5405TIP3   OH237773   1.898   6.664   1.924  0.8528 -0.0098  0.0933
 5405TIP3    H137774   1.984   6.704   1.939  0.3879  0.3219  2.2974
 5405TIP3    H237775   1.916   6.570   1.919  1.4516  0.1314 -0.5321
 5406TIP3   OH237776   6.102   0.884   0.956 -0.4335 -0.1198  0.2708
 5406TIP3    H137777   6.074   0.957   0.900 -0.5468  0.3252  0.9040
 5406TIP3    H237778   6.154   0.926   1.025 -1.6579 -0.4722  1.4323
 5407TIP3   OH237779   4.461   2.632   0.884  0.1788  0.1468  0.1693
 5407TIP3    H137780   4.412   2.630   0.803 -1.5518 -1.3118  1.1825
 5407TIP3    H237781   4.452   2.722   0.916 -1.6932 -0.0191  0.2040
 5408TIP3   OH237782   2.370   5.579   7.322  0.2463 -0.0381  0.5220
 5408TIP3    H137783   2.401   5.640   7.389  0.4255  0.6652 -0.1997
 5408TIP3    H237784   2.343   5.501   7.372  1.6954 -0.0733  1.2957
 5409TIP3   OH237785   1.651   2.806   1.053  0.0500  0.3349  0.5619
 5409TIP3    H137786   1.616   2.773   1.136  1.0695 -0.9395  0.5187
 5409TIP3    H237787   1.646   2.901   1.061 -3.4560  0.2907  0.5160
 5410TIP3   OH237788   0.834   6.132   7.974 -0.2190 -0.2937 -0.0653
 5410TIP3    H137789   0.846   6.071   7.901  0.0954  0.2699 -0.4967
 5410TIP3    H237790   0.886   6.209   7.950 -1.5713  0.6464 -0.1317
 5411TIP3   OH237791   2.704   2.704   0.077  0.5201 -0.2108 -0.2478
 5411TIP3    H137792   2.771   2.747   0.131  0.1319  1.0377 -0.7352
 5411TIP3    H237793   2.753   2.642   0.023  1.3536  0.9263 -0.8420
 5412TIP3   OH237794   1.355   6.459   1.479  0.5790 -0.1533 -0.0929
 5412TIP3    H137795   1.379   6.369   1.454 -0.1061 -0.5885  0.7620
 5412TIP3    H237796   1.328   6.500   1.397  2.0049 -0.3513 -0.6955
 5413TIP3   OH237797   1.381   5.262   1.297  0.1619 -0.7329  0.7871
 5413TIP3    H137798   1.428   5.198   1.244  0.4409 -0.3760  0.5990
 5413TIP3    H237799   1.429   5.344   1.284 -1.6060  0.1077 -0.9216
 5414TIP3   OH237800   6.258   2.552   8.321 -0.0352 -0.0858  0.1428
 5414TIP3    H137801   6.239   2.535   8.229  1.3039 -0.5111 -0.0868
 5414TIP3    H237802   6.266   2.465   8.361  3.1403 -0.0789 -0.2114
 5415TIP3   OH237803   4.792   6.074   1.648 -0.5836 -0.3454 -0.7899
 5415TIP3    H137804   4.720   6.034   1.600 -0.9215  0.1255 -0.6864
 5415TIP3    H237805   4.768   6.166   1.655  0.0422 -0.1781 -0.7728
 5416TIP3   OH237806   6.520   3.604   6.853  0.2917  0.0892 -0.1955
 5416TIP3    H137807   6.538   3.522   6.807  0.8766  0.4454 -0.6115
 5416TIP3    H237808   6.482   3.661   6.786 -3.0795 -0.7989  0.7359
 5417TIP3   OH237809   5.704   6.761   1.358 -0.0808  0.2618 -0.5665
 5417TIP3    H137810   5.617   6.793   1.383  0.2247  0.6673  0.0066
 5417TIP3    H237811   5.750   6.838   1.324  0.1710  0.1271 -0.5386
 5418TIP3   OH237812   0.191   1.828   2.479  0.7336  0.2583 -0.2668
 5418TIP3    H137813   0.250   1.787   2.542  1.1903 -0.1691 -0.9591
 5418TIP3    H237814   0.106   1.830   2.523  0.4265 -2.4892 -0.6160
 5419TIP3   OH237815   3.889   2.685   1.701  0.2868 -0.0762 -0.3516
 5419TIP3    H137816   3.807   2.716   1.740  1.2576 -0.4494  2.2106
 5419TIP3    H237817   3.947   2.761   1.702  0.3937 -0.1508 -0.8555
 5420TIP3   OH237818   1.942   0.640   2.324 -0.2530  0.2790  0.4053
 5420TIP3    H137819   1.958   0.556   2.366 -0.1511  0.3195  0.4472
 5420TIP3    H237820   2.013   0.649   2.260 -0.7988 -0.1005 -0.2623
 5421TIP3   OH237821   4.295   5.166   0.986  0.1151 -0.0096  0.2955
 5421TIP3    H137822   4.320   5.250   0.947  1.2712 -0.6826 -0.4489
 5421TIP3    H237823   4.200   5.172   0.996 -0.1828  0.3533 -2.2668
 5422TIP3   OH237824   6.072   2.783   0.050 -0.0388 -0.4510 -0.1853
 5422TIP3    H137825   6.111   2.804  -0.035 -1.2532 -0.1425 -0.6916
 5422TIP3    H237826   6.010   2.713   0.031 -0.7267  0.0010  0.3458
 5423TIP3   OH237827   3.581   3.270   0.419 -0.3795  0.0818  0.8939
 5423TIP3    H137828   3.670   3.237   0.407  0.1292  0.9297  2.0951
 5423TIP3    H237829   3.539   3.259   0.334 -0.2425 -3.5009  1.1096
 5424TIP3   OH237830   2.672   5.828   7.188  0.3003 -0.6066 -0.0650
 5424TIP3    H137831   2.737   5.781   7.241  0.1713 -1.7363 -0.8767
 5424TIP3    H237832   2.648   5.904   7.242  1.8165 -0.5123  0.5186
 5425TIP3   OH237833   3.241   4.124   1.858 -0.1245  0.6948  0.2422
 5425TIP3    H137834   3.197   4.206   1.838  2.1354  1.6359 -1.2735
 5425TIP3    H237835   3.228   4.070   1.781  1.0147  0.8660 -0.0938
 5426TIP3   OH237836   6.231   0.779   8.757  0.4691  0.1544 -0.7823
 5426TIP3    H137837   6.320   0.743   8.756  0.7678  0.8765 -1.1146
 5426TIP3    H237838   6.181   0.718   8.811  1.1251 -0.3573 -0.7371
 5427TIP3   OH237839   4.750   6.067   0.078  0.3310 -0.0613 -0.4230
 5427TIP3    H137840   4.774   6.010   0.004  0.9658  0.5118 -0.6721
 5427TIP3    H237841   4.785   6.153   0.054 -1.4966  0.7051 -0.5343
 5428TIP3   OH237842   2.805   0.387   1.856 -0.3758 -0.3647 -0.3663
 5428TIP3    H137843   2.871   0.452   1.831 -2.6792  2.4929  0.4186
 5428TIP3    H237844   2.812   0.382   1.951 -0.8271 -0.5437 -0.3415
 5429TIP3   OH237845   3.873   3.381   0.947 -0.1453 -0.4257  0.1850
 5429TIP3    H137846   3.801   3.351   0.892  0.4102 -0.5972 -0.4708
 5429TIP3    H237847   3.949   3.329   0.918  0.5948  0.8369 -0.2368
 5430TIP3   OH237848   5.306   4.687   8.143 -0.0078 -1.0477 -0.7925
 5430TIP3    H137849   5.253   4.714   8.068 -0.3305 -0.7933 -0.4764
 5430TIP3    H237850   5.244   4.645   8.202 -0.3812  1.3570  0.6788
 5431TIP3   OH237851   3.110   2.952   8.036 -0.0424  0.6194  0.2257
 5431TIP3    H137852   3.062   2.914   7.962  1.1267  0.1128 -0.3086
 5431TIP3    H237853   3.063   2.922   8.113 -0.2612 -0.3503 -0.2583
 5432TIP3   OH237854   2.999   1.173   2.223  0.4136  0.4505 -0.2522
 5432TIP3    H137855   3.071   1.184   2.284 -0.5456 -0.3843  1.0771
 5432TIP3    H237856   3.014   1.089   2.181 -1.6848 -1.6376  2.8158
 5433TIP3   OH237857   5.516   5.344   1.781  0.6188 -0.1437 -0.4717
 5433TIP3    H137858   5.565   5.397   1.844 -1.2270  1.7515 -0.5430
 5433TIP3    H237859   5.572   5.341   1.703  0.3421  2.7268 -0.8658
 5434TIP3   OH237860   0.894   0.115   7.190  0.6159  0.3565 -0.2580
 5434TIP3    H137861   0.883   0.195   7.140  0.6637  0.0619 -0.7539
 5434TIP3    H237862   0.842   0.050   7.142 -1.5032  0.6189  1.4968
 5435TIP3   OH237863   2.477   5.145   7.736  0.0187 -0.4414  0.1839
 5435TIP3    H137864   2.389   5.156   7.700  0.6358  1.4257 -0.9041
 5435TIP3    H237865   2.533   5.134   7.660  1.0991  1.5403  0.6095
 5436TIP3   OH237866   1.449   0.810   7.251 -0.0076 -0.4324 -0.5162
 5436TIP3    H137867   1.363   0.852   7.260  0.9182  1.6463 -0.9212
 5436TIP3    H237868   1.434   0.737   7.191 -1.6821 -0.7945  0.2687
 5437TIP3   OH237869   3.039   4.659   2.054 -0.3238  0.5424 -0.4418
 5437TIP3    H137870   3.107   4.619   2.109  0.5375 -0.1914 -1.9782
 5437TIP3    H237871   2.958   4.642   2.102  0.5381  1.4766  1.4574
 5438TIP3   OH237872   4.001   5.724   6.980  0.2244  0.7889  0.0839
 5438TIP3    H137873   4.085   5.692   6.947 -0.8511 -1.3642 -0.7373
 5438TIP3    H237874   4.021   5.812   7.013  2.6881  0.5310 -0.4861
 5439TIP3   OH237875   6.670   5.544   7.587  0.2418  0.1123  0.0864
 5439TIP3    H137876   6.610   5.517   7.657  0.7906  1.2199  1.0205
 5439TIP3    H237877   6.646   5.636   7.570 -0.3133 -0.3215 -1.6601
 5440TIP3   OH237878   1.830   4.770   7.933  0.1395 -0.5533  0.0179
 5440TIP3    H137879   1.751   4.813   7.966  0.4847 -1.6446  2.4300
 5440TIP3    H237880   1.825   4.680   7.965  1.1899 -1.3596 -1.8802
 5441TIP3   OH237881   1.528   1.455   8.620 -0.6521 -0.5907 -0.8887
 5441TIP3    H137882   1.566   1.535   8.584 -2.5428  0.7123 -0.1783
 5441TIP3    H237883   1.595   1.420   8.678 -0.2783  1.2893 -0.1193
 5442TIP3   OH237884   6.058   3.312   0.210 -0.3211 -0.8861 -0.4108
 5442TIP3    H137885   6.144   3.296   0.170 -0.2327  0.5657 -0.8602
 5442TIP3    H237886   6.009   3.230   0.195  0.5304 -1.2572 -1.3299
 5443TIP3   OH237887   2.121   4.419   7.069  0.1026  0.3383 -0.0715
 5443TIP3    H137888   2.097   4.505   7.035  2.6982  0.2815 -2.3197
 5443TIP3    H237889   2.132   4.433   7.163  0.5088  2.4820 -0.3909
 5444TIP3   OH237890   5.686   6.210   2.502  0.0920 -0.2172 -0.2593
 5444TIP3    H137891   5.667   6.283   2.442  1.3324 -0.3100 -0.7967
 5444TIP3    H237892   5.738   6.250   2.572 -2.4730  0.1809  1.5758
 5445TIP3   OH237893   4.882   5.714   2.002  0.4131  0.3552  0.3846
 5445TIP3    H137894   4.977   5.722   1.996  0.3848  1.1239  0.8184
 5445TIP3    H237895   4.849   5.780   1.941  0.1583  0.5918  0.7774
 5446TIP3   OH237896   5.596   0.584   0.442 -0.3057 -0.0083 -0.0065
 5446TIP3    H137897   5.597   0.678   0.423 -1.3729 -0.0814 -0.5041
 5446TIP3    H237898   5.503   0.563   0.453 -0.2531 -1.3519 -1.7173
 5447TIP3   OH237899   6.011   4.280   1.920 -0.2672  0.2044  0.1083
 5447TIP3    H137900   6.026   4.185   1.926  1.1800  0.3832 -0.2070
 5447TIP3    H237901   6.099   4.317   1.909 -0.8768  1.5377 -0.4734
 5448TIP3   OH237902   4.301   2.654   7.622 -0.0882 -0.4492 -0.3648
 5448TIP3    H137903   4.394   2.669   7.607  0.2495  0.5653  2.2206
 5448TIP3    H237904   4.282   2.572   7.577  1.9897 -0.5531 -1.1413
 5449TIP3   OH237905   0.393   4.663   2.755 -0.3492 -0.2038 -0.3112
 5449TIP3    H137906   0.303   4.685   2.779 -0.1209 -0.4664  0.8114
 5449TIP3    H237907   0.444   4.741   2.777 -0.1815 -0.3281 -0.2550
 5450TIP3   OH237908   3.301   5.176   2.882  0.0626  0.0135  0.0709
 5450TIP3    H137909   3.281   5.174   2.789 -0.4151 -0.4344  0.1834
 5450TIP3    H237910   3.216   5.181   2.925  0.3070  1.8517  0.4507
 5451TIP3   OH237911   1.120   2.196   1.276 -0.3275 -0.1248 -0.9482
 5451TIP3    H137912   1.160   2.276   1.242 -0.0498  0.5156  0.7928
 5451TIP3    H237913   1.189   2.154   1.328 -1.2931 -0.0243  0.4648
 5452TIP3   OH237914   4.679   4.512   1.315  0.2159  0.5165  0.0563
 5452TIP3    H137915   4.733   4.591   1.321  0.4698  0.5479 -1.8292
 5452TIP3    H237916   4.642   4.515   1.226 -0.6441 -0.9349  0.3227
 5453TIP3   OH237917   6.326   2.059   0.698  0.0941 -0.3055 -0.7744
 5453TIP3    H137918   6.231   2.060   0.683  0.0145  0.0000 -0.2664
 5453TIP3    H237919   6.363   2.038   0.612 -0.5006 -2.1911 -0.5991
 5454TIP3   OH237920   1.741   2.279   2.070 -0.1575  0.0488  0.1171
 5454TIP3    H137921   1.771   2.347   2.010 -0.4104  0.7946  0.8210
 5454TIP3    H237922   1.820   2.251   2.116 -0.1165  0.1571  0.1138
 5455TIP3   OH237923   3.696   3.235   7.695  0.1223 -0.1108 -0.4315
 5455TIP3    H137924   3.767   3.230   7.632 -1.5129  1.3711 -2.5408
 5455TIP3    H237925   3.642   3.309   7.666 -1.1721  0.1504  2.2762
 5456TIP3   OH237926   2.569   3.174   0.598  0.3386  0.0255 -0.3172
 5456TIP3    H137927   2.558   3.110   0.668 -1.3226 -0.5030 -1.0077
 5456TIP3    H237928   2.483   3.181   0.558  0.8752  1.4934 -1.3140
 5457TIP3   OH237929   0.416   2.140   7.300  0.2227 -0.3314  0.3215
 5457TIP3    H137930   0.330   2.097   7.300 -0.4387  0.9044  1.2363
 5457TIP3    H237931   0.471   2.084   7.245 -1.5211 -0.4288 -1.4367
 5458TIP3   OH237932   2.626   6.717   0.480  0.1910  0.2066  0.8312
 5458TIP3    H137933   2.660   6.806   0.492  1.7006 -0.3655  0.9122
 5458TIP3    H237934   2.547   6.730   0.427  1.3225  1.4571 -0.6402
 5459TIP3   OH237935   6.366   3.517   2.615  0.0681  0.0525 -0.2680
 5459TIP3    H137936   6.408   3.444   2.570 -1.7395 -2.4213  1.7307
 5459TIP3    H237937   6.272   3.504   2.602 -0.4141  0.6451  2.0278
 5460TIP3   OH237938   5.488   3.548   0.940 -0.0638  0.8276  0.3809
 5460TIP3    H137939   5.439   3.590   0.869 -0.0681  1.9497  1.0203
 5460TIP3    H237940   5.557   3.498   0.895 -1.0258  0.2122 -0.4739
 5461TIP3   OH237941   3.112   6.747   8.506  0.0860 -0.5271 -0.0431
 5461TIP3    H137942   3.078   6.658   8.509  1.5304 -1.1058 -0.2962
 5461TIP3    H237943   3.196   6.740   8.461  1.5726  0.5185  2.3441
 5462TIP3   OH237944   1.721   4.417   1.646 -0.3101 -0.3427  0.1957
 5462TIP3    H137945   1.658   4.373   1.703 -1.3251 -0.5325 -1.0272
 5462TIP3    H237946   1.723   4.363   1.567  2.6522 -1.2718  0.7844
 5463TIP3   OH237947   4.602   5.095   7.907 -0.5160 -0.4534 -0.0083
 5463TIP3    H137948   4.686   5.050   7.898 -0.5675 -0.7380  0.8621
 5463TIP3    H237949   4.611   5.174   7.853  0.9983  0.5016  1.5337
 5464TIP3   OH237950   3.063   6.195   8.087  0.1017 -0.0298 -0.1021
 5464TIP3    H137951   3.000   6.183   8.158  0.8144 -0.1212  0.5271
 5464TIP3    H237952   3.121   6.265   8.118 -1.7188  2.5879 -2.1150
 5465TIP3   OH237953   2.985   4.687   0.143  0.0660  0.4580  0.5908
 5465TIP3    H137954   3.006   4.779   0.127 -0.2472  0.1657 -1.8893
 5465TIP3    H237955   2.931   4.661   0.068 -1.6739 -1.1980  2.3033
 5466TIP3   OH237956   6.595   3.565   1.668 -0.1763 -0.2223 -0.5239
 5466TIP3    H137957   6.640   3.611   1.597  2.0255  0.3606  1.1521
 5466TIP3    H237958   6.512   3.612   1.678  0.5170  1.2044 -1.1541
 5467TIP3   OH237959   6.617   5.286   7.747  0.1966  0.2294 -0.4104
 5467TIP3    H137960   6.646   5.212   7.800 -0.9356 -0.3882 -0.6217
 5467TIP3    H237961   6.657   5.362   7.788 -0.4678 -0.2552  1.2177
 5468TIP3   OH237962   1.651   5.161   0.310 -0.3430  0.4930  0.3205
 5468TIP3    H137963   1.627   5.158   0.403 -0.6215 -1.5081  0.2126
 5468TIP3    H237964   1.567   5.169   0.264 -0.4426 -1.2136  0.1586
 5469TIP3   OH237965   6.456   4.580   0.005 -0.3691 -0.1895 -0.1528
 5469TIP3    H137966   6.397   4.651  -0.020 -1.3339 -0.9073  0.0136
 5469TIP3    H237967   6.438   4.511  -0.060  2.1039  0.4666 -1.6666
 5470TIP3   OH237968   0.862   5.311   7.457 -0.3014  0.1223 -0.6488
 5470TIP3    H137969   0.839   5.382   7.397  0.9017  0.3734 -0.8363
 5470TIP3    H237970   0.832   5.340   7.543 -2.3703 -0.3935 -1.1461
 5471TIP3   OH237971   4.935   5.973   8.302 -0.6103  0.2440 -0.7370
 5471TIP3    H137972   4.982   6.015   8.229 -1.0181 -0.5782 -1.4895
 5471TIP3    H237973   4.927   5.882   8.275 -2.5264  0.3246 -0.5764
 5472TIP3   OH237974   3.181   5.771   7.965 -0.5016  0.3588  0.4519
 5472TIP3    H137975   3.218   5.856   7.937 -0.4762 -0.2735 -1.6167
 5472TIP3    H237976   3.087   5.780   7.950 -0.3883 -0.2911 -0.7415
 5473TIP3   OH237977   4.179   3.851   1.452 -0.0102 -0.3534  0.2627
 5473TIP3    H137978   4.181   3.756   1.465 -0.4323 -0.3715  0.2114
 5473TIP3    H237979   4.247   3.868   1.387  0.0200 -0.6289  0.2231
 5474TIP3   OH237980   6.049   5.601   1.143  0.6435  0.1430  0.0344
 5474TIP3    H137981   6.117   5.574   1.205  1.7342  1.6707 -0.4327
 5474TIP3    H237982   5.973   5.620   1.198  1.5411  1.3250  0.9368
 5475TIP3   OH237983   1.611   0.748   8.571  0.1950  0.2155 -0.3245
 5475TIP3    H137984   1.655   0.795   8.500 -0.9548  0.1009 -1.1446
 5475TIP3    H237985   1.658   0.775   8.650  1.5816  0.2501 -1.1228
 5476TIP3   OH237986   1.842   4.880   7.677 -0.1837  0.4221  0.1781
 5476TIP3    H137987   1.902   4.830   7.621  2.3376  0.9892  2.1452
 5476TIP3    H237988   1.853   4.841   7.764  0.2225  2.9155  1.3339
 5477TIP3   OH237989   3.039   4.306   1.544  0.0575 -0.8877 -0.0474
 5477TIP3    H137990   3.012   4.341   1.459  0.4403 -1.9598 -0.6259
 5477TIP3    H237991   3.078   4.221   1.524  2.6072 -0.0333  0.8959
 5478TIP3   OH237992   1.548   3.015   0.695  0.1827  0.3806  0.8505
 5478TIP3    H137993   1.598   2.933   0.688  0.1414  0.4288 -0.2421
 5478TIP3    H237994   1.465   2.990   0.735  0.2319 -0.0981  0.6613
 5479TIP3   OH237995   0.504   2.621   0.071  0.4723 -0.0509 -0.2256
 5479TIP3    H137996   0.595   2.651   0.066  0.6417 -0.3974  0.7016
 5479TIP3    H237997   0.478   2.611  -0.021  1.6094 -0.6728 -0.5058
 5480TIP3   OH237998   0.088   2.670   8.554  0.0832  0.2239  0.1556
 5480TIP3    H137999   0.022   2.739   8.567 -0.8481 -1.0317  2.9108
 5480TIP3    H238000   0.082   2.648   8.461 -1.5707  1.9054 -0.2027
 5481TIP3   OH238001   0.868   4.703   1.447 -0.5547  0.1585 -0.9965
 5481TIP3    H138002   0.852   4.794   1.422 -2.3394  0.1528 -0.0043
 5481TIP3    H238003   0.820   4.692   1.529  1.6608 -0.9977  0.2493
 5482TIP3   OH238004   6.118   2.234   8.182  0.2047  0.3027  0.0297
 5482TIP3    H138005   6.083   2.179   8.252 -0.0082  0.9752  0.4575
 5482TIP3    H238006   6.070   2.316   8.188  0.0603  0.3177 -1.0260
 5483TIP3   OH238007   4.249   4.696   1.336  0.0896  0.2153  0.4302
 5483TIP3    H138008   4.159   4.675   1.360  0.0344 -0.1466 -0.0740
 5483TIP3    H238009   4.241   4.765   1.271  0.1707  0.0528  0.2486
 5484TIP3   OH238010   5.939   3.057   0.229  0.2494  0.4419 -0.6243
 5484TIP3    H138011   5.946   2.974   0.277  2.1297  0.3002 -1.0841
 5484TIP3    H238012   5.845   3.074   0.225 -0.2080 -1.8173 -0.7441
 5485TIP3   OH238013   4.172   0.134   0.922  0.2130 -0.6346 -0.7403
 5485TIP3    H138014   4.259   0.119   0.884  0.1907 -0.9062 -0.6884
 5485TIP3    H238015   4.189   0.178   1.005  0.1620  2.3800 -2.2058
 5486TIP3   OH238016   1.080   0.105   0.834  0.1711 -0.4794  0.5608
 5486TIP3    H138017   1.166   0.073   0.808  0.3589 -0.1228  0.7420
 5486TIP3    H238018   1.097   0.188   0.878 -0.4334  0.6907 -1.3153
 5487TIP3   OH238019   2.007   6.603   1.224  0.1508 -0.3756 -0.1404
 5487TIP3    H138020   2.066   6.542   1.269 -0.3447 -1.0079 -0.3333
 5487TIP3    H238021   1.930   6.609   1.281 -0.0015 -0.2958 -0.3527
 5488TIP3   OH238022   6.410   4.398   8.595 -0.3108 -0.0740  0.3227
 5488TIP3    H138023   6.435   4.385   8.503 -2.1984 -0.3813 -0.1751
 5488TIP3    H238024   6.340   4.335   8.611  0.2319 -0.2827  2.1121
 5489TIP3   OH238025   6.593   3.339   7.739  0.2387  0.1176  0.0507
 5489TIP3    H138026   6.554   3.377   7.818  0.0106 -0.3575  0.1690
 5489TIP3    H238027   6.550   3.255   7.728  0.1557  0.2439 -0.6756
 5490TIP3   OH238028   3.872   4.209   0.499  0.0056 -0.4093  0.2562
 5490TIP3    H138029   3.926   4.233   0.574  1.9780 -0.9192 -0.9276
 5490TIP3    H238030   3.927   4.227   0.423 -1.7400 -0.3796 -1.0786
 5491TIP3   OH238031   5.128   3.825   2.327  0.4163 -0.9167  0.1140
 5491TIP3    H138032   5.086   3.897   2.280 -2.5505 -1.6521  1.3678
 5491TIP3    H238033   5.132   3.856   2.418  0.7543 -1.6444  0.3516
 5492TIP3   OH238034   3.368   5.187   0.212 -0.0236 -0.0258  0.2424
 5492TIP3    H138035   3.386   5.151   0.126 -2.1832 -0.8082  0.0675
 5492TIP3    H238036   3.434   5.147   0.269  0.9100 -0.1314 -0.8724
 5493TIP3   OH238037   0.756   6.162   8.586  0.5492 -0.2890 -0.1719
 5493TIP3    H138038   0.709   6.196   8.510  1.4343 -0.5596 -0.8433
 5493TIP3    H238039   0.785   6.075   8.561  0.5209 -0.5387  0.6199
 5494TIP3   OH238040   4.442   4.312   2.053  0.6952 -0.1976  0.2020
 5494TIP3    H138041   4.474   4.398   2.079  1.2881 -0.3673  0.0394
 5494TIP3    H238042   4.347   4.318   2.062  0.7754  0.2840  0.7754
 5495TIP3   OH238043   1.291   0.139   0.140  1.1568 -0.2813  0.1100
 5495TIP3    H138044   1.274   0.229   0.115  0.4672 -0.3539  0.3157
 5495TIP3    H238045   1.249   0.087   0.072  0.7541 -0.4558  0.4864
 5496TIP3   OH238046   5.925   0.614   7.722 -0.2508 -0.0616  0.1024
 5496TIP3    H138047   5.949   0.559   7.796  0.7145  1.0591  0.6698
 5496TIP3    H238048   5.851   0.665   7.753 -1.0655 -0.9284 -0.3799
 5497TIP3   OH238049   1.045   0.591   1.536 -0.1578  0.5033  0.1311
 5497TIP3    H138050   0.961   0.636   1.543  0.1892  0.9692  1.9863
 5497TIP3    H238051   1.095   0.623   1.611  2.1826  1.2553 -1.6089
 5498TIP3   OH238052   4.284   1.504   7.695  1.2308 -0.3441  0.0159
 5498TIP3    H138053   4.221   1.554   7.643  2.6233  0.4272 -0.9787
 5498TIP3    H238054   4.357   1.564   7.709  2.8527 -1.9902 -1.0029
 5499TIP3   OH238055   1.620   1.728   8.450 -0.1649  0.2130 -0.2130
 5499TIP3    H138056   1.660   1.775   8.523 -0.4489  2.5073 -1.4623
 5499TIP3    H238057   1.593   1.796   8.389  0.8820 -1.6276 -2.9207
 5500TIP3   OH238058   1.228   0.207   1.026 -0.6238 -0.2579 -0.8974
 5500TIP3    H138059   1.242   0.288   1.075  1.5481 -0.9086 -0.3265
 5500TIP3    H238060   1.189   0.147   1.090  1.7613 -0.9535  0.0111
 5501TIP3   OH238061   1.667   3.965   0.892 -0.8314 -0.3200  0.1669
 5501TIP3    H138062   1.684   4.019   0.969 -1.2325 -1.5927  1.1755
 5501TIP3    H238063   1.580   3.993   0.862 -1.0128 -0.3628  0.6452
 5502TIP3   OH238064   6.611   3.327   8.634  0.1976 -0.6696 -0.7480
 5502TIP3    H138065   6.622   3.347   8.726 -2.4126  0.0655 -0.5080
 5502TIP3    H238066   6.691   3.359   8.592  2.2170 -2.5551  1.3840
 5503TIP3   OH238067   5.652   3.772   6.952 -0.2692 -0.3519 -1.0053
 5503TIP3    H138068   5.706   3.716   7.007  1.4221  1.5181 -0.6522
 5503TIP3    H238069   5.564   3.764   6.988  0.4455 -0.6507  0.7804
 5504TIP3   OH238070   3.682   5.069   1.061 -0.0105  0.6929  0.0586
 5504TIP3    H138071   3.651   4.983   1.032 -0.3861  0.8536 -0.0255
 5504TIP3    H238072   3.726   5.106   0.984  0.4609  0.4338  0.2007
 5505TIP3   OH238073   0.172   3.677   2.083 -0.1765  0.1563 -0.0866
 5505TIP3    H138074   0.227   3.632   2.147 -0.2100 -0.9419 -0.7950
 5505TIP3    H238075   0.233   3.726   2.029  0.2508 -1.6460 -1.3371
 5506TIP3   OH238076   2.410   5.906   1.676 -0.6900  0.7380  0.0125
 5506TIP3    H138077   2.431   5.894   1.768 -1.1628  2.5081  0.3942
 5506TIP3    H238078   2.316   5.894   1.670 -0.5833  0.0217 -0.3684
 5507TIP3   OH238079   5.881   3.528   2.369 -0.4163 -0.8628 -0.5715
 5507TIP3    H138080   5.811   3.463   2.364 -0.5635 -0.6042 -2.1904
 5507TIP3    H238081   5.835   3.612   2.371 -0.3053 -0.7225  2.9610
 5508TIP3   OH238082   2.168   3.269   0.019 -0.1170  0.3550 -0.5994
 5508TIP3    H138083   2.120   3.307   0.093 -1.3321 -0.8803 -0.7175
 5508TIP3    H238084   2.212   3.193   0.056 -0.1553  0.1397 -1.0006
 5509TIP3   OH238085   1.526   3.018   8.576  0.1214 -0.1349 -0.4049
 5509TIP3    H138086   1.574   3.095   8.548 -0.7921  0.3900 -0.5880
 5509TIP3    H238087   1.586   2.945   8.561  1.8150  0.7149  1.7676
 5510TIP3   OH238088   5.111   2.550   2.333 -0.6304 -0.1531 -0.5792
 5510TIP3    H138089   5.158   2.472   2.302 -1.9705 -0.6680 -1.3708
 5510TIP3    H238090   5.168   2.586   2.401  1.3079 -0.2849 -2.0613
 5511TIP3   OH238091   3.138   5.352   1.203 -0.1944  0.2749 -0.7049
 5511TIP3    H138092   3.171   5.266   1.228  0.0524 -0.0006 -1.9097
 5511TIP3    H238093   3.179   5.412   1.265  0.0180 -0.4177 -0.1587
 5512TIP3   OH238094   1.630   5.434   7.568  0.5580 -0.0262  0.0981
 5512TIP3    H138095   1.593   5.509   7.614 -1.0249  0.5002 -1.8626
 5512TIP3    H238096   1.623   5.361   7.630 -0.3453  0.8778  1.0998
 5513TIP3   OH238097   1.223   1.311   1.601  0.0299 -0.1354 -0.1440
 5513TIP3    H138098   1.137   1.280   1.630  0.5219 -1.1737  0.2338
 5513TIP3    H238099   1.283   1.240   1.621  0.8935  0.3345 -0.9661
 5514TIP3   OH238100   6.126   0.980   0.200  0.1609  1.1748  0.2427
 5514TIP3    H138101   6.217   0.993   0.173  0.6244  0.6072  1.4662
 5514TIP3    H238102   6.131   0.919   0.273 -1.1396  1.7224  0.8254
 5515TIP3   OH238103   0.506   2.845   1.156 -0.0149 -0.0658 -0.5223
 5515TIP3    H138104   0.475   2.877   1.240  0.7597 -0.8797  0.1040
 5515TIP3    H238105   0.564   2.772   1.179 -0.3276 -0.7395 -1.7946
 5516TIP3   OH238106   0.361   1.591   0.339  0.3557  0.2225  0.2130
 5516TIP3    H138107   0.429   1.648   0.375  0.6608 -0.4020  0.6503
 5516TIP3    H238108   0.289   1.597   0.401  0.5117 -0.1088  0.4304
 5517TIP3   OH238109   3.777   1.406   1.530  1.0389 -0.2714 -1.2229
 5517TIP3    H138110   3.737   1.418   1.616  1.4215 -0.7940 -0.9692
 5517TIP3    H238111   3.774   1.493   1.491  0.9904  0.0035 -0.6271
 5518TIP3   OH238112   3.438   4.075   7.691  0.1137 -0.5806 -0.2959
 5518TIP3    H138113   3.480   4.060   7.606 -1.1057  0.0057 -1.0281
 5518TIP3    H238114   3.467   4.001   7.745  1.5705 -0.5196 -0.9442
 5519TIP3   OH238115   6.590   0.428   0.439 -0.1427 -0.0003  0.4654
 5519TIP3    H138116   6.652   0.376   0.490  0.9713  0.7454 -0.0852
 5519TIP3    H238117   6.636   0.446   0.357 -2.0540 -1.5535 -1.0246
 5520TIP3   OH238118   5.128   1.532   7.806 -1.5301  0.0368  0.0240
 5520TIP3    H138119   5.142   1.625   7.825  1.0967 -0.4370  0.8962
 5520TIP3    H238120   5.168   1.518   7.720 -1.9112 -0.2838 -0.1053
 5521TIP3   OH238121   5.127   3.664   7.957 -0.3124 -0.7728  0.2820
 5521TIP3    H138122   5.098   3.625   7.875  1.2861 -0.8779 -0.2669
 5521TIP3    H238123   5.139   3.757   7.936  1.0407 -0.9723  0.1042
 5522TIP3   OH238124   3.829   3.841   2.972 -0.3126  0.4564 -0.0188
 5522TIP3    H138125   3.787   3.812   3.053 -0.8881  0.5869 -0.2666
 5522TIP3    H238126   3.850   3.933   2.988 -1.3104  0.7552 -0.3647
 5523TIP3   OH238127   1.072   0.581   0.806  0.1569  0.1935  0.0028
 5523TIP3    H138128   1.031   0.497   0.784  0.7344  0.2649 -1.4629
 5523TIP3    H238129   1.001   0.645   0.800  0.6255  0.6471 -4.5374
 5524TIP3   OH238130   5.503   5.991   8.504 -0.3993  0.1996  0.1417
 5524TIP3    H138131   5.448   6.011   8.579 -2.2254 -0.5309 -0.9409
 5524TIP3    H238132   5.531   5.900   8.518 -0.2509  0.2546  0.2112
 5525TIP3   OH238133   0.045   4.877   1.173 -0.3525  0.5337  0.4081
 5525TIP3    H138134   0.045   4.795   1.222  0.7696 -0.3717 -1.0401
 5525TIP3    H238135   0.127   4.920   1.200  2.3352 -1.7318 -3.3228
 5526TIP3   OH238136   3.129   6.058   2.055  0.5988  0.3889  0.1103
 5526TIP3    H138137   3.182   6.004   1.996  1.1176  1.5022 -0.4756
 5526TIP3    H238138   3.078   5.995   2.106  0.4606 -0.6137 -1.2246
 5527TIP3   OH238139   5.299   3.646   0.538  0.1157  0.3676 -0.0682
 5527TIP3    H138140   5.277   3.600   0.457  0.2713 -1.3606  0.8245
 5527TIP3    H238141   5.380   3.693   0.517  0.0936  0.0427 -0.9460
 5528TIP3   OH238142   6.261   1.466   1.248  0.6642 -0.3227  0.5242
 5528TIP3    H138143   6.165   1.458   1.244  0.7056 -0.4467 -1.0115
 5528TIP3    H238144   6.277   1.528   1.319 -0.6616  1.0880 -0.3446
 5529TIP3   OH238145   0.191   0.022   0.904  0.5158  0.2272  0.2922
 5529TIP3    H138146   0.157  -0.063   0.931  0.9507 -0.0699 -0.0812
 5529TIP3    H238147   0.146   0.041   0.822  0.1990  0.4953  0.5286
 5530TIP3   OH238148   5.974   6.088   0.961 -0.1317  0.9625  0.2419
 5530TIP3    H138149   6.065   6.115   0.948  0.0303  0.3249 -0.0103
 5530TIP3    H238150   5.923   6.169   0.952  0.2125  0.9994 -1.9197
 5531TIP3   OH238151   2.661   0.146   8.030 -0.1264  0.0914 -0.5400
 5531TIP3    H138152   2.722   0.084   7.989 -0.3053  0.0131 -0.6858
 5531TIP3    H238153   2.718   0.209   8.074  0.0760 -1.4717  1.6016
 5532TIP3   OH238154   4.365   3.330   7.759  0.0260  0.4445 -0.0697
 5532TIP3    H138155   4.292   3.345   7.820  1.7490 -2.0888  2.8820
 5532TIP3    H238156   4.328   3.274   7.691 -1.1215  0.4577  0.5100
 5533TIP3   OH238157   4.524   3.806   1.636  0.1662 -0.0798  0.4761
 5533TIP3    H138158   4.550   3.772   1.550 -1.4619 -1.5905  0.5222
 5533TIP3    H238159   4.606   3.836   1.675  0.9851  0.3900 -1.4763
 5534TIP3   OH238160   2.373   5.622   1.187  0.2043  0.1515 -0.2000
 5534TIP3    H138161   2.348   5.658   1.272 -0.6579 -1.4132  0.2505
 5534TIP3    H238162   2.334   5.534   1.186  1.6087 -0.5052 -1.5158
 5535TIP3   OH238163   6.673   4.452   7.364 -0.1172 -0.2975  0.1493
 5535TIP3    H138164   6.765   4.451   7.340  0.5480  0.2898  2.4397
 5535TIP3    H238165   6.641   4.366   7.338  1.4404 -1.0514  0.6148
 5536TIP3   OH238166   0.644   2.615   2.561  0.3396 -0.2329  0.4521
 5536TIP3    H138167   0.649   2.586   2.652 -0.3853 -0.9768  0.2681
 5536TIP3    H238168   0.568   2.570   2.526  0.4895  0.2121 -0.4714
 5537TIP3   OH238169   6.644   4.838   7.033 -0.0699  0.5862 -0.3772
 5537TIP3    H138170   6.561   4.880   7.054 -0.2662  1.2886 -2.3513
 5537TIP3    H238171   6.694   4.905   6.986  0.8365 -0.4088 -0.8894
 5538TIP3   OH238172   1.804   0.960   2.233  0.1495  0.1693 -0.1699
 5538TIP3    H138173   1.862   0.924   2.167  1.3699  1.7141  0.0004
 5538TIP3    H238174   1.829   0.917   2.314  0.2395 -0.0429 -0.3101
 5539TIP3   OH238175   4.116   1.725   1.216 -0.1870  0.2750 -0.6707
 5539TIP3    H138176   4.029   1.719   1.256 -0.8177 -1.2950 -2.1260
 5539TIP3    H238177   4.125   1.644   1.166  1.2293  1.3544 -2.3038
 5540TIP3   OH238178   4.485   4.844   0.990 -0.0631 -0.4157 -0.5087
 5540TIP3    H138179   4.487   4.906   0.917 -2.7684  1.7812  1.0800
 5540TIP3    H238180   4.529   4.890   1.062 -0.0719 -1.3041  0.0842
 5541TIP3   OH238181   6.435   0.731   7.594  0.4433  0.5599  0.5836
 5541TIP3    H138182   6.415   0.690   7.679  0.0111 -0.7978 -0.1411
 5541TIP3    H238183   6.352   0.768   7.565 -0.3116 -1.9119 -0.7441
 5542TIP3   OH238184   4.956   3.154   1.905  0.3833  0.2421  0.6338
 5542TIP3    H138185   4.920   3.241   1.921 -0.3097 -0.1567  1.3365
 5542TIP3    H238186   5.049   3.162   1.926  0.9951  1.5303 -2.1420
 5543TIP3   OH238187   4.491   1.000   2.406  0.6548  0.1070 -0.3530
 5543TIP3    H138188   4.453   0.979   2.321  0.4575  0.7475 -0.4290
 5543TIP3    H238189   4.511   1.093   2.401 -1.2096  0.6336  0.9849
 5544TIP3   OH238190   1.381   0.586   8.567  0.7738  0.0746 -0.7517
 5544TIP3    H138191   1.393   0.560   8.658 -0.2865  0.6662 -0.4328
 5544TIP3    H238192   1.451   0.650   8.551  0.4688  0.5881 -0.0912
 5545TIP3   OH238193   1.104   4.335   6.962 -0.3619 -0.3311 -0.7499
 5545TIP3    H138194   1.009   4.342   6.958 -0.5045 -0.2343  1.5855
 5545TIP3    H238195   1.121   4.247   6.996  0.3647 -0.2539 -0.8986
 5546TIP3   OH238196   4.739   2.409   0.448  0.3929 -0.4658  0.2891
 5546TIP3    H138197   4.703   2.475   0.506  0.0486  0.5326 -1.0066
 5546TIP3    H238198   4.704   2.431   0.361  1.2019 -1.6530 -0.3750
 5547TIP3   OH238199   2.456   6.732   8.130 -0.5022  0.2528  0.0711
 5547TIP3    H138200   2.493   6.713   8.216 -1.2942  0.3207  0.4383
 5547TIP3    H238201   2.518   6.792   8.089  0.4194 -0.6094  0.1670
 5548TIP3   OH238202   1.561   2.782   1.327 -0.2731  0.5190 -0.4992
 5548TIP3    H138203   1.520   2.866   1.351 -0.6767  0.2800 -0.3441
 5548TIP3    H238204   1.488   2.720   1.327 -0.1972  0.4001 -1.7839
 5549TIP3   OH238205   1.041   2.032   3.105  0.2660 -0.1431 -0.0218
 5549TIP3    H138206   1.074   1.945   3.129  0.3661 -1.5222 -4.3285
 5549TIP3    H238207   0.959   2.015   3.059 -1.2621  2.4083  1.5221
 5550TIP3   OH238208   1.015   6.133   1.319 -0.8544  0.1933 -0.0992
 5550TIP3    H138209   1.015   6.198   1.249 -1.0299  0.4549  0.1400
 5550TIP3    H238210   0.943   6.160   1.377 -3.0514 -1.9590 -1.6112
 5551TIP3   OH238211   5.878   5.880   3.340  0.0309 -0.4735 -0.4211
 5551TIP3    H138212   5.847   5.884   3.249 -1.2568 -0.0129  0.0042
 5551TIP3    H238213   5.797   5.884   3.392  0.8421  2.9891  0.8203
 5552TIP3   OH238214   2.725   1.236   7.088  0.1981 -0.2934 -0.3839
 5552TIP3    H138215   2.767   1.322   7.094 -1.8617  0.9540 -2.1709
 5552TIP3    H238216   2.633   1.253   7.111 -0.3317 -1.9661 -1.1080
 5553TIP3   OH238217   3.152   3.292   0.689  0.3598 -0.2105 -0.5922
 5553TIP3    H138218   3.082   3.355   0.705  1.0662  0.1169  1.5109
 5553TIP3    H238219   3.215   3.339   0.635 -1.1203 -0.6399 -2.8833
 5554TIP3   OH238220   5.420   0.337   7.992  0.2603 -0.3570  0.0523
 5554TIP3    H138221   5.448   0.309   7.905 -0.1578 -0.4352 -0.0580
 5554TIP3    H238222   5.430   0.433   7.991  0.2095 -0.3527 -0.0992
 5555TIP3   OH238223   6.765   5.536   0.083 -0.6898 -0.1669 -0.1975
 5555TIP3    H138224   6.684   5.581   0.058 -0.0031  1.5193  0.4303
 5555TIP3    H238225   6.742   5.485   0.160 -0.6401  2.3769  1.6230
 5556TIP3   OH238226   5.897   1.431   2.293  0.3634 -0.5074 -0.0045
 5556TIP3    H138227   5.933   1.479   2.218  0.9449  0.2796  0.7612
 5556TIP3    H238228   5.802   1.439   2.283  0.4332 -0.4217 -0.6600
 5557TIP3   OH238229   6.256   5.502   2.446  0.2646 -0.0528 -0.0579
 5557TIP3    H138230   6.291   5.591   2.436 -1.8221  0.9022  0.4573
 5557TIP3    H238231   6.271   5.481   2.538 -1.3046  0.7783  0.4295
 5558TIP3   OH238232   2.946   6.023   1.207  0.2305 -0.3703  0.3638
 5558TIP3    H138233   3.026   5.975   1.227  1.4519  2.2177  2.2044
 5558TIP3    H238234   2.973   6.115   1.209 -1.8452  0.5143 -3.4439
 5559TIP3   OH238235   1.963   5.618   8.440 -0.1597 -0.1012 -0.2473
 5559TIP3    H138236   1.899   5.549   8.458  1.3599 -1.7945 -1.0438
 5559TIP3    H238237   1.941   5.649   8.352  0.3666 -0.9980 -0.7044
 5560TIP3   OH238238   0.621   6.516   8.455  0.2606  0.3856  0.3350
 5560TIP3    H138239   0.640   6.439   8.401 -0.3870 -0.9637  1.9746
 5560TIP3    H238240   0.695   6.522   8.515  0.3615  1.1402  0.1514
 5561TIP3   OH238241   1.060   5.201   0.482 -0.3362  0.4540  0.4527
 5561TIP3    H138242   0.969   5.218   0.456 -0.4966 -1.3909 -0.3588
 5561TIP3    H238243   1.056   5.116   0.527  1.2453 -0.6652 -1.3833
 5562TIP3   OH238244   2.502   3.888   8.655 -0.1259  0.2147 -0.8221
 5562TIP3    H138245   2.449   3.952   8.607 -0.5466  2.0375  1.8404
 5562TIP3    H238246   2.535   3.936   8.731  1.3920 -2.1867  0.1656
 5563TIP3   OH238247   3.674   1.326   8.518 -0.8089  0.5121  0.1312
 5563TIP3    H138248   3.593   1.375   8.535  0.8155  3.2844  0.4913
 5563TIP3    H238249   3.700   1.293   8.604 -2.4233 -2.0253 -0.2582
 5564TIP3   OH238250   5.059   5.787   1.448  0.0519  0.0612  0.4523
 5564TIP3    H138251   5.035   5.730   1.521 -0.8692  1.3516  1.1858
 5564TIP3    H238252   5.153   5.801   1.458 -0.2789  1.3367  2.2586
 5565TIP3   OH238253   0.621   5.398   1.652 -0.1907 -0.0003  0.4477
 5565TIP3    H138254   0.682   5.472   1.655 -0.3809  0.2176 -0.7433
 5565TIP3    H238255   0.636   5.352   1.735  0.4152  0.9780  0.9055
 5566TIP3   OH238256   6.002   5.833   8.203  0.0381  0.0654  0.4301
 5566TIP3    H138257   6.055   5.909   8.225 -1.2544  0.7283  1.4407
 5566TIP3    H238258   5.965   5.853   8.117  0.3282  0.2148  0.3380
 5567TIP3   OH238259   3.553   2.849   0.859 -0.2257 -0.1006  0.3960
 5567TIP3    H138260   3.607   2.911   0.907 -1.3948  0.1507  1.4500
 5567TIP3    H238261   3.507   2.903   0.794 -0.3895 -0.0498  0.5533
 5568TIP3   OH238262   1.659   2.575   8.561 -0.3374 -0.3635 -0.2579
 5568TIP3    H138263   1.615   2.553   8.643  0.2325 -0.2508  0.0872
 5568TIP3    H238264   1.751   2.549   8.575 -0.3850 -1.0734 -1.1479
 5569TIP3   OH238265   5.615   5.732   8.444 -0.4002 -0.2249 -0.1540
 5569TIP3    H138266   5.709   5.715   8.438  0.0864  0.3733  3.6641
 5569TIP3    H238267   5.578   5.654   8.484 -0.9037  0.8465  1.5781
 5570TIP3   OH238268   6.522   5.918   8.530 -0.5317 -0.4240 -0.0110
 5570TIP3    H138269   6.435   5.896   8.565 -0.3527 -2.2726 -0.6212
 5570TIP3    H238270   6.511   5.912   8.435 -0.2207  1.3692 -0.1817
 5571TIP3   OH238271   3.551   2.735   1.164 -0.3149 -0.3467  0.4864
 5571TIP3    H138272   3.607   2.802   1.204  0.2572 -0.5699  0.0774
 5571TIP3    H238273   3.517   2.685   1.238 -1.8478  1.2062  0.9080
 5572TIP3   OH238274   4.738   2.936   1.438  0.4055 -0.0094 -0.7505
 5572TIP3    H138275   4.788   2.900   1.511  1.3688  0.1492 -1.3087
 5572TIP3    H238276   4.789   2.911   1.360 -0.2438  0.4044 -1.3188
 5573TIP3   OH238277   0.483   3.830   8.379  1.1152  0.0618 -0.1120
 5573TIP3    H138278   0.418   3.900   8.374 -0.5699 -1.4396 -0.3154
 5573TIP3    H238279   0.479   3.788   8.293 -0.1818 -2.1419  0.9098
 5574TIP3   OH238280   0.729   3.593   0.970 -0.6925 -0.5585 -0.0647
 5574TIP3    H138281   0.783   3.544   1.033 -0.4007  0.6587  0.6511
 5574TIP3    H238282   0.673   3.526   0.931 -0.5704 -1.4252  1.1605
 5575TIP3   OH238283   5.141   3.032   2.417 -0.4233 -0.1498  0.3054
 5575TIP3    H138284   5.224   2.991   2.393 -0.3971 -0.4911  0.9552
 5575TIP3    H238285   5.116   2.990   2.500 -2.2147 -1.4645 -0.8060
 5576TIP3   OH238286   0.481   1.532   7.520 -0.1202  0.5244 -0.6181
 5576TIP3    H138287   0.392   1.522   7.485  0.1495  0.3037 -1.2628
 5576TIP3    H238288   0.537   1.524   7.443  0.4996 -0.0955 -0.1122
 5577TIP3   OH238289   3.533   0.191   2.236 -0.1237 -0.0931  0.2705
 5577TIP3    H138290   3.575   0.121   2.185  0.5448 -0.4837  1.3238
 5577TIP3    H238291   3.552   0.169   2.327 -1.6941  0.3458  0.7350
 5578TIP3   OH238292   1.891   6.108   0.911  0.0353  0.0659  0.3190
 5578TIP3    H138293   1.886   6.072   0.999 -0.3658  1.0111  0.6909
 5578TIP3    H238294   1.903   6.032   0.854  0.0177 -0.5685  1.1606
 5579TIP3   OH238295   0.240   4.186   2.184 -0.4164  0.1984  0.6249
 5579TIP3    H138296   0.216   4.260   2.240  1.2088  1.6253 -0.4370
 5579TIP3    H238297   0.234   4.220   2.095  1.9485 -0.3548  0.1673
 5580TIP3   OH238298   3.277   6.623   0.418 -0.1133 -0.1174  0.2247
 5580TIP3    H138299   3.260   6.530   0.433 -0.2322 -0.0727  0.3732
 5580TIP3    H238300   3.205   6.652   0.362  0.1429 -0.2050 -0.1502
 5581TIP3   OH238301   4.810   3.485   8.637 -0.0944  0.6295 -0.1782
 5581TIP3    H138302   4.850   3.520   8.558  0.2786 -0.9975 -0.7423
 5581TIP3    H238303   4.799   3.392   8.619 -2.0333  0.6119  0.8467
 5582TIP3   OH238304   3.418   5.139   7.927  0.2698 -0.2007  0.2977
 5582TIP3    H138305   3.385   5.058   7.966 -0.6901 -0.0238 -0.0992
 5582TIP3    H238306   3.365   5.150   7.848  1.1718  0.2168 -0.2567
 5583TIP3   OH238307   5.379   3.938   1.382  0.8088  1.0229 -0.2542
 5583TIP3    H138308   5.310   4.003   1.368 -1.0301 -1.0071 -1.2309
 5583TIP3    H238309   5.367   3.875   1.310  3.3590  0.2990 -0.1294
 5584TIP3   OH238310   2.295   2.851   1.202  0.2489  0.1960  0.1285
 5584TIP3    H138311   2.261   2.908   1.133 -0.2682  0.2921  0.4545
 5584TIP3    H238312   2.258   2.887   1.283 -1.7017 -1.7334  0.1787
 5585TIP3   OH238313   0.723   5.147   0.748  0.1767  0.0970  0.0616
 5585TIP3    H138314   0.703   5.236   0.778  1.4955  0.7309 -0.8714
 5585TIP3    H238315   0.709   5.150   0.654  1.0620 -0.4573 -0.0897
 5586TIP3   OH238316   5.397   2.322   0.911  0.1317 -0.2776 -0.1581
 5586TIP3    H138317   5.335   2.329   0.984 -1.4230 -2.1659 -1.2142
 5586TIP3    H238318   5.405   2.228   0.896  2.4432 -0.0355 -0.7945
 5587TIP3   OH238319   3.706   6.476   8.348 -0.1950  0.3156 -0.0239
 5587TIP3    H138320   3.644   6.539   8.312  0.0531  0.7757  0.3291
 5587TIP3    H238321   3.792   6.518   8.338 -0.1140  0.4532  1.0616
 5588TIP3   OH238322   3.225   5.447   7.894  0.6382  0.0814  0.4604
 5588TIP3    H138323   3.208   5.402   7.811  0.3705 -1.3736  1.2777
 5588TIP3    H238324   3.144   5.493   7.914  0.8650  0.8437 -0.3089
 5589TIP3   OH238325   2.387   4.051   7.461  0.1059 -0.2350  0.3084
 5589TIP3    H138326   2.431   4.111   7.400 -2.0013 -1.3485 -2.5873
 5589TIP3    H238327   2.453   3.986   7.483  0.8662 -0.0738 -1.3194
 5590TIP3   OH238328   5.052   5.428   1.944 -0.2155 -0.3331  0.0723
 5590TIP3    H138329   5.139   5.463   1.967 -0.0047 -0.9010  0.1681
 5590TIP3    H238330   5.070   5.361   1.878 -0.6833  0.2259 -0.6261
 5591TIP3   OH238331   4.570   6.044   0.664 -0.4947  0.0984 -0.1541
 5591TIP3    H138332   4.620   5.993   0.601 -0.1692 -1.2703  1.1388
 5591TIP3    H238333   4.485   6.058   0.622 -0.1426 -0.4314 -1.0559
 5592TIP3   OH238334   1.234   3.102   0.051 -0.1714  0.7256 -0.1220
 5592TIP3    H138335   1.315   3.056   0.076  0.8785  1.2123 -2.3592
 5592TIP3    H238336   1.198   3.050  -0.020 -1.2087  1.1489  0.0799
 5593TIP3   OH238337   1.152   4.205   7.858 -0.1136 -0.3892 -0.4815
 5593TIP3    H138338   1.097   4.140   7.814 -0.6354 -1.6922  1.9114
 5593TIP3    H238339   1.222   4.224   7.795 -1.0530 -1.7583 -2.0157
 5594TIP3   OH238340   2.403   5.828   0.307  0.1890 -0.3229 -0.4642
 5594TIP3    H138341   2.397   5.736   0.281  2.3388 -0.1439 -1.8376
 5594TIP3    H238342   2.331   5.840   0.368 -1.3340 -2.4136 -1.7142
 5595TIP3   OH238343   4.441   0.077   0.784  0.6976 -0.4413 -0.2657
 5595TIP3    H138344   4.437  -0.019   0.785  1.9768 -0.5125  0.6017
 5595TIP3    H238345   4.416   0.101   0.695 -0.3012 -1.5347 -0.3146
 5596TIP3   OH238346   0.570   2.859   0.878 -0.0422  0.3491  0.4248
 5596TIP3    H138347   0.659   2.848   0.847 -1.0348 -1.3282 -2.1594
 5596TIP3    H238348   0.578   2.867   0.973  2.7871 -0.2832  0.3105
 5597TIP3   OH238349   2.101   4.459   0.093  0.2612  0.3299  0.1319
 5597TIP3    H138350   2.192   4.430   0.092  0.3502  0.6067 -0.6716
 5597TIP3    H238351   2.057   4.400   0.031  0.3371  1.5305 -1.1138
 5598TIP3   OH238352   0.381   1.477   1.431  0.6216  0.1393 -0.5377
 5598TIP3    H138353   0.356   1.452   1.342  0.6815 -0.1111 -0.4845
 5598TIP3    H238354   0.452   1.540   1.419 -0.2153  1.0850 -0.7018
 5599TIP3   OH238355   4.426   4.554   8.056 -0.1199  0.0046  0.6565
 5599TIP3    H138356   4.398   4.462   8.059 -0.0189 -0.0064  1.8644
 5599TIP3    H238357   4.504   4.554   8.002 -1.4074 -0.2426 -1.3181
 5600TIP3   OH238358   3.859   0.686   8.505  0.4451 -0.3942  0.1130
 5600TIP3    H138359   3.886   0.704   8.415 -1.4015 -1.6353 -0.7478
 5600TIP3    H238360   3.768   0.714   8.509  0.4685 -0.4595  1.5888
 5601TIP3   OH238361   5.882   0.700   1.327  0.1124 -0.4791 -0.1147
 5601TIP3    H138362   5.928   0.657   1.255 -0.0469 -1.6034  0.4241
 5601TIP3    H238363   5.937   0.774   1.350 -0.4695  0.6798 -2.2089
 5602TIP3   OH238364   1.696   4.008   7.547 -0.3039 -0.5012  0.7141
 5602TIP3    H138365   1.720   4.017   7.455  0.0191 -1.6003  0.6744
 5602TIP3    H238366   1.606   3.976   7.545 -0.2755 -0.5847  0.7810
 5603TIP3   OH238367   1.280   0.072   7.996  0.5643 -0.5022  0.2427
 5603TIP3    H138368   1.307   0.079   7.905  0.2015 -3.0936 -0.1630
 5603TIP3    H238369   1.255  -0.020   8.006 -2.8529  0.4273  1.9869
 5604TIP3   OH238370   4.167   0.723   7.106  0.2859  0.6422  0.1784
 5604TIP3    H138371   4.154   0.642   7.056 -0.3070  0.6430  0.3181
 5604TIP3    H238372   4.169   0.695   7.197 -2.1214  0.9804  0.4021
 5605TIP3   OH238373   1.331   3.674   7.796 -0.3327  0.2838  0.2783
 5605TIP3    H138374   1.311   3.686   7.889  0.7458 -0.8649  0.6804
 5605TIP3    H238375   1.298   3.587   7.775 -0.3709  0.4476 -0.3754
 5606TIP3   OH238376   2.517   2.557   1.308  0.5031 -0.0439  0.7921
 5606TIP3    H138377   2.533   2.462   1.312 -0.7966 -0.3120  0.0271
 5606TIP3    H238378   2.593   2.591   1.260  0.8016 -0.7413  0.7481
 5607TIP3   OH238379   4.620   2.446   1.270  0.1046 -0.7591 -0.3494
 5607TIP3    H138380   4.577   2.526   1.241 -0.8894 -1.3645 -0.5834
 5607TIP3    H238381   4.712   2.457   1.244 -0.5081 -0.8198 -2.7918
 5608TIP3   OH238382   3.331   2.367   0.167 -0.6583  0.1529  0.5215
 5608TIP3    H138383   3.356   2.437   0.106 -1.0245  1.6107  1.9748
 5608TIP3    H238384   3.414   2.327   0.192 -0.4086  0.3061 -0.0438
 5609TIP3   OH238385   4.577   2.550   7.902  0.6786 -0.5963  0.1789
 5609TIP3    H138386   4.508   2.617   7.910  0.7365 -0.6647  1.3421
 5609TIP3    H238387   4.533   2.468   7.920  0.2191 -1.1656 -2.8778
 5610TIP3   OH238388   4.563   6.133   1.413  0.2932 -0.2103  0.4885
 5610TIP3    H138389   4.511   6.179   1.347  1.5203  0.9465  0.2731
 5610TIP3    H238390   4.636   6.096   1.364  1.2014  0.6335  1.1659
 5611TIP3   OH238391   1.244   0.908   6.874 -0.1770 -0.5609 -0.2734
 5611TIP3    H138392   1.285   0.990   6.901  1.7747 -2.1914  2.0896
 5611TIP3    H238393   1.315   0.858   6.834 -0.8170 -1.8936  0.2058
 5612TIP3   OH238394   5.352   0.943   1.315 -0.3990 -0.0396 -0.2298
 5612TIP3    H138395   5.393   0.860   1.291  0.6638 -0.1310  1.6836
 5612TIP3    H238396   5.264   0.939   1.277  0.4870 -0.9454 -2.2794
 5613TIP3   OH238397   2.034   6.362   7.133 -0.1207 -0.5224  0.1965
 5613TIP3    H138398   2.020   6.453   7.106  0.3092 -0.5627 -0.1615
 5613TIP3    H238399   2.032   6.312   7.052 -0.6516 -0.8775  0.4199
 5614TIP3   OH238400   4.489   5.202   0.126  0.2291 -0.3470 -0.4251
 5614TIP3    H138401   4.408   5.151   0.118  0.0670  0.0556 -1.6953
 5614TIP3    H238402   4.545   5.170   0.055  0.1674  1.1109 -1.1831
 5615TIP3   OH238403   0.069   1.255   1.029  0.1126  0.3545 -0.1307
 5615TIP3    H138404   0.022   1.246   1.111  0.4181 -0.9893 -0.0833
 5615TIP3    H238405   0.155   1.290   1.054  0.2106 -0.0681  0.1257
 5616TIP3   OH238406   2.020   6.230   8.061  0.5796 -0.1485 -0.2827
 5616TIP3    H138407   1.974   6.305   8.024  0.2952  0.0858  0.5392
 5616TIP3    H238408   2.098   6.267   8.101  1.3375 -0.5048 -1.3725
 5617TIP3   OH238409   0.419   6.284   7.349 -0.7345 -0.4842  0.4511
 5617TIP3    H138410   0.333   6.310   7.383 -0.9247 -1.7951  1.0309
 5617TIP3    H238411   0.478   6.355   7.375 -1.5025  0.0885  0.6593
 5618TIP3   OH238412   0.575   2.981   6.635 -0.0224  0.5143  0.0106
 5618TIP3    H138413   0.554   2.896   6.671  0.2705  0.3680 -0.1535
 5618TIP3    H238414   0.512   2.994   6.564 -1.3530  1.3205  1.3107
 5619TIP3   OH238415   0.694   2.075   2.039  0.7619 -0.0156 -0.3373
 5619TIP3    H138416   0.723   1.998   1.991 -0.3169 -0.8372  0.2919
 5619TIP3    H238417   0.676   2.044   2.127  0.7975  1.0634  0.0681
 5620TIP3   OH238418   5.247   2.908   7.123  0.4030  0.3178  0.4389
 5620TIP3    H138419   5.258   2.813   7.130  1.1612  0.5047  2.9306
 5620TIP3    H238420   5.329   2.943   7.158 -0.6339  1.8747  1.4060
 5621TIP3   OH238421   4.747   2.467   1.012 -0.1392 -0.7814 -0.7672
 5621TIP3    H138422   4.788   2.450   0.927  1.2811  0.6302 -0.4140
 5621TIP3    H238423   4.654   2.480   0.991  0.1696 -0.5413 -2.0935
 5622TIP3   OH238424   3.669   5.165   2.996 -0.4039 -0.0695  0.3361
 5622TIP3    H138425   3.575   5.175   2.976  0.0128  0.0796 -1.7939
 5622TIP3    H238426   3.712   5.221   2.932  1.1599 -0.1963  1.2509
 5623TIP3   OH238427   3.876   6.366   1.001 -0.6198  0.3823  0.5595
 5623TIP3    H138428   3.781   6.355   1.010 -0.7402  0.4079 -0.5277
 5623TIP3    H238429   3.906   6.286   0.958  0.0458 -0.1523  1.9577
 5624TIP3   OH238430   5.453   0.816   0.345 -0.1802  0.1545  0.0008
 5624TIP3    H138431   5.358   0.811   0.335 -0.6427  1.5793  2.6518
 5624TIP3    H238432   5.481   0.882   0.282 -1.1022  0.4301 -0.1338
 5625TIP3   OH238433   2.128   1.345   7.513 -0.0076 -0.1311  0.0629
 5625TIP3    H138434   2.060   1.373   7.574  0.5564  0.4267  0.4500
 5625TIP3    H238435   2.210   1.361   7.560  0.3703 -2.7074  0.4464
 5626TIP3   OH238436   5.980   5.163   0.033  0.4533  0.3432 -0.5729
 5626TIP3    H138437   6.074   5.178   0.025  0.5362  0.4677  0.4778
 5626TIP3    H238438   5.940   5.249   0.016  0.7491  1.1590  2.2634
 5627TIP3   OH238439   0.438   5.730   1.448  0.0125 -0.3955 -0.5136
 5627TIP3    H138440   0.497   5.763   1.380  0.7598 -1.0484 -0.1890
 5627TIP3    H238441   0.494   5.712   1.523 -0.8300  0.4726  0.3488
 5628TIP3   OH238442   6.159   4.789   0.758  0.1938  0.0716 -0.6406
 5628TIP3    H138443   6.231   4.798   0.696  1.4899 -0.2768  0.7366
 5628TIP3    H238444   6.201   4.757   0.838 -1.1254  2.0974  0.9479
 5629TIP3   OH238445   6.635   1.281   2.443  0.3961  0.6351 -0.1245
 5629TIP3    H138446   6.642   1.189   2.469  1.2258  0.7834  0.2203
 5629TIP3    H238447   6.652   1.330   2.523 -0.6932  1.1007 -0.1582
 5630TIP3   OH238448   1.725   1.443   0.031 -0.5280  0.3383 -0.1230
 5630TIP3    H138449   1.727   1.539   0.040  0.0227  0.1925  1.5262
 5630TIP3    H238450   1.808   1.421  -0.011 -0.0893  0.4834  0.6603
 5631TIP3   OH238451   2.948   1.306   8.128  0.5239  0.1780 -0.1255
 5631TIP3    H138452   2.877   1.289   8.066 -2.1852  3.4026  1.7437
 5631TIP3    H238453   2.979   1.219   8.154 -0.3034 -1.2983 -3.6006
 5632TIP3   OH238454   5.845   4.180   1.020  0.2840  0.7664  0.3577
 5632TIP3    H138455   5.779   4.245   1.042 -0.4147 -0.1265  1.0135
 5632TIP3    H238456   5.884   4.156   1.105 -1.0608 -1.2806  0.4895
 5633TIP3   OH238457   4.331   5.258   1.264 -0.0130 -0.3748 -0.4133
 5633TIP3    H138458   4.245   5.236   1.300  1.2692 -1.5738  2.3092
 5633TIP3    H238459   4.326   5.235   1.171 -3.0134  0.9913 -0.6716
 5634TIP3   OH238460   3.392   4.691   8.532 -0.2631 -0.2220  0.1494
 5634TIP3    H138461   3.451   4.762   8.506  0.5488 -0.1774  1.9964
 5634TIP3    H238462   3.308   4.715   8.493 -0.0966  1.9303  0.9647
 5635TIP3   OH238463   1.627   5.525   8.107  0.1760 -0.0490 -0.1212
 5635TIP3    H138464   1.685   5.575   8.165  0.1889  0.7909 -0.8387
 5635TIP3    H238465   1.543   5.571   8.112  0.4145  0.5729 -1.4346
 5636TIP3   OH238466   5.162   1.762   6.637 -0.0643 -0.1277 -0.4206
 5636TIP3    H138467   5.144   1.728   6.725  2.3126  1.5188  0.8161
 5636TIP3    H238468   5.158   1.684   6.581 -0.5606 -1.4254  1.3106
 5637TIP3   OH238469   4.969   5.048   1.608 -0.2551 -0.0490 -0.4148
 5637TIP3    H138470   5.017   4.969   1.634 -0.4980 -0.3931 -0.9913
 5637TIP3    H238471   4.882   5.036   1.645  0.2370  0.8283  1.0970
 5638TIP3   OH238472   3.815   0.079   2.437  0.1917 -0.5593  0.3767
 5638TIP3    H138473   3.896   0.125   2.459 -0.2187  0.1025  0.5534
 5638TIP3    H238474   3.832   0.037   2.353  1.3933 -2.1242  1.3545
 5639TIP3   OH238475   5.527   0.129   1.939 -0.5210 -0.3581 -0.7042
 5639TIP3    H138476   5.517   0.050   1.992 -0.0307  0.5881  0.8816
 5639TIP3    H238477   5.438   0.162   1.927 -0.5004  1.0756  2.2694
 5640TIP3   OH238478   2.277   2.318   8.283  0.1486 -0.8399  0.5380
 5640TIP3    H138479   2.283   2.305   8.377 -0.7733  1.1156  0.9129
 5640TIP3    H238480   2.358   2.363   8.259  1.5716 -3.4990 -0.1144
 5641TIP3   OH238481   4.652   2.106   7.464 -0.6203  0.3047  0.0450
 5641TIP3    H138482   4.612   2.191   7.448 -0.2433  0.3454 -0.7383
 5641TIP3    H238483   4.578   2.045   7.465 -0.9822  0.7337  1.4593
 5642TIP3   OH238484   3.012   0.793   1.488 -0.0154  0.4754  0.1188
 5642TIP3    H138485   2.921   0.772   1.512  0.2196 -0.3477  0.3249
 5642TIP3    H238486   3.045   0.844   1.563  0.3758 -1.1590  1.1107
 5643TIP3   OH238487   2.768   0.706   1.582 -0.0497  0.5252 -0.0403
 5643TIP3    H138488   2.731   0.726   1.496  1.9295 -0.7139 -1.2432
 5643TIP3    H238489   2.716   0.632   1.614 -0.1389  0.3273 -0.6362
 5644TIP3   OH238490   2.992   4.273   1.945  0.4168 -0.0144 -0.0936
 5644TIP3    H138491   3.057   4.294   2.012 -0.2235 -1.1719  0.9519
 5644TIP3    H238492   2.985   4.177   1.948 -0.1483 -0.0298 -1.3378
 5645TIP3   OH238493   3.607   4.194   8.159 -0.1406 -0.3397  0.1807
 5645TIP3    H138494   3.670   4.185   8.231  0.7714 -2.9299 -0.8125
 5645TIP3    H238495   3.570   4.281   8.170  0.8238 -0.2012  3.0696
 5646TIP3   OH238496   5.808   0.236   1.311 -0.3805  0.4942  0.6334
 5646TIP3    H138497   5.873   0.207   1.375  0.0697  2.8461  1.3314
 5646TIP3    H238498   5.859   0.259   1.233 -0.7249 -0.4828  0.0998
 5647TIP3   OH238499   1.758   0.443   7.557 -0.0615  0.1212 -0.5658
 5647TIP3    H138500   1.839   0.489   7.534 -0.6988  0.8146 -1.4854
 5647TIP3    H238501   1.722   0.413   7.473 -1.2678  0.6931 -0.2782
 5648TIP3   OH238502   1.425   1.540   1.228  0.3953  0.1163 -0.2112
 5648TIP3    H138503   1.346   1.519   1.277  0.6599  0.5357  0.4002
 5648TIP3    H238504   1.398   1.606   1.164 -0.1947 -1.2061 -1.3944
 5649TIP3   OH238505   5.152   6.764   7.501 -0.2630 -0.2129  0.3454
 5649TIP3    H138506   5.141   6.729   7.589 -0.6230 -0.2720  0.2782
 5649TIP3    H238507   5.129   6.692   7.443 -0.9605  0.1116  0.2074
 5650TIP3   OH238508   6.470   5.340   6.851 -0.1021 -0.3647 -0.4359
 5650TIP3    H138509   6.504   5.411   6.797  0.6662 -1.5406 -1.5512
 5650TIP3    H238510   6.548   5.305   6.895 -0.3347 -1.0382 -0.5478
 5651TIP3   OH238511   1.251   1.281   8.116  0.1957  0.0518  0.7503
 5651TIP3    H138512   1.266   1.196   8.073  0.3854 -0.2088  1.3233
 5651TIP3    H238513   1.325   1.335   8.088 -0.2970  0.2601 -0.1818
 5652TIP3   OH238514   3.030   0.835   1.926 -0.2929  0.7557  0.0895
 5652TIP3    H138515   2.980   0.903   1.881 -1.9743 -0.0774  0.6047
 5652TIP3    H238516   2.972   0.805   1.996  0.9184 -0.3232  0.6650
 5653TIP3   OH238517   6.203   3.866   2.498  0.3506 -0.1154 -0.3890
 5653TIP3    H138518   6.135   3.882   2.432 -0.9726  1.8274  1.2891
 5653TIP3    H238519   6.155   3.836   2.575  1.4547  0.5784  0.6123
 5654TIP3   OH238520   3.551   4.206   0.781  0.4821  0.2804 -0.0872
 5654TIP3    H138521   3.527   4.127   0.733  1.4666  0.1706 -0.4102
 5654TIP3    H238522   3.481   4.217   0.846 -0.8795  0.4333 -1.5175
 5655TIP3   OH238523   6.185   4.639   8.423  0.0768 -0.2222 -0.3745
 5655TIP3    H138524   6.156   4.710   8.365 -1.6799 -0.0669  0.6280
 5655TIP3    H238525   6.120   4.570   8.411  1.7067 -1.6832 -1.2537
 5656TIP3   OH238526   3.500   5.324   8.568  0.1964 -0.2308 -0.0228
 5656TIP3    H138527   3.584   5.285   8.543  0.3700  0.0467  0.1186
 5656TIP3    H238528   3.500   5.409   8.526 -1.2557 -1.3048 -2.4039
 5657TIP3   OH238529   5.759   4.593   7.695  0.8301 -0.0254  0.6562
 5657TIP3    H138530   5.771   4.562   7.605  1.5507  1.4496  0.2130
 5657TIP3    H238531   5.684   4.542   7.728  0.0389 -0.0428 -1.0483
 5658TIP3   OH238532   6.035   6.404   8.796 -0.2387 -0.2741  0.3351
 5658TIP3    H138533   5.958   6.348   8.791 -0.5222  0.0749  0.7946
 5658TIP3    H238534   6.047   6.421   8.889  0.7289 -0.7856  0.3239
 5659TIP3   OH238535   5.336   1.560   0.229 -0.1277  0.3112 -0.1869
 5659TIP3    H138536   5.290   1.643   0.241 -1.3453 -0.4790  0.7993
 5659TIP3    H238537   5.300   1.524   0.148  0.0260  0.4913 -0.3371
 5660TIP3   OH238538   1.915   3.925   2.359  0.3485  0.5058 -0.0893
 5660TIP3    H138539   1.921   3.992   2.292  0.5380  0.3913 -0.1883
 5660TIP3    H238540   1.964   3.960   2.434  0.6014  0.4034 -0.2046
 5661TIP3   OH238541   4.170   2.443   7.795  0.4969  0.4188 -0.5552
 5661TIP3    H138542   4.180   2.407   7.883  1.3283  0.2725 -0.7058
 5661TIP3    H238543   4.239   2.508   7.787  0.4494  0.4085 -1.1156
 5662TIP3   OH238544   4.822   2.120   0.842 -0.1604 -0.0128 -0.1464
 5662TIP3    H138545   4.866   2.174   0.777  2.0034 -0.8422  0.5415
 5662TIP3    H238546   4.736   2.102   0.804  0.2325  1.3044 -1.7769
 5663TIP3   OH238547   4.362   1.259   1.113 -0.2548  0.1283  0.2641
 5663TIP3    H138548   4.367   1.237   1.205  0.0507 -1.7319 -0.1649
 5663TIP3    H238549   4.292   1.205   1.078  0.1110  0.2735 -0.7343
 5664TIP3   OH238550   0.668   1.892   1.065 -0.3595  0.1643  0.0114
 5664TIP3    H138551   0.616   1.814   1.046 -1.8428  1.2646 -0.6848
 5664TIP3    H238552   0.723   1.904   0.988 -0.0984 -0.2310  0.1392
 5665TIP3   OH238553   4.280   3.620   1.090 -0.2140 -0.2867  0.1366
 5665TIP3    H138554   4.210   3.593   1.150 -1.2414  1.8753  0.0001
 5665TIP3    H238555   4.357   3.630   1.146  0.0119 -2.5199  0.3174
 5666TIP3   OH238556   1.345   5.205   8.239 -0.1611  0.1801  0.5402
 5666TIP3    H138557   1.342   5.110   8.248  0.7890  0.1382  0.4812
 5666TIP3    H238558   1.348   5.237   8.329  2.8061  0.0061  0.5854
 5667TIP3   OH238559   3.666   0.021   0.594 -0.0527  0.7307  0.0290
 5667TIP3    H138560   3.608  -0.028   0.536  1.5841  0.0173 -1.1089
 5667TIP3    H238561   3.699   0.093   0.539  0.3673  0.9404  0.5407
 5668TIP3   OH238562   3.109   2.364   7.357  0.6141  0.1713  0.1000
 5668TIP3    H138563   3.104   2.455   7.384 -3.2978  0.5251 -1.1813
 5668TIP3    H238564   3.054   2.317   7.420  0.8533 -0.9334 -0.4836
 5669TIP3   OH238565   5.657   1.082   2.009  0.1688  0.4718 -0.2886
 5669TIP3    H138566   5.647   1.171   2.044  0.7255  0.5800 -0.3917
 5669TIP3    H238567   5.608   1.084   1.927 -0.7084  0.3668  0.2089
 5670TIP3   OH238568   3.181   5.193   8.153 -0.0187  0.1950  0.2137
 5670TIP3    H138569   3.189   5.275   8.201 -0.5605 -0.1991  0.9924
 5670TIP3    H238570   3.262   5.187   8.101  0.6872  0.5202  1.2420
 5671TIP3   OH238571   5.129   6.654   7.763 -0.2186 -0.1133 -0.5174
 5671TIP3    H138572   5.160   6.648   7.854  0.4056 -0.6178 -0.7522
 5671TIP3    H238573   5.094   6.567   7.745  0.4351 -0.2771 -1.0276
 5672TIP3   OH238574   5.362   0.688   8.541 -0.4216 -0.0721  0.7266
 5672TIP3    H138575   5.422   0.623   8.577 -0.0648  0.8608  1.9097
 5672TIP3    H238576   5.284   0.639   8.518  0.6381 -1.2551 -0.5130
 5673TIP3   OH238577   6.080   2.458   0.793  0.7400  0.2626  0.4791
 5673TIP3    H138578   6.136   2.438   0.718  2.3808 -0.2223  1.7759
 5673TIP3    H238579   6.064   2.373   0.834 -1.4259  0.3149 -0.1301
 5674TIP3   OH238580   4.613   5.776   8.508  0.1173  0.0589  0.0687
 5674TIP3    H138581   4.545   5.794   8.444 -1.9908 -1.8999  1.5705
 5674TIP3    H238582   4.685   5.739   8.458 -1.2050 -0.8125 -1.2695
 5675TIP3   OH238583   2.059   4.164   0.385 -0.2175  0.4723  0.0313
 5675TIP3    H138584   2.074   4.180   0.478 -1.3080  1.2259  0.0891
 5675TIP3    H238585   2.138   4.199   0.342  0.6979 -0.6916  0.7147
 5676TIP3   OH238586   5.824   5.568   1.704 -0.1084  0.4464 -0.1221
 5676TIP3    H138587   5.842   5.551   1.797 -1.1859  0.6625  0.1314
 5676TIP3    H238588   5.745   5.622   1.704  0.5326  1.4230 -1.1234
 5677TIP3   OH238589   1.394   6.163   1.722  0.9465 -0.0522  0.2366
 5677TIP3    H138590   1.393   6.216   1.801 -2.4122  2.0001 -0.9497
 5677TIP3    H238591   1.382   6.073   1.754 -0.4599  0.7218  2.0885
 5678TIP3   OH238592   1.570   6.089   7.953 -0.3175 -0.2498  0.3772
 5678TIP3    H138593   1.636   6.103   8.022 -0.0162  0.1836  0.0053
 5678TIP3    H238594   1.531   6.005   7.975  0.8414 -0.8592  0.2328
 5679TIP3   OH238595   3.217   5.834   1.517  0.6288 -0.1081  0.4502
 5679TIP3    H138596   3.194   5.924   1.540  0.8015 -0.3378  1.6243
 5679TIP3    H238597   3.310   5.827   1.538  1.3217  0.1660 -2.1518
 5680TIP3   OH238598   6.358   3.371   0.395  0.4359  0.4863  0.2561
 5680TIP3    H138599   6.353   3.367   0.490  0.2506  0.0271  0.2260
 5680TIP3    H238600   6.336   3.283   0.365  2.3555  0.0914 -0.1409
 5681TIP3   OH238601   6.330   4.352   7.753  0.3115 -0.9097 -0.7033
 5681TIP3    H138602   6.416   4.311   7.767  0.5519  0.0719  1.0057
 5681TIP3    H238603   6.279   4.326   7.829 -0.5066 -0.4467 -1.0888
 5682TIP3   OH238604   0.636   5.763   2.467 -0.2056  0.1422  0.0160
 5682TIP3    H138605   0.596   5.678   2.486  2.0429 -1.2235 -0.9181
 5682TIP3    H238606   0.587   5.825   2.519 -2.2037 -1.6709  0.4225
 5683TIP3   OH238607   1.842   4.226   7.326  0.0121  0.6121  0.6379
 5683TIP3    H138608   1.860   4.319   7.339 -0.3161  0.8124 -0.2616
 5683TIP3    H238609   1.799   4.222   7.241  1.2627 -0.5135  0.0265
 5684TIP3   OH238610   0.780   2.666   0.005 -0.0624  0.4229 -0.3767
 5684TIP3    H138611   0.780   2.755  -0.030  0.7695  0.0804 -1.2823
 5684TIP3    H238612   0.865   2.630  -0.020 -1.2091 -1.3881 -2.0060
 5685TIP3   OH238613   6.577   5.910   7.271  0.3340  0.8959  0.2508
 5685TIP3    H138614   6.586   5.880   7.361 -3.8693  0.3883  0.7066
 5685TIP3    H238615   6.539   5.998   7.278 -1.4309  0.2965 -0.8858
 5686TIP3   OH238616   1.032   1.115   7.996 -0.1746 -0.1166 -0.2056
 5686TIP3    H138617   1.060   1.170   7.923 -2.3739  0.7841 -0.4668
 5686TIP3    H238618   0.942   1.091   7.973 -0.0354 -1.9714  1.0062
 5687TIP3   OH238619   1.081   1.076   8.594 -0.2753  0.3629  0.5017
 5687TIP3    H138620   1.139   1.112   8.527 -0.9670  0.1682 -0.2196
 5687TIP3    H238621   1.001   1.054   8.547 -0.6176 -0.1882  1.3149
 5688TIP3   OH238622   4.380   1.661   1.426 -0.1886 -0.3585 -0.4323
 5688TIP3    H138623   4.326   1.582   1.425 -1.8600  0.7194  0.1186
 5688TIP3    H238624   4.326   1.727   1.382  0.9232  0.6405 -0.3449
 5689TIP3   OH238625   4.514   4.987   2.283  0.3379  0.3151  0.2829
 5689TIP3    H138626   4.604   5.014   2.301  0.4967 -0.0705  0.0739
 5689TIP3    H238627   4.460   5.061   2.313  0.8455  1.5849 -1.7199
 5690TIP3   OH238628   1.327   6.327   8.794 -0.1678  0.0782  0.7210
 5690TIP3    H138629   1.379   6.359   8.868 -0.2747  0.0800  0.7962
 5690TIP3    H238630   1.377   6.253   8.759  1.6098  2.1031 -1.3020
 5691TIP3   OH238631   3.654   2.262   7.227 -0.0944 -0.2290  0.5303
 5691TIP3    H138632   3.649   2.181   7.176 -0.7827  0.6989 -0.9303
 5691TIP3    H238633   3.576   2.260   7.283 -0.6213 -0.1431 -0.1898
 5692TIP3   OH238634   3.240   2.689   6.716 -0.4927 -0.0239  0.1800
 5692TIP3    H138635   3.178   2.751   6.752 -1.0816  0.4011 -1.4675
 5692TIP3    H238636   3.295   2.741   6.657  3.2491  0.1795  3.4380
 5693TIP3   OH238637   2.117   3.027   1.050  0.2103  0.2005 -0.2816
 5693TIP3    H138638   2.153   3.098   0.997  0.7072  0.9061  0.9601
 5693TIP3    H238639   2.050   2.987   0.995  0.2237  1.3569 -1.1699
 5694TIP3   OH238640   6.792   6.613   7.815 -0.4125  0.5304 -0.8841
 5694TIP3    H138641   6.820   6.705   7.821 -0.1224  0.3446  1.4532
 5694TIP3    H238642   6.867   6.568   7.776  0.9330  0.7663  1.2588
 5695TIP3   OH238643   1.549   3.701   1.400 -0.1846  0.0696  0.1069
 5695TIP3    H138644   1.589   3.749   1.471 -0.5381  0.6746 -0.0991
 5695TIP3    H238645   1.620   3.649   1.362  0.1544  0.2973  0.4383
 5696TIP3   OH238646   3.163   3.405   2.107 -0.4659 -0.0630 -0.2605
 5696TIP3    H138647   3.074   3.427   2.079 -1.0863 -0.2951  1.4285
 5696TIP3    H238648   3.202   3.363   2.031 -2.1383 -0.8518 -0.7408
 5697TIP3   OH238649   6.005   0.443   1.176  0.3863  0.2815 -0.0046
 5697TIP3    H138650   6.059   0.417   1.102  3.7118 -0.7961  2.5452
 5697TIP3    H238651   6.067   0.473   1.242 -2.3118  0.6724  2.5952
 5698TIP3   OH238652   1.331   1.456   7.699  0.0119 -0.6230  0.1043
 5698TIP3    H138653   1.409   1.504   7.726 -0.5320 -0.0725  0.7448
 5698TIP3    H238654   1.295   1.505   7.625 -0.1576 -0.4342  0.3110
 5699TIP3   OH238655   3.180   2.735   1.826 -0.2880 -0.7727  0.3664
 5699TIP3    H138656   3.085   2.748   1.836 -0.1637  2.7028 -1.3177
 5699TIP3    H238657   3.215   2.740   1.915 -1.6034 -1.1092  0.9238
 5700TIP3   OH238658   0.109   6.093   1.421 -0.4018  0.2886 -0.5694
 5700TIP3    H138659   0.056   6.038   1.480 -1.9191  0.6531 -1.5365
 5700TIP3    H238660   0.045   6.136   1.365  0.7233  3.1163  0.1743
 5701TIP3   OH238661   1.913   4.601   1.270 -0.4668  0.3241 -0.1606
 5701TIP3    H138662   2.008   4.615   1.265 -0.4158 -0.2684 -1.1852
 5701TIP3    H238663   1.897   4.578   1.362  0.1473  1.9059  0.3827
 5702TIP3   OH238664   0.800   5.422   2.353 -0.1282 -0.2035  0.2241
 5702TIP3    H138665   0.704   5.430   2.353 -0.3362 -2.2016  0.3687
 5702TIP3    H238666   0.827   5.457   2.438 -0.8954 -1.0348  0.8301
 5703TIP3   OH238667   2.196   3.308   8.045 -0.2169 -0.7437  0.4572
 5703TIP3    H138668   2.235   3.238   8.096  0.3945 -1.1838 -0.5834
 5703TIP3    H238669   2.234   3.298   7.957  1.1063  1.8318  0.6407
 5704TIP3   OH238670   4.951   1.608   0.270 -0.4908  0.0585 -0.3870
 5704TIP3    H138671   5.019   1.663   0.309 -1.1564  0.1498  0.6822
 5704TIP3    H238672   4.871   1.659   0.280 -1.0762 -0.9621  0.3692
 5705TIP3   OH238673   1.893   3.348   7.224  0.1551 -0.1905  0.2989
 5705TIP3    H138674   1.894   3.415   7.155  0.7148  0.7728  1.2009
 5705TIP3    H238675   1.954   3.281   7.194 -0.4906 -0.3603 -0.6708
 5706TIP3   OH238676   3.631   3.918   0.703  0.1763 -0.8778  0.1358
 5706TIP3    H138677   3.658   3.928   0.612  0.3324 -0.4293  0.2316
 5706TIP3    H238678   3.561   3.852   0.700 -0.6012 -0.0490 -0.4479
 5707TIP3   OH238679   0.238   4.033   1.855 -0.0033  0.1445  0.3771
 5707TIP3    H138680   0.327   4.067   1.857  0.4789 -0.9227 -0.9823
 5707TIP3    H238681   0.242   3.950   1.902 -0.3446  0.2317  0.5641
 5708TIP3   OH238682   5.931   3.789   2.025 -0.0160 -0.2128  0.7409
 5708TIP3    H138683   5.986   3.717   2.056 -0.1588 -0.2624  0.8845
 5708TIP3    H238684   5.848   3.777   2.072  0.0678  0.2276  1.0054
 5709TIP3   OH238685   4.359   5.486   0.329 -0.6010  0.7041  0.0541
 5709TIP3    H138686   4.442   5.458   0.290 -0.0850  1.7696  0.3422
 5709TIP3    H238687   4.302   5.505   0.254 -1.3971 -2.1321 -0.1892
 5710TIP3   OH238688   4.469   5.605   0.601  0.4334 -0.0253  0.2911
 5710TIP3    H138689   4.552   5.588   0.557 -0.0415 -1.6289 -0.0593
 5710TIP3    H238690   4.488   5.677   0.661  1.8323  0.2545 -0.4323
 5711TIP3   OH238691   5.013   1.895   0.391  0.2007 -0.0167  0.1126
 5711TIP3    H138692   4.936   1.917   0.444 -0.0124  0.8646 -0.5291
 5711TIP3    H238693   5.073   1.852   0.451 -1.1476 -1.5425  0.4353
 5712TIP3   OH238694   2.709   3.606   1.362 -0.6988  0.5783  0.4802
 5712TIP3    H138695   2.650   3.648   1.298  0.6809 -0.3120 -1.4862
 5712TIP3    H238696   2.701   3.512   1.343 -0.3276  0.2896  1.7039
 5713TIP3   OH238697   6.159   5.430   8.113 -0.0455 -0.7813  0.0729
 5713TIP3    H138698   6.080   5.436   8.166 -0.1975 -1.6082 -0.0478
 5713TIP3    H238699   6.167   5.516   8.072 -0.6152 -0.5393  0.4644
 5714TIP3   OH238700   3.185   3.799   8.372 -0.7555 -0.1024  0.4471
 5714TIP3    H138701   3.132   3.794   8.452 -1.8712 -0.6446 -0.3014
 5714TIP3    H238702   3.182   3.710   8.336 -0.3960  0.1709 -0.2846
 5715TIP3   OH238703   5.953   6.677   8.733 -0.3320 -0.1508 -0.0542
 5715TIP3    H138704   5.963   6.582   8.730  2.5738  0.0833 -0.9130
 5715TIP3    H238705   5.907   6.693   8.816 -0.8546 -2.2831  0.1399
 5716TIP3   OH238706   3.447   2.521   8.744  0.2309 -0.0260  0.2711
 5716TIP3    H138707   3.463   2.463   8.669 -1.7422  1.5448 -1.5167
 5716TIP3    H238708   3.472   2.608   8.712 -0.4992  0.6519  1.4866
 5717TIP3   OH238709   0.537   4.092   1.863 -0.3628 -0.0063  0.0142
 5717TIP3    H138710   0.569   4.182   1.865  2.3899 -0.8999 -0.1411
 5717TIP3    H238711   0.578   4.051   1.939  0.3575 -1.7075 -1.2408
 5718TIP3   OH238712   2.760   0.775   2.432 -0.6157 -0.4372 -0.4367
 5718TIP3    H138713   2.696   0.704   2.438  0.4238 -1.3676 -0.2051
 5718TIP3    H238714   2.712   0.852   2.464 -1.2075 -1.3910  1.1281
 5719TIP3   OH238715   6.119   1.431   0.492  0.4119 -0.1256  0.0825
 5719TIP3    H138716   6.062   1.497   0.451  0.4300 -1.2138 -1.8416
 5719TIP3    H238717   6.203   1.475   0.504 -0.0166  0.6515  0.2837
 5720TIP3   OH238718   6.120   0.749   7.550 -0.3744 -0.7162  0.1004
 5720TIP3    H138719   6.082   0.737   7.463 -0.1766  1.0188 -0.2510
 5720TIP3    H238720   6.054   0.716   7.610 -0.6349 -1.6662 -0.6774
 5721TIP3   OH238721   2.727   5.717   7.630 -0.3014  0.0565  0.0639
 5721TIP3    H138722   2.727   5.771   7.710  0.5003 -0.5775  0.5100
 5721TIP3    H238723   2.709   5.628   7.661  0.8461 -0.3373 -0.3464
 5722TIP3   OH238724   5.122   2.274   8.586 -0.2333  0.1436 -0.3879
 5722TIP3    H138725   5.097   2.264   8.678 -2.4294 -2.0114 -1.1103
 5722TIP3    H238726   5.166   2.192   8.565 -0.6515  0.1917 -1.5070
 5723TIP3   OH238727   3.128   1.404   7.906  0.6998  0.1082  0.0343
 5723TIP3    H138728   3.089   1.491   7.893  1.4586  0.5378  0.6073
 5723TIP3    H238729   3.106   1.382   7.997  0.0842 -0.5241 -0.2597
 5724TIP3   OH238730   3.301   2.317   1.247 -0.1041 -0.2158 -0.1074
 5724TIP3    H138731   3.382   2.266   1.244 -1.1681 -1.9408 -2.3822
 5724TIP3    H238732   3.311   2.380   1.176 -0.8262 -0.5722 -0.5303
 5725TIP3   OH238733   6.019   6.028   1.683  0.2833 -0.1398  0.2405
 5725TIP3    H138734   5.969   6.083   1.622 -0.5145 -0.8161  0.2651
 5725TIP3    H238735   6.099   6.006   1.636  1.1279  1.9105  0.6278
 5726TIP3   OH238736   3.273   3.895   8.798  0.2891 -0.1334  0.5449
 5726TIP3    H138737   3.304   3.983   8.777 -1.0448  0.2799  0.2092
 5726TIP3    H238738   3.274   3.891   8.893  0.5053  0.1857  0.5579
 5727TIP3   OH238739   3.733   1.303   2.127  0.2575 -0.0896  0.0729
 5727TIP3    H138740   3.770   1.303   2.038 -0.0015 -1.7721 -0.0706
 5727TIP3    H238741   3.660   1.365   2.122  0.3306 -0.0562 -0.8619
 5728TIP3   OH238742   3.566   0.161   2.543  0.9609 -0.0558  0.1625
 5728TIP3    H138743   3.535   0.101   2.611 -0.5037  2.1345  1.5308
 5728TIP3    H238744   3.661   0.150   2.543  0.8169 -1.5361  1.1501
 5729TIP3   OH238745   3.840   4.503   8.255  0.2478 -0.6174  0.6412
 5729TIP3    H138746   3.892   4.561   8.200 -2.2691  0.4186 -0.7985
 5729TIP3    H238747   3.878   4.416   8.242  0.8433 -0.1016 -1.3181
 5730TIP3   OH238748   3.906   2.354   6.704  0.5273  0.2938 -0.1496
 5730TIP3    H138749   3.993   2.391   6.716  0.8876 -0.8104  0.7608
 5730TIP3    H238750   3.849   2.430   6.696  1.3220  1.0454  1.0808
 5731TIP3   OH238751   3.373   1.260   8.743 -0.0541 -0.1806  0.0562
 5731TIP3    H138752   3.348   1.169   8.723  1.1198 -0.9982  2.0269
 5731TIP3    H238753   3.312   1.287   8.811 -0.1854  0.4007 -0.2911
 5732TIP3   OH238754   5.368   6.356   8.453 -0.9830  0.2228 -0.0598
 5732TIP3    H138755   5.288   6.306   8.471  0.1582 -1.4098  0.7881
 5732TIP3    H238756   5.427   6.332   8.524  1.0999 -0.5471 -1.9170
 5733TIP3   OH238757   2.549   2.980   0.832 -0.4529  0.3192  0.0432
 5733TIP3    H138758   2.463   3.001   0.796 -1.1467  2.1644  2.5332
 5733TIP3    H238759   2.533   2.905   0.890 -0.1495 -0.0666 -0.3687
 5734TIP3   OH238760   5.396   6.566   2.116 -0.1217  0.1184 -0.0654
 5734TIP3    H138761   5.425   6.656   2.134  1.1828 -0.3283  0.1717
 5734TIP3    H238762   5.402   6.522   2.201 -2.3432  0.1922  0.1895
 5735TIP3   OH238763   5.466   3.857   7.457  0.2165  0.4059  0.2501
 5735TIP3    H138764   5.404   3.930   7.445 -0.3838 -0.1626 -0.1883
 5735TIP3    H238765   5.547   3.899   7.486 -0.0937  1.2588 -0.0821
 5736TIP3   OH238766   2.169   6.685   8.759  0.3224  0.6400 -0.0254
 5736TIP3    H138767   2.204   6.766   8.723  0.3287  1.4697  1.7415
 5736TIP3    H238768   2.075   6.691   8.747  0.3924  0.4623 -0.7263
 5737TIP3   OH238769   5.983   0.097   8.172 -0.5683 -0.8366  0.3127
 5737TIP3    H138770   5.990   0.167   8.237  2.4253 -0.1728 -0.5462
 5737TIP3    H238771   6.060   0.042   8.186  0.2496 -0.6405 -2.5784
 5738TIP3   OH238772   0.726   2.859   7.457  0.6256 -0.2993  0.1794
 5738TIP3    H138773   0.635   2.881   7.439  0.6369 -0.5042 -0.1355
 5738TIP3    H238774   0.767   2.852   7.371  1.2293  0.9839  0.3261
 5739TIP3   OH238775   3.423   4.658   1.300  0.2993 -0.3823 -0.3078
 5739TIP3    H138776   3.500   4.646   1.244  1.2287  0.4879  0.7341
 5739TIP3    H238777   3.384   4.739   1.268  1.5119  0.7769  0.9945
 5740TIP3   OH238778   5.822   1.797   2.350  0.0108  0.3779 -0.2217
 5740TIP3    H138779   5.878   1.865   2.387 -1.0867 -0.0577  2.4967
 5740TIP3    H238780   5.881   1.742   2.299  1.9092  0.5666  1.6149
 5741TIP3   OH238781   0.598   1.212   1.603 -0.1123  0.3986  0.2740
 5741TIP3    H138782   0.504   1.226   1.617 -0.5238 -1.0491 -0.8631
 5741TIP3    H238783   0.639   1.241   1.685 -1.5264  1.0987  0.7657
 5742TIP3   OH238784   6.543   2.076   2.449 -0.2580  0.4047  0.4166
 5742TIP3    H138785   6.471   2.070   2.512  0.0230  0.0766  0.7100
 5742TIP3    H238786   6.503   2.113   2.370 -0.9625 -0.6856  0.2534
 5743TIP3   OH238787   3.678   1.158   7.635 -0.1811  0.6839 -0.0214
 5743TIP3    H138788   3.693   1.063   7.637 -0.2459  0.6519 -0.6671
 5743TIP3    H238789   3.658   1.177   7.543 -0.5275  1.2700  0.1679
 5744TIP3   OH238790   6.746   0.071   1.849  0.5062 -0.2467  0.3875
 5744TIP3    H138791   6.713   0.106   1.766  1.9179  0.2501  0.0050
 5744TIP3    H238792   6.823   0.020   1.825  0.6868 -0.4523  1.3570
 5745TIP3   OH238793   2.882   1.332   0.215  0.5306 -0.0510  0.1096
 5745TIP3    H138794   2.883   1.426   0.234 -1.2646  0.1975 -0.8257
 5745TIP3    H238795   2.797   1.301   0.247 -0.1944 -0.7087 -2.2215
 5746TIP3   OH238796   4.998   1.075   7.948 -0.1515 -0.0292 -0.1530
 5746TIP3    H138797   5.092   1.073   7.969  0.2306 -0.2776 -1.7165
 5746TIP3    H238798   4.960   1.007   8.003  0.5843  0.0974  0.5336
 5747TIP3   OH238799   4.389   0.994   2.771 -0.3709  0.0170  0.1624
 5747TIP3    H138800   4.294   0.994   2.775 -0.5225 -2.5983 -1.0670
 5747TIP3    H238801   4.416   0.928   2.834  0.5155 -0.4018 -0.6229
 5748TIP3   OH238802   3.694   2.315   1.900 -0.7765 -0.3312  0.3033
 5748TIP3    H138803   3.611   2.298   1.855 -0.6711 -1.7018  0.5887
 5748TIP3    H238804   3.672   2.380   1.967 -1.3864  0.1061 -0.3039
 5749TIP3   OH238805   2.067   6.135   1.905  0.2708  0.2921 -0.2144
 5749TIP3    H138806   1.989   6.190   1.893  0.3692  0.0976 -2.1303
 5749TIP3    H238807   2.036   6.046   1.893  0.7332  0.1977 -0.7533
 5750TIP3   OH238808   3.848   5.958   1.358 -0.5903 -0.1644 -0.4361
 5750TIP3    H138809   3.769   6.011   1.355 -1.2489 -1.0552  0.5257
 5750TIP3    H238810   3.851   5.924   1.447  1.1445  0.2258 -0.3071
 5751TIP3   OH238811   5.923   6.668   0.632  0.2063 -0.0193  0.1800
 5751TIP3    H138812   5.889   6.751   0.665  0.5279  0.3767 -0.4808
 5751TIP3    H238813   5.959   6.689   0.546  0.1434 -0.8750 -0.0589
 5752TIP3   OH238814   2.199   0.221   7.613 -0.1313 -0.0056 -0.4543
 5752TIP3    H138815   2.168   0.220   7.703 -1.6684 -1.4091 -0.9594
 5752TIP3    H238816   2.215   0.130   7.591  2.9110  0.4968 -0.7928
 5753TIP3   OH238817   4.537   4.863   2.959 -0.2689 -0.1662 -0.0986
 5753TIP3    H138818   4.513   4.771   2.967  1.0653 -0.6063 -0.8678
 5753TIP3    H238819   4.583   4.883   3.041 -1.3104  0.0819  0.4456
 5754TIP3   OH238820   5.959   0.389   7.908  0.5403  0.2883  0.1899
 5754TIP3    H138821   6.042   0.433   7.927  1.6358 -1.7375  0.4617
 5754TIP3    H238822   5.918   0.378   7.994  0.7282 -0.0226  0.2448
 5755TIP3   OH238823   3.009   3.780   2.039 -0.1001 -0.4121 -0.4714
 5755TIP3    H138824   2.982   3.786   2.130 -0.3923 -1.4337 -0.4722
 5755TIP3    H238825   2.999   3.687   2.017  2.9571 -0.7887 -0.6233
 5756TIP3   OH238826   4.507   6.778   1.457  0.6617  0.4373  0.1859
 5756TIP3    H138827   4.475   6.774   1.548 -0.4236  2.8101 -0.0089
 5756TIP3    H238828   4.534   6.689   1.437  0.3587 -0.2819  2.6384
 5757TIP3   OH238829   4.810   4.693   7.957 -0.4362 -0.7582  0.3893
 5757TIP3    H138830   4.731   4.698   7.904 -1.3155 -1.3788  1.5790
 5757TIP3    H238831   4.837   4.602   7.951 -0.3541 -0.7585  0.7214
 5758TIP3   OH238832   2.553   6.215   7.932  0.3823  0.1742  0.5918
 5758TIP3    H138833   2.480   6.154   7.920 -0.3202  1.1067 -0.0429
 5758TIP3    H238834   2.532   6.260   8.014  0.6772 -0.1132  0.8317
 5759TIP3   OH238835   0.627   3.208   2.470  0.3497  0.2193  0.0125
 5759TIP3    H138836   0.602   3.298   2.449 -0.6080  0.2409  1.1165
 5759TIP3    H238837   0.668   3.175   2.391 -0.1931  1.3026 -0.7434
 5760TIP3   OH238838   0.491   0.953   1.599 -0.6373  0.2603 -0.1089
 5760TIP3    H138839   0.544   0.901   1.659 -1.1832  0.1022  0.2515
 5760TIP3    H238840   0.524   1.042   1.608  0.0514  0.0430 -0.4443
 5761TIP3   OH238841   6.186   1.788   8.645  0.0482  0.7440  0.5555
 5761TIP3    H138842   6.162   1.879   8.630 -1.1529  0.2203 -0.9963
 5761TIP3    H238843   6.107   1.749   8.684  0.2128  0.1511  0.3046
 5762TIP3   OH238844   1.623   1.772   7.590  0.0290  0.1004 -0.5560
 5762TIP3    H138845   1.624   1.710   7.517  0.8785 -0.0147 -0.4641
 5762TIP3    H238846   1.537   1.763   7.629  0.6628 -2.2151  0.4675
 5763TIP3   OH238847   5.607   1.044   1.721 -0.0940  0.1951  0.6933
 5763TIP3    H138848   5.688   1.035   1.672  0.5065  1.4000  1.4299
 5763TIP3    H238849   5.541   1.004   1.665  0.6911  0.8262 -0.7442
 5764TIP3   OH238850   3.756   3.102   3.272  0.9141  0.0819  0.4014
 5764TIP3    H138851   3.740   3.029   3.331  1.7212  0.6188  1.3332
 5764TIP3    H238852   3.844   3.086   3.238  0.6907  0.0915 -0.1764
 5765TIP3   OH238853   6.778   5.977   8.603  0.0497 -1.0242  0.3720
 5765TIP3    H138854   6.703   5.938   8.558 -1.3864  3.0828 -1.2707
 5765TIP3    H238855   6.845   5.983   8.535 -0.2534  0.4391  0.1638
 5766TIP3   OH238856   0.714   3.940   7.510  0.5020 -0.1306 -0.9683
 5766TIP3    H138857   0.665   3.887   7.447  0.3030 -1.5084  0.2620
 5766TIP3    H238858   0.753   4.010   7.458 -0.5673 -0.5508 -2.4169
 5767TIP3   OH238859   4.721   0.771   8.248  0.4249 -0.1086  0.2910
 5767TIP3    H138860   4.723   0.776   8.344 -1.1508 -0.3976  0.3617
 5767TIP3    H238861   4.730   0.862   8.219 -2.7658  0.5113  0.8658
 5768TIP3   OH238862   3.768   2.006   7.798  0.0930  0.2104  0.0344
 5768TIP3    H138863   3.776   2.026   7.705  0.8373 -0.6675 -0.0994
 5768TIP3    H238864   3.741   2.089   7.838 -4.1705 -0.2169 -1.4368
 5769TIP3   OH238865   5.856   5.099   7.426  0.1207  0.1549 -0.7664
 5769TIP3    H138866   5.882   5.007   7.432  1.5391  0.4688 -1.6238
 5769TIP3    H238867   5.937   5.146   7.410 -0.2417  1.8546  1.8653
 5770TIP3   OH238868   1.783   2.506   0.745  0.1731  0.7155 -0.7035
 5770TIP3    H138869   1.845   2.527   0.814 -0.1235  2.8313 -1.0114
 5770TIP3    H238870   1.833   2.517   0.664  0.1233 -0.3167 -0.8903
 5771TIP3   OH238871   4.557   5.512   8.244  0.6552  0.1498  0.2929
 5771TIP3    H138872   4.572   5.597   8.203 -2.6695  0.8525  0.2453
 5771TIP3    H238873   4.465   5.514   8.271  0.9816 -2.7105  2.0805
 5772TIP3   OH238874   3.328   4.823   7.997 -0.2177 -0.1571 -0.9569
 5772TIP3    H138875   3.306   4.779   8.079 -0.6014 -0.7210 -1.3526
 5772TIP3    H238876   3.245   4.830   7.950  0.4405 -3.1875 -2.9042
 5773TIP3   OH238877   0.933   4.337   7.353  0.0312  1.1173  0.3959
 5773TIP3    H138878   0.861   4.320   7.413  1.0570 -1.2160  1.0646
 5773TIP3    H238879   0.891   4.365   7.271 -1.7363 -1.4118  0.3493
 5774TIP3   OH238880   2.330   4.879   1.443 -0.3315  0.4032  0.2280
 5774TIP3    H138881   2.378   4.804   1.407  0.4010  0.5929  0.7955
 5774TIP3    H238882   2.304   4.851   1.531 -1.5279  0.1965 -0.1688
 5775TIP3   OH238883   6.666   3.095   8.017 -0.5083  0.2012 -0.5735
 5775TIP3    H138884   6.725   3.033   8.059  0.7391 -0.1059 -2.6841
 5775TIP3    H238885   6.590   3.043   7.991 -1.6222  0.5224  1.7848
 5776TIP3   OH238886   1.131   2.608   7.774  0.3132  0.8929 -0.2115
 5776TIP3    H138887   1.063   2.619   7.841 -0.3693 -1.0896 -0.5202
 5776TIP3    H238888   1.212   2.602   7.823 -0.2658 -1.3802  0.5766
 5777TIP3   OH238889   5.182   6.142   1.688  0.4860  0.5235 -0.2542
 5777TIP3    H138890   5.243   6.072   1.710  0.2837  0.1759 -0.7847
 5777TIP3    H238891   5.123   6.103   1.625 -1.4222  0.2998  1.5715
 5778TIP3   OH238892   6.302   4.914   0.346 -0.2930  0.2584 -0.1758
 5778TIP3    H138893   6.364   4.868   0.402 -0.1452  1.4503  0.6609
 5778TIP3    H238894   6.347   4.994   0.320 -1.7653  1.6190  1.2202
 5779TIP3   OH238895   2.146   4.486   1.618 -0.3711 -0.1106 -0.0881
 5779TIP3    H138896   2.073   4.482   1.680  0.6734 -0.2653  1.1957
 5779TIP3    H238897   2.129   4.563   1.565 -1.3546 -0.0340  0.3230
 5780TIP3   OH238898   2.226   3.224   8.552  0.3159  0.0111  0.2217
 5780TIP3    H138899   2.278   3.304   8.545 -0.4691  0.7144  1.7946
 5780TIP3    H238900   2.179   3.234   8.635  1.4546 -2.8242  1.3420
 5781TIP3   OH238901   3.656   3.652   0.910  0.1845  0.0566  0.2161
 5781TIP3    H138902   3.692   3.595   0.979 -0.9596 -0.0082  0.7907
 5781TIP3    H238903   3.730   3.704   0.881  0.5001  0.8834  2.3084
 5782TIP3   OH238904   4.779   5.788   0.199  0.2787 -0.3837 -0.2500
 5782TIP3    H138905   4.758   5.881   0.203 -1.0190 -0.5801 -1.5968
 5782TIP3    H238906   4.771   5.766   0.106  1.7101 -1.6031 -0.1210
 5783TIP3   OH238907   0.604   3.235   1.004 -0.1952  0.2614  0.1432
 5783TIP3    H138908   0.613   3.294   0.929  0.2795 -0.6408 -0.5325
 5783TIP3    H238909   0.676   3.173   0.993 -1.0662 -0.8249  0.4797
 5784TIP3   OH238910   0.770   3.250   1.949  0.4017  0.3397  0.4578
 5784TIP3    H138911   0.815   3.286   1.873 -2.5978  1.4591 -0.9416
 5784TIP3    H238912   0.697   3.200   1.913 -0.6678  0.2186  2.5949
 5785TIP3   OH238913   0.892   6.682   1.299 -0.2579 -0.3892 -0.0086
 5785TIP3    H138914   0.846   6.752   1.345  2.1484  1.9919 -0.9687
 5785TIP3    H238915   0.926   6.625   1.368 -0.7379  0.4047  0.8908
 5786TIP3   OH238916   6.205   4.635   0.388  0.2441  0.0120  0.5768
 5786TIP3    H138917   6.240   4.687   0.460 -0.8968 -0.3702  1.4397
 5786TIP3    H238918   6.142   4.575   0.430  0.1129 -0.7366 -0.6372
 5787TIP3   OH238919   3.316   3.343   2.629  0.1859 -0.1407 -0.0096
 5787TIP3    H138920   3.404   3.331   2.594  0.5365  3.0539 -0.5542
 5787TIP3    H238921   3.258   3.336   2.552  0.1267 -0.7237  0.0874
 5788TIP3   OH238922   4.916   3.108   8.758 -0.4781  1.0935 -0.2832
 5788TIP3    H138923   4.933   3.144   8.845  1.6126 -1.2446  0.4035
 5788TIP3    H238924   5.000   3.112   8.714 -0.6252 -1.0424 -0.8439
 5789TIP3   OH238925   0.307   0.193   6.803  0.0765 -0.4659  0.0350
 5789TIP3    H138926   0.240   0.178   6.736 -0.1974  1.4801 -0.1830
 5789TIP3    H238927   0.259   0.226   6.878  0.6810  0.0024  0.2227
 5790TIP3   OH238928   0.668   6.665   0.396  0.1314  0.1326  0.4393
 5790TIP3    H138929   0.670   6.629   0.485 -1.8161 -1.2473 -0.0214
 5790TIP3    H238930   0.634   6.754   0.406  2.7055  1.1261  1.3255
 5791TIP3   OH238931   0.012   6.372   8.741  0.9476 -0.7992 -0.9588
 5791TIP3    H138932   0.039   6.457   8.707 -1.7370  0.3206 -0.5262
 5791TIP3    H238933   0.058   6.363   8.824  1.3119  0.1999 -1.0431
 5792TIP3   OH238934   0.817   2.929   0.806  0.2442 -0.3411 -0.1097
 5792TIP3    H138935   0.831   3.002   0.745  1.2345 -0.1760  0.2940
 5792TIP3    H238936   0.820   2.969   0.892 -2.7239 -0.3150  0.0850
 5793TIP3   OH238937   0.722   3.064   1.760 -0.2760 -0.0903  0.1545
 5793TIP3    H138938   0.749   3.127   1.694  4.4160  0.1104  1.9188
 5793TIP3    H238939   0.743   2.979   1.723  0.4847 -0.1061  0.6101
 5794TIP3   OH238940   5.706   6.720   7.138  0.1537 -0.0157  0.0049
 5794TIP3    H138941   5.743   6.632   7.142 -1.0826 -0.5306  0.6536
 5794TIP3    H238942   5.652   6.728   7.217  1.7671  2.0520  0.9962
 5795TIP3   OH238943   5.167   2.920   8.795 -0.1647  0.0096  0.2849
 5795TIP3    H138944   5.260   2.910   8.815 -0.0563  0.7308  0.1938
 5795TIP3    H238945   5.133   2.972   8.868 -0.5257 -0.3595  0.3829
 5796TIP3   OH238946   4.132   4.030   7.440  0.2903 -0.3503 -0.6190
 5796TIP3    H138947   4.129   4.093   7.511  1.3245 -0.9373 -0.0380
 5796TIP3    H238948   4.187   4.071   7.373  0.6046 -0.4476 -0.4225
 5797TIP3   OH238949   5.546   1.028   7.316  0.5554 -0.2046  0.1317
 5797TIP3    H138950   5.638   1.053   7.313  0.2170  1.0793 -0.6180
 5797TIP3    H238951   5.499   1.111   7.312 -0.6572 -0.9230 -2.1995
 5798TIP3   OH238952   0.581   4.260   2.707 -0.1057  0.2400 -0.0628
 5798TIP3    H138953   0.640   4.239   2.779  2.6636  2.6142 -1.4532
 5798TIP3    H238954   0.570   4.178   2.660  3.0384 -0.1199 -0.3384
 5799TIP3   OH238955   6.327   4.047   8.122  0.0845  0.0989 -0.3354
 5799TIP3    H138956   6.342   4.091   8.205  0.4514 -0.1769 -0.2512
 5799TIP3    H238957   6.412   4.007   8.100 -0.5365 -1.6392  0.2210
 5800TIP3   OH238958   2.166   2.276   1.734 -0.2558  0.1130 -0.3216
 5800TIP3    H138959   2.167   2.185   1.704 -1.6460  0.4581 -1.5473
 5800TIP3    H238960   2.252   2.310   1.712  0.4282 -0.9998  0.5146
 5801TIP3   OH238961   0.376   6.573   0.906 -0.0347  0.2700 -0.0008
 5801TIP3    H138962   0.372   6.525   0.989 -1.6045 -0.3261 -0.3901
 5801TIP3    H238963   0.314   6.529   0.849  1.8359 -0.0655 -1.9313
 5802TIP3   OH238964   4.468   5.381   8.655  0.2800 -0.2785 -0.1536
 5802TIP3    H138965   4.487   5.320   8.727 -0.1113 -1.5378 -1.0922
 5802TIP3    H238966   4.513   5.344   8.579  2.6019  2.2180 -0.1495
 5803TIP3   OH238967   3.607   3.468   1.096  0.4318  0.1791 -0.1987
 5803TIP3    H138968   3.553   3.508   1.028 -1.0491  0.5095  1.1160
 5803TIP3    H238969   3.596   3.374   1.083  1.0125  0.2236 -1.0591
 5804TIP3   OH238970   5.920   1.811   0.495 -0.0737 -0.2841 -0.1845
 5804TIP3    H138971   5.988   1.875   0.518 -0.5634  1.2337 -2.5695
 5804TIP3    H238972   5.964   1.751   0.434 -0.4216 -0.2988 -0.4233
 5805TIP3   OH238973   1.357   3.933   2.581  0.3067  0.4540 -0.3519
 5805TIP3    H138974   1.445   3.908   2.609  0.2383 -0.8177 -1.1971
 5805TIP3    H238975   1.300   3.870   2.624 -0.1498  0.9106 -0.2780
 5806TIP3   OH238976   4.345   3.035   2.532 -0.2356  0.1088  0.0515
 5806TIP3    H138977   4.328   2.942   2.517 -0.1237  0.0619  0.2247
 5806TIP3    H238978   4.425   3.038   2.584  0.1934  0.3264 -0.6078
 5807TIP3   OH238979   3.733   4.954   6.874 -0.6039 -0.6857 -0.1161
 5807TIP3    H138980   3.737   4.969   6.968 -0.3482 -1.2062 -0.0423
 5807TIP3    H238981   3.816   4.989   6.841 -0.0655 -1.7923  0.0391
 5808TIP3   OH238982   5.442   0.876   1.583  0.1139  0.8264  0.2088
 5808TIP3    H138983   5.516   0.819   1.565  0.1876  0.3557  1.7988
 5808TIP3    H238984   5.418   0.912   1.498  1.8711  0.6440 -0.4147
 5809TIP3   OH238985   3.421   6.664   1.512 -0.0190  0.0560 -0.0093
 5809TIP3    H138986   3.349   6.602   1.497  0.6060 -0.5280 -0.6776
 5809TIP3    H238987   3.484   6.615   1.565  0.1651  0.3583  0.0536
 5810TIP3   OH238988   1.650   1.802   1.487  0.2437  1.0743  0.1664
 5810TIP3    H138989   1.567   1.844   1.509 -0.0443  0.9581 -0.6606
 5810TIP3    H238990   1.692   1.863   1.426  1.3091  1.6922  1.4623
 5811TIP3   OH238991   6.025   4.950   7.825 -0.0243 -0.5454 -0.2683
 5811TIP3    H138992   5.930   4.936   7.818 -0.5853  1.3754  2.0992
 5811TIP3    H238993   6.056   4.943   7.735 -2.7141  0.5560 -1.4048
 5812TIP3   OH238994   5.361   2.013   8.314  0.2059 -0.0390 -0.0565
 5812TIP3    H138995   5.409   2.064   8.380  0.1108  1.0998 -0.8470
 5812TIP3    H238996   5.340   1.931   8.359 -0.2930  0.8974  1.5206
 5813TIP3   OH238997   3.777   0.816   8.114 -0.0657  0.5576 -0.5560
 5813TIP3    H138998   3.819   0.764   8.045 -0.2862  0.8900 -0.9434
 5813TIP3    H238999   3.845   0.826   8.181 -0.2886 -1.0079 -0.0360
 5814TIP3   OH239000   3.330   4.273   0.587 -0.1659 -0.6499 -0.5265
 5814TIP3    H139001   3.341   4.310   0.675 -1.5165 -0.4249 -0.4403
 5814TIP3    H239002   3.419   4.273   0.551  0.0227  2.1028 -0.3156
 5815TIP3   OH239003   5.442   0.158   2.762  0.2908 -0.2555 -0.3352
 5815TIP3    H139004   5.444   0.188   2.853 -0.6769 -3.3507  0.8177
 5815TIP3    H239005   5.526   0.113   2.750 -0.3726 -1.5218 -0.3183
 5816TIP3   OH239006   1.713   1.938   0.348  0.0077  0.0561  0.1512
 5816TIP3    H139007   1.800   1.899   0.336 -0.4122 -1.0835  0.6211
 5816TIP3    H239008   1.730   2.025   0.383  1.0120  0.6412 -1.6619
 5817TIP3   OH239009   4.380   5.199   8.163 -0.4751 -0.2163  0.1408
 5817TIP3    H139010   4.389   5.105   8.146  0.9066 -0.3714  1.5138
 5817TIP3    H239011   4.390   5.240   8.077  1.3555 -1.2030 -0.1679
 5818TIP3   OH239012   5.373   1.590   0.538 -0.6169  0.0100  0.3852
 5818TIP3    H139013   5.292   1.636   0.561 -0.6500 -0.3014  0.9140
 5818TIP3    H239014   5.371   1.585   0.442 -1.5066 -0.5031  0.4141
 5819TIP3   OH239015   3.819   2.850   1.259  0.3660  0.3270  0.3044
 5819TIP3    H139016   3.848   2.937   1.286  0.7275 -0.0260  1.0790
 5819TIP3    H239017   3.855   2.791   1.325 -1.7295 -0.1846  1.0775
 5820TIP3   OH239018   5.479   1.781   8.680 -0.0331 -0.6487  0.0197
 5820TIP3    H139019   5.534   1.823   8.747  0.1282  1.4417 -1.3496
 5820TIP3    H239020   5.467   1.692   8.713  0.1250  0.2370  2.7869
 5821TIP3   OH239021   3.839   2.062   2.196  0.0614  0.3646  0.6088
 5821TIP3    H139022   3.856   2.057   2.290  0.3463 -0.2882  0.5290
 5821TIP3    H239023   3.779   1.989   2.179  0.8434 -0.1799  0.1130
 5822TIP3   OH239024   1.880   6.100   0.237 -0.1277  0.2308 -0.0546
 5822TIP3    H139025   1.831   6.070   0.313 -0.7647  0.3104 -0.4248
 5822TIP3    H239026   1.963   6.132   0.272 -0.1076 -0.4390  0.5203
 5823TIP3   OH239027   0.116   6.336   1.565 -0.3915  0.0245  0.4748
 5823TIP3    H139028   0.141   6.369   1.651 -0.9827  1.4198  0.1306
 5823TIP3    H239029   0.147   6.245   1.565  0.8347  0.4094  1.6317
 5824TIP3   OH239030   5.082   4.211   3.291 -0.4912  0.2865  0.1020
 5824TIP3    H139031   5.167   4.254   3.282  0.5669 -1.3880  1.5889
 5824TIP3    H239032   5.103   4.120   3.312 -2.6280 -0.9727 -2.5776
 5825TIP3   OH239033   6.102   6.683   0.410  0.0420  0.2080 -0.0444
 5825TIP3    H139034   6.109   6.684   0.314  1.8250 -0.6513  0.0375
 5825TIP3    H239035   6.184   6.722   0.440 -0.5146  0.4844  1.1508
 5826TIP3   OH239036   3.888   3.378   0.623 -0.5127  0.2206 -0.4754
 5826TIP3    H139037   3.870   3.300   0.570  0.1733  0.8077 -1.6136
 5826TIP3    H239038   3.983   3.378   0.635 -0.4756  0.9900 -0.6830
 5827TIP3   OH239039   0.469   0.834   1.080 -0.3224 -0.4798  0.2246
 5827TIP3    H139040   0.427   0.870   1.158 -0.5209 -2.7580  1.2432
 5827TIP3    H239041   0.396   0.800   1.027 -0.3851  2.6322 -1.9513
 5828TIP3   OH239042   2.078   6.022   1.238  0.0061  0.0434  0.1762
 5828TIP3    H139043   1.998   6.064   1.205 -0.5180 -0.4687  0.7739
 5828TIP3    H239044   2.054   5.931   1.251  0.1599  0.2282  2.0166
 5829TIP3   OH239045   0.245   6.447   0.112  0.0342  0.8789 -0.8333
 5829TIP3    H139046   0.187   6.523   0.109 -0.1833  0.9635  2.2111
 5829TIP3    H239047   0.312   6.471   0.177  0.8975 -0.9104 -1.0079
 5830TIP3   OH239048   5.611   6.095   7.896 -0.4246 -0.7829 -0.3700
 5830TIP3    H139049   5.627   6.030   7.964  1.5293  0.7824  0.7897
 5830TIP3    H239050   5.585   6.174   7.944  1.2993  0.4499 -1.3405
 5831TIP3   OH239051   5.740   5.246   1.276 -0.4225  1.1686 -0.4967
 5831TIP3    H139052   5.751   5.293   1.194  1.6904 -0.4906 -1.2736
 5831TIP3    H239053   5.813   5.275   1.331  0.1979 -0.2224 -0.5383
 5832TIP3   OH239054   3.241   6.087   1.605  0.4794  0.4986 -0.1625
 5832TIP3    H139055   3.258   6.058   1.694 -0.0814 -2.3343 -0.8960
 5832TIP3    H239056   3.183   6.163   1.615  0.1813  0.0555  1.8618
 5833TIP3   OH239057   0.248   3.879   8.044 -0.5016 -0.1819  0.1272
 5833TIP3    H139058   0.192   3.893   8.120  2.1288  0.1118  2.1957
 5833TIP3    H239059   0.329   3.843   8.081 -0.3497 -3.5615 -2.9874
 5834TIP3   OH239060   1.767   5.422   8.475 -0.3321 -0.1004 -0.2861
 5834TIP3    H139061   1.715   5.384   8.404 -2.8578 -0.3439  1.5271
 5834TIP3    H239062   1.799   5.347   8.524 -1.7946  0.0196  0.9173
 5835TIP3   OH239063   1.627   3.462   0.046 -0.4205 -0.2982  0.1453
 5835TIP3    H139064   1.551   3.405   0.036  0.5649 -1.4541 -1.1421
 5835TIP3    H239065   1.627   3.484   0.139 -1.2707 -1.8018  0.5432
 5836TIP3   OH239066   3.586   1.177   1.777  0.6420 -0.3856 -0.3560
 5836TIP3    H139067   3.549   1.089   1.779 -0.5831  0.1180  0.8903
 5836TIP3    H239068   3.674   1.166   1.814 -0.8383 -0.5952  3.5304
 5837TIP3   OH239069   4.127   3.003   0.556  0.1049 -0.0735  0.2885
 5837TIP3    H139070   4.108   2.917   0.518 -0.4222  0.5940 -1.0090
 5837TIP3    H239071   4.131   3.062   0.481 -1.2672  1.3581  1.2717
 5838TIP3   OH239072   6.168   0.591   0.497 -0.3657 -0.1000  0.6123
 5838TIP3    H139073   6.084   0.552   0.521 -1.0480  0.6996 -0.3654
 5838TIP3    H239074   6.162   0.682   0.528  0.3132 -0.1542  0.9133
 5839TIP3   OH239075   2.580   1.596   0.300 -0.6842 -0.0625  0.6571
 5839TIP3    H139076   2.544   1.543   0.372 -1.5756  1.2474  1.2153
 5839TIP3    H239077   2.674   1.580   0.304 -0.9655 -2.1317  0.3540
 5840TIP3   OH239078   1.882   1.307   1.065  0.9781  0.3975  0.5916
 5840TIP3    H139079   1.810   1.307   1.001 -0.0810 -2.3734  1.6589
 5840TIP3    H239080   1.844   1.344   1.144  1.1386  0.1899  0.7654
 5841TIP3   OH239081   2.389   5.867   8.732 -0.0681  0.6012 -0.6515
 5841TIP3    H139082   2.446   5.833   8.663  1.6649 -1.2823  1.5535
 5841TIP3    H239083   2.329   5.795   8.751  1.6380 -0.2534  1.9718
 5842TIP3   OH239084   2.562   1.707   1.005 -0.0832  0.5547  0.5918
 5842TIP3    H139085   2.589   1.677   1.091  0.3965  0.6501  0.4791
 5842TIP3    H239086   2.596   1.796   0.999 -1.6157  1.2061  0.9865
 5843TIP3   OH239087   1.449   0.261   8.644  0.4197 -0.3519 -0.2433
 5843TIP3    H139088   1.371   0.219   8.607  2.2999 -4.3758 -0.1045
 5843TIP3    H239089   1.429   0.272   8.737  0.2646 -2.2462 -0.0104
 5844TIP3   OH239090   4.051   4.829   8.712  0.5968  0.8335  0.5038
 5844TIP3    H139091   3.962   4.854   8.687  0.2237 -0.8784 -0.0252
 5844TIP3    H239092   4.059   4.857   8.803 -0.8490  0.1289  0.8769
 5845TIP3   OH239093   4.369   1.453   2.441  0.1776 -0.0079  0.1018
 5845TIP3    H139094   4.454   1.492   2.462  0.5592 -0.8318  0.1515
 5845TIP3    H239095   4.374   1.364   2.477 -0.1092 -0.6110 -1.2679
 5846TIP3   OH239096   4.105   4.575   2.355 -0.1981 -0.2952 -0.0956
 5846TIP3    H139097   4.184   4.623   2.329 -0.6625  0.4956 -0.0700
 5846TIP3    H239098   4.057   4.636   2.410 -0.9793 -0.6628 -0.3554
 5847TIP3   OH239099   4.209   2.882   0.974 -0.0102 -0.0253  0.4516
 5847TIP3    H139100   4.240   2.943   0.908 -1.3867  0.1218 -0.1085
 5847TIP3    H239101   4.174   2.808   0.924 -0.3123 -0.2962  1.0395
 5848TIP3   OH239102   2.613   4.441   1.635 -0.3717 -0.0721 -0.1533
 5848TIP3    H139103   2.578   4.363   1.593  0.3303 -0.0330 -0.8344
 5848TIP3    H239104   2.680   4.409   1.694 -0.3610 -0.0097 -0.1313
 5849TIP3   OH239105   6.519   0.800   8.488  0.3517  0.1271 -0.1709
 5849TIP3    H139106   6.497   0.707   8.496 -0.8824  0.4332  0.1279
 5849TIP3    H239107   6.614   0.801   8.474  0.4817 -1.1336  0.5214
 5850TIP3   OH239108   6.232   6.200   0.176 -0.6933 -0.5116 -0.0174
 5850TIP3    H139109   6.259   6.230   0.089 -0.9299  0.7806  0.3415
 5850TIP3    H239110   6.314   6.176   0.219 -0.3698  0.6176  0.0380
 5851TIP3   OH239111   0.557   2.178   0.994  0.0658 -0.2044 -0.3167
 5851TIP3    H139112   0.601   2.097   1.021  0.8722  0.9869  2.2555
 5851TIP3    H239113   0.544   2.226   1.075 -1.6956  1.6509 -1.6087
 5852TIP3   OH239114   1.339   2.451   2.137  0.5471  0.0014  0.5454
 5852TIP3    H139115   1.361   2.501   2.215 -1.0254 -1.3164  1.9099
 5852TIP3    H239116   1.244   2.457   2.130  0.4530 -1.6089 -0.0404
 5853TIP3   OH239117   4.798   6.314   2.343  0.7078 -0.2732  0.1716
 5853TIP3    H139118   4.827   6.350   2.426 -0.6389  1.8148 -0.1949
 5853TIP3    H239119   4.788   6.220   2.360  0.2551  0.1275  2.4288
 5854TIP3   OH239120   6.403   0.982   0.153  0.6374 -0.4926  0.3060
 5854TIP3    H139121   6.438   0.961   0.066  1.7316  0.8660  0.3712
 5854TIP3    H239122   6.416   0.902   0.204 -1.0970 -1.7121 -1.0562
 5855TIP3   OH239123   5.858   0.663   2.865 -0.2942  0.1736  0.6967
 5855TIP3    H139124   5.846   0.753   2.833  1.5235  0.7115  1.4148
 5855TIP3    H239125   5.855   0.609   2.786 -0.8973  0.8984  0.2018
 5856TIP3   OH239126   6.072   2.582   7.424 -0.6003 -0.3195  0.3423
 5856TIP3    H139127   5.992   2.633   7.434  1.0166  2.5408 -0.2593
 5856TIP3    H239128   6.071   2.555   7.332  0.0279  1.4549 -0.2204
 5857TIP3   OH239129   4.447   0.915   8.236 -0.2003 -0.7705  0.8384
 5857TIP3    H139130   4.480   1.005   8.233  1.0471 -1.1279  2.3659
 5857TIP3    H239131   4.525   0.860   8.231 -0.8303 -1.7323  1.1598
 5858TIP3   OH239132   5.426   3.603   7.405  0.1896  0.1047  0.5469
 5858TIP3    H139133   5.447   3.697   7.412 -1.9506  0.7902 -0.9769
 5858TIP3    H239134   5.339   3.602   7.365 -0.3031 -2.5537  1.5401
 5859TIP3   OH239135   3.779   0.286   1.337 -0.1447  0.9319  0.0563
 5859TIP3    H139136   3.693   0.277   1.379  0.4677 -0.9660  1.0144
 5859TIP3    H239137   3.836   0.319   1.406  0.4637 -0.4391  0.2497
 5860TIP3   OH239138   1.965   2.129   8.505 -0.6224 -0.3006  0.5903
 5860TIP3    H139139   1.962   2.202   8.444 -0.3419  0.8266  1.8854
 5860TIP3    H239140   2.058   2.105   8.508 -0.9128 -1.8611 -1.0960
 5861TIP3   OH239141   0.117   2.675   8.277 -0.1606  0.0338  0.4768
 5861TIP3    H139142   0.056   2.617   8.233 -0.6456  0.4058  0.6502
 5861TIP3    H239143   0.204   2.643   8.252 -0.3908  1.1792 -2.0304
 5862TIP3   OH239144   4.153   5.573   7.401  0.3750 -0.5307 -0.2073
 5862TIP3    H139145   4.236   5.616   7.422  0.4429  0.5215 -2.3313
 5862TIP3    H239146   4.101   5.642   7.359 -1.3627 -1.3253  0.5589
 5863TIP3   OH239147   0.395   6.160   7.773  0.1149 -0.0383 -0.1511
 5863TIP3    H139148   0.477   6.200   7.745  0.9587 -0.2616  1.8095
 5863TIP3    H239149   0.403   6.068   7.747 -0.6981  0.4412 -2.3089
 5864TIP3   OH239150   2.498   2.817   8.548  0.1113 -0.1491 -0.4631
 5864TIP3    H139151   2.486   2.908   8.574 -0.0456 -0.1473 -0.5373
 5864TIP3    H239152   2.591   2.799   8.561 -0.1146 -0.3948  0.8982
 5865TIP3   OH239153   6.700   5.106   7.502 -0.4907 -0.0628 -0.2681
 5865TIP3    H139154   6.615   5.134   7.470 -0.5165  0.7506  0.4473
 5865TIP3    H239155   6.680   5.052   7.578 -0.3720  0.3120  0.0338
 5866TIP3   OH239156   5.870   0.822   7.959  0.7552 -1.0182 -0.1013
 5866TIP3    H139157   5.834   0.866   7.881  1.4489  0.3855  0.3362
 5866TIP3    H239158   5.813   0.849   8.030  0.2072 -2.1924 -0.0690
 5867TIP3   OH239159   5.283   2.635   0.700  0.1877 -0.5528  0.6077
 5867TIP3    H139160   5.219   2.567   0.678  0.4265 -0.9756  1.1667
 5867TIP3    H239161   5.321   2.605   0.783  1.1516 -0.3482  0.2512
 5868TIP3   OH239162   0.824   6.201   1.898  0.3291  0.2379 -0.0987
 5868TIP3    H139163   0.911   6.174   1.927 -0.3773 -1.7632  0.3787
 5868TIP3    H239164   0.781   6.235   1.977  0.9183  2.0057 -0.5089
 5869TIP3   OH239165   3.840   4.954   3.076 -0.5463  0.1370  0.2662
 5869TIP3    H139166   3.791   4.891   3.023 -0.3939  0.4001 -0.1863
 5869TIP3    H239167   3.788   5.033   3.075  0.1567  0.6087 -0.7041
 5870TIP3   OH239168   1.779   1.376   6.998  0.5928  0.1108  0.1984
 5870TIP3    H139169   1.801   1.367   7.090  0.7852 -0.9042  0.0643
 5870TIP3    H239170   1.815   1.298   6.957 -0.5584 -0.0494 -0.5400
 5871TIP3   OH239171   3.945   6.014   2.253 -0.6822  0.0316  0.3214
 5871TIP3    H139172   4.017   5.959   2.281  0.1518  0.2875 -1.2218
 5871TIP3    H239173   3.928   6.072   2.327 -0.4712 -1.1791  1.3372
 5872TIP3   OH239174   0.934   3.340   1.392 -0.0342  0.4624  0.4303
 5872TIP3    H139175   0.996   3.285   1.344 -0.5316  1.7244 -1.8511
 5872TIP3    H239176   0.988   3.396   1.448  0.8100  0.6129 -0.5086
 5873TIP3   OH239177   1.929   4.771   7.152  0.4799 -0.1451 -0.0235
 5873TIP3    H139178   1.958   4.705   7.089 -1.4959 -0.2990 -0.8327
 5873TIP3    H239179   1.836   4.783   7.134 -0.1545 -0.0953  2.7876
 5874TIP3   OH239180   4.907   2.015   1.071  0.1440  0.1448 -0.2715
 5874TIP3    H139181   4.854   2.061   1.006  0.4771  0.0117 -0.6383
 5874TIP3    H239182   4.848   1.951   1.110  0.4027 -1.0384 -1.7196
 5875TIP3   OH239183   5.798   1.277   1.464  0.0086  0.2340  0.1014
 5875TIP3    H139184   5.744   1.197   1.461 -0.7684  0.7726 -1.0793
 5875TIP3    H239185   5.827   1.282   1.555  0.1790 -1.4598  0.1800
 5876TIP3   OH239186   4.704   2.772   7.834 -0.3594  0.0766  0.1603
 5876TIP3    H139187   4.761   2.754   7.760  2.0675 -1.4521  2.2448
 5876TIP3    H239188   4.665   2.688   7.856  0.1292  0.1673  1.4770
 5877TIP3   OH239189   4.143   5.455   0.883 -0.2682  0.2439 -0.1516
 5877TIP3    H139190   4.233   5.476   0.906 -0.3020  0.7797 -0.4905
 5877TIP3    H239191   4.142   5.456   0.787  0.2560 -3.5126 -0.3587
 5878TIP3   OH239192   5.016   2.894   7.272  0.2940  0.0743 -0.4316
 5878TIP3    H139193   5.066   2.923   7.196 -1.3725 -0.5704 -1.8544
 5878TIP3    H239194   5.022   2.799   7.271 -0.0751  0.0412 -0.0073
 5879TIP3   OH239195   3.563   5.367   1.776  0.3020  0.1953 -0.2082
 5879TIP3    H139196   3.566   5.284   1.728  2.1608  0.2036 -0.1802
 5879TIP3    H239197   3.598   5.431   1.715  0.6290  0.6101  0.4079
 5880TIP3   OH239198   3.315   2.890   7.268 -0.4570 -0.4990 -0.1216
 5880TIP3    H139199   3.334   2.860   7.179 -1.1946  0.7151 -0.7080
 5880TIP3    H239200   3.264   2.970   7.256  1.7156  1.2291  1.3682
 5881TIP3   OH239201   3.924   2.430   8.063 -0.0239  0.3451 -0.0155
 5881TIP3    H139202   3.978   2.509   8.059  0.2871  0.1800  0.8132
 5881TIP3    H239203   3.978   2.366   8.109 -0.0919 -0.5071 -1.0921
 5882TIP3   OH239204   5.912   4.803   1.029 -0.1016  0.6384  0.3611
 5882TIP3    H139205   5.876   4.885   0.997  0.5564  0.9356  0.3814
 5882TIP3    H239206   5.882   4.797   1.120 -0.9522  0.3860  0.0676
 5883TIP3   OH239207   0.200   6.451   7.479  0.3386 -0.5030  0.4201
 5883TIP3    H139208   0.233   6.465   7.568 -1.8590  0.7235  1.1336
 5883TIP3    H239209   0.147   6.529   7.461  1.7109 -0.1257 -2.4912
 5884TIP3   OH239210   3.623   1.260   0.564  0.0441 -0.1594  0.4793
 5884TIP3    H139211   3.530   1.248   0.544 -0.5345  2.1976  1.4906
 5884TIP3    H239212   3.633   1.225   0.652  0.1605 -0.5699  0.3042
 5885TIP3   OH239213   0.953   3.125   0.602  0.3010 -0.0427 -0.4676
 5885TIP3    H139214   1.046   3.140   0.583  0.0110  0.7315 -1.3691
 5885TIP3    H239215   0.908   3.195   0.555 -0.8489 -1.2933 -1.2893
 5886TIP3   OH239216   2.198   4.316   1.325 -0.7079 -0.2956 -0.0938
 5886TIP3    H139217   2.179   4.407   1.302  0.3101 -0.2258 -0.7190
 5886TIP3    H239218   2.159   4.304   1.411  0.0074  1.0399  0.4353
 5887TIP3   OH239219   0.550   3.436   0.827 -0.4942  0.0578  0.2067
 5887TIP3    H139220   0.464   3.475   0.841 -1.1318 -0.4861 -1.8795
 5887TIP3    H239221   0.550   3.410   0.735  2.6110  1.7251 -0.3815
 5888TIP3   OH239222   3.412   4.364   1.046  0.1518  0.1934  0.3313
 5888TIP3    H139223   3.492   4.404   1.081  0.4475  0.4636 -0.6144
 5888TIP3    H239224   3.385   4.302   1.113  0.7132  0.6685  1.0201
 5889TIP3   OH239225   4.369   2.711   7.978  0.2297  0.0755  0.0159
 5889TIP3    H139226   4.416   2.793   7.996  2.1890 -0.9741 -0.0261
 5889TIP3    H239227   4.326   2.690   8.061 -0.8550  1.4417 -0.1552
 5890TIP3   OH239228   5.463   5.470   0.764  0.1311  0.3078  0.0829
 5890TIP3    H139229   5.377   5.507   0.782 -1.3335 -2.7056 -0.1378
 5890TIP3    H239230   5.459   5.440   0.673  1.0016 -0.8505  0.3981
 5891TIP3   OH239231   4.371   4.481   8.340 -0.4235 -0.2978  0.4608
 5891TIP3    H139232   4.388   4.471   8.247 -1.2039  0.0508  0.2685
 5891TIP3    H239233   4.316   4.560   8.346 -0.6613 -0.5105  1.1770
 5892TIP3   OH239234   3.258   0.468   0.254  0.0248 -0.0515 -0.3094
 5892TIP3    H139235   3.249   0.392   0.198  0.0749 -0.0968 -0.2562
 5892TIP3    H239236   3.316   0.439   0.325 -0.3725 -0.1231 -0.0065
 5893TIP3   OH239237   2.268   2.652   8.171  0.3060  0.2012 -0.2878
 5893TIP3    H139238   2.311   2.599   8.104  1.0376 -0.7972  0.9113
 5893TIP3    H239239   2.183   2.673   8.135  1.1213  0.7155 -2.0094
 5894TIP3   OH239240   6.586   2.564   8.242  0.6003 -0.4929  0.3122
 5894TIP3    H139241   6.608   2.505   8.315 -1.0436 -1.1054  0.3455
 5894TIP3    H239242   6.502   2.532   8.210 -0.3834  1.8970  0.3691
 5895TIP3   OH239243   1.502   0.069   8.113  0.2508 -0.6707 -0.4117
 5895TIP3    H139244   1.425   0.082   8.058  1.1360  0.2711 -1.4776
 5895TIP3    H239245   1.551   0.151   8.105 -0.0601 -0.0706  2.5938
 5896TIP3   OH239246   3.816   5.900   7.821  0.3616  0.5912  0.4373
 5896TIP3    H139247   3.844   5.809   7.810  0.7969  0.8502 -0.7973
 5896TIP3    H239248   3.853   5.945   7.745  1.7696  2.1926  2.0012
 5897TIP3   OH239249   4.853   4.763   1.388 -0.0395 -0.3735  0.4931
 5897TIP3    H139250   4.919   4.749   1.456  1.0963 -0.4473 -0.5847
 5897TIP3    H239251   4.793   4.827   1.426  0.5906 -0.3786  1.5462
 5898TIP3   OH239252   4.731   3.607   6.939  0.2545 -0.0014 -0.2412
 5898TIP3    H139253   4.683   3.662   6.877 -0.6836  2.0779  2.1481
 5898TIP3    H239254   4.822   3.638   6.934  0.0642  0.5768 -0.1458
 5899TIP3   OH239255   1.708   4.434   1.164  0.0014 -0.2811  0.6770
 5899TIP3    H139256   1.704   4.481   1.081  1.4378 -1.5594 -0.1584
 5899TIP3    H239257   1.776   4.479   1.214  0.2788 -0.5070  0.5042
 5900TIP3   OH239258   3.272   2.253   6.655  0.1922 -0.1030 -0.1791
 5900TIP3    H139259   3.321   2.179   6.689 -0.6020 -1.0339 -0.9772
 5900TIP3    H239260   3.274   2.241   6.560  0.5092  1.2110 -0.3610
 5901TIP3   OH239261   2.364   5.038   7.363 -1.0722 -0.0448 -0.0102
 5901TIP3    H139262   2.344   5.104   7.296  2.2488  0.0872 -1.0501
 5901TIP3    H239263   2.361   4.955   7.315 -0.1578 -0.0968  0.0075
 5902TIP3   OH239264   2.105   5.728   1.942  0.0553  0.4727 -0.5728
 5902TIP3    H139265   2.177   5.749   2.001  0.4600 -0.7445 -0.6026
 5902TIP3    H239266   2.148   5.691   1.865 -0.5338  1.0551 -1.1943
 5903TIP3   OH239267   3.777   6.706   8.565 -0.1487 -0.2733  0.2150
 5903TIP3    H139268   3.829   6.631   8.536  0.7379  0.3268  0.2190
 5903TIP3    H239269   3.793   6.774   8.499 -1.3740 -0.2584 -0.0838
 5904TIP3   OH239270   3.292   5.810   8.654  0.2742  0.8127 -0.0667
 5904TIP3    H139271   3.197   5.813   8.650  0.1524  1.8860  2.3234
 5904TIP3    H239272   3.320   5.822   8.563 -1.8399 -0.0526 -0.9026
 5905TIP3   OH239273   4.605   5.251   1.168 -0.0227 -0.1269 -0.2160
 5905TIP3    H139274   4.600   5.327   1.226 -0.5987 -0.1329 -0.2550
 5905TIP3    H239275   4.650   5.284   1.090  0.5652 -0.0667  0.1439
 5906TIP3   OH239276   4.522   2.163   1.524  0.3967  0.6060 -0.0383
 5906TIP3    H139277   4.579   2.169   1.447  0.8407 -0.4303  0.1907
 5906TIP3    H239278   4.441   2.205   1.497  1.1985  1.9638 -0.4312
 5907TIP3   OH239279   6.598   6.358   0.194  0.5862  0.2235 -0.3902
 5907TIP3    H139280   6.619   6.412   0.118  0.6425 -0.6527 -1.0123
 5907TIP3    H239281   6.628   6.271   0.170  1.1185  0.0473  0.8734
 5908TIP3   OH239282   1.340   2.540   1.826 -0.6060 -0.0146 -0.1208
 5908TIP3    H139283   1.418   2.596   1.822 -1.1719  0.7244 -1.2330
 5908TIP3    H239284   1.365   2.468   1.884  0.4291  0.9400  0.6559
 5909TIP3   OH239285   3.623   1.967   2.797  0.5387  0.3841 -0.0953
 5909TIP3    H139286   3.539   1.965   2.844 -0.0039 -1.6469 -0.9996
 5909TIP3    H239287   3.686   1.931   2.860 -0.0761 -1.8040 -0.6545
 5910TIP3   OH239288   5.295   6.162   2.285  0.6189  0.1603  0.1976
 5910TIP3    H139289   5.305   6.183   2.192  0.7205 -1.6727 -0.2463
 5910TIP3    H239290   5.212   6.114   2.289  0.1390  1.0463  1.2210
 5911TIP3   OH239291   2.712   1.068   2.508 -0.3344 -0.0463  0.3713
 5911TIP3    H139292   2.755   1.152   2.491 -1.3690  0.5408  0.6233
 5911TIP3    H239293   2.626   1.076   2.466  0.1405 -1.5780 -0.9953
 5912TIP3   OH239294   1.866   6.188   8.460  0.6123 -0.2480  0.1400
 5912TIP3    H139295   1.845   6.104   8.502  0.9448 -0.2054  0.3950
 5912TIP3    H239296   1.958   6.180   8.436  0.2846 -0.4859 -1.1030
 5913TIP3   OH239297   1.432   5.590   2.236  0.9324  0.0015 -0.7934
 5913TIP3    H139298   1.359   5.649   2.220  1.3701  0.3722 -1.4497
 5913TIP3    H239299   1.509   5.635   2.201  1.5481 -0.2060  0.2579
 5914TIP3   OH239300   3.047   0.113   7.403 -0.2547 -0.0572  0.0795
 5914TIP3    H139301   3.101   0.192   7.415 -1.9180  0.9980  1.0327
 5914TIP3    H239302   3.064   0.060   7.481  1.6344 -1.1829 -1.0319
 5915TIP3   OH239303   5.974   2.379   1.373  0.1220 -0.4082 -0.7489
 5915TIP3    H139304   5.885   2.413   1.386 -0.8962 -2.1210 -2.7179
 5915TIP3    H239305   5.988   2.321   1.448 -1.3684 -1.8687 -1.5369
 5916TIP3   OH239306   0.063   4.108   0.757 -0.3662  0.0521 -0.0897
 5916TIP3    H139307   0.121   4.177   0.727 -1.1511  0.8012  0.0566
 5916TIP3    H239308   0.119   4.032   0.768  0.6035  0.7882  0.1698
 5917TIP3   OH239309   6.643   2.983   0.051 -0.1626  0.2006 -0.1689
 5917TIP3    H139310   6.683   2.941   0.127 -0.9547 -0.4728 -0.1015
 5917TIP3    H239311   6.708   3.046   0.020  0.9378 -0.8643 -0.0814
 5918TIP3   OH239312   6.805   0.118   7.795 -0.1976  0.3506 -0.2496
 5918TIP3    H139313   6.870   0.182   7.821 -0.3566  0.1998  0.5276
 5918TIP3    H239314   6.813   0.114   7.699 -0.7649  2.1468 -0.4074
 5919TIP3   OH239315   1.229   2.093   0.493  0.4485 -0.5618  0.3113
 5919TIP3    H139316   1.159   2.127   0.437 -0.4215  2.2671  2.8642
 5919TIP3    H239317   1.266   2.170   0.536  4.6404 -1.9997 -0.1749
 5920TIP3   OH239318   5.893   0.185   8.720 -0.0111  0.1900 -0.4625
 5920TIP3    H139319   5.924   0.095   8.734  0.8092  0.6257  0.6145
 5920TIP3    H239320   5.962   0.227   8.670  1.6233  1.3626  2.5391
 5921TIP3   OH239321   5.121   1.704   2.252  0.0551  0.0057 -0.1442
 5921TIP3    H139322   5.064   1.775   2.282  0.8032  0.7997 -0.5790
 5921TIP3    H239323   5.078   1.624   2.283  0.8447  0.7321  3.2415
 5922TIP3   OH239324   4.686   4.229   1.879  0.0788 -0.8958 -0.8408
 5922TIP3    H139325   4.664   4.296   1.814  0.9301 -1.5736 -1.8568
 5922TIP3    H239326   4.606   4.218   1.930  0.0233  1.1519 -0.3996
 5923TIP3   OH239327   1.839   3.973   1.380 -0.3459 -0.0757 -0.4479
 5923TIP3    H139328   1.822   3.882   1.407 -1.8368  0.4186  0.4271
 5923TIP3    H239329   1.934   3.980   1.378 -0.2012 -1.6658 -0.5483
 5924TIP3   OH239330   1.759   6.160   2.124  0.2325  0.5820  0.1527
 5924TIP3    H139331   1.794   6.123   2.205  0.6919 -0.7301 -0.6147
 5924TIP3    H239332   1.726   6.084   2.075 -0.8675  1.4450 -0.5042
 5925TIP3   OH239333   3.055   0.083   8.729 -0.5191  0.2582  0.1901
 5925TIP3    H139334   2.978   0.133   8.702 -0.1732  0.0792 -1.2008
 5925TIP3    H239335   3.087   0.043   8.648  1.4805  0.9360  0.6055
 5926TIP3   OH239336   0.362   3.462   7.018 -0.3234 -0.0479 -0.3107
 5926TIP3    H139337   0.450   3.500   7.024  0.6461 -2.0630 -0.7550
 5926TIP3    H239338   0.306   3.525   7.063  1.3053  1.3979 -0.1767
 5927TIP3   OH239339   2.588   1.698   1.331 -0.1770  0.0764 -0.6411
 5927TIP3    H139340   2.583   1.753   1.409 -0.0002  0.1058 -0.6495
 5927TIP3    H239341   2.619   1.614   1.364  1.0789  0.4366 -0.8403
 5928TIP3   OH239342   4.505   5.744   7.738  0.2274 -0.0858  0.3980
 5928TIP3    H139343   4.513   5.676   7.671  0.4369  0.6478 -0.3352
 5928TIP3    H239344   4.416   5.778   7.727  0.3645  0.2423  0.2781
 5929TIP3   OH239345   2.625   2.554   0.892 -0.1867 -0.0116  0.0249
 5929TIP3    H139346   2.549   2.609   0.910  0.1162  0.2384  0.5790
 5929TIP3    H239347   2.700   2.611   0.907  0.1146 -0.1926 -0.7388
 5930TIP3   OH239348   3.381   0.595   8.774  0.2792  0.2072 -0.5455
 5930TIP3    H139349   3.407   0.618   8.863  0.5697  4.0366 -1.4571
 5930TIP3    H239350   3.318   0.662   8.749  0.1932 -0.7488 -3.2671
 5931TIP3   OH239351   3.769   3.636   8.335  0.4669 -0.4336  0.5204
 5931TIP3    H139352   3.755   3.656   8.242 -1.0200 -0.4428  0.7288
 5931TIP3    H239353   3.737   3.546   8.345 -1.3813  0.2932  1.4676
 5932TIP3   OH239354   5.361   6.325   0.973 -0.1218  0.0282 -0.0171
 5932TIP3    H139355   5.294   6.256   0.968  1.2475 -1.5203  1.6545
 5932TIP3    H239356   5.405   6.321   0.888  0.9304 -2.3301  0.5405
 5933TIP3   OH239357   6.415   6.408   8.100  0.3595  0.5943 -0.1283
 5933TIP3    H139358   6.365   6.465   8.041 -0.4378  0.5700  0.5048
 5933TIP3    H239359   6.481   6.367   8.044  0.9285  2.1073 -0.5908
 5934TIP3   OH239360   6.148   6.752   1.933 -0.4793  0.3634 -0.0184
 5934TIP3    H139361   6.163   6.707   1.850  0.6753 -0.8424  0.8072
 5934TIP3    H239362   6.232   6.746   1.979 -1.2057  0.6828  1.3925
 5935TIP3   OH239363   0.802   5.912   8.514 -0.1031 -0.0268  0.2580
 5935TIP3    H139364   0.874   5.875   8.464  0.1771  1.3311 -0.3773
 5935TIP3    H239365   0.724   5.894   8.462  0.2717  2.0318 -1.0836
 5936TIP3   OH239366   1.818   1.286   8.507 -0.0831  0.7798  0.0368
 5936TIP3    H139367   1.808   1.253   8.418  1.0931  0.8610 -0.1492
 5936TIP3    H239368   1.880   1.359   8.498 -0.3489  1.1208  0.8525
 5937TIP3   OH239369   5.000   6.786   8.085 -0.0378 -0.5308  0.2734
 5937TIP3    H139370   4.969   6.698   8.067 -1.4389 -0.4971  2.2009
 5937TIP3    H239371   5.054   6.777   8.163  0.5625  0.1891 -0.0467
 5938TIP3   OH239372   5.791   3.313   8.517  0.5082 -0.6590  0.8804
 5938TIP3    H139373   5.862   3.371   8.489 -0.3951 -0.5372 -1.4388
 5938TIP3    H239374   5.825   3.268   8.593  1.9471  1.5458  1.6463
 5939TIP3   OH239375   5.968   1.765   7.670  0.0093  0.1637  0.0633
 5939TIP3    H139376   5.984   1.757   7.576 -0.2844  0.7064 -0.0391
 5939TIP3    H239377   6.048   1.802   7.705  0.3930 -0.7157  0.1445
 5940TIP3   OH239378   1.267   2.070   0.864  0.0115  0.2490 -0.2575
 5940TIP3    H139379   1.179   2.034   0.859  0.2827 -0.2510 -2.3911
 5940TIP3    H239380   1.257   2.163   0.844  0.0491 -0.0379 -1.7833
 5941TIP3   OH239381   2.839   6.068   7.910  0.3921  0.8269 -0.2821
 5941TIP3    H139382   2.751   6.105   7.915  0.1943  0.4237 -0.6785
 5941TIP3    H239383   2.893   6.127   7.963  0.3211  2.4038 -1.8354
 5942TIP3   OH239384   0.335   2.706   2.210 -0.1593  0.1921  0.2415
 5942TIP3    H139385   0.410   2.708   2.150 -0.0461 -2.6886  0.1381
 5942TIP3    H239386   0.372   2.733   2.295  0.5299  0.7484 -0.2253
 5943TIP3   OH239387   1.168   1.548   7.482 -0.2538  0.6520  0.2293
 5943TIP3    H139388   1.220   1.557   7.402  0.0251 -0.7625  0.2266
 5943TIP3    H239389   1.080   1.578   7.457 -0.1298  0.3847 -0.5652
 5944TIP3   OH239390   1.673   0.255   2.237 -0.2122  0.0636 -0.1860
 5944TIP3    H139391   1.582   0.240   2.261 -0.3727 -1.3616 -1.4960
 5944TIP3    H239392   1.716   0.279   2.319 -1.8616  1.3723  0.3386
 5945TIP3   OH239393   1.138   1.645   6.785  0.1814  0.1387 -0.1267
 5945TIP3    H139394   1.061   1.643   6.729 -0.5364  1.1005  0.7967
 5945TIP3    H239395   1.131   1.566   6.838 -0.2650  0.3009  0.0625
 5946TIP3   OH239396   5.218   6.749   0.407  0.0446  0.1904  0.2042
 5946TIP3    H139397   5.200   6.823   0.466 -0.6936  0.8651 -0.8188
 5946TIP3    H239398   5.136   6.700   0.405  0.4717 -0.5561  0.7232
 5947TIP3   OH239399   6.631   1.400   2.703  0.1790 -0.3220 -0.6791
 5947TIP3    H139400   6.620   1.356   2.787  1.1928  0.4934 -0.0969
 5947TIP3    H239401   6.545   1.440   2.686  0.4877  1.1835  0.9734
 5948TIP3   OH239402   0.203   2.102   8.388  0.3419  0.5206 -0.1633
 5948TIP3    H139403   0.113   2.081   8.410 -0.2906  2.1604 -0.9990
 5948TIP3    H239404   0.250   2.019   8.396 -1.4383 -0.6127 -0.7559
 5949TIP3   OH239405   3.175   0.665   2.930 -0.7023  0.3582 -0.8564
 5949TIP3    H139406   3.144   0.755   2.920  0.9915  0.9940 -0.6635
 5949TIP3    H239407   3.258   0.673   2.977 -0.7460 -1.3534 -0.4200
 5950TIP3   OH239408   6.514   1.535   0.608 -0.3217 -0.2569 -0.1446
 5950TIP3    H139409   6.577   1.588   0.560 -0.1475  0.8687  1.2478
 5950TIP3    H239410   6.557   1.517   0.692 -0.7240 -1.9184 -0.2643
 5951TIP3   OH239411   3.389   4.435   7.976 -0.1334 -0.0113 -0.3877
 5951TIP3    H139412   3.375   4.455   8.068 -1.2119  0.6162 -0.6625
 5951TIP3    H239413   3.478   4.464   7.958 -0.2256  0.6914  0.2505
 5952TIP3   OH239414   3.716   5.082   1.402  0.4372  0.7551  0.9562
 5952TIP3    H139415   3.752   4.996   1.379  0.9405  1.0753  0.5228
 5952TIP3    H239416   3.639   5.092   1.346  0.7699  0.8748  0.5205
 5953TIP3   OH239417   2.323   3.073   0.135 -0.3828  0.2932 -0.0299
 5953TIP3    H139418   2.349   2.984   0.114 -2.6827 -0.0007 -2.1013
 5953TIP3    H239419   2.363   3.091   0.220  0.6872 -2.4488  0.1302
 5954TIP3   OH239420   2.972   4.534   2.450  0.4248 -0.2644 -0.0932
 5954TIP3    H139421   2.909   4.605   2.440 -1.4549 -1.7101  0.8589
 5954TIP3    H239422   3.007   4.521   2.362 -0.7579  0.4660 -0.7008
 5955TIP3   OH239423   2.381   5.073   1.090 -0.3002 -0.1904 -0.0434
 5955TIP3    H139424   2.436   5.000   1.061  2.0314  1.5919 -0.4088
 5955TIP3    H239425   2.387   5.137   1.019 -2.7848  0.1755 -0.0116
 5956TIP3   OH239426   4.843   3.721   7.853 -0.1915  0.6811 -0.4792
 5956TIP3    H139427   4.817   3.632   7.828 -0.4585  0.2347  1.2849
 5956TIP3    H239428   4.763   3.761   7.887  0.2030  1.2038 -0.1501
 5957TIP3   OH239429   6.666   0.736   0.422  0.8512 -0.7266  0.3217
 5957TIP3    H139430   6.721   0.699   0.353 -0.4173 -0.9820 -0.5881
 5957TIP3    H239431   6.600   0.668   0.439 -0.3434  0.3133  0.0130
 5958TIP3   OH239432   1.121   4.098   7.094  0.5298 -0.0616 -0.6717
 5958TIP3    H139433   1.121   4.127   7.186 -1.8922  0.3874 -0.7549
 5958TIP3    H239434   1.172   4.017   7.095  0.9518  0.1886  0.9835
 5959TIP3   OH239435   5.639   2.424   8.347  0.9665 -0.3080 -0.1650
 5959TIP3    H139436   5.634   2.468   8.432 -1.9298 -0.0304 -0.3865
 5959TIP3    H239437   5.577   2.472   8.292  1.3793 -1.6714 -1.9045
 5960TIP3   OH239438   2.755   3.314   8.205  0.3928 -0.2297  0.4596
 5960TIP3    H139439   2.740   3.393   8.154  2.6624  0.1520  0.2751
 5960TIP3    H239440   2.673   3.299   8.251 -0.8109  0.9625 -1.1919
 5961TIP3   OH239441   0.133   3.085   1.354  0.2822  0.1430 -0.1916
 5961TIP3    H139442   0.167   3.174   1.366  0.1198  0.3899 -1.4184
 5961TIP3    H239443   0.132   3.048   1.442  1.8598  0.8071  0.1445
 5962TIP3   OH239444   5.310   5.251   1.068  0.1120  0.4088  0.5944
 5962TIP3    H139445   5.374   5.187   1.037 -0.5794 -0.3254  0.6347
 5962TIP3    H239446   5.354   5.295   1.141  0.6856  0.1350  0.4254
 5963TIP3   OH239447   3.296   0.261   2.325  0.0427  0.0611  0.0717
 5963TIP3    H139448   3.296   0.347   2.283 -1.1600 -0.5457 -1.2732
 5963TIP3    H239449   3.377   0.220   2.297  0.9173  0.9488  1.2089
 5964TIP3   OH239450   4.412   5.011   0.368 -0.2525 -0.6309 -0.2896
 5964TIP3    H139451   4.461   4.995   0.287  0.5202 -0.1098  0.0666
 5964TIP3    H239452   4.362   4.930   0.381  0.7554 -1.3205 -0.5018
 5965TIP3   OH239453   3.787   6.228   1.724  0.1818  0.3915  0.1569
 5965TIP3    H139454   3.867   6.272   1.695 -0.3997 -0.0905 -2.4218
 5965TIP3    H239455   3.740   6.295   1.775  1.1589  1.4301 -0.2605
 5966TIP3   OH239456   5.740   4.159   0.764 -0.2584  0.4665  0.2815
 5966TIP3    H139457   5.659   4.197   0.799  0.9471  1.9340  1.6584
 5966TIP3    H239458   5.805   4.175   0.832  1.0825 -1.2040 -0.5332
 5967TIP3   OH239459   6.332   6.363   1.740  0.4608 -0.1585  0.3164
 5967TIP3    H139460   6.343   6.310   1.819  0.0990  1.2058  1.3201
 5967TIP3    H239461   6.245   6.402   1.750  0.1925 -0.3822 -1.0255
 5968TIP3   OH239462   4.580   2.767   0.004  0.0678 -0.7259 -0.1361
 5968TIP3    H139463   4.545   2.697  -0.050  0.7972 -0.0375 -1.5844
 5968TIP3    H239464   4.671   2.776  -0.025 -0.1475  1.1414 -0.4041
 5969TIP3   OH239465   4.002   0.999   1.980  0.0817 -0.3522 -0.1651
 5969TIP3    H139466   4.083   1.012   1.930  1.1762  0.7507  1.7852
 5969TIP3    H239467   4.029   0.950   2.058 -1.1961 -0.2377  0.3755
 5970TIP3   OH239468   6.468   6.458   8.603 -0.4210  0.0136  0.2847
 5970TIP3    H139469   6.405   6.466   8.531  0.7379 -0.8920 -0.8736
 5970TIP3    H239470   6.507   6.371   8.592  0.9889  0.5226  0.9966
 5971TIP3   OH239471   4.607   0.787   2.560  0.0661  0.0042 -0.5112
 5971TIP3    H139472   4.552   0.843   2.505  0.1072 -0.4911 -1.0697
 5971TIP3    H239473   4.677   0.845   2.591  0.6160  0.0687 -1.8078
 5972TIP3   OH239474   6.419   3.778   1.693 -0.0546  0.0995  0.0285
 5972TIP3    H139475   6.407   3.801   1.785 -2.6572 -1.8618  0.2782
 5972TIP3    H239476   6.377   3.848   1.644 -1.1677 -0.2532  0.4636
 5973TIP3   OH239477   5.111   5.148   7.445 -0.1620  0.0121  0.1746
 5973TIP3    H139478   5.045   5.104   7.499 -0.7592 -0.5761 -0.9893
 5973TIP3    H239479   5.155   5.077   7.398  0.3544  0.5070 -0.1044
 5974TIP3   OH239480   1.357   5.299   7.432 -0.2878 -0.3783 -0.1759
 5974TIP3    H139481   1.388   5.382   7.396  1.7144 -0.7347  0.5782
 5974TIP3    H239482   1.360   5.312   7.527  4.0515 -2.4718  0.2135
 5975TIP3   OH239483   3.532   4.281   2.863  1.0498 -0.4459 -0.9334
 5975TIP3    H139484   3.565   4.309   2.949 -0.6260 -0.7855 -0.1260
 5975TIP3    H239485   3.598   4.221   2.830  3.4391  2.2576 -1.4930
 5976TIP3   OH239486   1.465   0.127   1.838 -0.3515 -0.1177 -0.2376
 5976TIP3    H139487   1.549   0.081   1.827  1.0230  1.5246  2.3943
 5976TIP3    H239488   1.478   0.210   1.791 -0.1867  0.4352  0.7551
 5977TIP3   OH239489   1.465   0.452   8.176  0.3694  0.5138 -0.0091
 5977TIP3    H139490   1.455   0.514   8.104 -1.1091  1.1961  0.7450
 5977TIP3    H239491   1.392   0.471   8.235  1.2478 -0.3709  1.4232
 5978TIP3   OH239492   2.978   5.728   1.878  0.0274  0.0717  0.3699
 5978TIP3    H139493   3.005   5.674   1.952  0.7267 -0.2572 -0.1145
 5978TIP3    H239494   2.893   5.763   1.904  0.7670  0.8976  1.8163
 5979TIP3   OH239495   0.928   4.024   6.910  0.1325  0.1965  0.7769
 5979TIP3    H139496   0.880   3.943   6.931 -1.0724  0.6192 -0.2035
 5979TIP3    H239497   1.001   4.025   6.971  0.2514 -1.7055  0.7233
 5980TIP3   OH239498   5.902   5.784   7.706 -0.1021  0.2753  0.4483
 5980TIP3    H139499   5.879   5.720   7.773 -1.4402  0.3052  0.0584
 5980TIP3    H239500   5.818   5.823   7.681  0.5591  1.3986 -0.1026
 5981TIP3   OH239501   0.691   6.533   7.615 -0.0789  0.1911 -0.2243
 5981TIP3    H139502   0.617   6.493   7.660  0.0536  0.8555  0.6046
 5981TIP3    H239503   0.688   6.497   7.526 -1.4466  0.2835 -0.2275
 5982TIP3   OH239504   0.772   1.426   2.513  0.8438  0.0417  0.6494
 5982TIP3    H139505   0.867   1.424   2.516  1.0014  1.6637 -0.9493
 5982TIP3    H239506   0.751   1.429   2.419 -0.8059 -0.7088  0.9516
 5983TIP3   OH239507   0.859   3.702   0.763  0.2369  0.1759  0.0855
 5983TIP3    H139508   0.808   3.659   0.832 -0.1901 -0.0616 -0.3759
 5983TIP3    H239509   0.904   3.773   0.808  0.8372 -0.6591  0.8363
 5984TIP3   OH239510   4.203   4.186   7.850 -0.3006 -0.1239  0.0505
 5984TIP3    H139511   4.186   4.243   7.774 -1.4230 -1.6885 -0.9246
 5984TIP3    H239512   4.220   4.100   7.811 -2.1758 -1.2588  1.6195
 5985TIP3   OH239513   2.803   1.930   1.475 -0.3239  0.1263 -0.3036
 5985TIP3    H139514   2.712   1.925   1.504  0.4313  0.4871  2.4864
 5985TIP3    H239515   2.835   2.012   1.512  1.5113 -0.7225  0.1321
 5986TIP3   OH239516   5.309   0.178   8.516 -0.4881  0.0745  0.3021
 5986TIP3    H139517   5.215   0.189   8.498 -0.2678  2.0070  0.0922
 5986TIP3    H239518   5.333   0.098   8.470 -2.0255 -0.4567  0.3499
 5987TIP3   OH239519   4.475   3.012   1.362 -0.3356  0.4858 -0.1107
 5987TIP3    H139520   4.556   2.976   1.400  0.0712 -1.1249 -2.3059
 5987TIP3    H239521   4.505   3.087   1.310 -0.6477  1.5189  1.1469
 5988TIP3   OH239522   0.666   1.135   2.506  0.8545 -0.7763 -0.1057
 5988TIP3    H139523   0.693   1.134   2.597 -1.5193 -0.4161  0.6875
 5988TIP3    H239524   0.655   1.228   2.485 -1.4599 -0.8895  0.2715
 5989TIP3   OH239525   3.910   2.491   0.978 -0.4947  0.1169 -0.1787
 5989TIP3    H139526   3.954   2.447   1.051  0.1430 -0.4837 -0.9062
 5989TIP3    H239527   3.915   2.584   1.000 -0.0388 -0.0350  0.3935
 5990TIP3   OH239528   6.179   1.748   2.143  0.1783  0.0943 -0.4449
 5990TIP3    H139529   6.159   1.749   2.236  0.6862 -1.0515 -0.3037
 5990TIP3    H239530   6.112   1.803   2.103 -0.3376  0.1975  0.5373
 5991TIP3   OH239531   3.572   4.980   2.166 -0.2280  0.8450 -0.1536
 5991TIP3    H139532   3.659   4.958   2.134 -0.7172 -1.8984  0.2078
 5991TIP3    H239533   3.575   5.075   2.182  1.7561  1.3449 -2.8672
 5992TIP3   OH239534   6.568   4.780   2.610 -0.9457  0.1683 -0.0527
 5992TIP3    H139535   6.616   4.854   2.572  2.5278 -1.2609  1.0564
 5992TIP3    H239536   6.592   4.782   2.703 -1.7817 -1.6194  0.2451
 5993TIP3   OH239537   6.810   5.691   7.269  0.0548 -0.6044  0.3840
 5993TIP3    H139538   6.818   5.749   7.193 -2.4101 -0.4187  0.1937
 5993TIP3    H239539   6.844   5.741   7.342  0.2722  0.1186 -0.2051
 5994TIP3   OH239540   5.107   6.546   0.654 -0.0318 -0.6516  0.1554
 5994TIP3    H139541   5.123   6.640   0.653 -0.1621 -0.6248  0.3757
 5994TIP3    H239542   5.087   6.526   0.746  0.5349 -0.9814  0.2143
 5995TIP3   OH239543   3.348   1.639   2.262  1.0792 -0.2867 -0.2778
 5995TIP3    H139544   3.333   1.726   2.226  0.6474 -0.1348  0.2622
 5995TIP3    H239545   3.266   1.615   2.304  1.5984 -0.4073  0.7036
 5996TIP3   OH239546   4.410   5.283   0.487  0.4619 -0.3645  0.6173
 5996TIP3    H139547   4.402   5.361   0.432 -0.1129 -0.8608 -0.0254
 5996TIP3    H239548   4.370   5.213   0.435 -0.6761 -0.7255  1.9289
 5997TIP3   OH239549   5.055   3.557   0.039  0.0172 -0.6796  0.3878
 5997TIP3    H139550   4.986   3.601   0.089 -0.3812 -0.4096 -0.3803
 5997TIP3    H239551   5.027   3.566  -0.053  1.6181  0.3911 -0.0326
 5998TIP3   OH239552   0.981   1.391   1.283  0.4357  0.1906 -0.1731
 5998TIP3    H139553   0.930   1.377   1.203 -1.1587 -1.8614  1.1244
 5998TIP3    H239554   0.918   1.382   1.354  1.2628  4.4118  1.4142
 5999TIP3   OH239555   4.265   3.548   2.180  0.0125 -0.4832 -0.6857
 5999TIP3    H139556   4.219   3.500   2.112  0.6774 -0.8036 -0.9223
 5999TIP3    H239557   4.197   3.597   2.227 -0.5968 -1.2275 -0.7905
 6000TIP3   OH239558   3.849   3.883   8.280  0.3295 -0.0182  0.1307
 6000TIP3    H139559   3.841   3.802   8.329  1.0581 -0.0113  0.2603
 6000TIP3    H239560   3.921   3.868   8.219 -0.0461  0.2557 -0.3884
 6001TIP3   OH239561   5.986   1.990   7.155 -0.1091 -0.0731 -0.1943
 6001TIP3    H139562   5.914   2.051   7.169 -1.7162 -1.5280 -1.7230
 6001TIP3    H239563   6.011   2.003   7.063  0.3668 -0.8475 -0.1889
 6002TIP3   OH239564   2.814   1.817   2.607 -0.5698 -0.5394  0.4473
 6002TIP3    H139565   2.729   1.808   2.565  0.7828 -0.5112 -2.5704
 6002TIP3    H239566   2.841   1.727   2.626 -0.3323 -0.7264 -0.7105
 6003TIP3   OH239567   4.969   5.086   0.681  0.3102  0.1683 -0.1383
 6003TIP3    H139568   4.891   5.092   0.736  0.3419  0.8320 -0.1647
 6003TIP3    H239569   4.997   4.994   0.690 -0.2078  0.0417  0.2266
 6004TIP3   OH239570   6.450   0.533   1.624 -0.4017 -0.3924  0.2132
 6004TIP3    H139571   6.405   0.597   1.679  0.5767  1.2712 -0.8224
 6004TIP3    H239572   6.495   0.476   1.686 -1.3375 -0.1205  1.1827
 6005TIP3   OH239573   6.297   2.008   7.605  0.0237  0.8068  0.5157
 6005TIP3    H139574   6.220   2.024   7.551  0.0448 -0.1255  0.1994
 6005TIP3    H239575   6.367   1.990   7.542 -0.3308 -2.0108  0.8280
 6006TIP3   OH239576   1.619   0.056   7.168 -0.5286 -0.4853 -0.4436
 6006TIP3    H139577   1.603   0.012   7.085 -0.4144 -2.8032  0.6784
 6006TIP3    H239578   1.714   0.049   7.182 -0.3427  1.0819 -0.6975
 6007TIP3   OH239579   3.652   5.805   7.514  0.0399 -0.1359  0.3459
 6007TIP3    H139580   3.648   5.875   7.449  0.1829 -1.4004 -1.0689
 6007TIP3    H239581   3.570   5.813   7.563 -0.4942  0.2701 -0.5915
 6008TIP3   OH239582   5.318   1.507   7.217  0.3955 -0.0977  0.3879
 6008TIP3    H139583   5.382   1.566   7.178  0.3952 -0.5558 -0.3072
 6008TIP3    H239584   5.244   1.508   7.156 -0.5426  0.9117  1.4786
 6009TIP3   OH239585   3.539   4.538   7.149  0.3450  0.0402 -0.1098
 6009TIP3    H139586   3.593   4.506   7.077 -0.5962 -1.7379 -0.0842
 6009TIP3    H239587   3.510   4.624   7.120  2.6187  0.7825 -0.3892
 6010TIP3   OH239588   5.555   4.159   0.265 -0.2672  0.0867 -0.0517
 6010TIP3    H139589   5.489   4.113   0.214 -0.7010 -0.2247  0.7756
 6010TIP3    H239590   5.538   4.133   0.355 -0.1703  1.4465  0.3714
 6011TIP3   OH239591   1.318   1.091   7.943 -0.2214  0.4350  0.0931
 6011TIP3    H139592   1.281   1.004   7.960 -1.0987  0.1767 -2.5761
 6011TIP3    H239593   1.377   1.076   7.868 -2.0829  2.4295 -1.9054
 6012TIP3   OH239594   4.560   6.314   8.031 -0.0080 -0.4465  0.3452
 6012TIP3    H139595   4.495   6.268   7.977 -0.7434  1.0535 -0.0906
 6012TIP3    H239596   4.518   6.322   8.116 -0.8687  1.3995 -0.2023
 6013TIP3   OH239597   3.879   5.523   8.515  0.0574 -0.1080 -0.6338
 6013TIP3    H139598   3.849   5.604   8.474  1.0304  0.8963  0.5493
 6013TIP3    H239599   3.861   5.535   8.608  0.2811 -1.2343 -0.4250
 6014TIP3   OH239600   4.331   1.725   0.064  0.1268 -0.2704  0.3705
 6014TIP3    H139601   4.260   1.661   0.066 -1.1378  1.0285 -0.3818
 6014TIP3    H239602   4.364   1.723  -0.026  0.1616  0.0367  0.3729
 6015TIP3   OH239603   2.456   6.573   7.508  0.1809  0.1432  0.4377
 6015TIP3    H139604   2.461   6.526   7.591  1.3743  1.2800  1.0345
 6015TIP3    H239605   2.431   6.662   7.532 -1.5689 -0.0057 -0.6318
 6016TIP3   OH239606   4.952   1.254   1.003 -0.3671  0.8864  0.6406
 6016TIP3    H139607   5.040   1.227   1.032 -0.3889  0.7590  0.5902
 6016TIP3    H239608   4.951   1.233   0.909 -0.7535  0.0837  0.8204
 6017TIP3   OH239609   5.382   0.800   8.170 -0.0409  0.1215  0.4756
 6017TIP3    H139610   5.419   0.868   8.226  0.2380 -0.0431  0.4936
 6017TIP3    H239611   5.289   0.800   8.191 -0.0083  0.3605  0.6227
 6018TIP3   OH239612   0.444   6.130   8.515 -0.6276 -0.4097  0.0995
 6018TIP3    H139613   0.349   6.130   8.513 -0.6697  0.2806  1.0925
 6018TIP3    H239614   0.467   6.052   8.566 -0.6068 -1.1265 -0.9686
 6019TIP3   OH239615   1.830   0.388   8.764  0.0609 -0.0119 -0.3929
 6019TIP3    H139616   1.816   0.356   8.853  0.9041 -0.2496 -0.3418
 6019TIP3    H239617   1.865   0.476   8.774  2.1379 -0.7894 -0.4192
 6020TIP3   OH239618   0.059   2.400   8.491  0.5066 -0.1455  0.0405
 6020TIP3    H139619   0.005   2.343   8.545 -1.3852  0.5781 -1.0112
 6020TIP3    H239620   0.049   2.487   8.531 -0.8070  0.3752 -1.3019
 6021TIP3   OH239621   4.135   1.777   6.705  0.7401  0.2574  0.5851
 6021TIP3    H139622   4.187   1.858   6.710  0.5738  0.6408 -2.4775
 6021TIP3    H239623   4.092   1.781   6.620 -2.0935 -1.4303  1.8235
 6022TIP3   OH239624   4.096   0.941   1.202  0.0515  0.0939  0.1464
 6022TIP3    H139625   4.159   0.946   1.129  0.4467  1.5325  0.5648
 6022TIP3    H239626   4.014   0.974   1.165 -0.1652 -0.6595 -0.0662
 6023TIP3   OH239627   4.043   2.597   2.240 -0.1218 -0.1160  0.2563
 6023TIP3    H139628   3.988   2.524   2.214 -1.7988  0.8541  0.9324
 6023TIP3    H239629   3.994   2.641   2.310  1.5964  0.6941  1.0202
 6024TIP3   OH239630   6.452   0.118   1.504  0.3310  0.5232 -0.6945
 6024TIP3    H139631   6.472   0.038   1.455 -0.7076 -1.0373  1.2429
 6024TIP3    H239632   6.537   0.156   1.524  0.7880  1.2956 -3.6862
 6025TIP3   OH239633   0.419   5.750   8.521 -0.7247 -1.1786 -0.3350
 6025TIP3    H139634   0.459   5.786   8.601 -1.3733 -2.8443  0.8084
 6025TIP3    H239635   0.435   5.656   8.527 -0.5307 -1.3169 -2.3644
 6026TIP3   OH239636   1.988   3.207   1.992  0.1386 -0.0361  0.0885
 6026TIP3    H139637   2.056   3.139   1.988  1.0567  0.8929 -0.9311
 6026TIP3    H239638   2.026   3.275   2.048  0.3441  0.7773 -1.0149
 6027TIP3   OH239639   1.773   1.012   1.086  0.1145  0.1152 -0.2001
 6027TIP3    H139640   1.859   1.001   1.045 -0.6330 -1.5099 -1.4753
 6027TIP3    H239641   1.757   1.106   1.083  1.8575  0.4682  0.1470
 6028TIP3   OH239642   5.872   1.725   8.763  0.3594  0.3508 -0.0072
 6028TIP3    H139643   5.871   1.631   8.741 -0.1709  0.5965 -1.0807
 6028TIP3    H239644   5.946   1.734   8.824  0.2809 -0.7986  0.2976
 6029TIP3   OH239645   3.457   6.010   1.775  0.7182 -0.3210  0.7966
 6029TIP3    H139646   3.454   6.106   1.776 -1.3132 -0.3355  0.2763
 6029TIP3    H239647   3.419   5.985   1.859 -2.3198 -0.6322 -0.5625
 6030TIP3   OH239648   0.745   4.685   0.768  0.3039  0.3698 -0.2367
 6030TIP3    H139649   0.697   4.762   0.736 -0.0857  0.2713  0.1087
 6030TIP3    H239650   0.837   4.707   0.753  0.2167  1.0467  0.1654
 6031TIP3   OH239651   5.907   5.355   0.415  0.1824 -0.1144 -0.0440
 6031TIP3    H139652   5.833   5.343   0.356  0.7013  0.7547 -0.9056
 6031TIP3    H239653   5.868   5.382   0.498 -0.6880 -3.0661  0.6207
 6032TIP3   OH239654   0.493   5.489   8.604  0.0481 -0.2647 -0.0009
 6032TIP3    H139655   0.434   5.418   8.580  1.2238 -1.7120  1.1664
 6032TIP3    H239656   0.495   5.488   8.699  0.7240  0.8037  0.0193
 6033TIP3   OH239657   2.473   0.203   0.415 -0.3546 -0.3344 -0.7317
 6033TIP3    H139658   2.446   0.244   0.497  0.7346 -1.2500  0.1206
 6033TIP3    H239659   2.505   0.275   0.362 -0.5518  0.2039 -0.1430
 6034TIP3   OH239660   5.203   1.045   7.647  0.2748 -0.5094 -0.2447
 6034TIP3    H139661   5.165   0.974   7.699  0.7355  0.1769  1.0901
 6034TIP3    H239662   5.134   1.111   7.642  1.4837  1.3030  3.2783
 6035TIP3   OH239663   5.588   1.975   2.222  0.0573  0.1028 -0.0653
 6035TIP3    H139664   5.532   1.898   2.229 -1.0296  0.8345 -0.3957
 6035TIP3    H239665   5.528   2.049   2.232  1.1868  0.9118  1.0706
 6036TIP3   OH239666   2.771   2.686   1.183 -0.2203 -0.4995 -0.3987
 6036TIP3    H139667   2.822   2.718   1.108  0.7850 -1.8036 -0.3061
 6036TIP3    H239668   2.835   2.641   1.238 -1.2851 -1.1981  0.3039
 6037TIP3   OH239669   1.141   5.116   0.178  0.4596 -0.0139 -0.0703
 6037TIP3    H139670   1.131   5.065   0.259  1.1589 -0.1950 -0.0958
 6037TIP3    H239671   1.063   5.172   0.176  1.0399  0.9213  1.4026
 6038TIP3   OH239672   2.825   6.025   0.427 -0.1269 -0.3020 -0.2419
 6038TIP3    H139673   2.833   5.950   0.486  0.6207 -0.8864 -1.0402
 6038TIP3    H239674   2.732   6.031   0.407 -0.4201  0.0494  1.1499
 6039TIP3   OH239675   3.296   2.581   2.171 -0.2767 -0.3078  0.1709
 6039TIP3    H139676   3.225   2.562   2.233 -1.8069  0.9042 -1.1457
 6039TIP3    H239677   3.322   2.671   2.192  0.3800 -0.4851  0.1438
 6040TIP3   OH239678   5.942   1.034   2.275 -0.0855  0.0141 -0.1794
 6040TIP3    H139679   6.020   1.020   2.328 -0.8600 -2.4474  0.4516
 6040TIP3    H239680   5.883   1.083   2.333  0.3973  0.4802 -0.0794
 6041TIP3   OH239681   2.553   3.224   7.208 -0.2750  0.1308 -0.0970
 6041TIP3    H139682   2.511   3.300   7.168  1.2584  0.8473 -0.4030
 6041TIP3    H239683   2.517   3.220   7.296 -1.5211  0.2714 -0.5779
 6042TIP3   OH239684   6.756   6.665   0.333  0.1215 -0.1533  0.5849
 6042TIP3    H139685   6.787   6.737   0.388  0.7901 -1.3305  1.8255
 6042TIP3    H239686   6.776   6.586   0.384 -0.5789 -1.2206 -0.7289
 6043TIP3   OH239687   4.056   3.539   2.448 -0.5706  0.2217  0.2775
 6043TIP3    H139688   4.009   3.557   2.367 -2.3246 -0.8627  0.9939
 6043TIP3    H239689   4.048   3.619   2.499  0.1143  0.7351 -0.3879
 6044TIP3   OH239690   6.272   1.615   1.482  0.2069  0.4403 -0.3063
 6044TIP3    H139691   6.200   1.671   1.453  0.6723  1.9354  1.2988
 6044TIP3    H239692   6.239   1.574   1.562 -0.2599 -1.9568 -1.6185
 6045TIP3   OH239693   5.609   5.961   1.825 -0.0096  0.2527  0.5943
 6045TIP3    H139694   5.588   6.043   1.869 -0.1144  0.7377 -0.3345
 6045TIP3    H239695   5.572   5.971   1.737  0.3893 -0.6023  0.3196
 6046TIP3   OH239696   1.187   6.050   2.574  0.6225  0.2225  0.2401
 6046TIP3    H139697   1.102   6.095   2.574 -1.5184 -3.4153  0.2069
 6046TIP3    H239698   1.208   6.038   2.482 -0.6340 -1.7408  0.1493
 6047TIP3   OH239699   4.860   1.364   0.122 -0.1397  0.4360  0.2698
 6047TIP3    H139700   4.949   1.342   0.093 -1.2575 -1.0604 -2.4241
 6047TIP3    H239701   4.872   1.438   0.181  2.9083  0.0616  0.3015
 6048TIP3   OH239702   4.642   0.009   1.856  0.1421  0.0022  0.1688
 6048TIP3    H139703   4.568   0.008   1.795 -0.5577 -2.5570  0.9107
 6048TIP3    H239704   4.712   0.054   1.810 -1.8455  2.5395 -0.5624
 6049TIP3   OH239705   5.852   0.897   0.064 -0.0943  0.1055  0.1806
 6049TIP3    H139706   5.924   0.868   0.120 -1.0860 -1.5159  0.6715
 6049TIP3    H239707   5.870   0.857  -0.021  0.8756  1.7517 -0.4418
 6050TIP3   OH239708   0.893   6.508   0.354 -0.4065  0.3051  0.1459
 6050TIP3    H139709   0.821   6.568   0.335 -1.3102 -1.2655 -1.9249
 6050TIP3    H239710   0.927   6.484   0.267  1.7728  0.0126  1.0351
 6051TIP3   OH239711   0.125   4.804   7.413 -0.0314 -0.1259 -0.5038
 6051TIP3    H139712   0.045   4.780   7.366  0.3372 -1.0526 -0.6714
 6051TIP3    H239713   0.196   4.785   7.351  0.3710 -0.0761 -0.0688
 6052TIP3   OH239714   6.059   1.979   0.654  0.6197 -0.5020 -0.5032
 6052TIP3    H139715   5.979   2.031   0.647  1.4508  0.8751 -0.2999
 6052TIP3    H239716   6.041   1.917   0.724 -0.3992 -0.4913 -0.7302
 6053TIP3   OH239717   3.264   6.138   7.343 -0.3497 -0.1939  1.1479
 6053TIP3    H139718   3.242   6.134   7.250  0.3074  0.4491  0.9513
 6053TIP3    H239719   3.181   6.123   7.388 -0.1156 -4.1317  0.5488
 6054TIP3   OH239720   1.631   5.729   1.244  0.2046  0.0935 -0.8948
 6054TIP3    H139721   1.546   5.761   1.275  0.1078 -1.3928  0.5253
 6054TIP3    H239722   1.618   5.709   1.152 -0.7297  0.7260 -0.9104
 6055TIP3   OH239723   3.605   3.692   0.190  0.3588 -0.2455 -0.6515
 6055TIP3    H139724   3.554   3.655   0.118  0.0664 -0.0621 -0.5399
 6055TIP3    H239725   3.574   3.646   0.267 -0.0717  0.2967 -0.4986
 6056TIP3   OH239726   3.237   1.621   0.273 -0.1124 -0.5334  0.6044
 6056TIP3    H139727   3.185   1.663   0.342 -1.6499 -0.2714 -0.6710
 6056TIP3    H239728   3.326   1.619   0.308 -0.5927  0.8850  2.0025
 6057TIP3   OH239729   4.621   3.255   8.187 -0.5731 -0.4672  0.1381
 6057TIP3    H139730   4.554   3.274   8.252 -3.1613 -2.8081 -1.6450
 6057TIP3    H239731   4.605   3.319   8.117  0.7506  0.5726  0.7331
 6058TIP3   OH239732   5.520   3.942   2.271  0.4931  0.5101  0.0310
 6058TIP3    H139733   5.436   3.947   2.226  0.2329  0.3081  0.4893
 6058TIP3    H239734   5.503   3.890   2.349  0.2426  3.1793  1.9006
 6059TIP3   OH239735   0.404   5.345   1.474 -0.3169  0.1700 -0.3459
 6059TIP3    H139736   0.366   5.258   1.487  2.0735 -1.4103 -2.8385
 6059TIP3    H239737   0.463   5.358   1.548 -0.8614 -0.1936  0.1597
 6060TIP3   OH239738   6.516   3.675   8.077 -0.0321 -0.1692 -0.0883
 6060TIP3    H139739   6.563   3.695   8.158  0.4950 -0.2650 -0.3699
 6060TIP3    H239740   6.583   3.675   8.009 -0.6074  0.8120 -0.6821
 6061TIP3   OH239741   2.925   5.439   7.398 -0.1115  0.4244  0.2368
 6061TIP3    H139742   2.967   5.377   7.338  0.2614 -0.5691  1.4638
 6061TIP3    H239743   2.992   5.457   7.464 -1.3139 -0.6491  1.8530
 6062TIP3   OH239744   2.207   3.801   7.909 -0.6192  0.2843 -0.4239
 6062TIP3    H139745   2.291   3.771   7.873  1.0475  1.0554  2.4697
 6062TIP3    H239746   2.155   3.721   7.917  0.1740 -0.3549 -1.4345
 6063TIP3   OH239747   2.919   6.484   7.604  0.6373  0.5757 -0.8501
 6063TIP3    H139748   2.866   6.547   7.554 -0.6662 -0.5429 -0.9626
 6063TIP3    H239749   2.881   6.484   7.692 -0.8226 -1.5250 -1.3858
 6064TIP3   OH239750   5.742   3.739   7.675  0.2345 -0.2194 -0.2363
 6064TIP3    H139751   5.795   3.760   7.598 -0.2134 -0.9320 -0.7594
 6064TIP3    H239752   5.654   3.726   7.639 -0.1568  0.2934  0.5245
 6065TIP3   OH239753   6.558   0.430   8.465  0.1291  0.0070 -0.2184
 6065TIP3    H139754   6.601   0.357   8.510  1.3324  0.8213 -0.0166
 6065TIP3    H239755   6.628   0.473   8.415 -0.4790  1.2401 -0.0522
 6066TIP3   OH239756   3.899   2.309   2.748 -0.1544  0.4061  0.0041
 6066TIP3    H139757   3.958   2.349   2.812 -0.7142  1.5323 -0.1370
 6066TIP3    H239758   3.937   2.224   2.728  1.1565  0.9226  0.2494
 6067TIP3   OH239759   4.419   6.638   0.780 -0.2495 -0.3339  0.1678
 6067TIP3    H139760   4.332   6.601   0.762 -0.5785  0.6861 -0.4449
 6067TIP3    H239761   4.448   6.593   0.858 -0.4257 -2.2095 -0.7939
 6068TIP3   OH239762   6.364   0.385   6.942  0.6396  0.2392 -0.1508
 6068TIP3    H139763   6.353   0.302   6.896  1.6543 -0.1664  0.3020
 6068TIP3    H239764   6.289   0.438   6.915 -1.4475 -1.6680  1.4704
 6069TIP3   OH239765   2.431   5.434   8.764  0.0930  0.0092 -0.1782
 6069TIP3    H139766   2.344   5.403   8.739 -0.8343  2.0741  0.2520
 6069TIP3    H239767   2.461   5.485   8.688  0.7591 -0.3566 -0.1655
 6070TIP3   OH239768   1.310   6.605   0.186 -0.3415  0.5721 -0.3391
 6070TIP3    H139769   1.262   6.603   0.103 -0.0068 -1.0508 -0.5310
 6070TIP3    H239770   1.398   6.636   0.162 -0.9296  2.5280 -0.1533
 6071TIP3   OH239771   0.878   0.115   0.432  0.4064 -0.5835  0.1795
 6071TIP3    H139772   0.914   0.028   0.447 -0.9021 -0.8831  1.9420
 6071TIP3    H239773   0.884   0.159   0.517  2.0398  1.4814 -0.9011
 6072TIP3   OH239774   3.642   4.933   7.832 -0.1261 -0.6055  0.2395
 6072TIP3    H139775   3.568   4.993   7.823 -1.5845 -1.9792  2.1113
 6072TIP3    H239776   3.612   4.851   7.793  0.0539 -1.4099  1.6988
 6073TIP3   OH239777   3.235   5.576   0.395 -0.4357 -0.4725  0.4316
 6073TIP3    H139778   3.210   5.665   0.372  1.0653 -0.4135 -1.0784
 6073TIP3    H239779   3.278   5.541   0.317 -1.5258 -2.7550  0.7521
 6074TIP3   OH239780   0.280   5.176   8.297  0.1521  0.6876  0.0050
 6074TIP3    H139781   0.321   5.234   8.232 -0.3856  0.5568 -0.4534
 6074TIP3    H239782   0.282   5.089   8.257  0.2551  0.5192  0.3697
 6075TIP3   OH239783   6.785   1.302   0.140  0.2386  0.6636 -0.2506
 6075TIP3    H139784   6.800   1.389   0.102  1.0335 -0.3739 -2.5054
 6075TIP3    H239785   6.690   1.288   0.130  0.1941  1.0350 -0.3754
 6076TIP3   OH239786   4.050   1.156   0.046  0.0465 -0.4676  0.5248
 6076TIP3    H139787   4.061   1.205   0.127 -0.5610 -0.7938  0.8175
 6076TIP3    H239788   4.138   1.131   0.020  0.3051  0.2503  0.6982
 6077TIP3   OH239789   5.116   6.588   1.984 -0.7394 -0.2506  0.4873
 6077TIP3    H139790   5.167   6.536   2.047  0.6010  0.8845  0.3942
 6077TIP3    H239791   5.056   6.640   2.039 -0.2416  0.0271  0.7802
 6078TIP3   OH239792   5.700   5.385   0.624  0.5079  0.5635  0.2606
 6078TIP3    H139793   5.632   5.371   0.559  1.1854  0.5670 -0.4598
 6078TIP3    H239794   5.657   5.436   0.693 -0.4700 -0.2657  0.2771
 6079TIP3   OH239795   2.604   5.411   1.088 -0.3895  0.0026  0.2724
 6079TIP3    H139796   2.600   5.471   1.013  0.7441  0.1137  0.2844
 6079TIP3    H239797   2.670   5.450   1.146  0.4927 -1.3229  0.2085
 6080TIP3   OH239798   0.173   0.420   8.275 -0.8944 -0.5432 -0.4636
 6080TIP3    H139799   0.156   0.394   8.366 -0.0185 -1.4746 -0.5472
 6080TIP3    H239800   0.248   0.480   8.282 -0.3142 -1.2354 -0.6292
 6081TIP3   OH239801   0.678   5.170   7.979  0.7009 -0.4109  0.0536
 6081TIP3    H139802   0.765   5.202   8.002  1.0081 -0.1399 -1.3829
 6081TIP3    H239803   0.692   5.080   7.952  0.3095 -0.8052  1.1125
 6082TIP3   OH239804   4.017   5.377   1.585 -0.4225  0.2135  0.6073
 6082TIP3    H139805   3.957   5.308   1.614  0.3060  0.1730  2.1529
 6082TIP3    H239806   3.992   5.453   1.638  0.0296  0.5721  0.3052
 6083TIP3   OH239807   1.155   5.123   2.404  0.3238  0.4466  0.2221
 6083TIP3    H139808   1.182   5.032   2.410  1.3502  0.7177  0.0270
 6083TIP3    H239809   1.191   5.164   2.483 -0.4132  0.6219  0.4797
 6084TIP3   OH239810   1.482   1.752   7.912  0.2032  0.8135 -0.3094
 6084TIP3    H139811   1.461   1.758   7.819 -1.8320  2.8501  0.1786
 6084TIP3    H239812   1.417   1.692   7.948 -0.2266  1.5021  0.0821
 6085TIP3   OH239813   4.406   3.197   0.651  0.1115 -0.2243 -0.4714
 6085TIP3    H139814   4.441   3.283   0.625  3.2987 -0.9957  0.7742
 6085TIP3    H239815   4.429   3.139   0.578  2.0589 -0.8234  0.5349
 6086TIP3   OH239816   6.790   3.895   7.956 -0.3866  0.0517  0.1690
 6086TIP3    H139817   6.882   3.884   7.930 -1.1534 -1.9527 -2.0144
 6086TIP3    H239818   6.750   3.809   7.941 -2.3423  0.4449  2.4895
 6087TIP3   OH239819   4.600   5.393   7.316  0.1257 -0.7506 -0.2561
 6087TIP3    H139820   4.577   5.371   7.226  2.7165  0.9834 -1.4695
 6087TIP3    H239821   4.683   5.348   7.331 -0.3966 -1.2443  1.4456
 6088TIP3   OH239822   5.582   2.891   6.808  0.2862 -1.0092  0.1343
 6088TIP3    H139823   5.577   2.805   6.767  0.9057 -1.8994  1.8183
 6088TIP3    H239824   5.503   2.936   6.780 -0.5028 -2.4630 -0.0666
 6089TIP3   OH239825   4.475   2.353   2.377  0.1433 -0.5025 -0.2745
 6089TIP3    H139826   4.451   2.289   2.444 -0.1669 -1.9203 -1.6826
 6089TIP3    H239827   4.531   2.416   2.423 -1.6855 -0.2453  1.8040
 6090TIP3   OH239828   5.530   5.300   7.860  0.6026 -0.0768  0.3678
 6090TIP3    H139829   5.577   5.222   7.832  2.9841  0.4687  2.4171
 6090TIP3    H239830   5.524   5.354   7.782  2.1694 -0.8127 -0.3077
 6091TIP3   OH239831   0.434   4.534   1.116 -0.0599  0.3168  0.6182
 6091TIP3    H139832   0.426   4.608   1.056 -1.2970 -0.1208  0.2326
 6091TIP3    H239833   0.511   4.556   1.169  0.6977  0.9925 -0.7085
 6092TIP3   OH239834   1.941   1.604   7.378  0.3165 -0.3973 -0.3756
 6092TIP3    H139835   1.995   1.679   7.403 -0.0874  0.3793 -1.7265
 6092TIP3    H239836   1.874   1.641   7.321 -0.8993 -1.5460  0.2562
 6093TIP3   OH239837   2.649   2.910   2.155  0.4006  0.0878  0.1894
 6093TIP3    H139838   2.621   2.849   2.225 -2.5286  0.0018 -0.8969
 6093TIP3    H239839   2.602   2.991   2.175 -1.0522 -0.1417 -1.9394
 6094TIP3   OH239840   3.051   5.340   0.329  0.4095  0.2836 -0.4547
 6094TIP3    H139841   3.015   5.301   0.409 -1.1569  1.1312 -0.6943
 6094TIP3    H239842   3.076   5.429   0.355 -1.6502  1.1600 -1.1915
 6095TIP3   OH239843   2.207   6.778   0.360  0.2933  0.1877 -0.3492
 6095TIP3    H139844   2.194   6.825   0.443  2.5383 -0.7873  0.6277
 6095TIP3    H239845   2.172   6.690   0.377 -1.4001  0.6202 -1.2850
 6096TIP3   OH239846   4.835   6.426   0.511 -0.5475 -0.8136 -0.1671
 6096TIP3    H139847   4.894   6.351   0.521  0.1589 -0.2050  0.4248
 6096TIP3    H239848   4.775   6.420   0.585  0.6620  0.1760  0.9593
 6097TIP3   OH239849   4.324   3.073   7.838  0.5349 -0.1569 -0.2558
 6097TIP3    H139850   4.228   3.072   7.841  0.5273  0.6822  1.7008
 6097TIP3    H239851   4.350   3.055   7.929  2.2122  0.1666 -0.6477
 6098TIP3   OH239852   1.604   4.843   1.379  0.2782  0.6170  0.3641
 6098TIP3    H139853   1.667   4.777   1.407  0.1140 -0.0437 -0.7484
 6098TIP3    H239854   1.655   4.924   1.374  0.5940  0.4908  1.2757
 6099TIP3   OH239855   5.875   2.590   0.054  0.0424 -0.3484  1.1673
 6099TIP3    H139856   5.806   2.655   0.064 -1.6071 -1.7606 -0.3068
 6099TIP3    H239857   5.848   2.518   0.111 -0.6193 -1.5773 -0.6374
 6100TIP3   OH239858   1.221   2.935   1.517 -0.4540 -0.2925  0.5367
 6100TIP3    H139859   1.218   2.841   1.534 -1.7312 -0.1165  1.4547
 6100TIP3    H239860   1.281   2.944   1.443 -2.6692 -2.1204 -1.6273
 6101TIP3   OH239861   1.467   0.079   0.905  0.0451 -0.6190  0.9531
 6101TIP3    H139862   1.406   0.135   0.953  0.2011 -1.0104  1.6162
 6101TIP3    H239863   1.424   0.063   0.821 -0.9135 -1.1218  1.5166
 6102TIP3   OH239864   5.237   2.253   7.670  0.4436  0.1001 -0.5497
 6102TIP3    H139865   5.256   2.182   7.608 -1.5927 -0.4619 -0.6050
 6102TIP3    H239866   5.213   2.207   7.751  0.8496  0.7774 -0.0419
 6103TIP3   OH239867   3.606   4.559   2.493  0.1994  0.6929  0.1147
 6103TIP3    H139868   3.630   4.468   2.506 -1.5424  0.0346 -0.8883
 6103TIP3    H239869   3.603   4.596   2.581  2.9132  0.3847  0.4126
 6104TIP3   OH239870   2.911   4.471   1.356 -0.1040  0.0768  0.4907
 6104TIP3    H139871   2.819   4.492   1.374 -0.4452 -0.5118 -0.5145
 6104TIP3    H239872   2.932   4.521   1.277  0.2624 -0.2687  0.3702
 6105TIP3   OH239873   0.478   4.437   8.098  0.0187  0.3771  1.1702
 6105TIP3    H139874   0.387   4.466   8.100  0.3800  2.0081 -1.4373
 6105TIP3    H239875   0.474   4.346   8.068 -0.7339  0.5530  0.7387
 6106TIP3   OH239876   4.787   1.934   0.527  0.1553  0.5369 -0.4145
 6106TIP3    H139877   4.736   1.866   0.571  1.5900 -1.2833 -1.3906
 6106TIP3    H239878   4.758   2.016   0.566 -1.3940 -0.6646  1.0827
 6107TIP3   OH239879   3.453   6.249   8.095 -0.5093 -0.3612  0.2141
 6107TIP3    H139880   3.431   6.332   8.052  0.9350 -0.1584 -0.1724
 6107TIP3    H239881   3.549   6.247   8.097 -0.5134 -0.8408  2.5342
 6108TIP3   OH239882   6.725   2.856   8.609  0.3665 -0.4221 -0.0356
 6108TIP3    H139883   6.686   2.912   8.542  1.5458 -0.2220 -0.5765
 6108TIP3    H239884   6.688   2.888   8.691 -0.4373 -0.1114 -0.5027
 6109TIP3   OH239885   0.845   4.560   1.067  0.3141 -0.4573  0.1670
 6109TIP3    H139886   0.925   4.606   1.092 -0.6703  1.4472 -0.0090
 6109TIP3    H239887   0.815   4.606   0.989 -2.2893  0.6086  1.6583
 6110TIP3   OH239888   5.778   6.021   2.059 -0.2616  0.2594 -0.1832
 6110TIP3    H139889   5.774   6.115   2.047 -0.8586  0.1675 -0.7444
 6110TIP3    H239890   5.750   5.984   1.975  0.1667 -0.4180 -0.0405
 6111TIP3   OH239891   3.186   3.159   1.895  0.8503  0.0610  0.0076
 6111TIP3    H139892   3.235   3.088   1.855  0.7291  0.1503 -0.3001
 6111TIP3    H239893   3.128   3.190   1.826 -0.0967 -0.4584  0.5315
 6112TIP3   OH239894   4.045   2.032   7.967 -0.1022  0.1675  0.1819
 6112TIP3    H139895   3.969   1.992   7.924  0.6070  1.0178 -2.0065
 6112TIP3    H239896   4.119   2.007   7.912  0.9163  1.0967  1.0900
 6113TIP3   OH239897   0.086   4.798   8.621  0.2103  0.1967  0.0260
 6113TIP3    H139898   0.082   4.874   8.679  0.8290 -1.5515  2.5333
 6113TIP3    H239899   0.002   4.754   8.632  0.2582 -0.0632 -0.5870
 6114TIP3   OH239900   3.535   4.897   8.429 -0.1986  0.1417 -0.3359
 6114TIP3    H139901   3.515   4.973   8.376  1.0648  1.0591  0.4277
 6114TIP3    H239902   3.613   4.858   8.388 -0.7833 -0.7042 -0.6736
 6115TIP3   OH239903   0.611   3.777   7.307 -0.0842  0.0089 -0.2740
 6115TIP3    H139904   0.680   3.712   7.298  1.4104  1.5688 -0.5910
 6115TIP3    H239905   0.602   3.816   7.220 -0.0536  1.0720  0.1773
 6116TIP3   OH239906   4.883   0.395   0.156 -0.3659 -0.5994  0.7248
 6116TIP3    H139907   4.920   0.312   0.128  0.6827 -0.2680  1.0821
 6116TIP3    H239908   4.927   0.415   0.238 -0.3415  0.4767  0.4712
 6117TIP3   OH239909   4.735   5.538   1.729 -0.2525  0.6110  0.0147
 6117TIP3    H139910   4.683   5.457   1.722  1.8387 -0.9829  1.6605
 6117TIP3    H239911   4.752   5.563   1.639  0.3024 -1.6988 -0.5998
 6118TIP3   OH239912   1.286   4.175   2.728 -0.3085 -0.4816 -0.1611
 6118TIP3    H139913   1.352   4.122   2.773 -0.5911 -0.3980  0.3612
 6118TIP3    H239914   1.300   4.263   2.762  1.1114  0.0943 -2.0867
 6119TIP3   OH239915   4.137   0.057   1.720 -0.5274  0.3396  0.4401
 6119TIP3    H139916   4.066  -0.004   1.742  0.2187 -1.5506 -1.9634
 6119TIP3    H239917   4.106   0.102   1.641  0.5020  0.2222 -0.0502
 6120TIP3   OH239918   1.785   3.243   8.739 -0.7690  0.2404  0.7914
 6120TIP3    H139919   1.722   3.297   8.789  1.6582  0.9891  3.2703
 6120TIP3    H239920   1.804   3.169   8.797  1.1009  0.3948  0.4269
 6121TIP3   OH239921   4.247   3.794   7.212 -0.5860  0.1364 -0.0885
 6121TIP3    H139922   4.314   3.772   7.277 -1.5899 -0.8648  0.6562
 6121TIP3    H239923   4.275   3.878   7.177  1.6115 -0.7048 -0.5505
 6122TIP3   OH239924   4.434   2.342   0.645 -0.0379  0.3130  0.0726
 6122TIP3    H139925   4.342   2.339   0.670  0.3788 -1.1753  1.6252
 6122TIP3    H239926   4.435   2.314   0.553 -1.0685 -0.3645  0.2628
 6123TIP3   OH239927   3.495   6.547   0.148  0.6122  0.3934 -0.6136
 6123TIP3    H139928   3.528   6.457   0.146  0.8157  0.4056  0.7003
 6123TIP3    H239929   3.502   6.578   0.058  2.2574 -0.3062 -0.7659
 6124TIP3   OH239930   0.767   1.923   0.760  0.2828  0.5730  0.3714
 6124TIP3    H139931   0.758   1.941   0.667  1.4303 -1.7932 -0.2827
 6124TIP3    H239932   0.696   1.862   0.780 -0.0660  1.2056  1.1035
 6125TIP3   OH239933   3.249   3.073   1.512  0.1395 -0.0112  1.2013
 6125TIP3    H139934   3.319   3.012   1.489 -0.0720 -0.5211  1.8933
 6125TIP3    H239935   3.169   3.024   1.497 -0.0223 -0.0609  2.1640
 6126TIP3   OH239936   4.559   5.982   0.226 -0.3290  0.4622 -0.5492
 6126TIP3    H139937   4.627   6.024   0.173 -0.5378 -0.5929 -1.6917
 6126TIP3    H239938   4.491   5.956   0.164  0.4586 -2.9190 -0.2320
 6127TIP3   OH239939   4.651   3.879   7.983 -0.4633 -0.8040 -0.1588
 6127TIP3    H139940   4.561   3.897   7.960 -0.6205 -0.4816  0.6790
 6127TIP3    H239941   4.647   3.798   8.035 -0.2652 -0.8218 -0.1685
 6128TIP3   OH239942   4.066   3.123   1.086 -0.1804 -0.1946 -0.1236
 6128TIP3    H139943   4.121   3.052   1.054 -0.1603 -0.6472  0.8869
 6128TIP3    H239944   4.106   3.202   1.050 -0.5048 -0.7077 -1.7009
 6129TIP3   OH239945   3.050   4.610   7.445  0.2092 -0.0622  0.3137
 6129TIP3    H139946   3.017   4.521   7.453 -0.2303 -0.1196 -1.6321
 6129TIP3    H239947   3.112   4.606   7.373  0.8953  1.0348  0.8112
 6130TIP3   OH239948   1.615   4.869   8.317  0.4499  0.6028 -0.0321
 6130TIP3    H139949   1.613   4.808   8.244  1.2491 -1.5209  1.6206
 6130TIP3    H239950   1.695   4.920   8.304 -1.0294  2.6008 -2.2960
 6131TIP3   OH239951   4.050   4.301   8.233  0.2873  0.3806 -0.0791
 6131TIP3    H139952   4.127   4.262   8.275 -0.1646 -0.0322  0.3702
 6131TIP3    H239953   4.037   4.247   8.155  0.5737  0.5765 -0.2643
 6132TIP3   OH239954   2.441   2.751   0.939  0.6180  0.4090 -0.0205
 6132TIP3    H139955   2.358   2.740   0.891  0.9118 -3.4738  0.1034
 6132TIP3    H239956   2.416   2.746   1.032  0.9742 -1.0007  0.0138
 6133TIP3   OH239957   6.082   5.385   0.971  0.9113  0.1273 -0.1837
 6133TIP3    H139958   6.085   5.474   1.008  0.9091 -0.0268  0.1992
 6133TIP3    H239959   6.028   5.336   1.034  0.3831  0.0074 -0.7243
 6134TIP3   OH239960   1.033   5.547   8.544 -0.5723 -0.0815 -0.1203
 6134TIP3    H139961   0.941   5.540   8.573 -0.2859 -1.2889  0.5549
 6134TIP3    H239962   1.080   5.573   8.623 -0.2677  0.0882 -0.3576
 6135TIP3   OH239963   1.707   3.943   7.265 -0.3869  0.6107  0.2310
 6135TIP3    H139964   1.761   3.874   7.227 -2.6370 -1.1668  0.0838
 6135TIP3    H239965   1.654   3.975   7.193 -0.3071  1.6061  0.5934
 6136TIP3   OH239966   0.902   2.015   8.284  0.5670  0.0307  0.6730
 6136TIP3    H139967   0.863   2.071   8.352  1.1442  1.3414 -0.0454
 6136TIP3    H239968   0.966   2.071   8.241  0.7892 -1.0376 -0.4300
 6137TIP3   OH239969   0.743   2.327   7.607 -0.2069 -0.0928  0.2251
 6137TIP3    H139970   0.835   2.338   7.582  0.2220 -0.1904  1.6982
 6137TIP3    H239971   0.719   2.242   7.570 -0.0783  0.4650 -1.1937
 6138TIP3   OH239972   5.662   4.022   7.572 -0.0283  0.5722  0.1097
 6138TIP3    H139973   5.679   4.103   7.524  0.7356 -0.8264 -2.0769
 6138TIP3    H239974   5.701   4.037   7.658  0.0964  2.4988 -0.2441
 6139TIP3   OH239975   3.284   3.160   2.827 -0.1998  0.1171  0.1595
 6139TIP3    H139976   3.294   3.204   2.912  1.3567 -1.0791  0.6495
 6139TIP3    H239977   3.317   3.223   2.763  1.4584 -0.0528  0.7838
 6140TIP3   OH239978   4.117   0.982   1.666 -0.4440 -0.1397 -0.1411
 6140TIP3    H139979   4.187   0.939   1.714 -1.1119 -2.4441 -1.1286
 6140TIP3    H239980   4.142   0.974   1.574 -1.4890 -0.0162 -0.4440
 6141TIP3   OH239981   1.265   5.878   8.799 -0.2718  0.0852 -0.8904
 6141TIP3    H139982   1.211   5.799   8.803  0.0307 -0.2248 -2.2580
 6141TIP3    H239983   1.224   5.939   8.860  0.8118 -1.8801  1.9833
 6142TIP3   OH239984   5.340   2.443   1.606  0.4252  0.2485 -0.2328
 6142TIP3    H139985   5.382   2.483   1.682  0.6126 -2.0010  0.9170
 6142TIP3    H239986   5.285   2.374   1.642  0.6199 -0.9796 -2.1345
 6143TIP3   OH239987   4.601   3.412   2.321 -0.8582 -0.6345 -0.1722
 6143TIP3    H139988   4.658   3.487   2.306 -0.7926 -0.4171  1.0664
 6143TIP3    H239989   4.587   3.410   2.416 -2.6963 -0.8339 -0.3984
 6144TIP3   OH239990   0.522   4.026   8.636 -0.1150  0.6064  0.1309
 6144TIP3    H139991   0.439   4.071   8.623  0.2037  1.2954  0.4504
 6144TIP3    H239992   0.576   4.088   8.685  0.2667 -0.1929  0.7409
 6145TIP3   OH239993   4.942   5.423   7.580  0.4833  0.5741 -0.1420
 6145TIP3    H139994   4.964   5.381   7.497  1.3202 -0.0856  0.3997
 6145TIP3    H239995   4.924   5.514   7.556 -0.0821  0.2064 -1.1518
 6146TIP3   OH239996   0.065   3.264   7.753  0.1879  0.0571  0.3068
 6146TIP3    H139997   0.089   3.196   7.690  2.6220 -1.4227  2.6048
 6146TIP3    H239998  -0.028   3.281   7.736 -0.0767 -2.5748 -1.5250
 6147TIP3   OH239999   2.492   2.601   2.107 -0.1472 -0.5052 -0.0287
 6147TIP3    H140000   2.430   2.652   2.055 -0.3340 -0.7665 -0.0639
 6147TIP3    H240001   2.456   2.602   2.196  0.2221  0.0224  0.1178
 6148TIP3   OH240002   6.550   4.013   1.901  0.6531  0.7072 -0.0279
 6148TIP3    H140003   6.510   3.934   1.936  0.6973  0.9387  0.5459
 6148TIP3    H240004   6.627   3.982   1.854 -0.3265  0.2221 -1.3920
 6149TIP3   OH240005   6.405   6.101   1.557 -0.5501  0.4633  0.6042
 6149TIP3    H140006   6.346   6.028   1.572 -0.5600  0.2140 -0.5325
 6149TIP3    H240007   6.383   6.164   1.626  0.9895 -1.4750  3.0265
 6150TIP3   OH240008   0.031   0.633   8.751  0.3788  0.2606 -0.1255
 6150TIP3    H140009  -0.008   0.663   8.669  0.7633 -0.7317 -0.6995
 6150TIP3    H240010   0.115   0.593   8.724 -0.5464 -2.2309  0.3966
 6151TIP3   OH240011   4.077   0.827   8.657 -0.5532  0.3976  0.8386
 6151TIP3    H140012   4.050   0.915   8.630 -0.3843  0.1109 -0.2704
 6151TIP3    H240013   4.008   0.769   8.624  0.5176 -0.1434 -0.4915
 6152TIP3   OH240014   5.585   6.006   3.405  0.0006  0.4494 -0.3134
 6152TIP3    H140015   5.606   5.939   3.469  0.7251 -0.0579 -1.0552
 6152TIP3    H240016   5.621   5.973   3.322  1.2130  2.1377 -0.5277
 6153TIP3   OH240017   2.695   4.754   8.063 -0.0500  0.1730 -0.3435
 6153TIP3    H140018   2.687   4.825   8.126 -0.0927 -0.6228  0.5779
 6153TIP3    H240019   2.655   4.788   7.983  1.4334  1.7732 -0.4403
 6154TIP3   OH240020   3.546   3.738   7.629  0.0458 -0.1318  0.8213
 6154TIP3    H140021   3.637   3.756   7.651  0.2638 -0.2375  0.0062
 6154TIP3    H240022   3.499   3.746   7.713  0.4114  2.2268  0.8600
 6155TIP3   OH240023   4.761   3.872   2.470  0.3644  0.3837  0.3318
 6155TIP3    H140024   4.814   3.842   2.543  2.2254  1.1406 -0.6392
 6155TIP3    H240025   4.743   3.964   2.490  0.3154  0.4102  0.1650
 6156TIP3   OH240026   1.231   0.388   0.056  0.2617 -0.7386  0.0690
 6156TIP3    H140027   1.150   0.369   0.008  0.0267 -0.6955  0.4409
 6156TIP3    H240028   1.242   0.483   0.046 -0.0458 -0.6574  0.4994
 6157TIP3   OH240029   0.888   6.371   8.223  0.6296  0.0347  0.0677
 6157TIP3    H140030   0.825   6.308   8.259  0.2715  0.2500 -0.1798
 6157TIP3    H240031   0.834   6.444   8.193  0.9090 -0.1515 -0.9240
 6158TIP3   OH240032   3.778   1.845   2.377  0.6823  0.3788 -0.0381
 6158TIP3    H140033   3.758   1.912   2.443  1.0884 -0.5398  1.0441
 6158TIP3    H240034   3.704   1.849   2.316  1.1922  2.5228 -0.6007
 6159TIP3   OH240035   1.429   2.607   6.999  0.2218 -0.4766  0.0934
 6159TIP3    H140036   1.514   2.594   7.040  0.3257  1.1853  0.4519
 6159TIP3    H240037   1.381   2.665   7.059 -1.0505 -1.1073 -0.2606
 6160TIP3   OH240038   3.630   3.382   0.785 -0.3113 -0.0657  0.6737
 6160TIP3    H140039   3.627   3.478   0.785 -0.0614 -0.0109 -1.5179
 6160TIP3    H240040   3.701   3.360   0.725 -0.2220 -1.6506  1.3068
 6161TIP3   OH240041   6.409   3.482   7.067  0.0834  0.0106  0.3270
 6161TIP3    H140042   6.382   3.561   7.115  0.0948 -0.1213  0.5512
 6161TIP3    H240043   6.428   3.514   6.979  1.7718  0.5568  0.8629
 6162TIP3   OH240044   1.962   1.781   1.504 -0.5240 -0.0400  0.5293
 6162TIP3    H140045   1.927   1.862   1.542 -1.3030  0.3854 -1.0444
 6162TIP3    H240046   2.015   1.810   1.430  1.1727 -0.8501  1.3516
 6163TIP3   OH240047   1.003   1.768   8.357 -0.5305 -0.3937 -0.0325
 6163TIP3    H140048   0.977   1.860   8.354 -0.8926 -0.5144 -0.6183
 6163TIP3    H240049   0.926   1.720   8.327  0.8458 -0.6575 -3.5720
 6164TIP3   OH240050   2.578   0.971   2.182  0.4099  0.3049  0.4269
 6164TIP3    H140051   2.541   1.044   2.133  0.8691 -1.5826 -3.0017
 6164TIP3    H240052   2.501   0.925   2.217 -0.2811 -0.3042 -1.7084
 6165TIP3   OH240053   1.569   5.450   1.181  0.2484 -0.2367  0.0228
 6165TIP3    H140054   1.612   5.371   1.148 -1.0813 -0.6959 -0.6811
 6165TIP3    H240055   1.631   5.487   1.244  1.6287 -0.9009 -0.9050
 6166TIP3   OH240056   1.699   6.690   7.971  0.8065 -0.2647  0.5049
 6166TIP3    H140057   1.709   6.765   8.030  1.4194 -1.0683  1.4663
 6166TIP3    H240058   1.779   6.690   7.919  1.4349 -0.9973  1.4284
 6167TIP3   OH240059   5.596   5.076   2.724  0.3276 -0.5100  0.3602
 6167TIP3    H140060   5.574   5.026   2.645  0.3772  0.5560 -0.3562
 6167TIP3    H240061   5.676   5.036   2.756  0.6258 -0.6072 -0.4687
 6168TIP3   OH240062   6.523   1.906   8.536 -0.4716 -0.0342 -0.5258
 6168TIP3    H140063   6.510   1.975   8.471 -0.1666  0.5666  0.0367
 6168TIP3    H240064   6.595   1.853   8.502  1.5547  1.8719  0.5785
 6169TIP3   OH240065   0.682   0.249   1.939  0.1901  0.1855 -0.3892
 6169TIP3    H140066   0.659   0.158   1.959 -0.3470  0.4682  0.3521
 6169TIP3    H240067   0.737   0.243   1.862  0.9871 -0.8592  0.2247
 6170TIP3   OH240068   2.429   1.388   2.262 -0.0982  0.8310  0.2349
 6170TIP3    H140069   2.420   1.315   2.323  1.7408  0.1958 -0.2221
 6170TIP3    H240070   2.382   1.460   2.305 -0.9969 -0.2904  1.1971
 6171TIP3   OH240071   2.722   1.237   1.790  0.2719  0.0913 -0.1211
 6171TIP3    H140072   2.762   1.307   1.842 -1.0299 -0.0512  1.1308
 6171TIP3    H240073   2.723   1.270   1.700  1.4606  0.8702  0.1676
 6172TIP3   OH240074   1.850   0.843   0.793 -0.3736  0.0917  0.7370
 6172TIP3    H140075   1.770   0.895   0.788 -0.4911 -0.0280  1.2756
 6172TIP3    H240076   1.901   0.882   0.864  0.2713  0.4642  0.0814
 6173TIP3   OH240077   1.721   4.478   0.888  0.2253 -0.2833 -0.4663
 6173TIP3    H140078   1.726   4.563   0.933 -0.3801  0.9648 -2.6118
 6173TIP3    H240079   1.812   4.448   0.885  0.6739  1.0381 -1.0026
 6174TIP3   OH240080   4.378   0.184   1.395  0.3266 -0.1978 -0.1628
 6174TIP3    H140081   4.340   0.217   1.476 -2.3499  0.3878 -1.5172
 6174TIP3    H240082   4.448   0.126   1.423  0.1011  0.6931  2.5182
 6175TIP3   OH240083   0.746   0.908   1.889  0.0106 -0.0288 -0.3816
 6175TIP3    H140084   0.826   0.856   1.879  0.2242  0.4642 -1.3342
 6175TIP3    H240085   0.678   0.857   1.846 -0.4521 -0.9776  1.3824
 6176TIP3   OH240086   2.397   0.873   1.489  0.5399  0.1054 -0.0691
 6176TIP3    H140087   2.325   0.908   1.542 -0.1283 -0.0638 -0.8540
 6176TIP3    H240088   2.394   0.922   1.407  0.3656 -0.9278 -0.6994
 6177TIP3   OH240089   4.375   3.366   8.781 -0.4948 -0.4789  0.3696
 6177TIP3    H140090   4.307   3.430   8.801 -0.6947 -0.6371  0.1970
 6177TIP3    H240091   4.421   3.353   8.864 -1.2806 -1.0870  0.7302
 6178TIP3   OH240092   5.593   4.640   8.554  0.7550 -0.5000 -0.5246
 6178TIP3    H140093   5.686   4.625   8.539  0.4828 -1.9205 -0.8801
 6178TIP3    H240094   5.566   4.569   8.612 -0.1852 -0.2775 -0.6738
 6179TIP3   OH240095   4.993   4.915   7.095  0.2264 -0.1076  0.2010
 6179TIP3    H140096   4.926   4.983   7.105  0.2966 -0.0830  0.5249
 6179TIP3    H240097   4.945   4.833   7.099  0.0481 -0.0655 -0.9550
 6180TIP3   OH240098   0.373   3.327   1.746  0.6381  0.4197  0.3774
 6180TIP3    H140099   0.402   3.357   1.832 -1.1683  2.1753  0.4400
 6180TIP3    H240100   0.418   3.386   1.684 -1.3878  2.0981  0.4008
 6181TIP3   OH240101   4.181   1.241   8.062 -0.4708 -0.0176 -0.4289
 6181TIP3    H140102   4.137   1.319   8.096  0.5118  0.9241 -1.2308
 6181TIP3    H240103   4.270   1.247   8.097  0.6825  1.1694 -3.2850
 6182TIP3   OH240104   0.905   4.410   7.743 -0.5375 -0.3163  0.1613
 6182TIP3    H140105   0.814   4.422   7.769 -0.1603 -0.6144  1.7043
 6182TIP3    H240106   0.947   4.369   7.819  1.2682  1.3781  0.1587
 6183TIP3   OH240107   6.817   0.056   7.540  0.0820 -0.0834 -0.1788
 6183TIP3    H140108   6.833  -0.022   7.485  1.7283  0.6253 -0.7903
 6183TIP3    H240109   6.847   0.129   7.486  0.0240  0.8209  0.9848
 6184TIP3   OH240110   1.290   5.424   0.038 -0.2752  0.5692 -0.1955
 6184TIP3    H140111   1.211   5.475   0.054 -0.6723 -0.4276  1.2227
 6184TIP3    H240112   1.362   5.484   0.055 -0.7246  0.5760  2.0061
 6185TIP3   OH240113   2.630   3.021   8.222  0.4287 -0.1262 -0.3027
 6185TIP3    H140114   2.715   2.978   8.217  1.6925  1.8738  1.8039
 6185TIP3    H240115   2.622   3.067   8.138  1.3564 -0.4922 -0.6064
 6186TIP3   OH240116   2.311   3.704   8.712  0.2298  0.6734  0.1492
 6186TIP3    H140117   2.228   3.740   8.679  0.7060  1.3055 -0.3855
 6186TIP3    H240118   2.377   3.764   8.680  1.0763 -0.7526 -0.8527
 6187TIP3   OH240119   0.373   6.097   0.579 -0.0630 -0.4605 -0.4014
 6187TIP3    H140120   0.397   6.069   0.491 -0.1464  0.7508 -0.8305
 6187TIP3    H240121   0.451   6.084   0.632  1.6491  3.1478 -1.6973
 6188TIP3   OH240122   1.483   6.570   7.640 -0.0823 -0.0267 -0.0673
 6188TIP3    H140123   1.533   6.645   7.609 -0.1708  0.4154  0.8152
 6188TIP3    H240124   1.440   6.602   7.720  0.7283 -1.3376  0.9163
 6189TIP3   OH240125   5.444   2.896   1.056  0.0452  0.3378  0.1441
 6189TIP3    H140126   5.511   2.845   1.010  0.4498  0.7631  0.2525
 6189TIP3    H240127   5.484   2.982   1.067  0.1338  0.1276  1.6590
 6190TIP3   OH240128   0.928   5.953   7.787  0.4121  0.9096  0.4082
 6190TIP3    H140129   1.014   5.932   7.750  0.8386 -0.3979  2.0668
 6190TIP3    H240130   0.884   5.869   7.796  0.0310  1.2665  2.1567
 6191TIP3   OH240131   6.069   0.425   8.562 -0.3920 -0.2146 -0.0975
 6191TIP3    H140132   6.056   0.357   8.495 -2.3530  0.6199 -0.6172
 6191TIP3    H240133   6.111   0.497   8.515  1.1586 -0.7831  0.3315
 6192TIP3   OH240134   3.234   1.845   8.080  0.1288  0.0190 -0.2342
 6192TIP3    H140135   3.144   1.833   8.112  0.5580 -0.7188  0.7721
 6192TIP3    H240136   3.234   1.931   8.038 -0.7379  0.5985  0.8913
 6193TIP3   OH240137   5.527   4.405   1.312 -0.0912  0.4735  0.5208
 6193TIP3    H140138   5.450   4.461   1.323 -0.3596  0.0018  1.0965
 6193TIP3    H240139   5.525   4.346   1.388 -0.2258 -0.7988 -0.4440
 6194TIP3   OH240140   4.796   3.022   2.088  0.5452 -0.3347 -0.6074
 6194TIP3    H140141   4.824   3.058   2.004 -0.5720  2.6405  0.1750
 6194TIP3    H240142   4.878   2.997   2.132  1.2215 -0.6704 -2.0000
 6195TIP3   OH240143   4.859   0.165   8.549  0.2361 -0.8069  0.0404
 6195TIP3    H140144   4.890   0.150   8.638  0.8473 -0.1645 -0.0484
 6195TIP3    H240145   4.934   0.204   8.504 -0.1489 -0.8827 -0.6850
 6196TIP3   OH240146   3.394   3.385   0.591  0.0586 -0.0088  0.0769
 6196TIP3    H140147   3.436   3.344   0.667 -0.0899 -0.9152 -0.3063
 6196TIP3    H240148   3.435   3.343   0.515 -1.0653 -0.4708 -0.3151
 6197TIP3   OH240149   2.338   4.307   0.002 -0.5145 -0.1143 -0.3423
 6197TIP3    H140150   2.262   4.270  -0.044  0.2451 -1.7603 -0.3372
 6197TIP3    H240151   2.375   4.369  -0.061 -0.5834 -0.9576 -1.2497
 6198TIP3   OH240152   1.341   2.357   0.558  0.3085 -0.5836 -0.1765
 6198TIP3    H140153   1.281   2.420   0.518 -0.3655 -1.0489  0.0912
 6198TIP3    H240154   1.330   2.369   0.652  0.6922 -0.6274 -0.1220
 6199TIP3   OH240155   1.172   5.544   6.375 -0.1823  0.2651  0.2043
 6199TIP3    H140156   1.116   5.547   6.453 -2.3567  0.7574 -1.2774
 6199TIP3    H240157   1.143   5.619   6.323 -0.1105 -1.0992 -1.9178
 6200TIP3   OH240158   3.059   4.438   7.179 -0.6061  0.2942  0.0648
 6200TIP3    H140159   3.017   4.377   7.240  0.0382  1.9906  2.3487
 6200TIP3    H240160   3.021   4.417   7.094 -1.8756 -1.9189  1.1041
 6201TIP3   OH240161   2.928   4.397   8.084 -0.3068  0.0407  0.7688
 6201TIP3    H140162   2.862   4.356   8.027 -0.2785  2.1355 -0.9286
 6201TIP3    H240163   3.009   4.392   8.034  0.3958 -0.6876  1.9502
 6202TIP3   OH240164   5.252   0.668   1.973  0.4679  0.5963  0.2322
 6202TIP3    H140165   5.246   0.593   1.915  0.1602  0.6362  0.2111
 6202TIP3    H240166   5.264   0.743   1.915 -0.3149  0.6946  0.1878
 6203TIP3   OH240167   1.201   3.254   1.340  0.2530 -0.4900 -0.4888
 6203TIP3    H140168   1.213   3.284   1.430  0.3434  0.2897 -0.7510
 6203TIP3    H240169   1.284   3.274   1.296 -0.2306  0.3145 -1.0615
 6204TIP3   OH240170   4.518   6.265   0.899  0.2141  0.3194 -0.0651
 6204TIP3    H140171   4.489   6.353   0.924  0.6056  0.1356  1.0757
 6204TIP3    H240172   4.444   6.229   0.849 -0.2865  0.9868  0.1832
 6205TIP3   OH240173   0.417   5.454   0.084  0.1392  0.0991  0.2692
 6205TIP3    H140174   0.479   5.489   0.149 -0.4042 -2.2505  2.2006
 6205TIP3    H240175   0.339   5.509   0.094  0.6214  0.7639  0.4534
 6206TIP3   OH240176   5.171   4.565   6.782  0.3660  0.1226 -0.7785
 6206TIP3    H140177   5.158   4.642   6.837  0.5997 -0.3605 -0.0370
 6206TIP3    H240178   5.259   4.575   6.746  1.0920 -0.6476  0.7130
 6207TIP3   OH240179   1.798   5.213   1.258  0.1159  0.0292 -0.1560
 6207TIP3    H140180   1.844   5.288   1.294  0.3787  0.5033 -1.4340
 6207TIP3    H240181   1.862   5.141   1.265 -0.4339 -0.3283  1.8573
 6208TIP3   OH240182   5.889   1.590   2.056  0.8215 -0.2935 -0.0526
 6208TIP3    H140183   5.907   1.683   2.043 -0.1192  0.4161  2.8929
 6208TIP3    H240184   5.830   1.566   1.985  0.4129  1.5772 -0.3822
 6209TIP3   OH240185   4.210   1.845   0.677 -1.5319 -0.1817  0.5007
 6209TIP3    H140186   4.236   1.770   0.730  0.1907 -0.5525 -0.7861
 6209TIP3    H240187   4.217   1.920   0.735 -1.9338 -0.8394  1.4196
 6210TIP3   OH240188   3.091   6.609   0.821  0.1441  0.6851 -0.1006
 6210TIP3    H140189   3.089   6.515   0.801  1.4274  0.2076  1.7650
 6210TIP3    H240190   3.131   6.649   0.744 -0.6900 -0.2436 -1.0440
 6211TIP3   OH240191   4.345   3.174   6.684 -0.8974 -0.0770  0.1658
 6211TIP3    H140192   4.304   3.222   6.756  0.2579  0.9130  0.1904
 6211TIP3    H240193   4.424   3.224   6.663 -0.3194 -1.2782 -0.6625
 6212TIP3   OH240194   1.953   6.658   8.101 -0.2696  0.3265  0.1176
 6212TIP3    H140195   1.944   6.750   8.080 -1.1021  0.5935  1.4978
 6212TIP3    H240196   2.016   6.656   8.174 -1.0753 -0.0741  0.8163
 6213TIP3   OH240197   1.770   5.088   8.406  0.0589 -0.4040 -0.6456
 6213TIP3    H140198   1.775   5.147   8.481  0.7968 -1.6656  0.3377
 6213TIP3    H240199   1.750   5.145   8.332  0.0948  0.9794  0.3690
 6214TIP3   OH240200   6.638   3.726   0.143 -0.3905  0.3269 -0.3321
 6214TIP3    H140201   6.717   3.696   0.099  0.2740  1.8546 -0.2327
 6214TIP3    H240202   6.567   3.702   0.083  0.2840  0.2196 -1.1136
 6215TIP3   OH240203   3.174   4.989   0.412 -0.8981  0.2798  0.3649
 6215TIP3    H140204   3.194   4.897   0.394  2.3349  1.1189 -1.0056
 6215TIP3    H240205   3.206   5.003   0.502  1.7653  0.7232 -0.5511
 6216TIP3   OH240206   0.775   2.806   2.397 -0.5303 -0.1561  0.3282
 6216TIP3    H140207   0.763   2.756   2.316 -1.4626  0.8832 -0.1961
 6216TIP3    H240208   0.712   2.768   2.458 -0.1319 -0.6532  0.4349
 6217TIP3   OH240209   2.071   5.034   8.163  1.3314  0.1395  0.0082
 6217TIP3    H140210   2.021   4.975   8.219  1.0317  0.4898  0.1099
 6217TIP3    H240211   2.162   5.011   8.179  1.1858 -1.3631 -1.1076
 6218TIP3   OH240212   2.282   6.020   7.498 -0.2804 -0.0806 -0.0550
 6218TIP3    H140213   2.249   6.053   7.415  1.1332 -1.6350 -1.3041
 6218TIP3    H240214   2.364   6.066   7.512  0.0590 -0.6585 -0.1172
 6219TIP3   OH240215   3.734   2.362   0.467 -0.8305 -0.4132 -0.0164
 6219TIP3    H140216   3.800   2.295   0.450 -0.5115 -0.6022  1.7843
 6219TIP3    H240217   3.782   2.445   0.463 -0.1941 -0.6087  2.3146
 6220TIP3   OH240218   2.739   3.018   0.244 -0.0614  0.5656 -0.2102
 6220TIP3    H140219   2.665   3.078   0.251  0.3356  0.9321  1.0866
 6220TIP3    H240220   2.780   3.040   0.160 -1.6980 -0.0020 -1.2155
 6221TIP3   OH240221   4.699   3.757   8.622 -0.5313 -0.4614 -1.0083
 6221TIP3    H140222   4.710   3.663   8.608  1.8633 -0.8604  2.4037
 6221TIP3    H240223   4.634   3.764   8.691  0.1606  0.2965 -0.4110
 6222TIP3   OH240224   4.878   2.310   8.763  0.3642 -0.3021 -0.1193
 6222TIP3    H140225   4.896   2.239   8.825  1.0399 -1.1759 -1.2780
 6222TIP3    H240226   4.792   2.343   8.789 -0.1150 -1.7667  0.2337
 6223TIP3   OH240227   0.591   6.766   1.719 -0.0521  0.1732  0.3558
 6223TIP3    H140228   0.532   6.736   1.650 -0.7909  0.5240  0.8172
 6223TIP3    H240229   0.543   6.750   1.800 -0.6277  2.8132  0.6252
 6224TIP3   OH240230   6.598   4.517   7.643  0.6744  0.1815  0.4272
 6224TIP3    H140231   6.649   4.491   7.566 -1.1746  0.5778 -1.0272
 6224TIP3    H240232   6.598   4.440   7.699  3.0661  0.2801  0.6321
 6225TIP3   OH240233   5.858   6.101   0.402 -0.7169 -0.1171  0.2441
 6225TIP3    H140234   5.782   6.136   0.354 -0.2689  0.1942 -0.2484
 6225TIP3    H240235   5.835   6.112   0.494 -0.8513  0.9145  0.1002
 6226TIP3   OH240236   0.978   1.691   2.848  0.2452 -0.1782  0.5595
 6226TIP3    H140237   0.930   1.773   2.863 -0.5527 -0.7099  0.9982
 6226TIP3    H240238   1.030   1.679   2.927  1.8771  0.8823 -0.3000
 6227TIP3   OH240239   1.192   3.400   1.926 -0.2766 -0.1859 -0.3398
 6227TIP3    H140240   1.264   3.337   1.925 -1.8203 -2.0920  0.7874
 6227TIP3    H240241   1.133   3.371   1.856 -2.3199 -1.7612  1.8764
 6228TIP3   OH240242   6.555   5.222   1.990 -0.1120  0.6638 -0.3898
 6228TIP3    H140243   6.568   5.155   1.922 -0.7611  0.2186 -0.0938
 6228TIP3    H240244   6.593   5.301   1.953  2.6028 -0.3140  0.1050
 6229TIP3   OH240245   2.998   5.882   2.673  0.4223 -0.5565  0.0664
 6229TIP3    H140246   2.915   5.839   2.692 -0.3579  0.8056 -0.1932
 6229TIP3    H240247   3.054   5.811   2.641 -0.5630 -1.5292  0.4256
 6230TIP3   OH240248   4.829   4.688   7.224 -0.4415  0.2124  0.4176
 6230TIP3    H140249   4.821   4.595   7.248 -0.2972  0.5333  1.7510
 6230TIP3    H240250   4.740   4.722   7.234 -0.4780  0.2406  0.0027
 6231TIP3   OH240251   1.616   2.160   1.775 -0.7011  0.3468  0.0869
 6231TIP3    H140252   1.701   2.202   1.762 -1.6353  2.3122 -0.0678
 6231TIP3    H240253   1.576   2.210   1.847 -1.0389 -1.7059  1.4176
 6232TIP3   OH240254   2.945   5.379   1.012  0.2562  0.1628  0.2843
 6232TIP3    H140255   2.926   5.473   1.021 -0.8134 -0.2297  3.7979
 6232TIP3    H240256   3.022   5.365   1.068  0.3527 -1.0776 -0.1308
 6233TIP3   OH240257   0.085   4.330   8.732 -0.0775  0.0351  0.2895
 6233TIP3    H140258   0.101   4.378   8.813 -0.0980  0.7084 -0.1027
 6233TIP3    H240259   0.006   4.369   8.695 -0.1107 -0.3182 -0.0244
 6234TIP3   OH240260   3.596   4.536   1.118 -0.0476  0.0533  0.0782
 6234TIP3    H140261   3.690   4.516   1.121 -0.2764 -0.9880  1.0031
 6234TIP3    H240262   3.586   4.591   1.040  0.9772 -1.7293 -1.3920
 6235TIP3   OH240263   1.004   3.226   6.786  0.4416 -0.5897 -0.2375
 6235TIP3    H140264   1.030   3.289   6.853  1.5811  0.5364 -1.6716
 6235TIP3    H240265   0.948   3.276   6.726  1.1523 -0.9658 -1.2493
 6236TIP3   OH240266   6.060   3.194   8.177  0.4392 -0.8765  0.1224
 6236TIP3    H140267   6.011   3.219   8.099  0.0960 -1.8500  0.0147
 6236TIP3    H240268   6.074   3.276   8.224 -0.9536 -0.5238 -0.0388
 6237TIP3   OH240269   5.977   1.194   0.142 -0.4108 -0.3374  0.3646
 6237TIP3    H140270   6.014   1.108   0.123 -0.8393 -0.1495 -1.4670
 6237TIP3    H240271   5.987   1.204   0.237 -0.6817 -2.5560  0.6712
 6238TIP3   OH240272   3.678   4.067   8.643 -0.2967  0.6328 -0.0211
 6238TIP3    H140273   3.590   4.103   8.655 -0.2580  0.5579  0.5071
 6238TIP3    H240274   3.682   3.993   8.703 -0.1366  0.1581 -0.6054
 6239TIP3   OH240275   0.634   5.039   0.456 -0.3625 -0.2136 -0.4731
 6239TIP3    H140276   0.635   4.947   0.428  3.4103 -0.2003 -0.8990
 6239TIP3    H240277   0.632   5.089   0.375 -0.9201  0.0686 -0.2870
 6240TIP3   OH240278   2.072   5.730   7.437 -0.4385 -0.5110 -0.1204
 6240TIP3    H140279   2.090   5.810   7.387 -0.6853 -1.2077 -1.3492
 6240TIP3    H240280   2.070   5.660   7.372 -1.2680 -1.3769  0.7987
 6241TIP3   OH240281   0.898   0.583   0.347  0.3225 -0.2610 -0.2461
 6241TIP3    H140282   0.943   0.667   0.344  0.9579 -0.2477  3.8080
 6241TIP3    H240283   0.966   0.520   0.369 -0.8592 -1.0213  1.4208
 6242TIP3   OH240284   4.222   1.261   1.376  0.1415 -0.5079 -0.0965
 6242TIP3    H140285   4.283   1.192   1.401 -1.4023 -1.6240  0.7771
 6242TIP3    H240286   4.190   1.296   1.459 -2.8787 -2.2622 -0.3982
 6243TIP3   OH240287   2.834   0.281   7.338  0.3557  0.3160  0.1417
 6243TIP3    H140288   2.906   0.305   7.280 -0.1528  0.5454 -0.4109
 6243TIP3    H240289   2.839   0.186   7.345  1.7174  0.4351  1.4572
 6244TIP3   OH240290   5.414   0.520   0.750  0.5903 -0.1347  0.4519
 6244TIP3    H140291   5.438   0.442   0.800  1.4694  0.6125  1.2298
 6244TIP3    H240292   5.386   0.583   0.816 -0.7188  0.0289 -0.2149
 6245TIP3   OH240293   3.306   4.098   0.345 -0.2103 -1.0057 -0.0464
 6245TIP3    H140294   3.352   4.174   0.380 -1.9685  0.9851 -1.7403
 6245TIP3    H240295   3.375   4.033   0.328  1.9742  1.5597 -1.8665
 6246TIP3   OH240296   0.290   0.478   0.467  0.5820 -0.1332  0.4101
 6246TIP3    H140297   0.272   0.556   0.415  0.7121 -0.2508  0.1906
 6246TIP3    H240298   0.381   0.490   0.496  0.3688  0.1472  0.9802
 6247TIP3   OH240299   5.985   4.522   1.013  0.5321  0.8163  0.2911
 6247TIP3    H140300   5.950   4.500   1.100 -0.4555 -0.5533 -0.4166
 6247TIP3    H240301   5.929   4.594   0.983 -0.7970 -0.3789 -0.2164
 6248TIP3   OH240302   5.320   1.482   1.156  0.0273 -0.1940 -0.0667
 6248TIP3    H140303   5.229   1.499   1.132  0.6131 -0.3765 -2.7928
 6248TIP3    H240304   5.368   1.557   1.122  0.6954  1.7091  4.3510
 6249TIP3   OH240305   0.534   0.625   0.357 -0.7425  0.2080 -0.4622
 6249TIP3    H140306   0.606   0.686   0.340 -0.4186 -0.2712 -0.8039
 6249TIP3    H240307   0.482   0.626   0.276 -0.0567 -0.8951 -0.9303
 6250TIP3   OH240308   0.333   6.156   0.034 -0.8045  1.1067 -0.7721
 6250TIP3    H140309   0.404   6.211   0.001  1.4588 -0.1133  1.6894
 6250TIP3    H240310   0.303   6.202   0.113 -0.5620  0.0815 -0.0621
 6251TIP3   OH240311   2.213   4.195   6.696 -0.0319  0.4418  0.3251
 6251TIP3    H140312   2.123   4.225   6.686  0.1159  0.8692  0.2383
 6251TIP3    H240313   2.252   4.255   6.759  0.7602  1.5314 -1.1388
 6252TIP3   OH240314   3.491   2.275   7.445 -0.0367  0.1932  0.4809
 6252TIP3    H140315   3.481   2.369   7.433  0.4987  0.4218  1.6312
 6252TIP3    H240316   3.446   2.257   7.528 -1.0759 -0.7519 -0.2702
 6253TIP3   OH240317   5.332   6.673   2.645 -0.1693 -0.2365 -0.6799
 6253TIP3    H140318   5.358   6.735   2.713 -0.4625  1.3715 -1.9841
 6253TIP3    H240319   5.347   6.587   2.684  0.3728  0.6416  1.1341
 6254TIP3   OH240320   3.932   1.121   8.269  0.0225  0.2434  0.3749
 6254TIP3    H140321   3.911   1.093   8.358  0.6932  0.1939  0.5276
 6254TIP3    H240322   4.024   1.149   8.274 -0.0922  0.7421 -0.1854
 6255TIP3   OH240323   6.742   3.670   8.694 -0.5768  0.0421  0.4540
 6255TIP3    H140324   6.654   3.655   8.658 -0.1625 -0.6397 -0.3018
 6255TIP3    H240325   6.776   3.744   8.645 -0.1599 -0.6421 -0.2932
 6256TIP3   OH240326   2.174   0.597   2.170  0.0524 -0.3107  0.1658
 6256TIP3    H140327   2.117   0.656   2.121  0.5155  0.3032  0.3464
 6256TIP3    H240328   2.262   0.631   2.155  0.2322 -0.2980  1.1630
 6257TIP3   OH240329   3.038   0.287   7.122  0.3170  0.3417 -0.0590
 6257TIP3    H140330   3.099   0.238   7.176  1.0992  1.0657 -0.2706
 6257TIP3    H240331   3.070   0.277   7.033 -1.4335 -1.5386 -0.5617
 6258TIP3   OH240332   3.083   2.977   0.920  0.7037  0.1552 -0.0991
 6258TIP3    H140333   3.166   3.021   0.901  0.6358  0.2124 -0.2650
 6258TIP3    H240334   3.016   3.042   0.898  0.6378  0.5301  1.1179
 6259TIP3   OH240335   3.560   4.623   3.126 -0.5521 -0.0446 -0.2380
 6259TIP3    H140336   3.651   4.654   3.127 -0.6034  0.1092  0.1770
 6259TIP3    H240337   3.513   4.689   3.075 -0.4708  0.0045 -0.2504
 6260TIP3   OH240338   0.260   3.100   7.992  0.3040  0.3276  0.3031
 6260TIP3    H140339   0.188   3.157   8.019  0.5328  0.1930  1.2596
 6260TIP3    H240340   0.277   3.046   8.070 -0.7233 -1.9197 -0.9238
 6261TIP3   OH240341   4.466   1.136   0.276 -0.4314  0.5709 -0.2758
 6261TIP3    H140342   4.396   1.200   0.293 -1.2035 -0.6311  1.4077
 6261TIP3    H240343   4.426   1.052   0.298  1.6256 -0.1322  1.0691
 6262TIP3   OH240344   3.355   5.232   0.929  0.4720 -0.3416 -0.0941
 6262TIP3    H140345   3.405   5.255   1.008 -0.3403 -0.2957  0.4226
 6262TIP3    H240346   3.298   5.161   0.958  0.0137 -0.1718 -0.5873
 6263TIP3   OH240347   2.571   0.795   0.069 -0.5660  0.5822  0.1394
 6263TIP3    H140348   2.583   0.841   0.152 -1.2194  1.3304 -0.1721
 6263TIP3    H240349   2.644   0.824   0.014  0.5757 -0.8365  0.8220
 6264TIP3   OH240350   0.063   2.465   1.761 -0.7030 -0.3351  0.5084
 6264TIP3    H140351  -0.019   2.416   1.754  0.6471 -2.6775 -0.0152
 6264TIP3    H240352   0.128   2.399   1.782  1.0023  1.5416  1.4371
 6265TIP3   OH240353   6.027   4.852   0.370  0.2503 -0.4631 -0.0253
 6265TIP3    H140354   5.993   4.877   0.456  1.7712 -0.4982  0.6059
 6265TIP3    H240355   6.122   4.860   0.378  0.5204 -2.0915 -1.1813
 6266TIP3   OH240356   3.947   6.534   7.106 -0.2504  0.0718  0.1627
 6266TIP3    H140357   3.878   6.600   7.110  1.9944  2.5537  2.7670
 6266TIP3    H240358   4.011   6.570   7.044  0.2631 -0.4264  0.3941
 6267TIP3   OH240359   4.379   2.745   2.056 -0.0463 -0.7708  0.4486
 6267TIP3    H140360   4.429   2.735   2.137 -1.1003  0.7911  1.3465
 6267TIP3    H240361   4.417   2.823   2.015 -0.1186 -1.0332 -0.1271
 6268TIP3   OH240362   3.491   5.362   1.142 -0.3567  0.2524 -0.3416
 6268TIP3    H140363   3.453   5.447   1.162  0.7441  0.7179 -0.1865
 6268TIP3    H240364   3.583   5.380   1.125  0.3304 -1.1510  1.5609
 6269TIP3   OH240365   4.648   6.791   7.829  0.1796 -0.4681 -0.2452
 6269TIP3    H140366   4.640   6.720   7.893 -1.5344 -1.1457 -1.1353
 6269TIP3    H240367   4.742   6.803   7.818  0.5014 -1.8209  0.7909
 6270TIP3   OH240368   3.064   4.138   0.585 -0.4138 -0.1286 -0.0594
 6270TIP3    H140369   3.054   4.157   0.678 -0.6363  0.0254 -0.1138
 6270TIP3    H240370   3.152   4.171   0.563 -0.1086 -0.7360  0.2343
 6271TIP3   OH240371   2.388   2.281   8.572 -0.0454 -0.2362 -0.3105
 6271TIP3    H140372   2.353   2.237   8.650  0.1107 -0.0181 -0.1162
 6271TIP3    H240373   2.482   2.290   8.589 -0.2634  1.3660  0.2467
 6272TIP3   OH240374   3.763   4.374   0.813 -0.2836 -0.9479  0.3369
 6272TIP3    H140375   3.693   4.312   0.794 -1.1514  0.0551  0.1575
 6272TIP3    H240376   3.783   4.360   0.905  0.3174 -2.2501  0.0322
 6273TIP3   OH240377   6.304   3.504   1.912  0.2534  0.3189  0.0621
 6273TIP3    H140378   6.248   3.427   1.905  0.9228 -0.0525 -1.7235
 6273TIP3    H240379   6.393   3.469   1.916  0.4644  0.8232  4.1781
 6274TIP3   OH240380   3.252   0.820   1.130 -0.0451  0.4507  0.2035
 6274TIP3    H140381   3.263   0.881   1.202 -0.0591 -0.7371  1.2397
 6274TIP3    H240382   3.305   0.743   1.154 -1.4091 -0.6656 -0.2045
 6275TIP3   OH240383   5.776   2.204   8.231  0.1379 -0.2732 -0.3556
 6275TIP3    H140384   5.712   2.258   8.277 -0.4141 -1.4401  0.3023
 6275TIP3    H240385   5.851   2.200   8.291 -0.4440 -1.5032  0.3380
 6276TIP3   OH240386   5.128   0.711   7.870  0.1079  0.2132  0.0423
 6276TIP3    H140387   5.070   0.748   7.936  0.0001  0.9684 -0.4619
 6276TIP3    H240388   5.114   0.617   7.875 -1.6640  0.4136 -0.5076
 6277TIP3   OH240389   5.083   0.533   8.525 -0.4778 -0.0973 -0.1779
 6277TIP3    H140390   5.085   0.627   8.506  0.9837  0.0760  0.7279
 6277TIP3    H240391   5.068   0.528   8.620  2.1608 -0.6693  0.2806
 6278TIP3   OH240392   3.581   0.866   7.239  0.2276  0.3067 -0.2311
 6278TIP3    H140393   3.510   0.921   7.272 -0.4676 -0.2820 -0.7170
 6278TIP3    H240394   3.540   0.783   7.219  0.9695  0.0958 -0.9431
 6279TIP3   OH240395   5.846   3.927   0.951  0.4572 -0.4790 -0.3692
 6279TIP3    H140396   5.934   3.924   0.915  0.1358 -0.3011 -1.1968
 6279TIP3    H240397   5.819   4.019   0.943  0.9285 -0.1166  1.7275
 6280TIP3   OH240398   6.406   5.097   8.400  0.1815  0.4185 -0.1219
 6280TIP3    H140399   6.340   5.122   8.335 -0.2717  3.7851  1.4374
 6280TIP3    H240400   6.355   5.081   8.480  1.0742  1.1708  0.6204
 6281TIP3   OH240401   6.482   3.636   8.594  0.3105 -0.1682 -0.2880
 6281TIP3    H140402   6.437   3.551   8.586 -0.2814  0.1631 -0.5634
 6281TIP3    H240403   6.417   3.694   8.633  0.4196  0.3776 -0.8962
 6282TIP3   OH240404   4.054   6.423   7.960  0.3295 -0.0476 -0.3620
 6282TIP3    H140405   4.100   6.359   7.905 -0.0184 -1.0848  0.5055
 6282TIP3    H240406   4.113   6.499   7.962  0.5032 -0.1010 -1.8640
 6283TIP3   OH240407   0.438   5.260   7.438  0.5469 -0.8657 -0.2738
 6283TIP3    H140408   0.466   5.278   7.528 -0.9960 -2.1737  0.5151
 6283TIP3    H240409   0.373   5.191   7.446 -0.0549 -0.6210 -2.3629
 6284TIP3   OH240410   3.119   5.673   0.122  0.1356 -0.3826  0.2161
 6284TIP3    H140411   3.070   5.591   0.114 -1.1879  0.4743 -1.1465
 6284TIP3    H240412   3.064   5.737   0.077  0.9204  1.3577  1.6166
 6285TIP3   OH240413   4.368   6.164   1.736  0.6374  0.1659  0.5760
 6285TIP3    H140414   4.398   6.114   1.813  1.3193 -0.7506 -0.2599
 6285TIP3    H240415   4.373   6.101   1.664 -1.1956  0.6593 -0.0123
 6286TIP3   OH240416   0.700   3.724   1.825  0.1608 -0.0879 -0.1431
 6286TIP3    H140417   0.665   3.770   1.901 -0.6909  0.6280 -0.9373
 6286TIP3    H240418   0.622   3.694   1.777  0.6555  0.1847 -1.1462
 6287TIP3   OH240419   6.295   1.749   8.037  0.1871  0.6395 -0.2515
 6287TIP3    H140420   6.273   1.780   8.124 -0.2147 -1.1677  0.3454
 6287TIP3    H240421   6.244   1.803   7.977 -0.2475  1.2752  0.6870
 6288TIP3   OH240422   5.432   5.071   1.718 -0.0955  0.1159  0.2729
 6288TIP3    H140423   5.478   5.146   1.755 -0.2015  0.6520 -0.6502
 6288TIP3    H240424   5.400   5.102   1.633 -4.4167  0.6157  1.8854
 6289TIP3   OH240425   5.924   4.903   0.134 -0.2222 -0.0821  0.3929
 6289TIP3    H140426   5.935   4.991   0.097 -0.6307 -0.3018 -0.2655
 6289TIP3    H240427   5.950   4.912   0.225 -2.1523  1.1962  0.8860
 6290TIP3   OH240428   1.908   1.789   7.633 -0.2200 -0.2140 -0.2426
 6290TIP3    H140429   1.919   1.882   7.613  1.8800 -0.1612  0.8307
 6290TIP3    H240430   1.815   1.779   7.650 -0.2352  2.1514  1.5975
 6291TIP3   OH240431   2.740   4.629   1.822  0.1110 -0.2148  0.0746
 6291TIP3    H140432   2.680   4.586   1.761  0.1139  0.8155 -0.6681
 6291TIP3    H240433   2.683   4.667   1.889  0.1946 -3.1547  1.9980
 6292TIP3   OH240434   5.622   6.626   0.426  0.5990 -0.2316  0.7991
 6292TIP3    H140435   5.715   6.605   0.416  0.2840 -0.7743 -1.4482
 6292TIP3    H240436   5.620   6.722   0.432  1.2776 -0.1895  0.4319
 6293TIP3   OH240437   0.549   4.333   2.161 -0.4793  0.1239  0.2719
 6293TIP3    H140438   0.641   4.332   2.133 -0.3869  1.1841  0.4651
 6293TIP3    H240439   0.515   4.247   2.137  0.1595  0.2492 -1.2041
 6294TIP3   OH240440   1.398   2.430   6.805  0.2037  0.3338 -0.1000
 6294TIP3    H140441   1.321   2.465   6.760 -0.3310  0.0962  0.5986
 6294TIP3    H240442   1.433   2.503   6.855  2.1572  1.2431 -2.5781
 6295TIP3   OH240443   2.471   5.043   2.397  0.4204 -0.5468 -0.4039
 6295TIP3    H140444   2.494   5.114   2.457 -2.7086  0.7525 -0.5633
 6295TIP3    H240445   2.433   4.975   2.453 -2.0129  0.4477 -0.7338
 6296TIP3   OH240446   2.381   4.012   2.314 -0.1147  0.3292  0.5465
 6296TIP3    H140447   2.366   3.927   2.356 -1.1797  0.3777  0.2798
 6296TIP3    H240448   2.336   4.006   2.230 -0.1475  1.1437  0.4965
 6297TIP3   OH240449   3.253   1.036   1.312 -0.0797 -0.0703  0.0517
 6297TIP3    H140450   3.307   1.088   1.252  0.5233 -1.3717 -0.5565
 6297TIP3    H240451   3.316   0.995   1.371 -0.5740  0.0368  0.6687
 6298TIP3   OH240452   6.524   3.764   0.826  0.1723  0.4041 -0.2698
 6298TIP3    H140453   6.438   3.770   0.784 -1.2186  0.1231  2.3078
 6298TIP3    H240454   6.553   3.855   0.833  0.1259  0.5008 -1.1472
 6299TIP3   OH240455   4.043   3.825   8.027 -0.3917 -0.3862  0.1224
 6299TIP3    H140456   3.998   3.793   7.948 -0.0385  0.8996 -0.6340
 6299TIP3    H240457   4.080   3.746   8.067  0.4104 -0.9782 -1.6395
 6300TIP3   OH240458   1.697   3.223   0.281  0.2760 -0.3914 -0.3829
 6300TIP3    H140459   1.608   3.257   0.276  0.0301 -0.9438  0.2031
 6300TIP3    H240460   1.687   3.129   0.297  0.9493 -0.0960  2.2205
 6301TIP3   OH240461   3.269   2.804   7.752  0.0305  0.6664 -0.3469
 6301TIP3    H140462   3.199   2.741   7.768  0.1364  0.4414 -0.7588
 6301TIP3    H240463   3.239   2.854   7.677  0.0416  0.9714 -0.1502
 6302TIP3   OH240464   5.287   5.514   2.243 -0.7075 -0.3852  0.4069
 6302TIP3    H140465   5.296   5.562   2.326 -1.0790 -2.1051  1.5069
 6302TIP3    H240466   5.291   5.422   2.269  0.3206 -0.9713 -1.6533
 6303TIP3   OH240467   5.738   1.574   1.445  0.2603 -0.1930 -0.6028
 6303TIP3    H140468   5.681   1.645   1.413 -0.0091 -0.3483 -0.4690
 6303TIP3    H240469   5.708   1.497   1.397  0.8136 -0.1455 -1.0417
 6304TIP3   OH240470   3.385   0.161   8.545  0.6272 -0.0150 -0.0895
 6304TIP3    H140471   3.347   0.087   8.592  1.4700 -0.4504 -0.0761
 6304TIP3    H240472   3.360   0.238   8.597  2.6525 -0.5852  1.8570
 6305TIP3   OH240473   4.224   6.503   8.464  0.2522 -0.3394 -0.3402
 6305TIP3    H140474   4.303   6.555   8.447  0.9786 -1.2789  0.0808
 6305TIP3    H240475   4.202   6.521   8.555  1.7457 -2.3299  0.4842
 6306TIP3   OH240476   1.478   2.158   8.585 -0.4764  0.3324  0.4007
 6306TIP3    H140477   1.567   2.123   8.582 -0.6512 -0.1059  0.2269
 6306TIP3    H240478   1.456   2.177   8.494 -0.3583  0.9668  0.5018
 6307TIP3   OH240479   6.739   4.244   2.281 -0.6423  0.1005 -0.2546
 6307TIP3    H140480   6.653   4.215   2.312 -1.0143  0.8206 -0.5776
 6307TIP3    H240481   6.747   4.334   2.314  0.4417 -0.3157  0.6558
 6308TIP3   OH240482   2.549   6.704   8.410 -0.2678  0.3302 -0.2502
 6308TIP3    H140483   2.632   6.665   8.437 -0.7097  0.6544  1.6984
 6308TIP3    H240484   2.484   6.635   8.425 -0.7124  0.9752  0.8669
 6309TIP3   OH240485   0.441   4.768   0.996  0.3956 -0.4924  0.0750
 6309TIP3    H140486   0.393   4.826   0.937 -0.2949 -0.6032  0.5111
 6309TIP3    H240487   0.476   4.826   1.064  1.1149 -0.3773 -0.3811
 6310TIP3   OH240488   2.374   5.241   0.626  0.2361  0.0128  0.4542
 6310TIP3    H140489   2.431   5.164   0.631 -1.3784 -1.1691  1.9637
 6310TIP3    H240490   2.401   5.285   0.546  1.6938 -1.7461 -0.1057
 6311TIP3   OH240491   4.150   0.495   7.462  0.1651 -0.4749 -0.4552
 6311TIP3    H140492   4.242   0.475   7.483  0.2171 -0.3895 -0.6029
 6311TIP3    H240493   4.102   0.416   7.489  0.3365 -0.6980 -0.7877
 6312TIP3   OH240494   5.683   1.409   7.077  0.2771  0.0112 -1.0018
 6312TIP3    H140495   5.764   1.375   7.115 -0.5592 -1.2193 -0.2560
 6312TIP3    H240496   5.671   1.495   7.119 -0.0359 -0.8324  0.7232
 6313TIP3   OH240497   4.276   6.087   0.508 -0.2791 -0.6851  0.3839
 6313TIP3    H140498   4.304   5.996   0.505 -0.8998 -0.9177  1.1464
 6313TIP3    H240499   4.186   6.083   0.540  0.6733  0.3363  3.5575
 6314TIP3   OH240500   0.688   6.812   8.454 -1.0665 -0.6382  0.2099
 6314TIP3    H140501   0.685   6.835   8.547  0.4349  0.6340 -0.0125
 6314TIP3    H240502   0.636   6.732   8.447 -1.8120 -0.3498  2.0124
 6315TIP3   OH240503   4.161   4.918   1.194  0.3182  0.2515 -0.3992
 6315TIP3    H140504   4.119   5.001   1.219  0.9348  0.0358  1.5088
 6315TIP3    H240505   4.088   4.856   1.190 -0.1388  0.8159 -1.7693
 6316TIP3   OH240506   4.520   2.768   2.335  0.1018  0.2662 -0.1273
 6316TIP3    H140507   4.585   2.769   2.265 -0.8531 -2.3142 -1.1765
 6316TIP3    H240508   4.571   2.776   2.415  1.4169  1.1541 -0.9977
 6317TIP3   OH240509   4.944   0.110   0.022  0.2966 -0.0096  0.6539
 6317TIP3    H140510   4.907   0.033   0.065  0.2507 -0.6973 -0.5561
 6317TIP3    H240511   5.024   0.129   0.070 -0.6627  0.3798  2.1664
 6318TIP3   OH240512   1.566   2.931   8.283 -0.1059  0.0910  0.4415
 6318TIP3    H140513   1.581   3.025   8.276  0.2485  0.1209  1.4411
 6318TIP3    H240514   1.638   2.899   8.338  0.0725 -0.8489 -0.3091
 6319TIP3   OH240515   2.528   5.231   7.234  0.5482  0.6984  0.3512
 6319TIP3    H140516   2.600   5.276   7.190  0.2078 -0.4530 -1.4606
 6319TIP3    H240517   2.452   5.288   7.221  0.0176 -0.5019 -2.3288
 6320TIP3   OH240518   2.611   4.615   0.409  0.3090  0.3618 -0.3606
 6320TIP3    H140519   2.603   4.678   0.336  0.1750  1.6605  0.7356
 6320TIP3    H240520   2.524   4.615   0.450  0.0949 -1.1113 -0.7632
 6321TIP3   OH240521   2.788   1.235   1.514  0.2309  0.5523 -0.6436
 6321TIP3    H140522   2.850   1.189   1.570 -0.6065 -1.1698 -1.0533
 6321TIP3    H240523   2.800   1.197   1.427 -3.4535 -2.2837 -0.1834
 6322TIP3   OH240524   2.556   0.464   7.933  0.4049  0.6533  0.7089
 6322TIP3    H140525   2.652   0.465   7.935  0.4134  0.0178  2.1124
 6322TIP3    H240526   2.531   0.548   7.972  0.3913  0.6578  0.6907
 6323TIP3   OH240527   4.062   1.838   0.446  0.0491 -0.4469 -0.5031
 6323TIP3    H140528   4.132   1.852   0.510 -0.3006 -0.5135 -0.1041
 6323TIP3    H240529   4.092   1.764   0.393  0.3453 -0.3827 -0.4248
 6324TIP3   OH240530   4.879   0.557   7.793 -0.4590 -0.0934  0.1562
 6324TIP3    H140531   4.793   0.595   7.781 -0.9410 -0.6049  1.7397
 6324TIP3    H240532   4.910   0.592   7.876  1.3963  1.0113 -0.9334
 6325TIP3   OH240533   4.247   2.603   7.016  0.3843  0.4368 -0.0191
 6325TIP3    H140534   4.338   2.633   7.018  1.0419 -1.3254 -0.8577
 6325TIP3    H240535   4.195   2.683   7.007  1.8332  1.4898  0.5734
 6326TIP3   OH240536   2.628   4.268   8.413  0.4432  0.2893 -0.7918
 6326TIP3    H140537   2.624   4.357   8.379  1.0844  1.2083  1.3876
 6326TIP3    H240538   2.537   4.245   8.431  0.3449  0.7855 -0.6498
 6327TIP3   OH240539   2.021   5.756   7.980  0.4418 -0.0532 -0.1317
 6327TIP3    H140540   2.018   5.727   7.888  1.0192 -2.7130  0.5989
 6327TIP3    H240541   2.093   5.706   8.018 -0.6158  0.0037  2.0761
 6328TIP3   OH240542   2.158   4.703   0.757 -0.0232  0.5577 -0.4351
 6328TIP3    H140543   2.224   4.771   0.766 -0.3690  0.8361  0.0586
 6328TIP3    H240544   2.083   4.736   0.807  0.6012 -1.2084  1.7948
 6329TIP3   OH240545   6.561   2.881   2.103  0.8814 -0.0889  0.1099
 6329TIP3    H140546   6.550   2.806   2.045  2.2848  0.5332 -1.0221
 6329TIP3    H240547   6.559   2.843   2.191 -2.0573 -0.9528 -0.2195
 6330TIP3   OH240548   0.455   1.084   1.944 -0.3697  0.1855  0.5081
 6330TIP3    H140549   0.527   1.030   1.912  0.5505  1.4630  0.3204
 6330TIP3    H240550   0.472   1.094   2.038  1.3700  2.7874  0.0167
 6331TIP3   OH240551   6.583   6.601   2.383 -0.4772  0.0474  0.0464
 6331TIP3    H140552   6.580   6.696   2.397 -0.9852 -0.0450  0.5838
 6331TIP3    H240553   6.561   6.564   2.468  0.2452 -0.5636 -0.0216
 6332TIP3   OH240554   0.524   0.521   1.703 -0.1289  0.8354 -0.0809
 6332TIP3    H140555   0.504   0.434   1.670 -0.0872  0.5561  0.6207
 6332TIP3    H240556   0.578   0.506   1.781 -0.0719  1.4870  0.0128
 6333TIP3   OH240557   4.950   5.283   8.024 -0.1775  0.6516  0.0296
 6333TIP3    H140558   5.004   5.230   7.965  0.2533 -0.3247  1.2633
 6333TIP3    H240559   4.893   5.333   7.965  0.2680 -0.2433 -1.2133
 6334TIP3   OH240560   2.565   3.539   7.557 -0.3839  0.6422 -0.0365
 6334TIP3    H140561   2.575   3.551   7.463  1.1189  1.3925  0.1961
 6334TIP3    H240562   2.645   3.494   7.584 -1.0388 -0.0441  0.8150
 6335TIP3   OH240563   5.021   1.739   0.930  0.0646  0.4159  0.2379
 6335TIP3    H140564   5.011   1.801   0.858 -0.3674  1.0169  0.8046
 6335TIP3    H240565   4.944   1.753   0.985  0.4941  0.1118  0.9299
 6336TIP3   OH240566   6.512   1.256   0.128  0.7705 -0.6752  0.6072
 6336TIP3    H140567   6.443   1.305   0.172  1.2216 -0.2389  0.8410
 6336TIP3    H240568   6.469   1.178   0.094  0.3933 -0.9379  1.6815
 6337TIP3   OH240569   5.844   4.919   1.546 -1.0533  0.4553 -0.6882
 6337TIP3    H140570   5.829   4.947   1.456  0.5088  0.4423 -0.9772
 6337TIP3    H240571   5.874   4.828   1.539 -0.6212  0.5510 -0.1925
 6338TIP3   OH240572   0.417   5.605   2.500 -0.5654  0.4347 -0.1384
 6338TIP3    H140573   0.380   5.691   2.518 -0.7858 -0.1698  2.7959
 6338TIP3    H240574   0.362   5.544   2.549  1.2333 -1.0374  0.1643
 6339TIP3   OH240575   0.046   4.182   8.448 -0.1003  0.4561  0.1916
 6339TIP3    H140576   0.076   4.211   8.362  2.2927  0.9101  1.0881
 6339TIP3    H240577   0.095   4.237   8.510 -1.9307  0.3161  1.8716
 6340TIP3   OH240578   4.829   0.973   7.734 -0.2157 -0.2314  0.4293
 6340TIP3    H140579   4.869   1.031   7.799 -1.2009 -1.2156  2.0060
 6340TIP3    H240580   4.902   0.927   7.693  0.4008 -0.8784  2.1561
 6341TIP3   OH240581   5.259   0.592   2.283 -0.4218 -0.6300 -0.2629
 6341TIP3    H140582   5.186   0.617   2.340 -0.2648  1.6182 -0.9602
 6341TIP3    H240583   5.243   0.639   2.201  1.6641 -0.2662 -0.5198
 6342TIP3   OH240584   4.695   0.002   2.296  0.3947  0.0392  0.0860
 6342TIP3    H140585   4.624  -0.033   2.243 -0.4303  1.0735  0.4867
 6342TIP3    H240586   4.728  -0.074   2.345  0.5648 -0.7414 -1.1875
 6343TIP3   OH240587   1.504   0.522   7.638  0.2721  0.4967 -0.0059
 6343TIP3    H140588   1.503   0.616   7.617  0.3362  0.3036 -0.9375
 6343TIP3    H240589   1.585   0.490   7.598  0.8151  0.2366  1.2493
 6344TIP3   OH240590   4.232   0.069   0.282 -0.0755  0.2775  0.7288
 6344TIP3    H140591   4.152   0.016   0.290 -0.4402  0.9653  1.8336
 6344TIP3    H240592   4.269   0.043   0.198 -1.6675  0.2312  0.0079
 6345TIP3   OH240593   3.111   4.480   0.247 -0.1624 -0.3520 -0.1826
 6345TIP3    H140594   3.054   4.460   0.321 -2.6663 -1.0881 -2.1750
 6345TIP3    H240595   3.064   4.548   0.197  2.2813  1.4558 -0.2467
 6346TIP3   OH240596   4.108   5.877   1.549 -0.1326  0.0928 -0.7513
 6346TIP3    H140597   4.077   5.932   1.477  0.9263  0.9824 -0.5531
 6346TIP3    H240598   4.202   5.895   1.554  0.4545 -2.4606 -1.3004
 6347TIP3   OH240599   3.343   6.759   2.425 -0.0021  0.4114 -0.4001
 6347TIP3    H140600   3.257   6.718   2.417  0.5006 -0.6834 -0.4160
 6347TIP3    H240601   3.354   6.773   2.519  0.1732 -0.3187 -0.3013
 6348TIP3   OH240602   4.852   2.244   7.729 -0.5459  0.2649 -0.1397
 6348TIP3    H140603   4.871   2.290   7.647 -0.2449  2.4934  1.1126
 6348TIP3    H240604   4.757   2.240   7.733 -0.6178  1.7998  0.2248
 6349TIP3   OH240605   4.720   1.257   0.712  0.4398 -0.6409  0.6087
 6349TIP3    H140606   4.801   1.245   0.761  1.9671  0.8537 -1.4001
 6349TIP3    H240607   4.742   1.233   0.622 -1.5145 -0.6976  0.0931
 6350TIP3   OH240608   6.369   0.540   7.190  0.0016  0.2520  0.1560
 6350TIP3    H140609   6.448   0.594   7.195 -0.2004  0.6792 -0.8478
 6350TIP3    H240610   6.383   0.485   7.113 -1.1833  1.2056 -0.7814
 6351TIP3   OH240611   3.782   3.964   7.570 -0.4100 -0.3151 -0.2824
 6351TIP3    H140612   3.848   3.923   7.514 -0.2437  0.7859 -0.9463
 6351TIP3    H240613   3.721   4.005   7.508 -0.6380  0.3048  0.3334
 6352TIP3   OH240614   6.784   3.035   7.022  0.3426 -0.2828 -0.7067
 6352TIP3    H140615   6.879   3.027   7.032  0.2239 -0.1769  0.6715
 6352TIP3    H240616   6.766   3.127   7.040 -0.1494 -0.5767  0.3999
 6353TIP3   OH240617   5.389   5.017   7.071 -0.0260 -0.4683 -0.0292
 6353TIP3    H140618   5.468   5.071   7.079 -0.0554 -0.6330  1.9123
 6353TIP3    H240619   5.422   4.927   7.065  0.0229 -0.3497 -3.2412
 6354TIP3   OH240620   1.155   5.310   6.626 -0.4695  0.6412  0.5600
 6354TIP3    H140621   1.144   5.243   6.558 -1.5703 -0.8714  2.1646
 6354TIP3    H240622   1.095   5.381   6.599 -0.5553  0.2688 -0.2692
 6355TIP3   OH240623   6.635   5.718   1.563  0.6377 -0.1103  0.6426
 6355TIP3    H140624   6.687   5.671   1.629 -1.1481  0.5649  2.6536
 6355TIP3    H240625   6.653   5.811   1.581 -1.7673  0.1780  1.9290
 6356TIP3   OH240626   2.831   2.763   7.621  0.2852  0.3296  0.5417
 6356TIP3    H140627   2.810   2.734   7.532 -1.5191 -2.0322  1.6061
 6356TIP3    H240628   2.917   2.723   7.639  0.2577  0.0826  0.1452
 6357TIP3   OH240629   0.385   2.540   8.315 -0.9522 -0.1422 -0.1950
 6357TIP3    H140630   0.379   2.515   8.408 -0.6673 -0.1534 -0.1780
 6357TIP3    H240631   0.354   2.463   8.268 -0.8191 -0.2437 -0.1172
 6358TIP3   OH240632   0.372   4.343   7.399  0.4430 -0.1656 -0.3282
 6358TIP3    H140633   0.287   4.371   7.365  0.1937 -0.9665 -0.3890
 6358TIP3    H240634   0.409   4.287   7.330  3.1428  3.7343 -2.4429
 6359TIP3   OH240635   1.813   4.559   0.198 -0.6042  0.1586  0.3768
 6359TIP3    H140636   1.778   4.544   0.110 -0.1318 -0.7114  0.3333
 6359TIP3    H240637   1.881   4.626   0.185  1.0239 -1.5576 -0.3026
 6360TIP3   OH240638   2.049   0.253   8.578 -0.0283  1.0362 -0.3444
 6360TIP3    H140639   1.988   0.298   8.636  1.4121  0.8616  1.4075
 6360TIP3    H240640   2.127   0.240   8.631  0.9012 -0.3247 -1.9396
 6361TIP3   OH240641   2.099   1.997   0.067  0.5086 -0.2575 -0.3977
 6361TIP3    H140642   2.082   1.936  -0.005 -0.2235  0.0875 -0.5204
 6361TIP3    H240643   2.133   1.941   0.137  1.1266 -0.6122 -0.9607
 6362TIP3   OH240644   2.873   1.348   8.715 -0.4138 -0.3557  0.0249
 6362TIP3    H140645   2.935   1.340   8.788  0.8250  2.2533 -0.6300
 6362TIP3    H240646   2.787   1.332   8.755  0.2483  0.6005  1.9758
 6363TIP3   OH240647   4.285   4.605   2.020  0.0083  0.0280 -0.2147
 6363TIP3    H140648   4.297   4.584   1.927 -1.3170  0.6393 -0.5473
 6363TIP3    H240649   4.254   4.524   2.059 -2.8705  0.6054 -1.0468
 6364TIP3   OH240650   6.115   4.166   0.299  0.7200  0.8177  0.7777
 6364TIP3    H140651   6.077   4.237   0.247  1.8915 -0.9723 -2.9361
 6364TIP3    H240652   6.047   4.100   0.305  1.1072  0.3214 -0.0700
 6365TIP3   OH240653   3.350   2.198   0.805  0.5247 -0.4081 -0.3682
 6365TIP3    H140654   3.419   2.263   0.789  0.7171  0.1218  2.1901
 6365TIP3    H240655   3.270   2.240   0.774  0.6557  1.1322  1.2104
 6366TIP3   OH240656   1.907   4.198   1.703 -0.0548 -0.2005  0.1948
 6366TIP3    H140657   1.877   4.227   1.789  0.7449  0.2086  0.3477
 6366TIP3    H240658   1.864   4.258   1.642 -0.6144 -0.4841  0.3069
 6367TIP3   OH240659   6.117   2.877   0.836 -0.4440 -0.3176 -0.0621
 6367TIP3    H140660   6.186   2.944   0.833 -2.4487  1.9672  1.6220
 6367TIP3    H240661   6.154   2.807   0.889  0.9094  0.4487  0.0492
 6368TIP3   OH240662   3.151   0.737   0.895 -0.6059 -0.2731  0.7498
 6368TIP3    H140663   3.234   0.735   0.848 -0.8491  3.3518 -0.1029
 6368TIP3    H240664   3.176   0.736   0.988  0.2256 -1.0763  0.5388
 6369TIP3   OH240665   2.463   3.367   8.193  0.1217 -0.5580 -0.4102
 6369TIP3    H140666   2.400   3.402   8.131  1.0141 -1.1260 -1.6647
 6369TIP3    H240667   2.508   3.444   8.228 -0.9701 -0.1783  0.2000
 6370TIP3   OH240668   2.669   5.065   1.406  0.1391 -0.0573 -0.1002
 6370TIP3    H140669   2.628   5.147   1.377  2.0846  1.0080 -0.0004
 6370TIP3    H240670   2.607   4.997   1.379 -0.4691  1.2525 -2.3012
 6371TIP3   OH240671   1.738   4.393   8.778  0.5572  0.5586 -0.0068
 6371TIP3    H140672   1.703   4.388   8.689 -0.7721  0.0726  0.5147
 6371TIP3    H240673   1.718   4.307   8.816  2.0795  0.3721  0.4330
 6372TIP3   OH240674   1.700   4.104   8.692 -0.3020  0.1634  0.5085
 6372TIP3    H140675   1.782   4.055   8.694 -0.8777 -0.8566  0.2015
 6372TIP3    H240676   1.671   4.107   8.783 -0.4080 -0.3429  0.4954
 6373TIP3   OH240677   2.997   0.347   0.832  0.1149 -0.7086 -0.1905
 6373TIP3    H140678   3.092   0.346   0.846  0.1716 -0.0139 -0.4986
 6373TIP3    H240679   2.968   0.429   0.872 -0.2295 -0.4874 -0.8787
 6374TIP3   OH240680   4.145   3.127   0.260  0.2367  0.2403 -0.2221
 6374TIP3    H140681   4.065   3.176   0.244 -0.5120  0.2138  2.7321
 6374TIP3    H240682   4.209   3.192   0.288  0.3753 -0.0197  0.0863
 6375TIP3   OH240683   0.366   6.693   8.426  0.0198 -0.1595 -0.9932
 6375TIP3    H140684   0.429   6.621   8.416 -0.5568 -0.9158  0.5603
 6375TIP3    H240685   0.299   6.676   8.359  0.0799 -0.8571 -0.8808
 6376TIP3   OH240686   1.953   6.360   8.698 -0.4565  0.2994  0.2581
 6376TIP3    H140687   1.953   6.373   8.603 -1.7850  0.8800  0.3137
 6376TIP3    H240688   2.029   6.304   8.714 -0.2457  0.1297 -1.1468
 6377TIP3   OH240689   5.205   6.106   8.543  0.2169  0.3127  0.0428
 6377TIP3    H140690   5.189   6.088   8.636 -0.5996 -0.1804 -0.1902
 6377TIP3    H240691   5.204   6.021   8.501  2.9713  0.2618 -0.0990
 6378TIP3   OH240692   4.348   4.274   0.096 -0.5120  0.3599 -0.1511
 6378TIP3    H140693   4.262   4.242   0.123 -0.3357 -0.0015 -0.0089
 6378TIP3    H240694   4.341   4.369   0.102 -1.0273  0.3498 -0.5255
 6379TIP3   OH240695   1.239   0.017   6.671  0.1440  0.2666  0.1928
 6379TIP3    H140696   1.179  -0.057   6.669 -0.1411  0.5104 -0.4079
 6379TIP3    H240697   1.326  -0.022   6.664 -0.0500  0.0416 -1.2280
 6380TIP3   OH240698   4.794   3.870   1.731 -0.2905 -0.1760 -0.1051
 6380TIP3    H140699   4.815   3.963   1.736 -0.9650 -0.0071 -0.2214
 6380TIP3    H240700   4.802   3.839   1.821 -3.9295  0.9125  0.7567
 6381TIP3   OH240701   6.101   6.498   1.471  0.3470  0.0928  0.6575
 6381TIP3    H140702   6.127   6.585   1.441 -0.2353  0.6902  1.8226
 6381TIP3    H240703   6.005   6.499   1.466  0.3553 -0.8581 -0.2752
 6382TIP3   OH240704   3.232   0.318   7.509  0.0591 -0.1182  0.0301
 6382TIP3    H140705   3.199   0.292   7.595 -1.7594 -0.1609 -0.6447
 6382TIP3    H240706   3.324   0.341   7.525 -0.0807 -0.6585  1.8625
 6383TIP3   OH240707   5.630   0.713   1.487 -0.3093  0.2271 -0.5124
 6383TIP3    H140708   5.623   0.629   1.533 -0.0532  1.4015  1.8449
 6383TIP3    H240709   5.721   0.740   1.500 -0.1285  0.4453 -2.0819
 6384TIP3   OH240710   2.327   1.764   0.783  0.2558 -0.0422 -0.1771
 6384TIP3    H140711   2.375   1.792   0.861 -2.5304 -1.7637  2.4018
 6384TIP3    H240712   2.294   1.844   0.744  1.0031  0.8382  0.9426
 6385TIP3   OH240713   3.247   1.370   0.780 -0.1051 -0.0865 -0.2005
 6385TIP3    H140714   3.159   1.404   0.761 -0.0167 -0.1980 -0.8295
 6385TIP3    H240715   3.281   1.342   0.695  0.7046  0.3313 -0.0247
 6386TIP3   OH240716   5.312   3.181   0.505  0.2405  0.1588 -0.0462
 6386TIP3    H140717   5.407   3.165   0.500  0.0025 -1.1250 -0.9871
 6386TIP3    H240718   5.299   3.220   0.591  1.5202 -0.4875  0.4664
 6387TIP3   OH240719   6.281   5.908   6.729 -0.0345 -0.1324  0.8844
 6387TIP3    H140720   6.355   5.922   6.788 -1.2113 -0.3077  2.4424
 6387TIP3    H240721   6.208   5.886   6.786 -1.1710 -0.5410 -0.6620
 6388TIP3   OH240722   1.679   1.185   7.818  0.0579 -0.2151 -0.1071
 6388TIP3    H140723   1.682   1.136   7.899  0.0140  1.8133  1.1890
 6388TIP3    H240724   1.771   1.208   7.800 -0.0565  0.4241  0.0914
 6389TIP3   OH240725   6.208   6.739   1.354 -0.1931 -0.8018  0.7274
 6389TIP3    H140726   6.197   6.799   1.427 -0.3850 -0.1559  0.1833
 6389TIP3    H240727   6.302   6.722   1.349  0.2157  1.4823 -0.6632
 6390TIP3   OH240728   5.136   4.142   8.514 -0.6517 -0.3445 -0.4310
 6390TIP3    H140729   5.147   4.056   8.474 -2.3408 -0.9543  0.3727
 6390TIP3    H240730   5.046   4.144   8.545  0.1403  0.6425  2.0894
 6391TIP3   OH240731   4.312   5.782   1.948  0.7257  0.6877  0.0132
 6391TIP3    H140732   4.326   5.839   2.023 -0.8484  2.1903 -0.7869
 6391TIP3    H240733   4.306   5.841   1.873  0.8982 -0.6752 -1.1205
 6392TIP3   OH240734   2.583   6.211   2.514  0.2721  0.3853 -0.0356
 6392TIP3    H140735   2.676   6.188   2.518  0.2406  0.3401  0.6044
 6392TIP3    H240736   2.541   6.151   2.575 -0.0299  1.0657  0.4467
 6393TIP3   OH240737   1.648   6.634   0.732  0.6568 -0.2477 -0.1278
 6393TIP3    H140738   1.609   6.641   0.645 -0.1849  0.1872  0.2694
 6393TIP3    H240739   1.732   6.590   0.718  0.6912  0.1335 -1.2007
 6394TIP3   OH240740   1.214   2.803   8.663 -0.6049  0.2413  0.6688
 6394TIP3    H140741   1.293   2.803   8.717 -0.2775  0.0274  0.1893
 6394TIP3    H240742   1.245   2.825   8.576 -1.0269 -0.2067  0.4035
 6395TIP3   OH240743   6.127   5.239   7.865  0.0860  0.7643  0.1826
 6395TIP3    H140744   6.102   5.149   7.842  0.2799  0.7697 -0.0539
 6395TIP3    H240745   6.046   5.289   7.861  0.2470  0.9543 -1.3807
 6396TIP3   OH240746   4.380   4.103   6.840  0.8535 -0.4076 -0.0263
 6396TIP3    H140747   4.311   4.056   6.793 -1.6777  1.9893  0.9983
 6396TIP3    H240748   4.393   4.183   6.789  1.7886 -0.1168  0.6443
 6397TIP3   OH240749   6.257   1.033   8.023 -0.5230  0.6481 -0.1133
 6397TIP3    H140750   6.250   1.063   7.932  1.2992 -1.0669 -0.9071
 6397TIP3    H240751   6.351   1.028   8.039 -0.8153  0.0961  1.5955
 6398TIP3   OH240752   0.653   6.603   1.177 -0.0748  0.9323  0.3869
 6398TIP3    H140753   0.727   6.648   1.216  0.3456  0.5234  0.0759
 6398TIP3    H240754   0.589   6.594   1.248  0.9999 -0.5291  1.2306
 6399TIP3   OH240755   6.458   2.990   0.264 -0.5002  0.1728 -0.5481
 6399TIP3    H140756   6.527   2.988   0.198 -1.3436 -2.1219 -1.4565
 6399TIP3    H240757   6.428   2.899   0.270 -1.4275  0.5650  1.9810
 6400TIP3   OH240758   1.186   3.802   2.786 -0.2738  0.1240 -0.0522
 6400TIP3    H140759   1.116   3.741   2.811 -0.5286  0.6180  0.4573
 6400TIP3    H240760   1.241   3.808   2.863 -1.1994  1.8478  0.5269
 6401TIP3   OH240761   5.128   3.485   8.205  0.0158 -0.2261  0.7523
 6401TIP3    H140762   5.107   3.542   8.130 -1.8086  1.3201  2.3275
 6401TIP3    H240763   5.046   3.441   8.226  0.3642 -0.2776  2.1265
 6402TIP3   OH240764   6.417   6.162   8.767  0.5335 -0.4336 -0.0375
 6402TIP3    H140765   6.353   6.098   8.736  0.7248 -1.0090  0.7136
 6402TIP3    H240766   6.483   6.165   8.698 -0.6193  0.6754 -1.1397
 6403TIP3   OH240767   3.910   6.434   2.181 -0.0970  0.0576 -0.2527
 6403TIP3    H140768   3.964   6.392   2.248  1.2192  1.3014 -0.4659
 6403TIP3    H240769   3.838   6.374   2.167 -0.1198 -0.5041  1.8824
 6404TIP3   OH240770   0.238   0.058   1.550  0.0868  0.6044  0.3086
 6404TIP3    H140771   0.287  -0.022   1.532 -1.3885 -0.4419  0.8049
 6404TIP3    H240772   0.177   0.066   1.477  0.5177  1.5437  0.0292
 6405TIP3   OH240773   4.807   0.087   0.661  0.2864 -0.2286 -0.2363
 6405TIP3    H140774   4.748   0.135   0.719 -0.6129 -1.2725 -0.2694
 6405TIP3    H240775   4.793  -0.005   0.682 -0.4773 -0.6870 -2.4750
 6406TIP3   OH240776   5.242   4.012   0.456  0.0884  0.0694 -0.4594
 6406TIP3    H140777   5.183   3.944   0.487 -0.7127  0.6407 -0.7047
 6406TIP3    H240778   5.330   3.976   0.470 -0.2890 -0.3859  0.8116
 6407TIP3   OH240779   3.102   0.189   1.151 -0.0315  0.0108  0.2607
 6407TIP3    H140780   3.052   0.271   1.147  0.1886  0.1956  1.1930
 6407TIP3    H240781   3.180   0.207   1.097 -1.3197 -0.5668 -1.9245
 6408TIP3   OH240782   5.495   1.506   8.736 -0.4937  0.5146 -0.1101
 6408TIP3    H140783   5.474   1.439   8.670 -0.6801 -0.0738  0.5340
 6408TIP3    H240784   5.518   1.456   8.814 -0.9891  1.2073  0.4926
 6409TIP3   OH240785   3.598   6.064   2.878  0.3588 -0.1357 -0.1639
 6409TIP3    H140786   3.655   6.014   2.819 -0.2105  0.2364 -1.0665
 6409TIP3    H240787   3.586   6.148   2.833 -1.6319 -0.5289 -0.4778
 6410TIP3   OH240788   1.847   0.222   2.533 -0.2930 -0.0337  0.3466
 6410TIP3    H140789   1.754   0.244   2.529 -0.4129 -0.1946  1.7410
 6410TIP3    H240790   1.891   0.306   2.546 -0.2723  0.0025  0.0452
 6411TIP3   OH240791   1.298   3.337   2.327  0.7052  0.0441 -0.5942
 6411TIP3    H140792   1.223   3.338   2.268 -1.4391  1.8832  1.9517
 6411TIP3    H240793   1.291   3.253   2.372  1.1094 -0.4442 -1.4186
 6412TIP3   OH240794   1.213   4.963   6.869  0.2347  0.0021  0.4281
 6412TIP3    H140795   1.265   4.892   6.831  1.0442 -0.4061  2.2165
 6412TIP3    H240796   1.123   4.941   6.846  0.7373  1.5256 -4.1003
 6413TIP3   OH240797   2.268   3.381   1.209 -0.0141  0.3981 -0.2710
 6413TIP3    H140798   2.340   3.362   1.269 -0.4953  1.9956  0.8693
 6413TIP3    H240799   2.190   3.343   1.251 -0.1018  0.0403 -0.7392
 6414TIP3   OH240800   3.897   2.672   8.326 -0.2471  0.3324  0.0860
 6414TIP3    H140801   3.957   2.628   8.267 -1.1540  1.4005 -1.7287
 6414TIP3    H240802   3.882   2.610   8.397  0.9291 -0.9798 -0.7872
 6415TIP3   OH240803   5.791   1.332   0.346 -0.0422 -0.7982 -0.8167
 6415TIP3    H140804   5.863   1.303   0.403 -0.5801  0.5931  0.6153
 6415TIP3    H240805   5.750   1.250   0.317  1.2581 -1.5791 -0.5495
 6416TIP3   OH240806   5.026   3.171   0.507 -0.0717  0.1290 -0.1253
 6416TIP3    H140807   4.982   3.087   0.519  1.1783 -0.7090 -1.1267
 6416TIP3    H240808   5.118   3.148   0.497  0.3789  1.6932  0.2749
 6417TIP3   OH240809   1.950   3.153   7.558 -1.2159  0.4853  0.5945
 6417TIP3    H140810   2.026   3.147   7.499 -0.5598  1.1525  1.3452
 6417TIP3    H240811   1.983   3.123   7.643 -1.7663  0.8727  0.9509
 6418TIP3   OH240812   5.750   6.809   8.412  0.5119 -0.6623 -0.0639
 6418TIP3    H140813   5.773   6.758   8.334  1.7946 -1.1735  0.6328
 6418TIP3    H240814   5.780   6.897   8.393 -0.6346 -0.3949 -0.7806
 6419TIP3   OH240815   6.220   3.881   2.158 -0.2742  0.0837 -0.7791
 6419TIP3    H140816   6.284   3.907   2.225  1.1206  0.6882 -2.2801
 6419TIP3    H240817   6.135   3.888   2.202  0.6908 -2.5344  1.8920
 6420TIP3   OH240818   4.449   5.868   0.491 -0.6385  0.1561  0.0364
 6420TIP3    H140819   4.473   5.879   0.399  0.0419 -0.8760  0.0847
 6420TIP3    H240820   4.383   5.799   0.491  0.8934 -1.3677  0.5071
 6421TIP3   OH240821   4.555   4.199   8.665  0.8329  0.5616 -0.4145
 6421TIP3    H140822   4.485   4.236   8.719  1.0626  1.5532 -0.7742
 6421TIP3    H240823   4.630   4.194   8.723  0.5715 -0.1655 -0.1279
 6422TIP3   OH240824   6.306   3.097   8.105  0.1728  0.4721  0.0613
 6422TIP3    H140825   6.309   3.129   8.015 -0.5674  0.4627  0.0295
 6422TIP3    H240826   6.214   3.105   8.130 -0.0858 -1.7616 -0.0058
 6423TIP3   OH240827   1.765   0.930   8.440 -0.3933 -0.2423 -0.3957
 6423TIP3    H140828   1.812   0.909   8.360 -1.0070  1.8872 -1.4039
 6423TIP3    H240829   1.831   0.930   8.508  0.0945 -2.3686 -0.7976
 6424TIP3   OH240830   4.478   4.176   1.438 -0.0506  0.1035  0.4748
 6424TIP3    H140831   4.572   4.180   1.453  0.2023  0.7266 -1.1062
 6424TIP3    H240832   4.469   4.120   1.361 -0.9646  0.2601  0.4616
 6425TIP3   OH240833   2.613   4.855   7.822  0.3382  0.0621  0.1879
 6425TIP3    H140834   2.665   4.862   7.742 -0.5604  0.1973 -0.3962
 6425TIP3    H240835   2.526   4.885   7.797  0.2057  0.7607  1.3927
 6426TIP3   OH240836   6.645   2.214   8.197  0.7472  0.8283  0.1001
 6426TIP3    H140837   6.740   2.227   8.201  1.1513 -1.9028  1.4197
 6426TIP3    H240838   6.628   2.186   8.108  1.5719 -0.9065  0.4546
 6427TIP3   OH240839   4.789   2.878   0.479 -0.2182 -0.1403  0.3305
 6427TIP3    H140840   4.868   2.851   0.526 -0.6254  0.0078  1.1215
 6427TIP3    H240841   4.804   2.850   0.389 -0.0411 -1.8129  0.8302
 6428TIP3   OH240842   0.010   4.815   0.670 -0.0782 -0.4553  0.4871
 6428TIP3    H140843   0.095   4.772   0.681  0.5391  1.0230  2.0862
 6428TIP3    H240844   0.031   4.898   0.628 -0.8386 -0.4132  0.1877
 6429TIP3   OH240845   4.378   2.162   1.848 -0.4753 -0.7443 -0.4003
 6429TIP3    H140846   4.346   2.239   1.895 -0.4471 -0.7473 -0.3759
 6429TIP3    H240847   4.423   2.197   1.771 -1.9523 -0.7997 -1.3338
 6430TIP3   OH240848   6.144   6.789   2.281 -0.2674  0.2714  0.1722
 6430TIP3    H140849   6.078   6.770   2.214 -2.2345  1.5113  1.6416
 6430TIP3    H240850   6.113   6.742   2.359  1.0190  0.2638  0.7050
 6431TIP3   OH240851   0.689   1.676   2.255  0.5213  0.0881 -0.2408
 6431TIP3    H140852   0.662   1.584   2.262  0.4168  0.2498  2.6388
 6431TIP3    H240853   0.774   1.673   2.211  0.4862 -1.3605 -0.2671
 6432TIP3   OH240854   0.979   3.968   7.780 -0.3664 -0.4166 -0.2687
 6432TIP3    H140855   0.996   3.889   7.729 -2.7617 -0.9216 -0.3796
 6432TIP3    H240856   0.885   3.980   7.776 -0.3861  0.8610  2.1102
 6433TIP3   OH240857   0.656   1.199   0.846  0.2262  0.3918  0.1625
 6433TIP3    H140858   0.568   1.191   0.808  0.5878 -0.2512 -0.5593
 6433TIP3    H240859   0.708   1.133   0.800  0.7253 -0.2779  1.6289
 6434TIP3   OH240860   3.094   3.624   7.396  0.2417  0.5588  0.2531
 6434TIP3    H140861   3.128   3.599   7.310 -1.1515 -0.9764  0.1096
 6434TIP3    H240862   3.160   3.686   7.431  0.8005  1.2611 -1.9036
 6435TIP3   OH240863   6.360   4.529   8.148 -0.1399 -0.1813 -0.0668
 6435TIP3    H140864   6.394   4.555   8.062  0.2789 -0.1529  0.1028
 6435TIP3    H240865   6.266   4.547   8.143  0.0318  0.7601 -0.1833
 6436TIP3   OH240866   0.380   0.309   1.937  0.1857 -0.1039  0.3183
 6436TIP3    H140867   0.463   0.332   1.979 -0.2680 -0.2985  1.3445
 6436TIP3    H240868   0.323   0.383   1.953 -0.4790 -0.8267  1.4302
 6437TIP3   OH240869   2.942   1.083   0.098  0.5700  0.0103  0.6488
 6437TIP3    H140870   2.961   1.174   0.121  0.2738  0.0932  0.5604
 6437TIP3    H240871   2.924   1.085   0.004  0.5653 -0.1406  0.6457
 6438TIP3   OH240872   2.324   6.302   7.493 -0.3778  0.4396 -0.1506
 6438TIP3    H140873   2.406   6.318   7.446  0.8303 -0.6732  1.5008
 6438TIP3    H240874   2.349   6.300   7.585 -2.3120  0.2934  0.4083
 6439TIP3   OH240875   0.589   0.967   8.660 -0.3455 -0.1538  0.0084
 6439TIP3    H140876   0.585   0.871   8.668  1.3689 -0.3463 -0.9034
 6439TIP3    H240877   0.615   0.997   8.747  0.0219 -0.6036  0.0564
 6440TIP3   OH240878   4.672   6.461   0.122  0.1038 -0.5439  0.1381
 6440TIP3    H140879   4.720   6.378   0.115  0.5124 -0.2375 -0.8158
 6440TIP3    H240880   4.717   6.520   0.062 -1.9259 -0.4690 -1.4139
 6441TIP3   OH240881   4.347   0.860   6.919  0.4109 -0.3567  0.6281
 6441TIP3    H140882   4.269   0.829   6.966  0.9385  0.2750  1.9296
 6441TIP3    H240883   4.345   0.811   6.836 -1.2105 -0.5603  0.7556
 6442TIP3   OH240884   4.717   5.585   0.372 -0.2953 -0.1005  0.1936
 6442TIP3    H140885   4.725   5.668   0.327 -1.6931  1.6719  2.9009
 6442TIP3    H240886   4.692   5.522   0.304  4.0647  0.7692 -2.5952
 6443TIP3   OH240887   5.705   4.377   2.303 -0.0715  0.6208 -0.1661
 6443TIP3    H140888   5.670   4.314   2.240 -0.0475  0.8251 -0.3878
 6443TIP3    H240889   5.656   4.457   2.286 -1.0597  0.2968  1.0391
 6444TIP3   OH240890   4.832   0.339   2.326 -0.0478 -0.1608 -0.1253
 6444TIP3    H140891   4.892   0.399   2.282 -0.4704  0.2312 -0.1751
 6444TIP3    H240892   4.849   0.352   2.420  1.7373 -1.8893 -0.1277
 6445TIP3   OH240893   0.610   4.107   0.960  0.2378 -0.3320  0.6275
 6445TIP3    H140894   0.595   4.014   0.941 -1.3491 -0.2255  1.2311
 6445TIP3    H240895   0.702   4.112   0.985  0.5705 -1.5920 -0.2573
 6446TIP3   OH240896   6.309   2.287   7.057  0.2247  0.1034 -0.4608
 6446TIP3    H140897   6.393   2.246   7.075 -0.3943 -1.4160 -0.8874
 6446TIP3    H240898   6.317   2.323   6.969  0.4430  0.0177 -0.4752
 6447TIP3   OH240899   3.027   5.622   2.308  0.5913 -0.1135 -0.0364
 6447TIP3    H140900   3.021   5.531   2.337 -1.0213  0.0579  0.2459
 6447TIP3    H240901   3.068   5.616   2.222 -0.6920 -1.2722 -0.6231
 6448TIP3   OH240902   0.152   4.127   0.204 -0.0206 -0.2562  0.3820
 6448TIP3    H140903   0.130   4.104   0.295  1.1763 -0.7544  0.5745
 6448TIP3    H240904   0.109   4.060   0.151  0.4438 -0.8204  0.6979
 6449TIP3   OH240905   1.007   6.516   0.067 -0.2180  0.1732 -0.1068
 6449TIP3    H140906   1.057   6.579   0.016 -0.7466  1.5097  0.9566
 6449TIP3    H240907   1.059   6.435   0.064  1.4453  1.1956  0.0929
 6450TIP3   OH240908   4.255   1.239   7.756 -0.0347 -0.1007 -0.1704
 6450TIP3    H140909   4.250   1.332   7.736 -0.6901 -0.1638 -0.3141
 6450TIP3    H240910   4.314   1.203   7.689  0.3712  0.2344  0.0006
 6451TIP3   OH240911   3.413   6.291   1.811 -0.0562 -0.3785 -0.1460
 6451TIP3    H140912   3.483   6.351   1.785  0.3915  0.0038  1.7420
 6451TIP3    H240913   3.348   6.348   1.852 -0.7823 -0.9142 -0.5460
 6452TIP3   OH240914   2.774   5.643   2.169  0.0950  0.1454  0.0615
 6452TIP3    H140915   2.729   5.715   2.214  0.5104  0.0142  0.6993
 6452TIP3    H240916   2.855   5.631   2.218  0.9215  0.4889 -1.1875
 6453TIP3   OH240917   3.973   6.311   7.537 -0.9419  0.0455  0.1004
 6453TIP3    H140918   4.009   6.339   7.453  0.9143 -2.2559  0.0235
 6453TIP3    H240919   3.893   6.264   7.516 -0.3136 -0.8012 -0.4492
 6454TIP3   OH240920   6.381   6.627   1.825 -0.2275 -0.4577 -0.0248
 6454TIP3    H140921   6.368   6.536   1.798  0.4470 -0.4020 -0.5724
 6454TIP3    H240922   6.460   6.626   1.879  1.0865  0.1094 -1.8501
 6455TIP3   OH240923   2.135   2.881   0.401  0.1633 -0.1528 -0.2612
 6455TIP3    H140924   2.180   2.819   0.458  0.7968 -0.4731 -1.0756
 6455TIP3    H240925   2.069   2.828   0.356  0.3245 -0.1250 -0.5359
 6456TIP3   OH240926   3.473   0.749   2.374  0.2843  0.2110 -0.2030
 6456TIP3    H140927   3.525   0.761   2.453 -0.8346  2.1086  0.3114
 6456TIP3    H240928   3.382   0.756   2.404 -0.2281 -0.9404 -1.3855
 6457TIP3   OH240929   4.196   5.740   7.955  0.0733 -0.4445 -0.5815
 6457TIP3    H140930   4.238   5.813   8.000 -0.3683 -1.1622  1.0394
 6457TIP3    H240931   4.228   5.747   7.865 -0.2773  1.9630 -0.5839
 6458TIP3   OH240932   0.696   4.070   8.046  0.3745  0.0700 -0.2853
 6458TIP3    H140933   0.728   4.040   7.961  1.4499  1.5010 -0.4338
 6458TIP3    H240934   0.773   4.106   8.089 -0.3036  0.0245  1.0003
 6459TIP3   OH240935   1.615   0.729   8.008 -0.6107 -0.4117  0.0989
 6459TIP3    H140936   1.672   0.697   7.938  2.9033  1.9750  1.6063
 6459TIP3    H240937   1.642   0.679   8.086 -0.3860  0.8937  0.8833
 6460TIP3   OH240938   2.232   0.570   6.910 -0.1069 -0.5290 -0.5125
 6460TIP3    H140939   2.255   0.662   6.907  1.7719 -0.9633 -0.3459
 6460TIP3    H240940   2.217   0.552   7.003 -2.7158  0.0723 -0.7413
 6461TIP3   OH240941   5.342   2.954   2.077  0.6435 -0.2334  0.3383
 6461TIP3    H140942   5.382   2.958   2.164  1.6852 -0.4671 -0.1143
 6461TIP3    H240943   5.400   3.006   2.021 -0.6443  0.8965 -0.0015
 6462TIP3   OH240944   3.443   3.970   8.083 -0.2631  0.4382 -0.0734
 6462TIP3    H140945   3.370   4.010   8.037 -0.8952 -1.0476 -0.4308
 6462TIP3    H240946   3.494   4.044   8.116 -0.7043  1.5379 -1.7133
 6463TIP3   OH240947   4.535   1.239   2.289  0.2823  0.4569 -0.1760
 6463TIP3    H140948   4.448   1.276   2.276  1.5312  2.7038 -3.0943
 6463TIP3    H240949   4.585   1.308   2.332  1.2519  0.1970 -0.8402
 6464TIP3   OH240950   3.775   2.122   0.690 -0.1922 -0.3605  0.1021
 6464TIP3    H140951   3.736   2.209   0.679  1.5655  0.3358 -1.0686
 6464TIP3    H240952   3.742   2.092   0.775 -0.7781  1.4761  0.5816
 6465TIP3   OH240953   5.946   4.539   7.241  0.2370  0.2366  0.9902
 6465TIP3    H140954   5.910   4.502   7.160  2.0243 -2.1348  1.1596
 6465TIP3    H240955   6.039   4.553   7.222  0.2485  1.7271  1.9824
 6466TIP3   OH240956   1.729   0.394   2.754  0.1365 -0.4902 -0.2265
 6466TIP3    H140957   1.728   0.489   2.761  0.3992 -0.5049  0.0447
 6466TIP3    H240958   1.696   0.376   2.666  2.7879 -0.0165 -1.4053
 6467TIP3   OH240959   2.894   3.467   2.026 -0.0274  0.4836  0.3738
 6467TIP3    H140960   2.852   3.459   1.941 -0.6744  0.2136  0.7154
 6467TIP3    H240961   2.826   3.444   2.089  0.2709  1.2502  0.9991
 6468TIP3   OH240962   2.766   3.589   7.904 -0.7889 -0.2388  0.5342
 6468TIP3    H140963   2.730   3.523   7.844 -0.2170  0.6624 -0.8328
 6468TIP3    H240964   2.861   3.585   7.891 -0.6532 -0.0320  1.3938
 6469TIP3   OH240965   2.059   4.264   0.624 -0.3600  0.0745  0.2443
 6469TIP3    H140966   1.988   4.242   0.684 -1.0488 -1.2042 -0.9825
 6469TIP3    H240967   2.135   4.277   0.680 -0.4520 -3.2328  1.3114
 6470TIP3   OH240968   4.646   5.998   7.721  0.0519 -0.5713 -0.4627
 6470TIP3    H140969   4.594   5.923   7.750 -1.0720  0.5675  0.5947
 6470TIP3    H240970   4.583   6.056   7.679  0.6224  0.4495  0.0489
 6471TIP3   OH240971   4.181   3.932   8.494 -0.5331  0.2327 -0.0571
 6471TIP3    H140972   4.273   3.941   8.519 -0.6916 -0.8999  1.0728
 6471TIP3    H240973   4.182   3.925   8.398  0.6768 -0.7860  0.0027
 6472TIP3   OH240974   1.068   6.244   1.057  0.3885 -0.0958  0.1173
 6472TIP3    H140975   0.980   6.208   1.047  0.9707 -1.6049  0.0453
 6472TIP3    H240976   1.120   6.201   0.989  0.8666  2.0192 -0.9414
 6473TIP3   OH240977   1.098   1.628   0.454  0.3251 -0.2418  0.0310
 6473TIP3    H140978   1.068   1.702   0.508 -1.5802 -0.6093 -0.4397
 6473TIP3    H240979   1.018   1.595   0.413  1.5945 -0.5014 -2.3821
 6474TIP3   OH240980   2.357   4.848   2.525  0.2082 -0.2924  0.1954
 6474TIP3    H140981   2.266   4.833   2.550  0.4057 -3.1971 -0.4809
 6474TIP3    H240982   2.406   4.778   2.568  1.9127  0.3698 -0.5911
 6475TIP3   OH240983   5.334   5.245   3.010 -0.2066  0.1375 -0.3192
 6475TIP3    H140984   5.254   5.192   3.011  0.5324 -1.0793 -1.8304
 6475TIP3    H240985   5.322   5.308   3.081 -0.9888 -2.2663  1.8281
 6476TIP3   OH240986   1.742   2.138   6.773  0.2409 -0.7962 -0.4025
 6476TIP3    H140987   1.692   2.137   6.855 -2.0965 -0.9439 -1.7254
 6476TIP3    H240988   1.676   2.150   6.705  1.9280 -2.0027 -2.3850
 6477TIP3   OH240989   6.615   2.653   7.989  0.0776 -0.0509 -0.1227
 6477TIP3    H140990   6.649   2.574   7.946  0.3892  0.4666 -0.8384
 6477TIP3    H240991   6.607   2.628   8.081 -1.3807 -1.4442 -0.5821
 6478TIP3   OH240992   3.367   2.960   1.770  0.9320  0.2670  0.2282
 6478TIP3    H140993   3.307   2.885   1.768 -0.1253  1.1058 -0.8246
 6478TIP3    H240994   3.454   2.921   1.763  0.3480 -0.8208 -1.3903
 6479TIP3   OH240995   0.540   3.082   0.160  0.2307  0.4555 -0.7985
 6479TIP3    H140996   0.625   3.102   0.199  0.0248  2.1587 -1.1296
 6479TIP3    H240997   0.485   3.058   0.234  1.0310 -0.9321 -0.6095
 6480TIP3   OH240998   3.782   2.097   0.965  0.1712 -0.5648  0.2240
 6480TIP3    H140999   3.751   2.182   0.996  1.6637  0.6498 -1.3931
 6480TIP3    H241000   3.789   2.043   1.044 -1.4224  0.5695  1.2018
 6481TIP3   OH241001   1.334   5.967   0.649 -0.2855  0.2645  0.3021
 6481TIP3    H141002   1.423   5.932   0.660 -0.6827 -0.4454  1.3802
 6481TIP3    H241003   1.327   5.985   0.555 -0.1321 -2.8314 -0.4021
 6482TIP3   OH241004   6.056   6.464   1.014  0.4263 -0.1027  0.0513
 6482TIP3    H141005   6.141   6.462   0.972  0.2924  1.2194 -0.3066
 6482TIP3    H241006   6.038   6.556   1.030 -0.9045 -0.3561  0.1934
 6483TIP3   OH241007   5.734   1.147   0.655  0.5051  0.0099 -0.5509
 6483TIP3    H141008   5.673   1.096   0.602  1.4919  0.0142 -1.7425
 6483TIP3    H241009   5.688   1.229   0.672  0.4710  0.3463 -2.1346
 6484TIP3   OH241010   1.156   4.154   7.379 -0.4674 -0.5851  1.3011
 6484TIP3    H141011   1.223   4.215   7.409 -0.0328 -0.0057 -0.6465
 6484TIP3    H241012   1.076   4.207   7.375 -0.4937 -0.6216  1.3555
 6485TIP3   OH241013   5.845   0.699   1.659  0.4602  0.0149 -0.4776
 6485TIP3    H141014   5.848   0.658   1.745 -0.1887 -0.9709 -0.8940
 6485TIP3    H241015   5.848   0.625   1.598 -1.1351  0.5372 -1.2593
 6486TIP3   OH241016   5.531   2.692   7.049 -0.1174 -0.3214 -0.3574
 6486TIP3    H141017   5.616   2.650   7.037  0.1773  0.1216  0.1304
 6486TIP3    H241018   5.542   2.779   7.009  0.8386  1.1291  2.7507
 6487TIP3   OH241019   6.428   5.275   7.961 -0.2499  0.0544  0.4137
 6487TIP3    H141020   6.490   5.264   8.032  0.5394  0.2441 -0.2315
 6487TIP3    H241021   6.436   5.194   7.910  1.5022  1.1608 -1.2096
 6488TIP3   OH241022   6.189   5.744   2.251 -0.1545 -0.2612  0.0554
 6488TIP3    H141023   6.123   5.798   2.206  0.8390  0.1324 -0.9810
 6488TIP3    H241024   6.138   5.690   2.311 -1.6017 -1.0083 -1.7286
 6489TIP3   OH241025   6.517   3.387   1.440 -0.1075 -0.2523 -0.1724
 6489TIP3    H141026   6.511   3.365   1.347  1.6712  0.7796 -0.5851
 6489TIP3    H241027   6.610   3.379   1.460 -0.4860 -0.6174  1.5815
 6490TIP3   OH241028   4.176   0.325   2.729  0.1785  0.0262  0.2656
 6490TIP3    H141029   4.230   0.402   2.714  0.2921 -0.0578  0.2428
 6490TIP3    H241030   4.092   0.360   2.760  0.5932  0.1120  1.3320
 6491TIP3   OH241031   1.340   6.764   1.986  0.3254 -0.3982 -0.4748
 6491TIP3    H141032   1.386   6.832   1.937  1.6652 -1.0843 -0.2109
 6491TIP3    H241033   1.404   6.733   2.050 -1.0386 -0.2449  1.0359
 6492TIP3   OH241034   2.372   2.464   1.701  0.3024  0.0720 -0.0724
 6492TIP3    H141035   2.343   2.508   1.621 -2.9765 -1.5432  0.0540
 6492TIP3    H241036   2.407   2.380   1.670  1.2363  0.3909  0.0788
 6493TIP3   OH241037   3.594   3.924   1.323  0.0204  0.0159 -0.1935
 6493TIP3    H141038   3.653   3.851   1.304 -0.3906 -0.1330 -0.9266
 6493TIP3    H241039   3.580   3.967   1.238  0.3674  1.0356  0.2502
 6494TIP3   OH241040   1.069   2.578   7.413  0.4474  1.1489 -0.7544
 6494TIP3    H141041   1.058   2.633   7.491  1.6490  3.1919 -1.9174
 6494TIP3    H241042   1.154   2.537   7.425  0.2420  0.7660 -0.5980
 6495TIP3   OH241043   0.362   3.088   1.609 -0.2227 -0.1661 -0.4696
 6495TIP3    H141044   0.375   3.166   1.662  0.1788  0.8607 -2.0100
 6495TIP3    H241045   0.271   3.063   1.625 -1.1669  2.1131 -1.7991
 6496TIP3   OH241046   5.233   5.848   2.172  0.8208 -0.1770 -0.9857
 6496TIP3    H141047   5.217   5.793   2.249  2.1942 -0.6512 -1.0149
 6496TIP3    H241048   5.168   5.918   2.179 -0.5560 -1.4538 -0.6192
 6497TIP3   OH241049   1.625   2.267   1.387 -0.0486 -0.1734  0.3677
 6497TIP3    H141050   1.592   2.339   1.333  2.8913 -0.3598 -1.9288
 6497TIP3    H241051   1.562   2.197   1.375 -1.3040  0.9594  0.0917
 6498TIP3   OH241052   0.957   0.353   8.691  0.1323  0.7479 -0.6114
 6498TIP3    H141053   0.915   0.269   8.710  2.4817 -0.1378  1.2733
 6498TIP3    H241054   0.903   0.418   8.736 -1.6001  0.2768 -1.9135
 6499TIP3   OH241055   5.219   3.570   0.275  0.1872 -0.4349  0.3733
 6499TIP3    H141056   5.171   3.552   0.195 -0.8309 -0.4224  0.9668
 6499TIP3    H241057   5.243   3.663   0.269 -0.0370 -0.3912  0.1703
 6500TIP3   OH241058   3.331   6.600   6.842  0.2966  0.2485 -0.2837
 6500TIP3    H141059   3.356   6.634   6.756  0.3971  0.8767 -0.0173
 6500TIP3    H241060   3.302   6.678   6.890 -0.6513 -0.2415 -0.0568
 6501TIP3   OH241061   1.020   3.848   8.047  0.1882 -0.1234 -0.2126
 6501TIP3    H141062   1.044   3.935   8.078  2.0779 -0.0478 -1.7116
 6501TIP3    H241063   0.978   3.863   7.962  0.9012 -0.6645 -0.6768
 6502TIP3   OH241064   1.262   6.453   7.871 -0.1383 -0.4081  0.7987
 6502TIP3    H141065   1.322   6.527   7.865  2.5925 -2.5282 -0.8925
 6502TIP3    H241066   1.213   6.467   7.952  1.3195  2.4072  1.3041
 6503TIP3   OH241067   4.113   6.195   7.794  0.1567 -0.3997 -0.5088
 6503TIP3    H141068   4.026   6.192   7.835  0.6022 -0.1343  0.4814
 6503TIP3    H241069   4.095   6.196   7.700 -0.9276  0.0293 -0.3128
 6504TIP3   OH241070   0.937   3.602   2.005  0.3514  0.1694  0.3023
 6504TIP3    H141071   0.859   3.626   1.955  1.0797 -2.7975 -2.6176
 6504TIP3    H241072   0.906   3.536   2.067  0.3399 -0.3449 -0.2370
 6505TIP3   OH241073   6.368   4.303   8.293 -0.0836  0.0452 -0.7391
 6505TIP3    H141074   6.366   4.394   8.262 -1.3085 -0.2219 -1.5006
 6505TIP3    H241075   6.276   4.280   8.306  0.2096 -1.1235 -0.6467
 6506TIP3   OH241076   4.478   3.470   7.547  0.2598 -0.2191  0.2815
 6506TIP3    H141077   4.459   3.398   7.607 -2.2958  0.4590  0.3899
 6506TIP3    H241078   4.403   3.473   7.488  0.5590  1.9899 -0.0760
 6507TIP3   OH241079   3.772   3.050   0.956  0.1049  0.4672 -0.6196
 6507TIP3    H141080   3.853   3.079   0.998 -0.6400  3.3636 -0.9423
 6507TIP3    H241081   3.798   3.031   0.866  0.6508  0.1516 -0.4020
 6508TIP3   OH241082   2.048   3.251   1.372  0.0358 -0.0632  0.3916
 6508TIP3    H141083   2.104   3.273   1.447  0.0728 -0.4922  0.4928
 6508TIP3    H241084   2.004   3.171   1.398  0.3878 -0.4616 -0.2271
 6509TIP3   OH241085   3.223   0.806   7.289 -0.4465 -0.0817  0.2892
 6509TIP3    H141086   3.246   0.896   7.264 -0.5096  0.4657  2.0674
 6509TIP3    H241087   3.307   0.762   7.301 -0.4008  0.0219  0.3494
 6510TIP3   OH241088   0.480   0.238   7.562 -0.1945 -0.0795 -0.8752
 6510TIP3    H141089   0.554   0.205   7.512 -0.1641 -0.0530 -0.8481
 6510TIP3    H241090   0.520   0.292   7.631 -0.1530 -1.1403 -0.0339
 6511TIP3   OH241091   2.381   5.052   0.174 -0.1030 -0.2236 -0.0659
 6511TIP3    H141092   2.419   5.001   0.245  1.8795  0.1462 -0.8177
 6511TIP3    H241093   2.429   5.025   0.096 -1.9731 -0.3512 -1.2403
 6512TIP3   OH241094   0.130   3.849   7.500 -0.4445 -0.1020  0.1029
 6512TIP3    H141095   0.082   3.809   7.427  0.4877 -0.5809 -0.2672
 6512TIP3    H241096   0.222   3.830   7.481 -0.0136  1.6565  0.2692
 6513TIP3   OH241097   2.010   3.418   8.657  0.0834 -0.4019  0.1926
 6513TIP3    H141098   1.946   3.349   8.675  0.8494 -1.8732 -2.3683
 6513TIP3    H241099   2.082   3.400   8.717 -0.5356 -0.6384  0.8843
 6514TIP3   OH241100   5.402   4.875   6.709  0.3582 -0.3115  0.1391
 6514TIP3    H141101   5.416   4.781   6.698 -1.5053 -0.4711 -1.3870
 6514TIP3    H241102   5.322   4.881   6.762  1.2910  0.4591  1.5198
 6515TIP3   OH241103   0.962   3.351   2.433  0.2280 -0.1405  0.0928
 6515TIP3    H141104   0.931   3.264   2.455 -0.9357  0.3592  0.4799
 6515TIP3    H241105   0.973   3.350   2.338  1.0904 -0.9672  0.1867
 6516TIP3   OH241106   3.953   3.317   0.222 -0.4880 -0.1860 -0.4800
 6516TIP3    H141107   3.871   3.343   0.178 -1.6848 -0.0036  1.7403
 6516TIP3    H241108   4.005   3.397   0.224 -0.6408 -0.0625 -1.0366
 6517TIP3   OH241109   3.674   3.397   1.575 -0.8245 -0.2083 -0.4505
 6517TIP3    H141110   3.652   3.419   1.485  0.3111 -0.2306 -0.7570
 6517TIP3    H241111   3.605   3.338   1.604 -2.1844  1.2164 -0.6864
 6518TIP3   OH241112   3.011   1.084   1.591 -0.6662  0.5206  0.2050
 6518TIP3    H141113   3.056   1.157   1.632  0.4266  0.3680 -0.6690
 6518TIP3    H241114   3.023   1.098   1.497 -3.8839  1.3848 -0.2181
 6519TIP3   OH241115   1.868   6.621   0.975  0.3130 -0.8481 -0.0563
 6519TIP3    H141116   1.904   6.629   1.063  1.7801  0.4932 -0.7332
 6519TIP3    H241117   1.888   6.532   0.948  0.0685 -1.1890  0.8661
 6520TIP3   OH241118   1.135   3.109   1.992 -0.0253 -0.6421 -0.6489
 6520TIP3    H141119   1.124   3.043   2.061  0.9786 -0.0903  0.0666
 6520TIP3    H241120   1.107   3.065   1.912  0.6448 -1.9486 -0.1915
 6521TIP3   OH241121   3.938   0.134   7.229 -0.2372  0.0995  0.2787
 6521TIP3    H141122   3.901   0.216   7.263 -1.7819  0.0401 -1.0954
 6521TIP3    H241123   3.944   0.076   7.304  1.5072  1.6325  1.4232
 6522TIP3   OH241124   4.146   6.553   1.928 -0.2517  0.1771  0.0609
 6522TIP3    H141125   4.060   6.591   1.915 -0.5906 -0.5853 -0.0049
 6522TIP3    H241126   4.201   6.625   1.959 -0.7859  0.7798 -0.3902
 6523TIP3   OH241127   1.585   4.135   2.259 -0.4517 -0.0460 -0.0276
 6523TIP3    H141128   1.602   4.042   2.274 -1.4605 -0.1847  0.2936
 6523TIP3    H241129   1.539   4.165   2.337 -1.1950  0.4398 -0.6396
 6524TIP3   OH241130   6.112   1.529   7.497 -0.2730  0.2270  0.1431
 6524TIP3    H141131   6.038   1.563   7.448  0.0880  0.3022 -0.3621
 6524TIP3    H241132   6.177   1.600   7.494  0.4754 -0.4655 -0.9022
 6525TIP3   OH241133   5.053   6.347   1.463  0.2026  0.0498 -0.4244
 6525TIP3    H141134   5.068   6.253   1.470  1.0413  0.1792 -0.4341
 6525TIP3    H241135   5.095   6.384   1.541  1.8586  0.6273 -1.5400
 6526TIP3   OH241136   6.720   1.755   8.429 -0.6805  0.4739  0.3009
 6526TIP3    H141137   6.726   1.822   8.361  1.3486 -0.0763 -0.1379
 6526TIP3    H241138   6.755   1.676   8.388  0.4724  0.0958  1.9150
 6527TIP3   OH241139   2.526   6.465   6.821 -0.6760 -0.3775 -0.1576
 6527TIP3    H141140   2.530   6.373   6.794 -0.7549 -0.3085 -0.4059
 6527TIP3    H241141   2.606   6.479   6.872 -0.8727 -0.7007  0.2471
 6528TIP3   OH241142   2.909   0.028   0.157  0.4423 -0.3099  0.3882
 6528TIP3    H141143   2.995   0.041   0.118  0.5418 -0.1907  0.6403
 6528TIP3    H241144   2.879   0.117   0.179  1.0228 -0.4692  1.9081
 6529TIP3   OH241145   0.974   2.286   0.252  0.2730 -0.0108  0.6260
 6529TIP3    H141146   0.904   2.322   0.308 -0.1201  1.9001 -0.9904
 6529TIP3    H241147   0.979   2.194   0.277 -2.2029  0.0046  1.4501
 6530TIP3   OH241148   3.239   1.918   0.480  0.2741  0.2899  0.6809
 6530TIP3    H141149   3.245   1.849   0.546  0.7152  1.8703  2.3703
 6530TIP3    H241150   3.265   1.998   0.526  2.3197  1.2141 -1.8721
 6531TIP3   OH241151   2.481   2.839   0.096  0.7344  0.4254 -0.3481
 6531TIP3    H141152   2.521   2.918   0.059  1.5114 -0.6211 -1.8596
 6531TIP3    H241153   2.548   2.772   0.087 -0.8344 -1.0687 -1.6792
 6532TIP3   OH241154   4.750   3.475   7.501 -0.6044  1.0924 -0.3149
 6532TIP3    H141155   4.820   3.448   7.442 -0.0247  0.3123  0.6971
 6532TIP3    H241156   4.670   3.471   7.448  0.1038  2.0514 -1.4998
 6533TIP3   OH241157   0.416   1.383   8.386 -0.0945  0.0178 -0.1265
 6533TIP3    H141158   0.447   1.294   8.405 -1.3866 -0.0919  1.7276
 6533TIP3    H241159   0.333   1.369   8.341  0.5417  0.3181 -1.4389
 6534TIP3   OH241160   3.094   2.496   2.307 -0.0800  0.2048 -0.4444
 6534TIP3    H141161   3.001   2.493   2.283 -0.0459 -4.7684 -0.9470
 6534TIP3    H241162   3.095   2.484   2.402  0.1621  3.4311  0.0799
 6535TIP3   OH241163   2.757   1.960   0.011  0.5071 -0.2165 -0.2351
 6535TIP3    H141164   2.717   2.045   0.034  0.9996 -0.3471  1.2113
 6535TIP3    H241165   2.840   1.960   0.058  0.3362 -1.6730  0.0897
 6536TIP3   OH241166   4.876   3.249   7.348  0.2429  0.5764  0.4181
 6536TIP3    H141167   4.825   3.235   7.427 -0.9330 -1.5064 -0.6185
 6536TIP3    H241168   4.818   3.224   7.276  3.0524 -3.8443 -0.7699
 6537TIP3   OH241169   6.144   3.964   7.558  0.1850  0.1016 -0.4435
 6537TIP3    H141170   6.172   3.931   7.473 -2.1467 -3.0661 -0.1687
 6537TIP3    H241171   6.054   3.993   7.543 -0.4999 -1.1659  1.0415
 6538TIP3   OH241172   2.743   6.272   7.557  0.4789  0.0567  0.3658
 6538TIP3    H141173   2.783   6.186   7.570  0.3000  0.2866  2.9767
 6538TIP3    H241174   2.815   6.334   7.567  0.4579  0.2798 -0.7016
 6539TIP3   OH241175   4.082   0.729   0.646 -0.4346  0.5328 -0.0418
 6539TIP3    H141176   4.091   0.654   0.588  0.3350  1.5949 -1.3497
 6539TIP3    H241177   3.988   0.735   0.663 -0.4960 -0.7986  0.2355
 6540TIP3   OH241178   1.384   5.177   6.876  0.7239 -0.5550  0.1880
 6540TIP3    H141179   1.318   5.108   6.879 -1.7781  1.7224  1.9288
 6540TIP3    H241180   1.387   5.204   6.785 -0.6017 -0.8996  0.0229
 6541TIP3   OH241181   5.244   1.365   0.046  0.2095 -0.5813 -0.5333
 6541TIP3    H141182   5.332   1.350   0.082  0.6387  2.4787 -0.0548
 6541TIP3    H241183   5.194   1.288   0.072  2.7031 -2.4314 -0.8052
 6542TIP3   OH241184   4.069   4.875   0.194 -0.8212  0.3253  0.2310
 6542TIP3    H141185   4.006   4.865   0.266 -0.2923  0.2019  0.6864
 6542TIP3    H241186   4.142   4.816   0.218 -1.2091 -0.7315 -1.0489
 6543TIP3   OH241187   0.342   5.714   7.431 -0.4734 -0.0162  0.0599
 6543TIP3    H141188   0.268   5.775   7.443 -1.5624 -1.3976  0.6247
 6543TIP3    H241189   0.345   5.664   7.513  0.7876 -0.3321 -0.1586
 6544TIP3   OH241190   3.444   0.932   1.798  0.1531 -0.7096  0.0890
 6544TIP3    H141191   3.514   0.919   1.862 -0.7929  1.8669  1.8404
 6544TIP3    H241192   3.400   0.848   1.793  1.6402 -1.5973  1.0948
 6545TIP3   OH241193   5.447   5.996   2.091  0.1100 -0.0632 -0.1592
 6545TIP3    H141194   5.480   6.037   2.172  0.4621  1.3465 -0.9848
 6545TIP3    H241195   5.422   5.908   2.118  3.2038 -0.7724  0.8616
 6546TIP3   OH241196   3.109   2.300   0.724  0.3612  0.0868 -0.1089
 6546TIP3    H141197   3.084   2.310   0.632  0.8200 -0.0765 -0.2572
 6546TIP3    H241198   3.096   2.386   0.763  0.1446  0.1497 -0.3256
 6547TIP3   OH241199   1.667   3.391   1.662 -0.2360  0.2219 -0.2717
 6547TIP3    H141200   1.656   3.345   1.745 -2.7645 -0.5725 -0.9534
 6547TIP3    H241201   1.595   3.454   1.660  0.8065  1.4321 -1.1375
 6548TIP3   OH241202   2.206   1.806   0.249  0.1583 -0.1111 -0.5373
 6548TIP3    H141203   2.246   1.735   0.200 -0.6792 -0.0832 -1.2883
 6548TIP3    H241204   2.124   1.769   0.283  0.0621  0.2802 -0.3313
 6549TIP3   OH241205   0.427   0.632   1.470 -0.2652  0.4382  0.0177
 6549TIP3    H141206   0.445   0.614   1.562 -0.7427 -0.8041 -0.1049
 6549TIP3    H241207   0.513   0.645   1.430  0.0208 -0.2407  0.4051
 6550TIP3   OH241208   2.493   6.254   0.225 -0.1185 -0.0558 -0.1694
 6550TIP3    H141209   2.410   6.222   0.189 -0.5912  0.2420  0.6291
 6550TIP3    H241210   2.559   6.227   0.161 -0.7395 -0.9331 -0.4568
 6551TIP3   OH241211   6.248   0.589   8.287 -0.4180 -0.0937 -0.2405
 6551TIP3    H141212   6.262   0.638   8.368  0.6054  0.1802 -0.5695
 6551TIP3    H241213   6.159   0.612   8.261  0.4350  2.6487 -1.0636
 6552TIP3   OH241214   3.281   0.478   7.915  0.3420 -0.0435  0.9442
 6552TIP3    H141215   3.365   0.436   7.894 -0.0421 -0.2651 -0.2069
 6552TIP3    H241216   3.218   0.435   7.858 -0.2360  1.4566  0.4036
 6553TIP3   OH241217   4.474   3.110   8.725  0.2944 -0.2601  0.3458
 6553TIP3    H141218   4.405   3.170   8.751 -1.2676 -1.5494 -0.6330
 6553TIP3    H241219   4.518   3.087   8.807 -0.0530  1.0059  0.9153
 6554TIP3   OH241220   0.014   1.581   1.418  0.4824  0.1107 -0.5507
 6554TIP3    H141221   0.002   1.549   1.329 -1.9520 -0.1982 -0.1734
 6554TIP3    H241222   0.012   1.677   1.409  2.0405  0.1383 -0.9856
 6555TIP3   OH241223   1.846   2.016   1.600  0.0690 -0.7589 -0.1242
 6555TIP3    H141224   1.856   2.069   1.521 -3.8177 -0.6594 -0.7313
 6555TIP3    H241225   1.843   2.079   1.672  0.1472 -0.5615 -0.2925
 6556TIP3   OH241226   0.352   3.711   8.589  0.0202  0.3113 -0.2947
 6556TIP3    H141227   0.296   3.771   8.638 -1.1300  0.7823 -2.1003
 6556TIP3    H241228   0.308   3.699   8.505  1.6403 -0.8834 -1.0456
 6557TIP3   OH241229   3.791   6.225   7.801 -0.1235  0.0203  0.3642
 6557TIP3    H141230   3.858   6.229   7.733 -0.0792 -0.9543  0.3309
 6557TIP3    H241231   3.754   6.313   7.805  1.4179  0.6937  0.6374
 6558TIP3   OH241232   2.972   3.233   2.647 -0.0470 -0.3856 -0.4676
 6558TIP3    H141233   3.032   3.267   2.713  1.0197 -1.7115 -0.7214
 6558TIP3    H241234   2.891   3.281   2.662  1.5319  2.8169 -1.2427
 6559TIP3   OH241235   4.081   1.548   2.063 -0.4584  0.7074  0.6703
 6559TIP3    H141236   4.171   1.565   2.092 -0.2479 -0.5980  0.8769
 6559TIP3    H241237   4.031   1.623   2.094  0.2623  0.6637  2.0413
 6560TIP3   OH241238   1.992   6.526   8.450 -0.4191 -0.3016  0.5412
 6560TIP3    H141239   1.913   6.569   8.419 -1.1295 -1.1414  1.1318
 6560TIP3    H241240   2.058   6.595   8.451 -0.8599  0.1724 -0.9575
 6561TIP3   OH241241   1.869   0.329   0.223  0.0604 -0.0360 -0.2383
 6561TIP3    H141242   1.958   0.337   0.258  0.5026 -0.1146 -1.2737
 6561TIP3    H241243   1.823   0.274   0.286  0.7094  0.1290  0.3937
 6562TIP3   OH241244   2.980   5.364   7.053  0.0304 -0.0632 -0.5828
 6562TIP3    H141245   2.914   5.431   7.036 -0.9186 -0.6438  0.6025
 6562TIP3    H241246   3.062   5.412   7.063 -0.3158  0.7339 -1.4637
 6563TIP3   OH241247   3.961   1.988   7.549 -0.4834  0.4859 -0.0677
 6563TIP3    H141248   3.985   2.006   7.640 -2.5987  0.8026  0.4692
 6563TIP3    H241249   3.892   1.923   7.554 -0.2367  0.0716 -1.5018
 6564TIP3   OH241250   3.091   2.431   2.564 -0.8204  0.3297  0.3008
 6564TIP3    H141251   3.105   2.479   2.646  0.0488  0.9228 -0.1802
 6564TIP3    H241252   3.026   2.364   2.587 -3.1797  2.5712  0.6638
 6565TIP3   OH241253   5.753   5.586   7.871  0.1592 -0.8627 -0.4584
 6565TIP3    H141254   5.763   5.518   7.937 -0.0073 -1.3837 -0.9589
 6565TIP3    H241255   5.676   5.635   7.898 -0.9957 -2.1738 -1.1902
 6566TIP3   OH241256   3.429   5.809   8.157  0.5880  1.0332  0.1366
 6566TIP3    H141257   3.416   5.722   8.119  0.2402  0.7437  0.8964
 6566TIP3    H241258   3.444   5.866   8.082 -0.4689  0.5496 -0.4568
 6567TIP3   OH241259   1.376   5.300   1.944  0.5012 -0.4127  0.0485
 6567TIP3    H141260   1.408   5.376   1.895 -1.1867 -0.5903 -1.4203
 6567TIP3    H241261   1.351   5.336   2.029  2.5502  0.0833  0.5073
 6568TIP3   OH241262   3.757   0.298   7.376  0.4666 -0.2158  0.0740
 6568TIP3    H141263   3.710   0.221   7.410  0.9891 -1.0677 -1.0788
 6568TIP3    H241264   3.687   0.360   7.355 -0.1417 -1.2724 -1.1370
 6569TIP3   OH241265   4.225   2.466   0.265 -0.3660  0.9568  0.2162
 6569TIP3    H141266   4.300   2.433   0.315 -0.3400  1.9386  0.8364
 6569TIP3    H241267   4.169   2.390   0.253  0.3395  0.3883  0.4446
 6570TIP3   OH241268   0.587   3.856   1.261 -0.3787  0.4242 -0.4661
 6570TIP3    H141269   0.626   3.855   1.173 -0.8486 -0.8408 -0.6822
 6570TIP3    H241270   0.499   3.893   1.247 -1.6750 -2.6306 -1.1358
 6571TIP3   OH241271   0.565   0.095   0.462 -0.0871 -0.6032  0.7466
 6571TIP3    H141272   0.587   0.074   0.553  2.1928 -0.3028  0.3362
 6571TIP3    H241273   0.625   0.166   0.439  0.1314 -1.3874 -1.3010
 6572TIP3   OH241274   4.913   5.173   6.952  0.0921 -0.2766 -0.6873
 6572TIP3    H141275   4.946   5.116   6.883  0.4356  0.5180 -1.2009
 6572TIP3    H241276   4.923   5.262   6.916 -2.0259  0.0364 -0.6255
 6573TIP3   OH241277   6.789   5.433   1.620  0.2580  0.1891  0.2016
 6573TIP3    H141278   6.852   5.504   1.629  0.5199 -0.0693  0.4125
 6573TIP3    H241279   6.839   5.353   1.637  0.3613 -0.1989 -1.6749
 6574TIP3   OH241280   3.801   3.746   2.297  0.0492  0.1442  0.4866
 6574TIP3    H141281   3.754   3.777   2.375  0.3054 -1.6564  1.3996
 6574TIP3    H241282   3.737   3.695   2.248 -0.3913  2.0482 -1.0562
 6575TIP3   OH241283   4.303   5.938   7.777  0.4627  0.3047 -0.2452
 6575TIP3    H141284   4.340   5.963   7.861 -0.9967 -0.1787  0.5856
 6575TIP3    H241285   4.264   6.019   7.743  1.9843  0.7538 -1.0018
 6576TIP3   OH241286   4.549   6.688   0.526 -0.0723 -0.5376 -0.5960
 6576TIP3    H141287   4.523   6.621   0.464  0.0640 -0.6327 -0.5497
 6576TIP3    H241288   4.479   6.688   0.592 -1.0660  0.6685 -1.5835
 6577TIP3   OH241289   2.182   4.511   8.257  0.0619  0.1438 -0.1703
 6577TIP3    H141290   2.091   4.526   8.280 -0.0696 -0.5456 -0.2212
 6577TIP3    H241291   2.206   4.585   8.202 -0.5941  0.1074 -0.5068
 6578TIP3   OH241292   0.807   6.249   1.438  0.0808  0.1863 -0.2771
 6578TIP3    H141293   0.745   6.201   1.382 -2.3335  1.4046  1.1911
 6578TIP3    H241294   0.770   6.337   1.445  2.3943  1.2002  0.1438
 6579TIP3   OH241295   4.647   4.880   2.073  0.2447 -0.2882 -0.3094
 6579TIP3    H141296   4.585   4.899   2.002 -1.2312 -0.9841  0.7322
 6579TIP3    H241297   4.597   4.895   2.153  1.6085 -0.3442  0.5832
 6580TIP3   OH241298   4.881   2.125   0.197  0.4081  0.3984 -0.1865
 6580TIP3    H141299   4.919   2.061   0.256  1.3018  0.3677 -0.7729
 6580TIP3    H241300   4.902   2.210   0.237  2.0129  0.4198 -1.0108
 6581TIP3   OH241301   5.407   3.538   8.441 -0.4784  0.2546  0.5802
 6581TIP3    H141302   5.414   3.567   8.350  1.5114 -2.3219 -0.2155
 6581TIP3    H241303   5.479   3.580   8.486 -0.1995 -0.0745  0.4474
 6582TIP3   OH241304   4.693   1.883   7.215  0.1160 -0.0279  0.2786
 6582TIP3    H141305   4.676   1.837   7.133 -0.3129 -0.0878  0.4003
 6582TIP3    H241306   4.618   1.941   7.226  1.3815  1.8685 -0.6702
 6583TIP3   OH241307   5.047   0.750   2.385  0.0524 -0.3235 -0.0741
 6583TIP3    H141308   5.025   0.841   2.404 -0.3451 -0.3748 -0.2738
 6583TIP3    H241309   5.078   0.715   2.469 -1.2480 -0.4149  0.3917
 6584TIP3   OH241310   3.269   6.054   7.951  0.1141 -0.2394  0.0762
 6584TIP3    H141311   3.363   6.070   7.965 -0.2335  0.4633  1.9637
 6584TIP3    H241312   3.227   6.094   8.027 -1.4675 -3.4771  1.0853
 6585TIP3   OH241313   6.232   3.130   2.320 -0.3941  0.5578  0.3925
 6585TIP3    H141314   6.246   3.038   2.343  0.3627  0.8496  1.1389
 6585TIP3    H241315   6.181   3.165   2.394 -0.1783  0.8784  0.3896
 6586TIP3   OH241316   4.449   5.649   8.718  0.0035 -0.2363  0.0810
 6586TIP3    H141317   4.470   5.556   8.707  1.5691  0.0253  0.5104
 6586TIP3    H241318   4.498   5.692   8.647 -0.4895  0.2844  0.0545
 6587TIP3   OH241319   5.329   1.145   0.799  0.3197  0.1390 -0.2337
 6587TIP3    H141320   5.255   1.142   0.739  1.7194  1.6739 -2.1830
 6587TIP3    H241321   5.352   1.053   0.814  0.3453 -0.3252 -2.6716
 6588TIP3   OH241322   2.542   3.969   7.080 -0.2965 -0.1363 -0.0083
 6588TIP3    H141323   2.531   4.050   7.130 -1.7353  1.4099 -2.6190
 6588TIP3    H241324   2.605   3.993   7.012  0.4527 -1.7214  0.0993
 6589TIP3   OH241325   4.420   5.004   1.243  0.2866  0.0683 -0.1283
 6589TIP3    H141326   4.344   4.965   1.199  0.8622  0.4903 -1.5529
 6589TIP3    H241327   4.405   5.098   1.237 -1.0373  0.1964  3.1872
 6590TIP3   OH241328   5.400   2.811   7.353  0.3590  0.0762  0.0717
 6590TIP3    H141329   5.451   2.849   7.282 -0.5031  0.9123 -0.1280
 6590TIP3    H241330   5.364   2.730   7.317 -0.0689  0.4945 -0.4460
 6591TIP3   OH241331   2.367   4.719   8.765  0.7115  0.0179  0.3793
 6591TIP3    H141332   2.369   4.634   8.721  0.3375 -0.2674  0.9029
 6591TIP3    H241333   2.274   4.737   8.778  0.8089  0.2379  0.7804
 6592TIP3   OH241334   3.547   1.537   2.436  0.0851 -0.0457 -0.3540
 6592TIP3    H141335   3.599   1.613   2.462 -0.7003  0.0519  1.0207
 6592TIP3    H241336   3.511   1.561   2.351  0.1770  0.9469 -0.1282
 6593TIP3   OH241337   3.192   3.476   2.839 -0.6895  0.5858 -0.2903
 6593TIP3    H141338   3.236   3.436   2.914 -1.0372 -0.5029 -0.6536
 6593TIP3    H241339   3.238   3.441   2.763 -2.9023 -1.5739 -0.7418
 6594TIP3   OH241340   0.174   1.487   0.607  0.6314  0.3548  0.0960
 6594TIP3    H141341   0.211   1.442   0.531 -1.0597  0.6458 -0.9586
 6594TIP3    H241342   0.146   1.417   0.666 -2.0172 -0.0886 -1.5465
 6595TIP3   OH241343   5.225   6.529   1.116  0.1165 -0.7555 -0.5527
 6595TIP3    H141344   5.146   6.531   1.062  0.6279  3.1942 -1.4832
 6595TIP3    H241345   5.278   6.459   1.079 -1.2966 -0.8805 -2.5045
 6596TIP3   OH241346   1.767   1.493   0.785 -0.8616 -0.1939  0.8684
 6596TIP3    H141347   1.777   1.421   0.723  2.5777 -0.7012  1.8254
 6596TIP3    H241348   1.727   1.453   0.862  1.0929 -1.1958  1.4219
 6597TIP3   OH241349   1.361   4.633   0.126 -0.4064  0.1525 -0.3801
 6597TIP3    H141350   1.445   4.650   0.084 -1.2924  0.2485 -2.2225
 6597TIP3    H241351   1.310   4.587   0.059 -1.4964 -0.7984  1.0340
 6598TIP3   OH241352   6.002   6.215   1.905 -0.1673 -0.8158  0.8542
 6598TIP3    H141353   6.006   6.157   1.829  0.9964  1.8199 -1.2491
 6598TIP3    H241354   6.088   6.208   1.946  1.1814  1.5685 -1.2681
 6599TIP3   OH241355   2.321   2.101   0.407  0.2653  0.2162 -0.1618
 6599TIP3    H141356   2.376   2.028   0.377 -0.6887 -0.4278 -0.3819
 6599TIP3    H241357   2.232   2.067   0.404 -0.4916  2.1327 -2.5775
 6600TIP3   OH241358   3.134   6.672   1.153 -0.1969 -0.0308  0.2823
 6600TIP3    H141359   3.185   6.739   1.107  0.3587 -0.4745  0.2305
 6600TIP3    H241360   3.197   6.601   1.167 -0.7469 -0.4916  0.4326
 6601TIP3   OH241361   0.693   0.632   7.538  0.1376 -0.4011  0.1791
 6601TIP3    H141362   0.766   0.693   7.526 -0.9950  0.7992 -0.9695
 6601TIP3    H241363   0.652   0.628   7.452 -1.0012 -1.2672  0.7425
 6602TIP3   OH241364   5.203   4.237   2.071 -0.0805 -0.0267 -0.4550
 6602TIP3    H141365   5.247   4.172   2.016  0.7068  0.0674  0.0387
 6602TIP3    H241366   5.133   4.189   2.115  1.7174 -1.0798  1.4412
 6603TIP3   OH241367   6.151   5.262   0.320  0.0751 -0.2578  0.2261
 6603TIP3    H141368   6.136   5.193   0.385  0.2550  1.6024  2.3765
 6603TIP3    H241369   6.064   5.300   0.304 -0.0216 -0.9121 -0.9283
 6604TIP3   OH241370   3.901   6.459   1.291 -0.5569 -0.1666 -0.4957
 6604TIP3    H141371   3.972   6.396   1.280 -0.0694  0.2265  0.3125
 6604TIP3    H241372   3.930   6.537   1.242  0.4570  0.6721  1.3518
 6605TIP3   OH241373   4.257   2.785   8.711  0.6178  0.1832  0.1904
 6605TIP3    H141374   4.244   2.788   8.806 -0.3208  0.5930  0.0502
 6605TIP3    H241375   4.218   2.865   8.678 -0.5572 -0.7255 -0.7151
 6606TIP3   OH241376   1.592   1.364   1.979  0.3508  0.0322  0.2464
 6606TIP3    H141377   1.620   1.455   1.984 -0.4859  0.4578 -1.7743
 6606TIP3    H241378   1.621   1.333   1.893 -0.1985 -1.3118  0.5004
 6607TIP3   OH241379   4.850   3.976   8.535 -0.4025 -0.4625 -0.1497
 6607TIP3    H141380   4.785   3.908   8.553 -1.1113 -0.4290 -2.2172
 6607TIP3    H241381   4.930   3.929   8.514 -0.0784 -0.5441  1.2146
 6608TIP3   OH241382   3.690   1.184   0.243  0.0353 -0.2939 -0.0450
 6608TIP3    H141383   3.598   1.187   0.272 -0.0387  0.9719 -0.3512
 6608TIP3    H241384   3.737   1.149   0.319 -0.8043 -1.8673 -0.2136
 6609TIP3   OH241385   3.274   0.660   0.581 -0.1971 -0.0421 -0.0091
 6609TIP3    H141386   3.340   0.683   0.647  0.0965  1.2987 -0.7390
 6609TIP3    H241387   3.308   0.580   0.540  0.4015 -0.0091  0.4020
 6610TIP3   OH241388   0.442   2.161   0.563 -0.0715 -0.1201 -0.6570
 6610TIP3    H141389   0.482   2.225   0.623  1.6200 -0.6385 -1.1631
 6610TIP3    H241390   0.373   2.210   0.519  0.0122  0.8521  0.2387
 6611TIP3   OH241391   4.615   4.711   7.772 -0.5675 -0.1889  0.1768
 6611TIP3    H141392   4.588   4.802   7.784 -1.4956  0.0438 -2.8133
 6611TIP3    H241393   4.648   4.708   7.682  0.8273 -2.5343  0.6832
 6612TIP3   OH241394   1.519   1.175   1.224 -0.0021  0.4298  0.0223
 6612TIP3    H141395   1.423   1.170   1.221 -0.0003 -0.6051  0.8264
 6612TIP3    H241396   1.549   1.108   1.162  0.1846  0.2786  0.2722
 6613TIP3   OH241397   4.937   3.864   2.027  0.1694  0.3619 -0.5312
 6613TIP3    H141398   4.951   3.769   2.035 -0.0842  0.4675  1.4744
 6613TIP3    H241399   4.842   3.873   2.017 -0.0911  0.4814  1.5914
 6614TIP3   OH241400   2.375   5.766   0.952  0.1596 -0.1955  0.1941
 6614TIP3    H141401   2.465   5.744   0.927  0.2509  0.9438 -0.5611
 6614TIP3    H241402   2.358   5.713   1.029  1.6788 -0.0451  0.6715
 6615TIP3   OH241403   6.068   2.674   0.286  0.5465 -0.4572  0.4358
 6615TIP3    H141404   6.097   2.718   0.206 -1.3640  1.9100  0.9394
 6615TIP3    H241405   6.092   2.582   0.272  2.8623  0.3301 -1.5754
 6616TIP3   OH241406   6.043   6.732   1.110  0.1110 -0.2512  0.3191
 6616TIP3    H141407   6.038   6.821   1.074 -3.0796 -0.5562 -0.2990
 6616TIP3    H241408   6.082   6.743   1.197 -0.9920  1.9304  0.6157
 6617TIP3   OH241409   5.550   0.532   1.672 -0.6546 -0.1089 -0.7274
 6617TIP3    H141410   5.628   0.481   1.697  0.5376  1.1926 -1.6576
 6617TIP3    H241411   5.513   0.560   1.756  0.4900  0.1373 -0.2816
 6618TIP3   OH241412   1.078   1.407   0.229  0.0174 -0.1135  0.2703
 6618TIP3    H141413   1.049   1.458   0.154 -1.7375  0.0545  1.0168
 6618TIP3    H241414   1.086   1.317   0.195  1.1775  0.2799 -0.5588
 6619TIP3   OH241415   5.040   2.297   7.924 -0.6661 -0.4320 -0.3771
 6619TIP3    H141416   4.980   2.280   7.851 -0.3732  0.1583 -0.7577
 6619TIP3    H241417   5.111   2.234   7.911 -0.3295  0.0505 -0.9323
 6620TIP3   OH241418   4.900   0.632   1.678  0.5629 -0.2787 -0.0457
 6620TIP3    H141419   4.948   0.714   1.690  1.9617 -0.9299 -0.9297
 6620TIP3    H241420   4.901   0.590   1.764  0.3340  0.3615  0.2738
 6621TIP3   OH241421   4.296   2.659   1.780  0.5147 -0.7689  0.3720
 6621TIP3    H141422   4.324   2.709   1.857 -1.0223  0.0130  0.4701
 6621TIP3    H241423   4.336   2.705   1.706 -0.0272 -0.0048  0.5407
 6622TIP3   OH241424   4.503   0.680   7.137 -0.2025  0.5185 -0.1766
 6622TIP3    H141425   4.569   0.741   7.104 -0.1262  1.3249  1.3867
 6622TIP3    H241426   4.446   0.663   7.062  1.7854 -0.2770 -1.6232
 6623TIP3   OH241427   0.648   4.036   0.434  0.4684  0.1603 -0.2145
 6623TIP3    H141428   0.711   4.081   0.491  0.0590  0.8655 -0.3025
 6623TIP3    H241429   0.699   4.009   0.358  0.7399  0.3888 -0.1154
 6624TIP3   OH241430   2.306   6.061   1.112  0.1629 -0.0938  0.0801
 6624TIP3    H141431   2.320   5.999   1.040 -0.0153 -0.6470  0.5102
 6624TIP3    H241432   2.211   6.057   1.128  0.3673 -1.0005  1.2291
 6625TIP3   OH241433   4.290   1.589   8.002 -0.3043  0.8533  0.6753
 6625TIP3    H141434   4.258   1.672   8.037  2.8087  2.0665  1.0035
 6625TIP3    H241435   4.266   1.591   7.909 -0.0514  2.2945  0.6148
 6626TIP3   OH241436   3.345   3.108   0.491  0.5134  0.1987 -0.9687
 6626TIP3    H141437   3.405   3.106   0.565 -0.0958 -0.5610 -0.4790
 6626TIP3    H241438   3.393   3.067   0.419  0.4798 -0.7083 -0.4883
 6627TIP3   OH241439   1.131   4.337   0.119  0.2284  0.4815  0.3034
 6627TIP3    H141440   1.060   4.279   0.147  1.4290 -1.1265  0.1342
 6627TIP3    H241441   1.103   4.369   0.034  0.3746 -1.4208 -0.5115
 6628TIP3   OH241442   4.004   6.190   1.269  0.1133 -0.4228 -0.2342
 6628TIP3    H141443   3.967   6.102   1.269 -0.4821 -0.1802  0.2678
 6628TIP3    H241444   3.990   6.222   1.180 -0.8172 -0.3676 -0.0758
 6629TIP3   OH241445   4.397   4.266   8.051 -0.2420 -0.7076 -0.0133
 6629TIP3    H141446   4.488   4.288   8.031 -1.0181  1.2505 -1.7268
 6629TIP3    H241447   4.355   4.258   7.965 -1.6873 -1.6841  0.7471
 6630TIP3   OH241448   1.503   0.157   0.304  0.5634 -0.5545 -0.6789
 6630TIP3    H141449   1.433   0.114   0.255 -1.7082 -0.1497  1.9297
 6630TIP3    H241450   1.485   0.250   0.296  1.2485 -0.4033 -0.5680
 6631TIP3   OH241451   3.795   4.506   1.767 -0.3282  0.0255  0.4493
 6631TIP3    H141452   3.744   4.533   1.842 -0.5529  1.7635 -0.2823
 6631TIP3    H241453   3.877   4.554   1.775 -0.5287  0.5801 -0.6264
 6632TIP3   OH241454   2.675   4.103   1.125 -0.5211 -0.6111  0.3206
 6632TIP3    H141455   2.726   4.022   1.127 -1.9536 -1.5770 -0.2440
 6632TIP3    H241456   2.683   4.138   1.214  2.0554 -0.0601 -0.0623
 6633TIP3   OH241457   1.066   2.726   0.905 -0.1457  0.2732 -0.7500
 6633TIP3    H141458   0.996   2.661   0.893  0.8457 -1.1084  0.5765
 6633TIP3    H241459   1.147   2.674   0.900  0.6527  1.2368  1.1986
 6634TIP3   OH241460   5.439   4.552   1.892  0.4637 -0.1659  0.0085
 6634TIP3    H141461   5.344   4.561   1.898  0.4403 -0.9900  1.1142
 6634TIP3    H241462   5.471   4.642   1.888 -0.3521  0.1215 -0.4318
 6635TIP3   OH241463   5.392   4.431   7.913  0.2841  0.1013  0.3887
 6635TIP3    H141464   5.388   4.523   7.889 -0.9132 -0.0075  0.1068
 6635TIP3    H241465   5.462   4.394   7.859  0.7272  0.8183  0.4664
 6636TIP3   OH241466   4.264   4.306   7.347  0.6137 -0.0326  0.2274
 6636TIP3    H141467   4.247   4.338   7.258  1.0880  1.4652  0.6479
 6636TIP3    H241468   4.178   4.292   7.385  0.4073 -0.8217 -0.5126
 6637TIP3   OH241469   5.118   4.785   2.471 -0.2338  0.0415 -0.4038
 6637TIP3    H141470   5.098   4.774   2.564  1.3378  0.1252 -0.0336
 6637TIP3    H241471   5.098   4.699   2.432  2.3498 -1.1579  0.6667
 6638TIP3   OH241472   4.712   2.673   8.194 -0.2870 -0.2031 -0.1842
 6638TIP3    H141473   4.765   2.737   8.148  0.4261 -0.5153  0.1719
 6638TIP3    H241474   4.714   2.595   8.138  1.9009 -1.1252  1.0244
 6639TIP3   OH241475   3.942   2.527   7.080  0.4193 -0.2088 -0.0985
 6639TIP3    H141476   3.979   2.614   7.096  2.3538 -1.1079  0.6144
 6639TIP3    H241477   3.849   2.543   7.066  0.2729  1.7289  2.4332
 6640TIP3   OH241478   5.380   6.271   1.383 -0.5521  0.3430  0.5525
 6640TIP3    H141479   5.382   6.296   1.290  0.3617 -0.3085  0.3792
 6640TIP3    H241480   5.471   6.280   1.412 -0.9673  1.3384  1.6244
 6641TIP3   OH241481   2.189   2.914   1.459 -0.2735  0.2259 -1.0304
 6641TIP3    H141482   2.211   2.826   1.489  1.9093  0.8269 -0.6821
 6641TIP3    H241483   2.101   2.930   1.494 -0.3339 -1.4476 -0.3278
 6642TIP3   OH241484   1.459   4.703   2.373  0.1837  0.2373  0.2710
 6642TIP3    H141485   1.554   4.712   2.362  0.2283 -0.5052  0.0155
 6642TIP3    H241486   1.446   4.611   2.395 -0.2938  0.7608  2.4565
 6643TIP3   OH241487   3.629   1.722   8.608  0.0813  0.1351 -0.4454
 6643TIP3    H141488   3.670   1.733   8.522  0.3403 -2.5575 -0.7531
 6643TIP3    H241489   3.703   1.716   8.669 -0.0127 -0.2482 -0.3679
 6644TIP3   OH241490   2.376   4.034   8.260  0.2574  0.4500 -0.2570
 6644TIP3    H141491   2.297   3.986   8.235 -0.0479  1.1940 -0.7505
 6644TIP3    H241492   2.390   4.097   8.189  1.9195 -0.3951 -0.7211
 6645TIP3   OH241493   5.993   4.005   1.642 -0.1735 -0.0519  0.3513
 6645TIP3    H141494   5.905   3.968   1.651 -0.1363 -0.4177 -0.7001
 6645TIP3    H241495   6.018   4.028   1.732 -1.4961  0.4167  0.6275
 6646TIP3   OH241496   3.656   3.366   8.430 -0.1923  0.2360  0.2684
 6646TIP3    H141497   3.613   3.304   8.489 -1.1643  0.8112  0.1851
 6646TIP3    H241498   3.743   3.330   8.417  0.1066  0.1639  2.1721
 6647TIP3   OH241499   1.883   0.144   7.571 -0.3461  0.0924  0.2316
 6647TIP3    H141500   1.933   0.099   7.503  1.0356 -0.0447  1.2887
 6647TIP3    H241501   1.918   0.233   7.573  1.7072 -0.6414  2.6100
 6648TIP3   OH241502   1.235   3.913   1.052 -0.1388 -0.4160  1.2957
 6648TIP3    H141503   1.271   3.920   1.140 -0.2524 -0.4240  1.3423
 6648TIP3    H241504   1.208   4.003   1.031  0.0128 -0.3885  1.2162
 6649TIP3   OH241505   4.685   5.026   1.689  0.0458 -0.1834 -0.5282
 6649TIP3    H141506   4.647   4.985   1.611  0.7529  0.4024 -1.1946
 6649TIP3    H241507   4.617   5.084   1.721 -0.1032 -0.1208 -0.9528
 6650TIP3   OH241508   6.491   1.888   7.790 -0.5167  0.4328  0.4606
 6650TIP3    H141509   6.478   1.797   7.817  0.9652  0.5551  1.7263
 6650TIP3    H241510   6.408   1.931   7.811 -1.0037 -0.4842  0.4784
 6651TIP3   OH241511   6.087   3.320   1.994 -0.0904  0.1308  0.5686
 6651TIP3    H141512   6.065   3.316   1.901 -0.8157  0.2588  0.7347
 6651TIP3    H241513   6.034   3.252   2.034 -1.3721  1.4527  1.2023
 6652TIP3   OH241514   4.951   6.670   2.171  0.2169 -0.1329  0.0856
 6652TIP3    H141515   4.990   6.633   2.251  0.4971 -0.5682 -0.2527
 6652TIP3    H241516   4.869   6.622   2.160  0.2000 -0.1036  0.0813
 6653TIP3   OH241517   1.044   4.610   0.272 -0.6891 -0.0494  0.0137
 6653TIP3    H141518   1.117   4.557   0.305 -0.2499  0.3917 -0.2387
 6653TIP3    H241519   0.966   4.557   0.290 -0.2389 -0.8834 -0.4338
 6654TIP3   OH241520   5.348   0.669   0.977 -0.1198 -0.0676 -0.2737
 6654TIP3    H141521   5.276   0.698   1.032  0.0118  1.2947 -0.7992
 6654TIP3    H241522   5.417   0.645   1.039  0.2789  2.0985  0.1689
 6655TIP3   OH241523   6.005   3.432   8.638 -0.7874  0.0858 -0.1874
 6655TIP3    H141524   6.060   3.412   8.562  0.2876  1.0694  0.2965
 6655TIP3    H241525   6.007   3.352   8.691 -0.7779 -0.2835 -0.7359
 6656TIP3   OH241526   2.993   3.722   7.851 -0.2162  0.3651  0.0154
 6656TIP3    H141527   2.961   3.811   7.866 -2.3770  0.0822 -2.2317
 6656TIP3    H241528   3.061   3.733   7.784 -0.7593  0.3093 -0.5520
 6657TIP3   OH241529   6.165   4.157   6.960  0.0916 -0.7653 -0.3763
 6657TIP3    H141530   6.104   4.160   6.886  0.2115 -0.6614 -0.4714
 6657TIP3    H241531   6.251   4.152   6.919  0.2234  0.2993 -0.2560
 6658TIP3   OH241532   6.754   2.496   1.484 -0.3590 -0.3439  0.3966
 6658TIP3    H141533   6.815   2.504   1.557  0.4112 -0.1006 -0.2624
 6658TIP3    H241534   6.669   2.519   1.522 -0.2260 -1.6331  1.5529
 6659TIP3   OH241535   5.872   2.410   7.762 -0.9538 -0.4006 -0.1194
 6659TIP3    H141536   5.912   2.404   7.849 -0.4354 -1.0747 -0.3998
 6659TIP3    H241537   5.923   2.350   7.708  0.4400  1.8836 -1.5378
 6660TIP3   OH241538   1.287   4.152   0.505  0.4419  0.0819 -0.3984
 6660TIP3    H141539   1.301   4.168   0.412 -0.8503 -1.1778 -0.8502
 6660TIP3    H241540   1.206   4.102   0.509  0.4865  0.0788  1.4123
 6661TIP3   OH241541   6.309   3.745   7.884  0.1369 -0.4918 -0.2787
 6661TIP3    H141542   6.364   3.747   7.962  0.6736  1.0903 -0.6439
 6661TIP3    H241543   6.281   3.654   7.876 -1.6247 -0.3573  2.9128
 6662TIP3   OH241544   5.552   5.060   3.111  0.0651  0.1194  0.2778
 6662TIP3    H141545   5.524   4.985   3.164  1.6560 -0.3178  0.5654
 6662TIP3    H241546   5.472   5.110   3.096 -1.0361 -1.6335  0.0679
 6663TIP3   OH241547   5.697   4.295   0.076  0.1764  0.0520  0.0668
 6663TIP3    H141548   5.651   4.252   0.148  1.9713 -0.8780  0.7348
 6663TIP3    H241549   5.630   4.344   0.030 -1.5570 -1.6775  0.6356
 6664TIP3   OH241550   6.618   5.107   2.395 -0.0147 -0.4170  0.2832
 6664TIP3    H141551   6.595   5.035   2.336 -1.1321 -0.3716  0.6546
 6664TIP3    H241552   6.667   5.065   2.466  0.5074 -0.6038 -0.1710
 6665TIP3   OH241553   0.741   5.997   0.036  0.0833 -0.3654  0.3727
 6665TIP3    H141554   0.781   6.030   0.116  1.5763  0.2391 -0.5609
 6665TIP3    H241555   0.752   6.069  -0.027  1.8340 -1.9307 -1.2424
 6666TIP3   OH241556   2.305   4.750   2.114 -0.2192  0.4487  0.7248
 6666TIP3    H141557   2.327   4.657   2.115  1.4395  0.8000 -0.2148
 6666TIP3    H241558   2.234   4.759   2.179 -1.4111 -1.6860 -0.1998
 6667TIP3   OH241559   2.765   5.736   6.936 -0.2482  0.1192 -0.0042
 6667TIP3    H141560   2.711   5.766   7.010  1.5646 -0.3984  1.6264
 6667TIP3    H241561   2.761   5.640   6.941 -1.4308  0.0361 -1.6658
 6668TIP3   OH241562   5.781   1.588   8.517 -0.2000  0.3744 -0.1584
 6668TIP3    H141563   5.772   1.682   8.531  0.3297  0.3730  0.2376
 6668TIP3    H241564   5.691   1.556   8.508 -0.6432  0.4139  3.0134
 6669TIP3   OH241565   2.155   6.132   8.455 -0.0920  0.5039 -0.3839
 6669TIP3    H141566   2.196   6.161   8.537 -1.7639 -0.1614  0.7431
 6669TIP3    H241567   2.116   6.047   8.476  0.3962 -0.2055 -2.2057
 6670TIP3   OH241568   1.845   4.136   0.760 -0.4187 -0.0000  0.2823
 6670TIP3    H141569   1.809   4.132   0.671  0.4949 -2.1460 -0.0708
 6670TIP3    H241570   1.792   4.074   0.810 -0.0488  0.1485  0.8724
 6671TIP3   OH241571   1.587   4.942   7.612  0.0639 -0.5737 -0.2806
 6671TIP3    H141572   1.554   4.858   7.579 -0.2108 -1.5599  2.2431
 6671TIP3    H241573   1.679   4.925   7.630 -0.1732 -0.5964  0.9597
 6672TIP3   OH241574   4.212   1.278   2.169  0.4919 -0.2874  0.0761
 6672TIP3    H141575   4.129   1.250   2.207  0.5214 -0.1290  0.2621
 6672TIP3    H241576   4.218   1.371   2.191  1.9644 -0.8612  2.4025
 6673TIP3   OH241577   2.204   2.188   1.294  0.1393 -0.5301 -0.5859
 6673TIP3    H141578   2.145   2.222   1.361  1.5432  1.1302 -0.1162
 6673TIP3    H241579   2.221   2.098   1.321  2.9728  0.8615  3.1332
 6674TIP3   OH241580   2.760   1.904   2.082 -0.2736 -0.0627 -0.8402
 6674TIP3    H141581   2.692   1.971   2.088  0.0911  0.4696 -2.2366
 6674TIP3    H241582   2.734   1.837   2.144  0.0068  1.9295  1.5746
 6675TIP3   OH241583   5.192   4.540   2.119 -0.4875 -0.2280 -0.4394
 6675TIP3    H141584   5.196   4.553   2.213 -3.3105 -1.4261 -0.0465
 6675TIP3    H241585   5.204   4.446   2.107  0.5577 -0.0003 -1.3885
 6676TIP3   OH241586   5.239   6.787   8.272 -0.0919  0.9580 -0.4320
 6676TIP3    H141587   5.246   6.726   8.346 -1.2157 -1.0863 -1.9108
 6676TIP3    H241588   5.321   6.776   8.224 -0.1388  0.8766 -0.4941
 6677TIP3   OH241589   1.738   1.985   8.548 -0.1424  0.0933  0.2962
 6677TIP3    H141590   1.815   2.040   8.535 -0.2853  0.2285  0.0140
 6677TIP3    H241591   1.692   1.987   8.464  0.3481 -1.2263 -0.0353
 6678TIP3   OH241592   1.152   0.100   7.615  0.2609 -0.6160  0.3397
 6678TIP3    H141593   1.157   0.077   7.522  2.0696 -2.3177  0.7833
 6678TIP3    H241594   1.059   0.114   7.631 -0.0186  0.6030 -1.8878
 6679TIP3   OH241595   2.911   0.218   1.446 -0.3055 -0.0319  0.0650
 6679TIP3    H141596   2.820   0.204   1.471 -0.2810 -0.3584 -0.0249
 6679TIP3    H241597   2.960   0.210   1.528 -0.2445 -0.9275 -0.0469
 6680TIP3   OH241598   2.848   5.987   0.140  0.2306 -0.2479  0.6411
 6680TIP3    H141599   2.836   5.988   0.235 -0.0797  0.3009  0.6032
 6680TIP3    H241600   2.827   5.898   0.114  1.7892 -0.8376  1.2578
 6681TIP3   OH241601   2.107   1.487   1.107  0.8272  0.2282 -0.4555
 6681TIP3    H141602   2.144   1.548   1.171 -1.3720  2.2044 -0.9222
 6681TIP3    H241603   2.059   1.424   1.160 -0.6808  1.6371 -0.0726
 6682TIP3   OH241604   6.670   2.763   1.378 -0.5092  0.7048 -0.4364
 6682TIP3    H141605   6.579   2.761   1.408 -1.0885 -1.1342 -2.1247
 6682TIP3    H241606   6.722   2.754   1.459 -1.9547 -2.3819  0.2941
 6683TIP3   OH241607   3.394   6.632   7.434  0.1138 -0.1911  0.3687
 6683TIP3    H141608   3.464   6.574   7.403  2.0463  1.3896  1.5173
 6683TIP3    H241609   3.402   6.711   7.380 -1.2674 -0.2566  0.0479
 6684TIP3   OH241610   0.136   2.069   8.050  0.0727  0.1684  0.1190
 6684TIP3    H141611   0.109   2.016   8.125 -0.9511  1.3011  0.5763
 6684TIP3    H241612   0.232   2.058   8.047 -0.1872 -3.0694 -0.8706
 6685TIP3   OH241613   5.537   6.128   7.547  0.3750 -0.6746 -0.3008
 6685TIP3    H141614   5.577   6.071   7.480  1.0002 -0.0545 -0.4653
 6685TIP3    H241615   5.590   6.112   7.626  0.0687 -0.8884 -0.1360
 6686TIP3   OH241616   3.528   6.816   8.030 -0.0198 -0.1267  0.1987
 6686TIP3    H141617   3.612   6.784   7.996 -0.3065 -2.0485  1.1711
 6686TIP3    H241618   3.550   6.856   8.114  0.0235  0.1107  0.0752
 6687TIP3   OH241619   4.499   1.161   1.513  0.2658  0.0163 -0.2058
 6687TIP3    H141620   4.549   1.080   1.499 -0.2770 -0.4941  0.7232
 6687TIP3    H241621   4.521   1.216   1.438 -0.7435 -1.7026 -1.8544
 6688TIP3   OH241622   0.055   0.928   7.991  0.1513  0.0038 -0.2119
 6688TIP3    H141623  -0.012   0.893   8.050 -1.0790 -0.1657 -1.6350
 6688TIP3    H241624   0.052   0.869   7.915 -0.1155  1.6540 -1.5285
 6689TIP3   OH241625   6.652   2.896   1.821 -0.1967 -0.2523  0.8361
 6689TIP3    H141626   6.592   2.965   1.850  0.2443  0.3977  0.2615
 6689TIP3    H241627   6.608   2.856   1.746 -0.3512 -0.4442  1.0286
 6690TIP3   OH241628   6.299   3.207   0.135 -0.9960  0.2127  0.0069
 6690TIP3    H141629   6.328   3.220   0.044  0.1245 -0.0007  0.3128
 6690TIP3    H241630   6.328   3.118   0.155 -0.6563  0.4910  0.7741
 6691TIP3   OH241631   5.111   1.811   7.470  0.1041 -0.1348  0.5063
 6691TIP3    H141632   5.055   1.890   7.470  0.2984  0.0297 -1.1074
 6691TIP3    H241633   5.049   1.738   7.467 -0.0505  0.0105  0.1391
 6692TIP3   OH241634   1.434   3.226   1.596 -0.8529 -0.1068  0.7513
 6692TIP3    H141635   1.367   3.291   1.618 -1.1947  0.2739 -1.2124
 6692TIP3    H241636   1.517   3.268   1.621 -0.9814  1.5656 -1.3364
 6693TIP3   OH241637   5.524   5.470   8.481 -0.2433  0.4320  0.3240
 6693TIP3    H141638   5.550   5.393   8.530 -0.8023  0.5820  0.8696
 6693TIP3    H241639   5.450   5.441   8.427 -0.7616  0.6871  0.8801
 6694TIP3   OH241640   6.566   4.917   0.537 -0.2691 -0.0240 -0.0756
 6694TIP3    H141641   6.602   4.866   0.464  0.2998 -1.4164  1.1414
 6694TIP3    H241642   6.640   4.967   0.570 -0.2062 -0.4069  0.3717
 6695TIP3   OH241643   6.350   5.015   7.741  0.7607 -0.3107 -0.1863
 6695TIP3    H141644   6.294   5.016   7.663  1.9559  0.9780 -1.0615
 6695TIP3    H241645   6.439   5.021   7.708  1.3407 -0.4961  1.2544
 6696TIP3   OH241646   5.855   6.198   1.518  0.3695 -0.3722  0.3213
 6696TIP3    H141647   5.883   6.225   1.430  0.1342 -1.1935 -0.0138
 6696TIP3    H241648   5.771   6.242   1.531  1.5754  1.8731  1.2163
 6697TIP3   OH241649   0.044   6.410   8.080  0.1351 -0.2035 -0.0007
 6697TIP3    H141650  -0.018   6.463   8.131  0.7864  0.8178 -0.2286
 6697TIP3    H241651   0.061   6.462   8.001  0.3933 -1.0074 -0.4888
 6698TIP3   OH241652   6.138   1.152   1.489  0.5444  0.0131 -0.0011
 6698TIP3    H141653   6.069   1.087   1.504 -0.0664  0.4067 -1.0113
 6698TIP3    H241654   6.185   1.119   1.412 -0.4318  1.2675 -1.1861
 6699TIP3   OH241655   3.828   2.511   8.556  0.4098 -0.3265  0.4420
 6699TIP3    H141656   3.848   2.423   8.523 -1.6745 -0.9434  0.7016
 6699TIP3    H241657   3.870   2.514   8.642  1.6692 -0.5363 -0.1476
 6700TIP3   OH241658   3.237   5.420   8.324  0.7576 -0.4090  0.0046
 6700TIP3    H141659   3.303   5.487   8.339 -1.7803  1.9632  1.4250
 6700TIP3    H241660   3.156   5.468   8.307 -0.7906 -3.1350 -1.0709
 6701TIP3   OH241661   6.447   5.634   1.740  0.6991  0.3940 -0.1668
 6701TIP3    H141662   6.513   5.662   1.676  0.3973 -0.1432 -0.7262
 6701TIP3    H241663   6.451   5.699   1.810 -0.4854  2.2769 -1.7527
 6702TIP3   OH241664   5.823   6.247   8.774 -0.1875 -0.1945 -0.5270
 6702TIP3    H141665   5.773   6.254   8.692 -1.7462 -0.5283  0.3535
 6702TIP3    H241666   5.839   6.153   8.785  0.2627 -0.1275 -0.5688
 6703TIP3   OH241667   4.256   1.103   6.769  0.3025  0.0581 -0.5922
 6703TIP3    H141668   4.305   1.185   6.777  1.6585 -0.7843  0.2533
 6703TIP3    H241669   4.318   1.036   6.800 -1.1986 -1.1311 -0.0588
 6704TIP3   OH241670   6.560   4.116   0.203 -0.4394  0.2887  0.0808
 6704TIP3    H141671   6.570   4.161   0.119  0.6152  0.6395  0.3775
 6704TIP3    H241672   6.647   4.118   0.241 -0.7261 -0.6424  0.8048
 6705TIP3   OH241673   4.644   6.026   8.024 -0.1713 -0.3498 -0.2395
 6705TIP3    H141674   4.678   6.007   7.937 -0.1293 -1.2750 -0.0277
 6705TIP3    H241675   4.641   6.122   8.028 -1.7577 -0.2719 -1.8767
 6706TIP3   OH241676   6.216   3.827   0.422 -0.5267  0.2154  0.1723
 6706TIP3    H141677   6.267   3.908   0.425  0.7697 -0.6031  1.0485
 6706TIP3    H241678   6.265   3.765   0.475 -2.6184 -0.5479  1.3292
 6707TIP3   OH241679   2.435   0.137   1.597  0.0516 -0.1032 -0.6467
 6707TIP3    H141680   2.528   0.122   1.580  0.5197  1.6419  0.1626
 6707TIP3    H241681   2.431   0.227   1.630 -1.6955 -0.7367  1.0439
 6708TIP3   OH241682   0.188   5.394   0.308  0.3747  0.2878 -0.7913
 6708TIP3    H141683   0.250   5.454   0.266  0.1546  1.0735 -0.0158
 6708TIP3    H241684   0.152   5.444   0.381 -3.5823  1.1114 -2.9797
 6709TIP3   OH241685   2.554   0.440   0.591  0.2015  0.1847 -0.4133
 6709TIP3    H141686   2.610   0.504   0.545  0.2586  0.3224 -0.1546
 6709TIP3    H241687   2.611   0.403   0.658 -0.0154  0.3146 -0.1580
 6710TIP3   OH241688   1.713   6.099   7.688 -0.2837 -0.1022  0.7185
 6710TIP3    H141689   1.723   6.008   7.658  0.3611  0.3557 -0.5452
 6710TIP3    H241690   1.668   6.092   7.772  0.4016 -1.6319  0.9893
 6711TIP3   OH241691   2.187   3.706   8.346 -0.1184 -0.3345 -0.2241
 6711TIP3    H141692   2.157   3.645   8.278  0.1643 -0.0453 -0.6109
 6711TIP3    H241693   2.190   3.791   8.303  2.6237 -0.5455 -0.6654
 6712TIP3   OH241694   1.969   2.934   0.806 -0.6215 -0.6644  1.0139
 6712TIP3    H141695   1.911   2.876   0.855 -1.5076  0.2164  1.0456
 6712TIP3    H241696   1.926   2.946   0.721 -0.5957  0.1530  1.1068
 6713TIP3   OH241697   3.284   6.748   7.919  0.2816 -0.4491 -0.5969
 6713TIP3    H141698   3.341   6.792   7.982 -1.3237 -1.6908  1.8756
 6713TIP3    H241699   3.330   6.667   7.899  0.6404 -0.2074 -0.7745
 6714TIP3   OH241700   0.051   0.340   8.069  0.1826 -0.0136 -0.1861
 6714TIP3    H141701   0.046   0.262   8.124 -1.4026  0.0319 -0.2224
 6714TIP3    H241702   0.105   0.401   8.119 -1.0101 -0.0595  1.2441
 6715TIP3   OH241703   1.849   0.603   0.313 -0.1437  0.2340 -0.8920
 6715TIP3    H141704   1.870   0.514   0.286  0.9451  0.6109 -1.3173
 6715TIP3    H241705   1.761   0.619   0.278 -0.6105 -0.8699 -0.2901
 6716TIP3   OH241706   2.622   0.571   8.262 -0.0919  0.5187  0.0783
 6716TIP3    H141707   2.577   0.631   8.203  1.4147  1.6736  0.0285
 6716TIP3    H241708   2.683   0.523   8.205 -0.2425  0.0037  0.3487
 6717TIP3   OH241709   0.595   5.917   7.867  0.2236  0.0193 -0.6162
 6717TIP3    H141710   0.645   5.838   7.849  2.2140  1.0473  0.1365
 6717TIP3    H241711   0.505   5.894   7.844  0.5456 -2.7779  0.5399
 6718TIP3   OH241712   1.290   3.138   8.465  0.4174  0.4315 -0.2035
 6718TIP3    H141713   1.333   3.159   8.382  0.7787 -0.1871 -0.1798
 6718TIP3    H241714   1.351   3.079   8.510 -0.4712 -0.5409 -0.2165
 6719TIP3   OH241715   6.548   4.110   1.456  0.0796 -0.2859 -0.0742
 6719TIP3    H141716   6.591   4.064   1.384  0.4460  1.3677 -0.9416
 6719TIP3    H241717   6.616   4.120   1.522  0.1438 -0.4740 -0.1101
 6720TIP3   OH241718   3.592   5.493   0.378  0.1675  0.0787  0.0287
 6720TIP3    H141719   3.555   5.475   0.464 -0.5340 -0.1428 -0.3110
 6720TIP3    H241720   3.516   5.506   0.321  0.6238  1.5433 -0.2967
 6721TIP3   OH241721   0.634   4.864   7.394 -0.0004  0.1598  0.0864
 6721TIP3    H141722   0.595   4.908   7.470  0.5064  0.0367  0.4278
 6721TIP3    H241723   0.575   4.791   7.376 -0.1162  0.1774  0.3789
 6722TIP3   OH241724   1.958   0.152   1.380  0.1569  0.0818  0.4546
 6722TIP3    H141725   1.869   0.121   1.366  0.0199  0.7910 -0.2932
 6722TIP3    H241726   2.013   0.089   1.333  0.0631 -0.3446  0.9028
 6723TIP3   OH241727   3.168   5.891   1.229 -0.3437 -0.0860  0.1612
 6723TIP3    H141728   3.221   5.840   1.290 -0.8256 -0.9270 -0.1085
 6723TIP3    H241729   3.231   5.948   1.184 -0.0477  0.9088  1.7744
 6724TIP3   OH241730   0.530   1.767   0.807 -0.3509  0.4254  0.5619
 6724TIP3    H141731   0.468   1.794   0.874 -0.2829  1.9881  0.0190
 6724TIP3    H241732   0.477   1.760   0.727 -0.2553 -0.5480  0.5645
 6725TIP3   OH241733   3.100   1.649   8.372 -0.4601  0.0826  0.2451
 6725TIP3    H141734   3.184   1.679   8.408  0.4300  0.5366 -2.0789
 6725TIP3    H241735   3.048   1.628   8.450  1.9552 -0.6994  1.7913
 6726TIP3   OH241736   4.140   0.124   2.214 -0.4056 -0.2989  0.1846
 6726TIP3    H141737   4.070   0.171   2.169  1.0442  2.2970  0.4395
 6726TIP3    H241738   4.195   0.193   2.252  1.7613 -2.2352  0.8116
 6727TIP3   OH241739   0.700   4.388   8.703 -0.1587 -0.0262 -0.6744
 6727TIP3    H141740   0.759   4.332   8.654  1.3993  0.4346  0.5803
 6727TIP3    H241741   0.660   4.330   8.768  1.1861  0.1838  0.3917
 6728TIP3   OH241742   6.797   3.966   0.044  0.4717  0.5398 -0.0223
 6728TIP3    H141743   6.763   3.959  -0.045  1.6903  3.9959 -0.9009
 6728TIP3    H241744   6.726   3.935   0.100 -1.6818  1.6221 -2.0239
 6729TIP3   OH241745   3.140   3.076   8.376 -0.4844  0.3312  0.0795
 6729TIP3    H141746   3.110   3.138   8.310  0.1380 -0.6516 -1.1576
 6729TIP3    H241747   3.224   3.112   8.405 -1.8970  2.1364  2.2701
 6730TIP3   OH241748   5.472   1.185   2.331  0.2618 -0.1760 -0.8064
 6730TIP3    H141749   5.516   1.120   2.387  0.2397  2.0022  1.9914
 6730TIP3    H241750   5.379   1.173   2.350  0.3550  2.1346  1.7521
 6731TIP3   OH241751   4.403   3.886   1.303  0.1550  0.4622  0.7151
 6731TIP3    H141752   4.476   3.846   1.351 -0.6953  0.3250  1.9310
 6731TIP3    H241753   4.440   3.907   1.217  1.1992 -1.0094  0.7684
 6732TIP3   OH241754   5.249   4.782   0.420  0.0666  0.9363 -0.1375
 6732TIP3    H141755   5.210   4.730   0.491 -0.6998  0.2431 -1.0339
 6732TIP3    H241756   5.342   4.785   0.440  0.2738 -1.5194 -0.4715
 6733TIP3   OH241757   1.746   5.763   0.222  0.2878  0.2796  0.0588
 6733TIP3    H141758   1.672   5.819   0.198  0.6232  1.1553  1.0083
 6733TIP3    H241759   1.721   5.726   0.307  0.0716 -1.0366 -0.5491
 6734TIP3   OH241760   4.330   2.287   7.665 -0.1342 -0.0075 -0.0203
 6734TIP3    H141761   4.271   2.339   7.719  0.8088  0.5363  0.5037
 6734TIP3    H241762   4.327   2.328   7.578 -0.7963 -0.2151 -0.1061
 6735TIP3   OH241763   2.187   2.796   0.787 -0.6123  0.1159 -0.3308
 6735TIP3    H141764   2.111   2.846   0.816 -0.0992  2.1980 -2.2304
 6735TIP3    H241765   2.151   2.721   0.740 -1.4902  0.5553 -0.3734
 6736TIP3   OH241766   5.398   1.643   1.477  0.2579  0.0692 -0.3485
 6736TIP3    H141767   5.452   1.639   1.398  1.4945 -2.9258  0.5280
 6736TIP3    H241768   5.308   1.635   1.446  0.4627  1.9178 -1.5874
 6737TIP3   OH241769   4.711   1.588   0.862 -0.1364 -0.1870 -0.0800
 6737TIP3    H141770   4.754   1.661   0.908  0.2143 -0.8014  0.5763
 6737TIP3    H241771   4.738   1.599   0.770 -0.5645  0.8461 -0.1013
 6738TIP3   OH241772   1.037   5.724   0.357 -0.1663  0.4222  0.0932
 6738TIP3    H141773   1.062   5.701   0.447 -1.6081 -1.9539 -0.0235
 6738TIP3    H241774   0.954   5.771   0.367 -0.0513  0.6420  0.0226
 6739TIP3   OH241775   5.752   4.593   1.219  0.8282 -0.8979 -0.4115
 6739TIP3    H141776   5.712   4.615   1.134 -1.6162 -0.4726  0.7580
 6739TIP3    H241777   5.698   4.521   1.252  1.7565 -1.0612  0.7891
 6740TIP3   OH241778   6.410   0.301   0.939  0.3966  1.3790 -0.5610
 6740TIP3    H141779   6.321   0.334   0.954  0.1671  0.5099  0.1061
 6740TIP3    H241780   6.450   0.365   0.881 -0.1270  2.6599  0.4418
 6741TIP3   OH241781   2.723   3.174   1.677 -0.0061  0.4013 -0.0152
 6741TIP3    H141782   2.766   3.103   1.630 -0.5223 -0.6869  1.1202
 6741TIP3    H241783   2.650   3.133   1.723 -2.1558  2.1442 -1.6466
 6742TIP3   OH241784   0.159   4.288   1.914  0.5387 -0.7639  0.7626
 6742TIP3    H141785   0.183   4.204   1.874  0.0582  0.4743 -2.3941
 6742TIP3    H241786   0.064   4.284   1.925  0.4684 -0.4802  0.2479
 6743TIP3   OH241787   2.225   6.812   7.989 -0.6083  0.6823  0.4222
 6743TIP3    H141788   2.258   6.901   7.978 -1.0915  0.8940  0.6246
 6743TIP3    H241789   2.276   6.775   8.061  1.7260 -0.2813 -1.5710
 6744TIP3   OH241790   6.209   4.625   7.185  0.4648 -0.1334 -0.1107
 6744TIP3    H141791   6.269   4.569   7.235  0.8000 -1.1579 -1.5736
 6744TIP3    H241792   6.264   4.662   7.115 -0.0561  1.0045  0.0629
 6745TIP3   OH241793   2.890   5.813   8.003  0.9357 -0.2050 -0.1965
 6745TIP3    H141794   2.864   5.900   7.973 -0.2526 -0.2122  0.7515
 6745TIP3    H241795   2.897   5.821   8.098 -1.6245 -1.6997  0.2107
 6746TIP3   OH241796   1.871   5.017   0.142  0.0488 -0.3549  0.7158
 6746TIP3    H141797   1.807   5.010   0.213 -0.5366 -1.6603  0.1007
 6746TIP3    H241798   1.934   5.082   0.172 -1.3306  0.6616  1.5267
 6747TIP3   OH241799   3.401   3.697   0.929  0.1900  0.0561  0.6807
 6747TIP3    H141800   3.396   3.711   0.834 -1.7322 -0.4070  0.6688
 6747TIP3    H241801   3.495   3.690   0.947  0.6157  0.4464 -1.1369
 6748TIP3   OH241802   6.400   0.768   8.137 -0.0816 -0.6335 -0.0836
 6748TIP3    H141803   6.327   0.830   8.133  0.7088  0.4186  0.9083
 6748TIP3    H241804   6.372   0.702   8.200  0.4169  0.6599  1.5695
 6749TIP3   OH241805   0.130   4.858   2.903 -0.0976  0.0525 -0.6670
 6749TIP3    H141806   0.057   4.919   2.897  0.4321  0.8005  0.1871
 6749TIP3    H241807   0.093   4.773   2.876 -1.3908  0.3165  0.1687
 6750TIP3   OH241808   3.466   6.647   1.013 -0.3138  0.0509  0.0766
 6750TIP3    H141809   3.543   6.592   1.024  0.0897  0.7664  0.9923
 6750TIP3    H241810   3.445   6.642   0.920 -0.1527 -1.4479  0.1076
 6751TIP3   OH241811   3.774   5.925   0.592 -0.3204 -0.8338 -0.2106
 6751TIP3    H141812   3.804   5.853   0.536 -1.1637 -2.2835  1.1219
 6751TIP3    H241813   3.699   5.889   0.639 -1.7337  1.4113 -0.5711
 6752TIP3   OH241814   3.948   4.362   2.240  0.0219 -1.2095 -0.3550
 6752TIP3    H141815   3.991   4.446   2.255 -2.7910  0.8243 -2.4402
 6752TIP3    H241816   3.908   4.340   2.324 -0.5735  0.4582 -0.1616
 6753TIP3   OH241817   1.116   2.146   8.481  0.0714  0.2720 -0.5582
 6753TIP3    H141818   1.022   2.160   8.470  0.1468  0.5270 -0.9017
 6753TIP3    H241819   1.149   2.134   8.392  0.2327 -0.6832 -0.3840
 6754TIP3   OH241820   2.200   3.244   0.914  0.0611  0.3967  0.3562
 6754TIP3    H141821   2.146   3.308   0.867  0.6541  1.0131  0.4941
 6754TIP3    H241822   2.251   3.296   0.976  1.8076  0.0301 -0.6897
 6755TIP3   OH241823   2.851   1.621   0.203 -0.7688  0.1285  0.3316
 6755TIP3    H141824   2.923   1.673   0.240 -0.4336 -1.1614  1.6017
 6755TIP3    H241825   2.870   1.617   0.110 -0.2384  1.3881  0.3678
 6756TIP3   OH241826   0.537   2.926   1.445  0.2065 -0.5099  0.2793
 6756TIP3    H141827   0.483   2.964   1.514 -0.4798 -1.0795  0.0735
 6756TIP3    H241828   0.565   2.841   1.482  0.3458 -0.5423  0.0969
 6757TIP3   OH241829   3.556   6.666   0.402 -0.0912 -0.5183  0.3844
 6757TIP3    H141830   3.583   6.621   0.322  1.2441 -1.7388  1.4620
 6757TIP3    H241831   3.461   6.666   0.399 -0.0724 -1.2563 -0.8285
 6758TIP3   OH241832   4.598   0.375   1.025 -0.4572 -0.0952 -0.1101
 6758TIP3    H141833   4.614   0.411   1.113 -0.5315 -1.7393  0.6091
 6758TIP3    H241834   4.508   0.343   1.029 -0.0404 -1.3235 -0.3656
 6759TIP3   OH241835   6.239   6.086   7.112  0.2325  0.8228 -0.0698
 6759TIP3    H141836   6.177   6.157   7.131  1.5745  2.3523 -1.1734
 6759TIP3    H241837   6.286   6.073   7.194 -0.0244  1.2111  0.1444
 6760TIP3   OH241838   1.663   3.496   0.918 -0.2917  0.1124 -0.0907
 6760TIP3    H141839   1.638   3.523   0.830  2.1266 -0.1301 -0.9423
 6760TIP3    H241840   1.689   3.404   0.909 -1.3994 -0.3720  1.2228
 6761TIP3   OH241841   2.325   4.050   8.543  0.6032 -0.0543 -0.0908
 6761TIP3    H141842   2.236   4.085   8.539  0.5095 -0.2486  0.3125
 6761TIP3    H241843   2.351   4.042   8.451  1.3828  2.9834 -0.2561
 6762TIP3   OH241844   1.461   2.960   0.055 -0.3456 -0.0480 -0.1894
 6762TIP3    H141845   1.508   2.976  -0.027  0.1906  1.7475  0.4240
 6762TIP3    H241846   1.523   2.912   0.110  0.8162  2.1327  0.5418
 6763TIP3   OH241847   1.898   5.591   2.674  0.1446 -0.2331  0.8307
 6763TIP3    H141848   1.814   5.600   2.718  0.5203  0.9000  1.3579
 6763TIP3    H241849   1.908   5.671   2.623  1.1546 -0.0766  1.2466
 6764TIP3   OH241850   2.850   3.729   0.268 -0.3388 -0.0507  0.4715
 6764TIP3    H141851   2.822   3.647   0.227 -0.1746 -0.1339  0.5276
 6764TIP3    H241852   2.806   3.797   0.217  0.5300 -0.1121 -0.3752
 6765TIP3   OH241853   3.342   2.607   7.297 -0.1087 -0.5660  0.0102
 6765TIP3    H141854   3.426   2.589   7.339 -0.3952 -1.5522  0.1761
 6765TIP3    H241855   3.319   2.696   7.326  0.5007 -0.5910  0.5815
 6766TIP3   OH241856   0.003   1.872   8.212 -0.2577 -0.1902 -0.2670
 6766TIP3    H141857  -0.036   1.841   8.130  1.6804  0.4628 -1.5073
 6766TIP3    H241858   0.088   1.828   8.216  1.0223  2.1670 -0.2423
 6767TIP3   OH241859   1.212   5.924   1.588  0.1642  0.5780  0.1450
 6767TIP3    H141860   1.160   5.910   1.509 -1.5708  2.3796  0.8845
 6767TIP3    H241861   1.179   5.859   1.650 -0.6187  1.1455  0.3327
 6768TIP3   OH241862   5.638   0.695   0.720  0.1698  0.2699 -0.6074
 6768TIP3    H141863   5.577   0.626   0.695 -0.2120  0.7468 -1.0005
 6768TIP3    H241864   5.584   0.761   0.763  0.7118 -0.2099  0.8737
 6769TIP3   OH241865   3.244   0.210   0.168  0.6812  0.1728 -0.3134
 6769TIP3    H141866   3.304   0.200   0.241  0.5117 -1.9612 -0.4011
 6769TIP3    H241867   3.230   0.121   0.136 -1.8568  0.6835 -0.8421
 6770TIP3   OH241868   6.319   2.973   7.464  0.3807  0.1771  0.3123
 6770TIP3    H141869   6.265   3.046   7.493  1.9222  3.2551 -3.5004
 6770TIP3    H241870   6.297   2.962   7.371  3.0237 -1.4474 -0.2533
 6771TIP3   OH241871   3.699   2.753   7.036  0.5178  0.0814 -0.1741
 6771TIP3    H141872   3.630   2.816   7.018  1.4012  1.4728  1.0550
 6771TIP3    H241873   3.654   2.669   7.045 -1.4333  1.2871  2.9850
 6772TIP3   OH241874   5.825   2.042   0.244  0.2228 -0.2246  0.2237
 6772TIP3    H141875   5.762   2.088   0.299  0.1538 -0.1897  0.1167
 6772TIP3    H241876   5.897   2.019   0.303  0.5047  0.4930  0.1756
 6773TIP3   OH241877   0.703   0.262   1.661  0.2097  0.3549  0.8677
 6773TIP3    H141878   0.683   0.277   1.569 -1.2886 -1.1837  0.8931
 6773TIP3    H241879   0.648   0.188   1.686  3.2169 -1.6976  2.0447
 6774TIP3   OH241880   5.821   5.572   0.860 -0.1716  0.0063 -0.6100
 6774TIP3    H141881   5.882   5.548   0.790 -1.2739  0.4886 -1.7739
 6774TIP3    H241882   5.836   5.666   0.873  0.7564 -0.2832  0.5550
 6775TIP3   OH241883   4.806   5.440   7.811  0.3355  0.7385  0.4840
 6775TIP3    H141884   4.737   5.377   7.790  0.2546  0.9550  0.0910
 6775TIP3    H241885   4.854   5.451   7.729  0.3170  1.2256  0.5325
 6776TIP3   OH241886   6.602   4.042   7.472  0.1085  0.2274 -0.0859
 6776TIP3    H141887   6.665   4.082   7.531 -0.8629  1.6563  0.0209
 6776TIP3    H241888   6.614   4.088   7.389 -1.1141  0.8704  0.0755
 6777TIP3   OH241889   3.330   5.520   1.850 -0.9487  0.5597  0.4903
 6777TIP3    H141890   3.358   5.609   1.828 -0.0780  0.3037  0.4959
 6777TIP3    H241891   3.412   5.469   1.850 -1.5598 -0.4673 -0.5882
 6778TIP3   OH241892   3.321   6.439   8.707 -0.4071 -0.2599 -0.5520
 6778TIP3    H141893   3.345   6.393   8.626  1.4201 -0.9089  0.2788
 6778TIP3    H241894   3.386   6.510   8.714 -0.6774 -0.0817  0.2221
 6779TIP3   OH241895   2.465   2.125   0.656 -0.5992 -0.0103  0.1440
 6779TIP3    H141896   2.474   2.084   0.570 -1.4785 -1.3600  0.6719
 6779TIP3    H241897   2.413   2.064   0.707 -0.4402  0.9574  1.5299
 6780TIP3   OH241898   2.457   1.195   2.065  0.2875 -0.6443  0.2893
 6780TIP3    H141899   2.460   1.251   1.988 -1.1665 -0.5239  0.2951
 6780TIP3    H241900   2.450   1.255   2.139  0.3733 -0.7994  0.4261
 6781TIP3   OH241901   4.661   3.120   7.190 -0.1357  0.1603  0.0268
 6781TIP3    H141902   4.588   3.110   7.251 -0.1614 -1.4211 -0.2128
 6781TIP3    H241903   4.620   3.131   7.104 -0.0921  1.7179  0.1811
 6782TIP3   OH241904   5.455   3.667   1.484 -0.4641  0.1592  0.1230
 6782TIP3    H141905   5.490   3.681   1.572  1.2124  0.6342 -0.5929
 6782TIP3    H241906   5.432   3.755   1.454  3.5730  0.7997 -1.7154
 6783TIP3   OH241907   4.539   3.060   6.957  0.6640 -0.6045  0.0474
 6783TIP3    H141908   4.466   3.091   7.010 -0.4712 -0.2992 -1.6214
 6783TIP3    H241909   4.578   3.141   6.921  0.7200 -0.8462 -0.4499
 6784TIP3   OH241910   6.255   3.378   2.196 -0.1241  0.0498  0.0643
 6784TIP3    H141911   6.215   3.346   2.115  0.7148 -1.0258  0.0490
 6784TIP3    H241912   6.250   3.304   2.256 -0.0854  0.6026  0.7628
 6785TIP3   OH241913   3.487   2.987   1.369 -0.8253  0.1222  0.2319
 6785TIP3    H141914   3.454   2.905   1.334  1.4588 -0.5855 -0.4686
 6785TIP3    H241915   3.445   3.055   1.317 -1.3432 -0.6914 -0.4284
 6786TIP3   OH241916   3.544   6.069   0.458 -0.0441  0.1451 -0.0896
 6786TIP3    H141917   3.517   6.078   0.550  1.7028 -1.0550  0.6169
 6786TIP3    H241918   3.552   5.975   0.445  1.4029  0.3533 -0.9216
 6787TIP3   OH241919   3.794   6.216   0.289  0.0105 -0.0250 -0.9089
 6787TIP3    H141920   3.709   6.188   0.255 -0.4369  0.9189 -0.6174
 6787TIP3    H241921   3.773   6.274   0.362  0.9328 -0.6177 -0.1438
 6788TIP3   OH241922   3.135   1.298   1.733  0.0006 -0.0991 -0.7152
 6788TIP3    H141923   3.214   1.346   1.711 -1.2072  1.0750 -2.8753
 6788TIP3    H241924   3.084   1.358   1.788  1.0353 -1.3070  1.7112
 6789TIP3   OH241925   0.876   6.176   7.629 -0.3748 -0.4216 -0.4071
 6789TIP3    H141926   0.871   6.080   7.629 -1.1993 -0.4181 -2.1247
 6789TIP3    H241927   0.939   6.197   7.560 -0.3788  0.2833 -0.2051
 6790TIP3   OH241928   1.492   4.619   8.429  0.1000 -0.4840 -0.0237
 6790TIP3    H141929   1.476   4.561   8.503 -2.5394  0.2063  0.0364
 6790TIP3    H241930   1.476   4.707   8.464  3.1427  0.3332 -0.3390
 6791TIP3   OH241931   5.780   5.122   8.310 -0.7646  0.3952 -0.3942
 6791TIP3    H141932   5.778   5.027   8.323  0.0590  0.5940  1.5039
 6791TIP3    H241933   5.753   5.158   8.394 -0.2978  1.8651 -0.8434
 6792TIP3   OH241934   2.940   2.434   1.017  0.2369  0.8772  0.0977
 6792TIP3    H141935   2.915   2.357   0.966 -2.4976  1.9788 -0.3762
 6792TIP3    H241936   3.001   2.481   0.961 -0.5467  0.6490 -0.9637
 6793TIP3   OH241937   2.997   5.203   0.586 -0.1560  0.4263 -0.4203
 6793TIP3    H141938   3.071   5.186   0.644  0.4836 -0.7081 -1.5169
 6793TIP3    H241939   2.935   5.253   0.639 -0.8004 -2.7633  2.1372
 6794TIP3   OH241940   4.203   3.129   1.951  0.0741  0.3544  0.1328
 6794TIP3    H141941   4.167   3.129   2.040 -1.1353 -0.0265 -0.3435
 6794TIP3    H241942   4.281   3.074   1.957 -0.6183 -0.5965  0.7308
 6795TIP3   OH241943   6.760   6.671   8.075  0.1245  0.5261 -0.3622
 6795TIP3    H141944   6.759   6.653   7.981  0.8372 -2.5340  0.0951
 6795TIP3    H241945   6.842   6.717   8.091  0.6658 -0.1781 -1.0690
 6796TIP3   OH241946   3.379   2.007   7.060  0.6571 -0.8287 -0.3850
 6796TIP3    H141947   3.316   1.960   7.005  1.5291  0.4682 -2.6276
 6796TIP3    H241948   3.464   1.991   7.018  1.2619  0.8340  0.1203
 6797TIP3   OH241949   3.388   2.425   1.001 -0.3849 -0.3820 -0.6287
 6797TIP3    H141950   3.428   2.338   1.003  0.0168 -0.2664  3.0383
 6797TIP3    H241951   3.462   2.486   0.999 -0.6447 -0.0760 -2.0409
 6798TIP3   OH241952   3.350   0.096   0.432  0.2006 -0.3028  0.4804
 6798TIP3    H141953   3.275   0.110   0.490 -0.0876  1.6984 -0.2888
 6798TIP3    H241954   3.382   0.009   0.455 -0.7708 -0.1653  2.6299
 6799TIP3   OH241955   1.604   1.697   0.658 -0.0018 -0.3310  0.1117
 6799TIP3    H141956   1.631   1.686   0.567  1.6770 -0.7633  0.6206
 6799TIP3    H241957   1.635   1.618   0.702 -0.1587  0.1872  1.1940
 6800TIP3   OH241958   6.476   5.106   3.089 -0.5642  0.2691  0.1277
 6800TIP3    H141959   6.449   5.195   3.068  0.4100  0.4189 -0.5174
 6800TIP3    H241960   6.470   5.059   3.006 -2.4992 -0.6766  0.7248
 6801TIP3   OH241961   0.572   1.720   0.483 -0.8396 -0.2819 -0.2149
 6801TIP3    H141962   0.624   1.693   0.559 -1.6878 -1.6634 -0.0992
 6801TIP3    H241963   0.588   1.814   0.476 -1.6802  0.1526  2.4599
 6802TIP3   OH241964   5.758   2.400   1.892 -0.4417 -0.2728 -0.1283
 6802TIP3    H141965   5.783   2.313   1.863  1.1980  0.5024 -1.1841
 6802TIP3    H241966   5.724   2.443   1.813 -1.5353 -0.0355  0.4474
 6803TIP3   OH241967   2.657   5.603   2.457  0.2687 -0.1132  0.2932
 6803TIP3    H141968   2.682   5.512   2.439 -1.6166 -0.8966  1.3377
 6803TIP3    H241969   2.602   5.627   2.383  4.1186  1.7741 -2.2595
 6804TIP3   OH241970   2.897   5.643   0.985  0.3646 -0.2829 -0.5730
 6804TIP3    H141971   2.974   5.685   0.945  1.4562 -1.1813  0.5059
 6804TIP3    H241972   2.863   5.708   1.046  2.0147 -0.8921  1.0539
 6805TIP3   OH241973   2.317   1.560   0.178  0.0029  0.3299 -0.0808
 6805TIP3    H141974   2.409   1.578   0.197  0.1521 -1.4262  0.9924
 6805TIP3    H241975   2.285   1.512   0.254 -1.8765  1.0903 -0.3420
 6806TIP3   OH241976   5.293   5.324   8.096 -0.1344 -0.6165  0.1194
 6806TIP3    H141977   5.242   5.312   8.015  0.0971  1.6855 -0.4328
 6806TIP3    H241978   5.374   5.276   8.081 -0.1940 -0.4051 -0.9381
 6807TIP3   OH241979   3.347   0.703   2.682 -0.1143  0.3565  0.2720
 6807TIP3    H141980   3.437   0.726   2.662  0.5026 -0.8463  1.4975
 6807TIP3    H241981   3.294   0.765   2.632  1.3741  0.6633 -0.9670
 6808TIP3   OH241982   5.328   4.273   1.631  0.0778  0.0699 -0.5408
 6808TIP3    H141983   5.413   4.241   1.601 -0.2840  0.6024 -2.2533
 6808TIP3    H241984   5.271   4.196   1.629  0.6526 -0.4549  1.3328
 6809TIP3   OH241985   2.361   3.491   0.981 -0.4807  0.3796  0.2038
 6809TIP3    H141986   2.312   3.474   1.061  0.6512  0.1579  0.8784
 6809TIP3    H241987   2.451   3.467   1.003 -0.3344 -0.7593 -1.4977
 6810TIP3   OH241988   2.545   3.665   0.519  0.2136  0.3383 -0.0385
 6810TIP3    H141989   2.585   3.592   0.472 -0.5616 -1.3013  1.7162
 6810TIP3    H241990   2.503   3.625   0.595 -0.0200  2.6623  1.1576
 6811TIP3   OH241991   2.599   0.408   1.357  0.4998  0.1003  0.4631
 6811TIP3    H141992   2.602   0.411   1.453 -1.8061  0.5372  0.5846
 6811TIP3    H241993   2.559   0.324   1.337  0.0240  0.4404 -0.0475
 6812TIP3   OH241994   6.135   2.216   0.946  0.5989 -0.0723  0.1368
 6812TIP3    H141995   6.133   2.223   1.042  1.0860 -2.0926  0.3335
 6812TIP3    H241996   6.211   2.162   0.927 -0.1964 -0.7324 -1.3154
 6813TIP3   OH241997   5.374   6.017   8.089  0.6102 -0.3046  0.3396
 6813TIP3    H141998   5.422   6.087   8.133  0.5204 -1.3199  2.1833
 6813TIP3    H241999   5.385   5.941   8.147 -1.8892 -1.0033  0.0091
 6814TIP3   OH242000   0.178   3.519   8.122  0.1897 -0.1582 -0.2624
 6814TIP3    H142001   0.219   3.550   8.041 -1.7096  1.1583 -0.7966
 6814TIP3    H242002   0.145   3.432   8.100  0.6472 -0.2664 -0.5420
 6815TIP3   OH242003   5.422   3.135   6.764  0.0039  0.4617 -0.0579
 6815TIP3    H142004   5.481   3.203   6.732 -0.8562  0.8094 -0.9833
 6815TIP3    H242005   5.391   3.167   6.848 -0.3137  1.1856 -0.4393
 6816TIP3   OH242006   3.714   0.642   7.491 -0.2753  0.0906  0.2358
 6816TIP3    H142007   3.750   0.715   7.441 -0.6581  0.5558  0.6274
 6816TIP3    H242008   3.689   0.578   7.425 -1.0337  0.8175 -0.1954
 6817TIP3   OH242009   1.328   5.699   7.245  0.4737  0.9630  0.3987
 6817TIP3    H142010   1.349   5.712   7.153 -1.0731 -0.7004 -0.2478
 6817TIP3    H242011   1.391   5.633   7.275  0.2897  0.7131  0.2349
 6818TIP3   OH242012   4.753   3.633   2.324 -0.1674 -0.3076  0.5619
 6818TIP3    H142013   4.802   3.653   2.244 -0.4930 -0.2076  0.3874
 6818TIP3    H242014   4.708   3.714   2.345  1.2363  0.1898  1.7949
 6819TIP3   OH242015   0.833   2.273   1.917  0.0080  0.5733  0.1076
 6819TIP3    H142016   0.761   2.300   1.861  1.0489  2.8430 -0.2555
 6819TIP3    H242017   0.795   2.207   1.975 -1.2682 -1.4428 -2.7914
 6820TIP3   OH242018   2.741   5.510   1.299  0.0140  0.1453 -0.5705
 6820TIP3    H142019   2.807   5.566   1.259  0.7428 -0.5802 -0.4195
 6820TIP3    H242020   2.786   5.471   1.375 -1.1458  1.0482  0.6329
 6821TIP3   OH242021   1.252   3.643   0.539  0.3767 -0.2966 -0.4454
 6821TIP3    H142022   1.259   3.671   0.447 -0.4710  2.7159  0.2856
 6821TIP3    H242023   1.317   3.696   0.585 -0.3915 -0.4959  0.9231
 6822TIP3   OH242024   0.031   3.418   8.780  0.3922 -0.0913 -0.4927
 6822TIP3    H142025  -0.019   3.499   8.767 -0.8112 -0.3001  2.1014
 6822TIP3    H242026   0.118   3.438   8.745 -0.0420  2.1344 -0.4567
 6823TIP3   OH242027   1.201   3.214   0.518  0.5608 -0.2956  0.0232
 6823TIP3    H142028   1.293   3.204   0.544  0.3129 -1.4178  0.5060
 6823TIP3    H242029   1.183   3.307   0.531  1.8691  0.1200 -0.9232
 6824TIP3   OH242030   3.201   2.094   8.014  0.3996 -0.5958  0.1158
 6824TIP3    H142031   3.172   2.139   7.934 -0.0497  0.1742  0.6984
 6824TIP3    H242032   3.142   2.126   8.082  2.4070  0.8385  1.3005
 6825TIP3   OH242033   5.228   2.689   0.423 -0.1987 -0.5284  0.0447
 6825TIP3    H142034   5.242   2.779   0.393  0.5458 -1.2489 -1.8981
 6825TIP3    H242035   5.282   2.682   0.502  3.1018 -0.3767 -1.9816
 6826TIP3   OH242036   2.474   6.581   1.927 -0.2148 -0.7307 -0.4891
 6826TIP3    H142037   2.482   6.570   1.832 -0.3880  0.3957 -0.6468
 6826TIP3    H242038   2.560   6.614   1.954 -0.7223  0.6738 -0.5324
 6827TIP3   OH242039   4.839   1.751   7.875 -0.4290  0.0626  0.2649
 6827TIP3    H142040   4.933   1.749   7.857 -0.7518 -0.3377 -1.6010
 6827TIP3    H242041   4.808   1.832   7.835 -0.3770  2.1436  4.0483
 6828TIP3   OH242042   0.545   2.091   2.495 -0.3235 -0.0328 -0.1162
 6828TIP3    H142043   0.551   2.013   2.550  1.1119  0.0035 -0.1784
 6828TIP3    H242044   0.452   2.099   2.475 -0.3804 -2.3658 -1.0413
 6829TIP3   OH242045   6.245   1.664   6.912  0.0654 -0.2008  0.2092
 6829TIP3    H142046   6.149   1.660   6.914  0.0103  0.3846 -0.5669
 6829TIP3    H242047   6.264   1.758   6.906  0.6028 -0.3863 -1.8765
 6830TIP3   OH242048   0.835   0.633   8.336  0.0773 -0.1539  0.2321
 6830TIP3    H142049   0.860   0.672   8.420  2.2081 -1.6112  0.3559
 6830TIP3    H242050   0.816   0.708   8.280 -0.1867  0.8839  1.6432
 6831TIP3   OH242051   3.819   6.146   0.812 -0.2905 -0.0570  0.8800
 6831TIP3    H142052   3.735   6.148   0.858 -1.3790 -2.7923 -0.7519
 6831TIP3    H242053   3.797   6.125   0.722  2.1591 -1.9742  0.6112
 6832TIP3   OH242054   3.866   4.181   1.412 -0.1548 -0.2219  0.2412
 6832TIP3    H142055   3.925   4.253   1.435  0.0823 -0.2274 -0.3272
 6832TIP3    H242056   3.779   4.220   1.416 -0.0585 -0.0106  0.3419
 6833TIP3   OH242057   1.926   3.316   0.659  0.3366  0.1561  0.2653
 6833TIP3    H142058   1.894   3.355   0.578  0.0799 -0.8041 -0.1168
 6833TIP3    H242059   2.010   3.359   0.675  0.2029  0.6358 -0.2945
 6834TIP3   OH242060   4.055   2.475   1.915  0.2522 -0.1838 -0.4711
 6834TIP3    H142061   4.023   2.387   1.935  1.8983 -0.7087  0.0550
 6834TIP3    H242062   4.013   2.499   1.832 -0.8769 -1.0994 -0.1793
 6835TIP3   OH242063   4.920   3.508   2.520 -0.0997  0.3581  0.1959
 6835TIP3    H142064   4.970   3.432   2.489  1.4887  1.0153  1.0278
 6835TIP3    H242065   4.872   3.538   2.444  1.8238  0.4803 -1.0321
 6836TIP3   OH242066   0.536   2.801   8.335 -0.3790 -0.4206  0.6234
 6836TIP3    H142067   0.571   2.844   8.414  1.5692 -2.1763  0.7899
 6836TIP3    H242068   0.502   2.718   8.367 -0.6804 -0.6266 -0.2234
 6837TIP3   OH242069   1.268   2.115   1.862 -0.0429  0.8680 -0.0885
 6837TIP3    H142070   1.334   2.142   1.925  0.6880  1.0839 -0.9304
 6837TIP3    H242071   1.317   2.087   1.785 -0.8171 -1.4166  0.1636
 6838TIP3   OH242072   2.554   1.779   2.247 -0.1503  0.7956 -0.1785
 6838TIP3    H142073   2.582   1.752   2.335 -0.6555 -0.1498 -0.2960
 6838TIP3    H242074   2.507   1.861   2.261 -0.1959  0.6713  0.4289
 6839TIP3   OH242075   2.199   4.448   0.807 -0.4177  0.3924  0.5769
 6839TIP3    H142076   2.115   4.414   0.836 -0.2457  0.3529  1.0460
 6839TIP3    H242077   2.180   4.537   0.778 -0.6293  0.3698  0.6439
 6840TIP3   OH242078   2.503   6.645   1.244  0.2328  0.1943 -0.5162
 6840TIP3    H142079   2.491   6.581   1.174  0.4787 -1.8256  1.1869
 6840TIP3    H242080   2.598   6.658   1.249  0.0914  3.0458 -2.7511
 6841TIP3   OH242081   3.557   2.773   6.716  0.1129 -0.0412 -0.2720
 6841TIP3    H142082   3.475   2.807   6.680 -0.7368 -0.5343  1.1159
 6841TIP3    H242083   3.574   2.829   6.792  0.6550 -0.4168 -0.1166
 6842TIP3   OH242084   0.457   6.432   1.674 -0.1470  0.0780  0.0633
 6842TIP3    H142085   0.552   6.437   1.664 -0.0156 -1.3744  0.3736
 6842TIP3    H242086   0.423   6.478   1.597  0.8000  0.6358 -0.0404
 6843TIP3   OH242087   6.191   6.216   8.009  0.0100  0.2754  0.2264
 6843TIP3    H142088   6.122   6.228   8.074 -0.1739 -1.1596  0.3266
 6843TIP3    H242089   6.262   6.272   8.039 -0.2263 -0.0436  1.4406
 6844TIP3   OH242090   3.301   4.480   1.699 -0.0314 -0.4140 -0.3146
 6844TIP3    H142091   3.223   4.528   1.726  0.0545  0.2559 -1.2233
 6844TIP3    H242092   3.282   4.448   1.611  1.2587  1.0879 -1.2013
 6845TIP3   OH242093   5.312   6.782   6.948 -0.7666 -0.1631  0.1882
 6845TIP3    H142094   5.306   6.733   7.030 -0.3322 -0.0508  0.2880
 6845TIP3    H242095   5.233   6.836   6.947 -1.2437 -0.8452  0.0841
 6846TIP3   OH242096   4.707   4.670   7.524 -0.1799  0.6638  0.4371
 6846TIP3    H142097   4.660   4.694   7.445  1.1839 -0.9925 -0.9572
 6846TIP3    H242098   4.706   4.574   7.525 -0.4844  0.6390  2.6433
 6847TIP3   OH242099   0.081   2.979   1.599 -0.1273 -0.1826  0.2876
 6847TIP3    H142100  -0.009   3.010   1.595 -0.6803 -1.6659  0.6714
 6847TIP3    H242101   0.078   2.904   1.658  1.3988 -0.1490  0.4456
 6848TIP3   OH242102   1.330   3.859   3.020  0.0909 -0.3972 -0.8167
 6848TIP3    H142103   1.365   3.934   2.972  0.1215 -0.1027 -0.3512
 6848TIP3    H242104   1.394   3.843   3.089 -1.0284  0.6457  0.5388
 6849TIP3   OH242105   2.358   4.940   1.911 -0.4252  0.5668  0.2776
 6849TIP3    H142106   2.319   4.887   1.980  0.2339  0.4603  0.5818
 6849TIP3    H242107   2.444   4.964   1.946 -1.2415  3.0698  0.7871
 6850TIP3   OH242108   6.479   0.937   1.013  0.4071  0.0643 -0.1831
 6850TIP3    H142109   6.560   0.988   1.010  0.1644  0.4692  0.0653
 6850TIP3    H242110   6.438   0.954   0.929 -0.1535  1.0860  0.2803
 6851TIP3   OH242111   0.369   6.794   0.331  0.7615 -0.1494  0.1117
 6851TIP3    H142112   0.321   6.860   0.282  0.2091 -0.4772  0.2058
 6851TIP3    H242113   0.430   6.844   0.385  0.3949  0.2811  0.1311
 6852TIP3   OH242114   5.155   3.634   7.310 -0.5941 -0.3958 -0.2545
 6852TIP3    H142115   5.153   3.568   7.241 -2.1272  0.8919 -1.5202
 6852TIP3    H242116   5.141   3.717   7.265  1.0730  0.8255  1.3037
 6853TIP3   OH242117   6.530   1.216   8.327  0.3090 -0.3619 -0.2015
 6853TIP3    H142118   6.609   1.162   8.322  0.2683 -0.4984  0.5781
 6853TIP3    H242119   6.553   1.286   8.388  0.0035 -0.0886 -0.3953
 6854TIP3   OH242120   0.324   1.610   8.058  0.3933  0.0592  0.5137
 6854TIP3    H142121   0.378   1.532   8.068 -0.6134 -0.4417  2.4779
 6854TIP3    H242122   0.385   1.683   8.065  1.2038 -0.5163 -0.3336
 6855TIP3   OH242123   2.660   5.227   6.847  0.3798 -0.2241 -1.0167
 6855TIP3    H142124   2.587   5.200   6.791 -1.0184 -0.0245  0.6447
 6855TIP3    H242125   2.738   5.194   6.802 -0.8851 -2.5516 -1.6527
 6856TIP3   OH242126   5.417   5.262   0.251 -0.2056 -0.7991 -0.1085
 6856TIP3    H142127   5.396   5.170   0.261  0.6671 -0.9235  0.7661
 6856TIP3    H242128   5.414   5.278   0.157  0.5766 -1.9656 -0.3472
 6857TIP3   OH242129   6.531   5.987   1.233  0.0507 -0.5007 -0.1574
 6857TIP3    H142130   6.614   5.984   1.186 -0.8253  0.2884 -1.8431
 6857TIP3    H242131   6.498   6.075   1.218 -1.1527 -0.8352  0.3803
 6858TIP3   OH242132   0.477   0.206   1.410 -0.2566  0.6282 -0.5604
 6858TIP3    H142133   0.433   0.219   1.494  0.1418  1.5869 -0.4956
 6858TIP3    H242134   0.411   0.229   1.345 -0.0889  1.3544 -0.4771
 6859TIP3   OH242135   5.669   3.121   0.231  0.7158  0.0453 -0.0875
 6859TIP3    H142136   5.616   3.041   0.222  0.1075  0.1080  2.3638
 6859TIP3    H242137   5.645   3.173   0.154 -0.6166 -1.1695 -0.5541
 6860TIP3   OH242138   0.733   5.915   6.582 -0.3306 -0.1899  0.1516
 6860TIP3    H142139   0.793   5.842   6.567 -1.9656 -1.5011 -0.2665
 6860TIP3    H242140   0.716   5.951   6.495  0.4165  0.6765  0.3482
 6861TIP3   OH242141   1.945   1.483   8.686 -0.6167  0.0509  0.1198
 6861TIP3    H142142   1.953   1.536   8.606 -0.7860  1.5468  1.0596
 6861TIP3    H242143   2.027   1.432   8.688 -1.6388 -1.9106 -2.2510
 6862TIP3   OH242144   4.554   6.731   2.091 -0.2120 -0.0263  0.8331
 6862TIP3    H142145   4.586   6.739   2.001 -0.2944 -0.2699  0.7817
 6862TIP3    H242146   4.610   6.665   2.131 -0.3525 -0.1166  0.8812
 6863TIP3   OH242147   0.190   6.794   8.058  0.3990  0.0077 -0.4765
 6863TIP3    H142148   0.255   6.864   8.068  0.6652 -0.2368 -0.5109
 6863TIP3    H242149   0.222   6.723   8.114 -0.3142  0.2252  0.2269
 6864TIP3   OH242150   2.151   0.120   0.561 -0.1842 -0.3986 -0.8950
 6864TIP3    H142151   2.104   0.185   0.510  1.2912  0.2931 -1.4279
 6864TIP3    H242152   2.217   0.170   0.609  1.1708 -1.5106 -1.5405
 6865TIP3   OH242153   2.690   4.853   1.134 -0.0885  0.0357 -0.1735
 6865TIP3    H142154   2.655   4.790   1.197  0.8850 -0.3267  0.0352
 6865TIP3    H242155   2.643   4.834   1.053 -1.4490  0.5960  0.4569
 6866TIP3   OH242156   3.883   5.156   1.713  0.6787  0.4874  0.4905
 6866TIP3    H142157   3.789   5.167   1.721  0.2817 -1.5525 -0.7663
 6866TIP3    H242158   3.918   5.185   1.797 -1.2843 -0.7219  1.7962
 6867TIP3   OH242159   2.786   5.396   8.605  0.6227 -0.5071 -0.4743
 6867TIP3    H142160   2.716   5.330   8.602  0.3238 -0.3755  1.6298
 6867TIP3    H242161   2.839   5.370   8.681 -0.7905  2.8215  1.8754
 6868TIP3   OH242162   5.111   0.448   7.919 -0.7367  0.5333  0.0901
 6868TIP3    H142163   5.055   0.372   7.936 -2.6029  2.0536  1.1852
 6868TIP3    H242164   5.182   0.440   7.981 -1.8046  0.4960  1.3486
 6869TIP3   OH242165   3.904   6.294   8.151 -0.2661  0.7552 -0.9065
 6869TIP3    H142166   3.961   6.354   8.104  2.1824 -1.0197 -0.3935
 6869TIP3    H242167   3.883   6.226   8.088  0.0533  0.2332 -0.4556
 6870TIP3   OH242168   2.303   0.075   2.259  0.4293  0.2116 -0.2589
 6870TIP3    H142169   2.347  -0.001   2.220 -0.3035 -0.3527  0.0065
 6870TIP3    H242170   2.372   0.119   2.309  0.6356 -0.8401  0.4159
 6871TIP3   OH242171   2.160   3.717   1.629 -0.0993  0.1412 -0.4246
 6871TIP3    H142172   2.121   3.793   1.673  0.4955 -0.0854  0.5422
 6871TIP3    H242173   2.085   3.665   1.600 -0.5358  0.0527  0.7871
 6872TIP3   OH242174   0.762   1.180   1.843 -0.2675  0.3937 -0.2599
 6872TIP3    H142175   0.835   1.204   1.786  2.0570 -0.3476  2.1701
 6872TIP3    H242176   0.776   1.087   1.862 -0.5384  0.7447  1.9358
 6873TIP3   OH242177   5.937   3.179   1.154 -0.1686 -0.3512  0.0396
 6873TIP3    H142178   5.912   3.089   1.176  1.6275 -0.6631  1.1007
 6873TIP3    H242179   5.862   3.232   1.180 -1.2247 -1.5171 -0.5122
 6874TIP3   OH242180   2.137   3.222   2.463  0.8881 -0.5934 -0.6819
 6874TIP3    H142181   2.174   3.216   2.552  0.2135  0.9454 -0.2555
 6874TIP3    H242182   2.209   3.256   2.410  0.5991  0.9643 -0.1564
 6875TIP3   OH242183   2.611   0.557   2.475 -0.4682  0.2931  0.3795
 6875TIP3    H142184   2.605   0.464   2.453 -0.2569  0.7233 -1.7212
 6875TIP3    H242185   2.547   0.599   2.418  0.7462  1.6221 -0.0643
 6876TIP3   OH242186   1.103   3.430   0.659 -0.1828 -0.1564 -0.1792
 6876TIP3    H142187   1.141   3.508   0.618 -0.4748  0.5082  0.7849
 6876TIP3    H242188   1.018   3.420   0.617 -0.3704  0.3634  0.0685
 6877TIP3   OH242189   3.857   2.036   8.183 -0.5613 -0.0498 -0.2305
 6877TIP3    H142190   3.927   2.062   8.124 -0.5155  3.0358  1.0020
 6877TIP3    H242191   3.777   2.045   8.132 -0.5025  2.3695 -0.0115
 6878TIP3   OH242192   2.088   4.695   8.756 -0.2156 -0.4051  0.1223
 6878TIP3    H142193   2.081   4.623   8.819 -1.0165 -0.5236 -0.0874
 6878TIP3    H242194   2.002   4.737   8.758 -0.1135 -0.1516 -0.5769
 6879TIP3   OH242195   1.677   0.037   8.536  0.0365  0.4404 -0.3545
 6879TIP3    H142196   1.641   0.042   8.625  0.0980  0.6599 -0.3409
 6879TIP3    H242197   1.691   0.128   8.511 -0.9209  0.4287 -0.9784
 6880TIP3   OH242198   0.996   6.523   1.480 -0.2814 -0.2713 -0.5966
 6880TIP3    H142199   1.070   6.486   1.529  0.0304  0.4054 -0.5482
 6880TIP3    H242200   0.929   6.537   1.546 -1.7079 -3.8087 -1.0516
 6881TIP3   OH242201   4.659   1.173   0.055  0.2898 -0.1958  0.3173
 6881TIP3    H142202   4.736   1.230   0.049  2.5423 -3.0246 -0.0543
 6881TIP3    H242203   4.639   1.169   0.149  0.6222  0.5531  0.4223
 6882TIP3   OH242204   2.718   6.701   0.012 -0.0095  0.0986 -0.2400
 6882TIP3    H142205   2.772   6.751   0.073 -1.8289  1.4983  0.3081
 6882TIP3    H242206   2.628   6.714   0.043 -0.6943 -2.3266 -0.9626
 6883TIP3   OH242207   4.109   5.357   8.051  0.0868  0.2328  0.1463
 6883TIP3    H142208   4.189   5.309   8.066  0.2446  0.2413 -0.6021
 6883TIP3    H242209   4.137   5.440   8.013 -0.2887  0.0288 -0.6129
 6884TIP3   OH242210   2.832   3.890   8.787 -0.2418  0.5737 -0.0799
 6884TIP3    H142211   2.836   3.965   8.727 -1.0112  1.2923  0.7345
 6884TIP3    H242212   2.826   3.930   8.874  0.8396 -0.4516  0.4873
 6885TIP3   OH242213   2.363   4.692   0.563 -0.6632 -0.1717 -0.5653
 6885TIP3    H142214   2.332   4.609   0.526 -3.0782 -0.7305  2.3245
 6885TIP3    H242215   2.399   4.668   0.648  0.7357  1.5103 -0.6333
 6886TIP3   OH242216   5.877   0.432   0.091  0.2079 -0.2527 -0.1875
 6886TIP3    H142217   5.882   0.343   0.056  0.5763  0.1502 -1.1941
 6886TIP3    H242218   5.841   0.484   0.019  0.4065  0.4918  0.2376
 6887TIP3   OH242219   1.190   2.635   6.656 -0.7205 -0.2904 -0.8184
 6887TIP3    H142220   1.237   2.711   6.625 -1.5740  0.8520  0.5601
 6887TIP3    H242221   1.100   2.647   6.623 -1.2729  0.1963  0.7808
 6888TIP3   OH242222   2.382   4.781   7.205  0.2786  0.4338  0.1176
 6888TIP3    H142223   2.386   4.720   7.131 -1.0210  2.2920 -1.6105
 6888TIP3    H242224   2.444   4.851   7.183  0.3914  0.6750  1.1432
 6889TIP3   OH242225   4.871   2.419   1.613  0.0306  0.4361 -0.1719
 6889TIP3    H142226   4.948   2.366   1.591  0.1473 -0.2167  1.6040
 6889TIP3    H242227   4.896   2.509   1.593  0.6804  0.0747 -1.0552
 6890TIP3   OH242228   0.124   4.433   7.258 -0.2560 -0.3540  0.3480
 6890TIP3    H142229   0.142   4.521   7.224 -1.0572  0.3224  1.6193
 6890TIP3    H242230   0.112   4.380   7.179 -1.3881  1.0253 -0.4664
 6891TIP3   OH242231   1.883   2.106   1.323 -0.2000  0.1507 -0.3277
 6891TIP3    H142232   1.788   2.112   1.326 -0.2986 -0.8285 -1.0943
 6891TIP3    H242233   1.901   2.015   1.300  0.9259  0.2974 -0.1005
 6892TIP3   OH242234   6.817   6.119   2.974 -0.8624 -0.0747 -0.2614
 6892TIP3    H142235   6.867   6.052   2.927 -0.7229  0.2194 -0.5369
 6892TIP3    H242236   6.774   6.170   2.906  0.7889  1.5110 -0.2316
 6893TIP3   OH242237   0.870   6.753   0.747 -0.3421  0.2334  0.1979
 6893TIP3    H142238   0.938   6.821   0.755 -0.1390  0.3220 -1.8032
 6893TIP3    H242239   0.919   6.671   0.736 -0.5878 -0.2937  2.5800
 6894TIP3   OH242240   1.358   6.554   2.216 -0.4349 -0.2181 -0.2928
 6894TIP3    H142241   1.431   6.494   2.200  0.3485  0.6971 -0.2532
 6894TIP3    H242242   1.396   6.624   2.269 -1.3026  0.3741 -0.4360
 6895TIP3   OH242243   1.011   4.419   1.521 -0.2068  0.1377  0.3900
 6895TIP3    H142244   1.048   4.499   1.558  0.1814  0.6647 -1.0765
 6895TIP3    H242245   0.926   4.445   1.485  0.3163  0.1386 -0.9135
 6896TIP3   OH242246   1.953   4.335   0.891  0.2474  0.5247 -0.0126
 6896TIP3    H142247   1.927   4.254   0.847 -1.5670  1.1840 -0.2483
 6896TIP3    H242248   1.953   4.313   0.984  0.2019  0.1471 -0.0996
 6897TIP3   OH242249   1.948   2.917   8.297 -0.3948  0.3561 -0.1532
 6897TIP3    H142250   1.931   2.870   8.379  0.2541 -0.5760 -0.5309
 6897TIP3    H242251   2.033   2.959   8.311 -0.5812  0.7196 -0.1195
 6898TIP3   OH242252   5.849   0.687   0.962  0.3857 -0.0433  0.6553
 6898TIP3    H142253   5.799   0.719   0.887  0.2767 -0.7380  0.4179
 6898TIP3    H242254   5.900   0.762   0.991 -0.7799  0.6808  0.8977
 6899TIP3   OH242255   3.309   1.223   0.548  0.1780 -0.2007  0.2209
 6899TIP3    H142256   3.354   1.180   0.476 -1.4484 -0.7247 -0.5329
 6899TIP3    H242257   3.232   1.264   0.507 -0.0539  0.6462  1.4474
 6900TIP3   OH242258   4.601   0.556   8.634 -0.1086 -0.3120  0.6041
 6900TIP3    H142259   4.587   0.461   8.639 -0.5825 -0.1891  2.3914
 6900TIP3    H242260   4.516   0.591   8.607 -0.4577 -0.2866  1.6946
 6901TIP3   OH242261   3.936   1.418   8.445 -0.3595  0.1699  0.3400
 6901TIP3    H142262   3.925   1.409   8.350  1.0903  0.1438  0.1612
 6901TIP3    H242263   3.863   1.368   8.482 -0.3364 -0.7140 -0.7572
 6902TIP3   OH242264   6.411   2.640   1.326  0.1060  0.4906  1.0032
 6902TIP3    H142265   6.345   2.581   1.289  1.2898  0.3690 -1.1179
 6902TIP3    H242266   6.449   2.592   1.399 -2.4182  0.7603  2.5859
 6903TIP3   OH242267   5.564   4.603   2.178  0.1054 -0.2660 -0.1104
 6903TIP3    H142268   5.478   4.612   2.139  0.6740  0.8155 -1.1546
 6903TIP3    H242269   5.612   4.546   2.118  1.0640  1.6128 -1.2255
 6904TIP3   OH242270   4.382   6.427   1.951  0.1016  0.3706 -0.2356
 6904TIP3    H142271   4.361   6.366   1.881 -1.1832 -0.1449  0.5686
 6904TIP3    H242272   4.316   6.496   1.943  1.5901  1.7515 -1.1940
 6905TIP3   OH242273   5.518   4.891   8.614 -0.0841 -0.0240 -0.6025
 6905TIP3    H142274   5.547   4.802   8.597  0.3000 -0.0122 -0.0358
 6905TIP3    H242275   5.512   4.897   8.709  0.7240  0.8020 -0.5764
 6906TIP3   OH242276   2.775   3.379   0.804  0.0382  0.3032  0.1727
 6906TIP3    H142277   2.863   3.407   0.780 -0.1668  0.2466 -0.6728
 6906TIP3    H242278   2.771   3.287   0.777 -0.5411  0.5277 -0.5534
 6907TIP3   OH242279   1.794   4.690   1.057  0.2567 -0.2647 -0.6042
 6907TIP3    H142280   1.836   4.677   1.142  0.3678 -1.5070 -0.8229
 6907TIP3    H242281   1.861   4.732   1.003 -0.2181  1.6647  0.2478
 6908TIP3   OH242282   2.677   6.210   0.051  0.5500  0.8021  0.7135
 6908TIP3    H142283   2.666   6.210  -0.044  1.2681  0.7779  0.6280
 6908TIP3    H242284   2.736   6.138   0.069 -0.8682 -0.2576  1.3547
 6909TIP3   OH242285   2.682   2.200   8.332  0.8826  0.2574  0.0178
 6909TIP3    H142286   2.684   2.295   8.319  0.0491  0.3942  0.7883
 6909TIP3    H242287   2.685   2.188   8.426  0.8519 -0.4823 -0.0677
 6910TIP3   OH242288   6.414   1.742   7.195 -0.0082  0.0751  0.4769
 6910TIP3    H142289   6.409   1.837   7.204 -1.8669  0.1953 -1.1027
 6910TIP3    H242290   6.499   1.727   7.153  0.3957  1.0161  0.9258
 6911TIP3   OH242291   6.377   1.837   1.662  0.1359 -0.0913 -0.0547
 6911TIP3    H142292   6.356   1.839   1.755 -0.8171 -0.1187 -0.2597
 6911TIP3    H242293   6.455   1.781   1.656  1.3748  1.4403  0.9261
 6912TIP3   OH242294   4.772   1.028   8.178  0.3469 -0.1972  0.0325
 6912TIP3    H142295   4.769   1.033   8.274 -1.4235 -3.1999  0.2619
 6912TIP3    H242296   4.808   1.112   8.151  0.2756  1.0339  3.2925
 6913TIP3   OH242297   1.621   1.067   6.907 -0.1874 -0.3550 -0.7186
 6913TIP3    H142298   1.647   1.017   6.830  1.6305  0.8528 -0.9429
 6913TIP3    H242299   1.679   1.037   6.977  0.4501  0.8716 -0.6814
 6914TIP3   OH242300   3.994   4.665   8.046 -0.2686  0.7624 -0.4394
 6914TIP3    H142301   3.931   4.682   7.976 -0.0475 -0.6837 -1.0245
 6914TIP3    H242302   4.079   4.688   8.008 -0.1789  0.2463 -0.5608
 6915TIP3   OH242303   5.381   4.125   7.330 -0.7149 -0.2834  0.2394
 6915TIP3    H142304   5.437   4.110   7.253 -1.1025  1.7600 -0.5005
 6915TIP3    H242305   5.304   4.070   7.315 -0.0957 -1.1165 -0.0151
 6916TIP3   OH242306   1.210   5.706   7.512 -0.4430  0.2889 -0.1087
 6916TIP3    H142307   1.274   5.726   7.444 -1.0622  1.4427 -0.3797
 6916TIP3    H242308   1.190   5.613   7.500  0.3981  0.1727 -0.6778
 6917TIP3   OH242309   3.468   2.350   8.484  0.6954 -0.2729  0.4890
 6917TIP3    H142310   3.530   2.320   8.418  1.1370 -0.2700  0.8985
 6917TIP3    H242311   3.383   2.318   8.452  1.2292 -2.8553  1.3616
 6918TIP3   OH242312   3.659   1.580   1.269  0.3102 -0.2077  0.5731
 6918TIP3    H142313   3.743   1.601   1.308  0.4766  2.8618 -1.1467
 6918TIP3    H242314   3.594   1.621   1.326  0.1836 -0.0108  0.2882
 6919TIP3   OH242315   2.812   4.157   0.845  0.7716  0.0366  0.2659
 6919TIP3    H142316   2.724   4.174   0.879 -0.7671  0.5917 -3.4970
 6919TIP3    H242317   2.814   4.062   0.831 -0.0285  0.2027 -1.2857
 6920TIP3   OH242318   0.023   5.753   7.834  0.5209 -0.1635  0.5306
 6920TIP3    H142319  -0.048   5.811   7.864  1.0645  1.5395 -1.2637
 6920TIP3    H242320   0.068   5.727   7.915 -0.7837  0.5494  1.5237
 6921TIP3   OH242321   2.689   3.417   2.216 -0.2343  0.0768 -0.0301
 6921TIP3    H142322   2.722   3.353   2.278  0.2742  1.5056  1.2331
 6921TIP3    H242323   2.707   3.502   2.256 -1.3365  1.0243 -1.4069
 6922TIP3   OH242324   4.868   0.380   1.530 -0.0532 -0.4440 -0.7105
 6922TIP3    H142325   4.879   0.475   1.537  0.1398 -0.4370 -1.0962
 6922TIP3    H242326   4.956   0.345   1.539 -0.1441 -0.5989 -0.4098
 6923TIP3   OH242327   5.079   6.656   0.010  0.4813 -0.8679  0.5438
 6923TIP3    H142328   5.019   6.648   0.084 -0.1293  2.0372  0.4895
 6923TIP3    H242329   5.022   6.677  -0.064  1.4439  1.3724  0.3709
 6924TIP3   OH242330   5.857   4.385   1.574 -0.1373  0.4018  0.0194
 6924TIP3    H142331   5.810   4.403   1.493 -0.5140 -0.0016  0.1413
 6924TIP3    H242332   5.929   4.327   1.548  0.7923  1.6687 -0.2953
 6925TIP3   OH242333   1.534   3.155   7.485  0.3046  0.2377 -0.6425
 6925TIP3    H142334   1.541   3.170   7.579 -3.0941  0.6100 -0.3307
 6925TIP3    H242335   1.553   3.061   7.474 -0.9013 -0.1965  0.6943
 6926TIP3   OH242336   5.120   6.291   2.508 -0.9751 -0.1610  0.7409
 6926TIP3    H142337   5.196   6.263   2.558 -0.6451  0.0261  0.3471
 6926TIP3    H242338   5.070   6.211   2.493  0.0772 -0.6044 -0.5791
 6927TIP3   OH242339   3.138   3.852   1.157 -0.4217  0.6227 -0.2888
 6927TIP3    H142340   3.215   3.843   1.101 -1.0913  3.1836 -1.8219
 6927TIP3    H242341   3.103   3.764   1.164  2.4485 -0.5730  0.2480
 6928TIP3   OH242342   3.869   0.662   2.150 -0.1682  0.1868  0.1297
 6928TIP3    H142343   3.798   0.654   2.213  0.9732  1.5707  1.6846
 6928TIP3    H242344   3.940   0.609   2.186  0.0463 -0.1436 -0.7409
 6929TIP3   OH242345   0.655   6.763   0.083  0.5923  0.7515  0.4040
 6929TIP3    H142346   0.565   6.761   0.050  1.3486 -1.4267 -1.8908
 6929TIP3    H242347   0.660   6.689   0.144  0.3650  2.0583  2.0494
 6930TIP3   OH242348   0.687   4.338   0.778 -0.0532  0.2371 -0.6560
 6930TIP3    H142349   0.639   4.294   0.848  1.2700 -3.2414 -1.7311
 6930TIP3    H242350   0.778   4.341   0.808  0.3196 -0.1966 -1.6821
 6931TIP3   OH242351   2.969   6.504   8.554  0.4204  0.4639  0.7769
 6931TIP3    H142352   3.011   6.481   8.637 -1.2169 -2.6053  0.9113
 6931TIP3    H242353   2.878   6.522   8.577 -0.5846 -2.4198 -0.3990
 6932TIP3   OH242354   0.932   5.868   7.491 -0.3002 -0.5535  0.2462
 6932TIP3    H142355   0.910   5.897   7.402 -1.3319  2.4008  1.3527
 6932TIP3    H242356   1.021   5.835   7.484 -0.2126 -0.0215 -1.7947
 6933TIP3   OH242357   4.553   5.190   2.540  0.0027 -0.4170 -0.0018
 6933TIP3    H142358   4.499   5.252   2.588  1.0837  0.3025  0.3385
 6933TIP3    H242359   4.555   5.111   2.595  1.1429  0.3583  1.1389
 6934TIP3   OH242360   4.729   4.804   0.407 -0.0662  0.1379  0.0883
 6934TIP3    H142361   4.751   4.757   0.487 -1.4454 -1.2574 -0.2989
 6934TIP3    H242362   4.717   4.895   0.435  1.7322  0.1406  1.0233
 6935TIP3   OH242363   4.111   1.634   7.474  0.3640  0.3973  0.1404
 6935TIP3    H142364   4.084   1.561   7.418 -0.1987  0.6174  0.1190
 6935TIP3    H242365   4.109   1.711   7.416  1.4967  0.3519  0.0173
 6936TIP3   OH242366   3.707   4.366   3.081  0.3926  0.3905  0.2493
 6936TIP3    H142367   3.649   4.434   3.115 -0.3586 -0.8115  1.4738
 6936TIP3    H242368   3.790   4.410   3.064 -0.7220  2.0671 -1.1416
 6937TIP3   OH242369   0.823   4.342   1.303 -0.0337  0.0484  0.0353
 6937TIP3    H142370   0.853   4.396   1.229 -0.9425 -1.6008 -1.6255
 6937TIP3    H242371   0.729   4.331   1.288  0.0787 -1.7485  0.4342
 6938TIP3   OH242372   3.117   4.953   7.330  0.0133 -0.2988 -0.3510
 6938TIP3    H142373   3.133   5.045   7.308 -1.7678  0.5424  1.6063
 6938TIP3    H242374   3.027   4.950   7.360 -0.0032 -2.7433 -0.4265
 6939TIP3   OH242375   6.606   5.434   1.844 -0.2399 -0.0086 -0.0222
 6939TIP3    H142376   6.665   5.411   1.772 -0.1579  0.3123 -0.0562
 6939TIP3    H242377   6.533   5.479   1.802  0.4925  1.4784  0.2413
 6940TIP3   OH242378   2.432   1.489   0.894  0.4144 -0.0100 -0.2189
 6940TIP3    H142379   2.380   1.539   0.832 -0.3386  1.0281  1.1927
 6940TIP3    H242380   2.486   1.554   0.939 -2.1638  0.0227  3.2082
 6941TIP3   OH242381   6.076   0.946   7.753  0.1920  0.1513  0.1081
 6941TIP3    H142382   6.038   0.883   7.815  1.6018  0.8932  1.8117
 6941TIP3    H242383   6.079   0.898   7.670 -0.3337 -1.4327  0.9471
 6942TIP3   OH242384   6.595   0.147   2.095  0.3389 -0.6157  0.6993
 6942TIP3    H142385   6.634   0.101   2.021 -1.1831 -0.5909 -0.1700
 6942TIP3    H242386   6.517   0.095   2.116 -2.1473  2.0394 -1.0953
 6943TIP3   OH242387   4.640   5.632   7.941 -0.0664  0.4316 -0.0739
 6943TIP3    H142388   4.680   5.558   7.894 -0.6820 -0.7743  1.2230
 6943TIP3    H242389   4.592   5.680   7.874  0.8486  0.0052 -1.0554
 6944TIP3   OH242390   4.714   1.095   8.537  0.1303  0.0610 -0.0408
 6944TIP3    H142391   4.665   1.059   8.611 -0.8569 -0.5023 -0.9540
 6944TIP3    H242392   4.675   1.181   8.523 -1.4121 -0.8093 -1.4570
 6945TIP3   OH242393   0.982   4.912   1.682  0.0350 -0.1650 -0.1851
 6945TIP3    H142394   0.927   4.891   1.757 -0.0407  3.2148  0.8953
 6945TIP3    H242395   0.943   4.992   1.646  1.5400 -0.2965 -2.3109
 6946TIP3   OH242396   1.499   0.325   1.361  0.5323  0.1828  0.0995
 6946TIP3    H142397   1.523   0.235   1.339  3.4241  0.5240  1.3034
 6946TIP3    H242398   1.524   0.335   1.453  0.6926  2.2865 -0.1135
 6947TIP3   OH242399   5.903   3.550   2.823  0.2781  0.6126 -0.1329
 6947TIP3    H142400   5.893   3.477   2.884 -0.1829 -0.6429 -1.6534
 6947TIP3    H242401   5.821   3.599   2.830 -0.2670 -0.2098 -0.5694
 6948TIP3   OH242402   5.081   6.208   0.998 -0.1121  0.5463 -0.0180
 6948TIP3    H142403   5.013   6.159   0.951  0.2401 -0.9959  1.0314
 6948TIP3    H242404   5.113   6.148   1.064  2.4172  1.1783 -0.5864
 6949TIP3   OH242405   4.604   3.656   8.121 -0.4707 -0.2060  0.2191
 6949TIP3    H142406   4.612   3.610   8.205  2.7637 -1.7444 -0.7472
 6949TIP3    H242407   4.603   3.585   8.056 -2.0346  0.9849 -1.1286
 6950TIP3   OH242408   2.051   2.515   2.121  0.2103 -0.0315  0.6224
 6950TIP3    H142409   2.141   2.492   2.145  0.2831  0.9289  1.3271
 6950TIP3    H242410   2.004   2.513   2.204 -1.5436 -4.9997 -0.1561
 6951TIP3   OH242411   2.129   6.109   0.358  0.4458 -0.0575 -0.3524
 6951TIP3    H142412   2.146   6.182   0.417  2.1922  0.3435 -1.2855
 6951TIP3    H242413   2.147   6.031   0.412  2.4567  0.3078 -0.4058
 6952TIP3   OH242414   4.929   2.703   2.531 -0.0653 -0.0555  0.0948
 6952TIP3    H142415   4.967   2.680   2.616  2.0081  1.0209 -0.4953
 6952TIP3    H242416   4.998   2.685   2.467 -1.3019 -0.0721 -1.3030
 6953TIP3   OH242417   4.921   0.015   7.740  0.0801  0.3321 -0.2697
 6953TIP3    H142418   5.005  -0.032   7.738 -0.6512 -0.9827 -0.6837
 6953TIP3    H242419   4.934   0.088   7.679  1.0284  0.3534 -0.0668
 6954TIP3   OH242420   1.889   2.693   0.974  0.3027  0.6609 -0.2655
 6954TIP3    H142421   1.927   2.715   1.059  0.4715 -0.9207  0.0996
 6954TIP3    H242422   1.799   2.727   0.978  0.2520  0.4461  0.6240
 6955TIP3   OH242423   6.704   6.761   8.406 -0.7518  0.1184  0.2774
 6955TIP3    H142424   6.615   6.725   8.405 -0.3095 -1.2809 -2.8027
 6955TIP3    H242425   6.760   6.685   8.388  0.8813  1.2727  0.3082
 6956TIP3   OH242426   4.803   0.746   0.904 -0.4859  0.1488 -0.4632
 6956TIP3    H142427   4.799   0.730   0.999 -0.6629 -1.0181 -0.6498
 6956TIP3    H242428   4.896   0.734   0.883 -0.4320  0.4961 -0.4220
 6957TIP3   OH242429   3.657   4.563   1.519  0.0466  0.3480 -0.0405
 6957TIP3    H142430   3.621   4.621   1.587  1.1295 -0.2738  1.1023
 6957TIP3    H242431   3.710   4.500   1.567  2.1784  0.8663 -1.5980
 6958TIP3   OH242432   3.784   2.259   7.904 -0.3167  0.2381  0.5059
 6958TIP3    H142433   3.838   2.325   7.948 -0.2600  0.4071  0.1870
 6958TIP3    H242434   3.781   2.287   7.813 -0.4297 -0.1131  0.3989
 6959TIP3   OH242435   4.790   2.734   2.967  0.2554  0.0831  0.0006
 6959TIP3    H142436   4.721   2.670   2.984  0.4241 -0.7956 -2.1905
 6959TIP3    H242437   4.744   2.812   2.938  0.0914  0.6037  1.6012
 6960TIP3   OH242438   6.652   1.053   6.995 -0.6665 -0.0604 -0.6275
 6960TIP3    H142439   6.618   1.104   7.068  0.3985  0.3095 -0.3784
 6960TIP3    H242440   6.692   1.117   6.937  1.7509 -0.6515  0.2614
 6961TIP3   OH242441   3.339   2.801   6.995 -0.0512 -0.2431  0.2725
 6961TIP3    H142442   3.404   2.832   6.931 -0.0426  2.3044  1.4121
 6961TIP3    H242443   3.256   2.800   6.946  0.4162 -1.1709 -0.5339
 6962TIP3   OH242444   3.437   5.301   2.221 -0.1852  0.0035 -0.2697
 6962TIP3    H142445   3.526   5.298   2.255 -0.9139 -1.7966  1.7446
 6962TIP3    H242446   3.430   5.385   2.177  2.3181  0.4186 -0.0060
 6963TIP3   OH242447   4.472   2.842   0.243  0.6953  0.5316  0.1132
 6963TIP3    H142448   4.380   2.823   0.223  0.7081 -0.9955  1.4061
 6963TIP3    H242449   4.520   2.807   0.168  0.4291 -1.4283  0.8155
 6964TIP3   OH242450   5.847   3.839   7.914  0.5696  0.3249  0.4610
 6964TIP3    H142451   5.797   3.837   7.832  0.2819 -0.5017  0.6438
 6964TIP3    H242452   5.931   3.878   7.890  0.9051 -0.9099 -0.4927
 6965TIP3   OH242453   1.231   2.646   0.213 -0.2960 -0.1751 -0.2793
 6965TIP3    H142454   1.298   2.588   0.249  1.0355  0.0058 -2.2851
 6965TIP3    H242455   1.254   2.733   0.246 -0.0865 -0.2473 -0.2354
 6966TIP3   OH242456   1.861   2.393   8.279 -0.6466  0.1728 -0.2376
 6966TIP3    H142457   1.900   2.452   8.345  0.1804 -0.1906 -0.3871
 6966TIP3    H242458   1.933   2.335   8.254 -0.8201  0.5910 -1.7980
 6967TIP3   OH242459   2.518   6.119   8.603 -0.1135 -0.2566  0.0284
 6967TIP3    H142460   2.430   6.082   8.612  0.2811 -1.0819  0.6374
 6967TIP3    H242461   2.551   6.083   8.521  0.6716 -2.2071  1.1195
 6968TIP3   OH242462   4.083   3.334   7.812  0.0950  0.1811  0.5686
 6968TIP3    H142463   4.079   3.338   7.717  1.0514 -1.8510  0.3984
 6968TIP3    H242464   4.070   3.242   7.834  0.3127  0.5343  2.3783
 6969TIP3   OH242465   5.185   1.457   8.579  0.3936 -0.0216 -0.2928
 6969TIP3    H142466   5.145   1.538   8.610 -1.2880 -0.7351 -0.5318
 6969TIP3    H242467   5.208   1.409   8.659 -1.5448 -0.6939 -0.0881
 6970TIP3   OH242468   5.502   2.634   6.687  0.0293  0.1228  0.1170
 6970TIP3    H142469   5.488   2.578   6.611 -1.3204  2.0186 -1.1117
 6970TIP3    H242470   5.431   2.612   6.747 -1.2866  1.3498 -0.9283
 6971TIP3   OH242471   0.497   3.490   0.546 -0.3998  0.3267  0.5428
 6971TIP3    H142472   0.524   3.581   0.553  0.4038  0.1138  0.3340
 6971TIP3    H242473   0.509   3.468   0.454  0.1740 -0.2076  0.7361
 6972TIP3   OH242474   4.135   3.781   0.909  0.0205  0.3510  0.3784
 6972TIP3    H142475   4.186   3.717   0.959  0.9601 -0.3670 -1.3932
 6972TIP3    H242476   4.050   3.739   0.897  0.6810 -0.7164 -0.9109
 6973TIP3   OH242477   0.572   1.073   1.320  0.7790  0.1374  0.4539
 6973TIP3    H142478   0.543   1.148   1.372 -0.9745  1.4342 -2.1707
 6973TIP3    H242479   0.638   1.109   1.261 -0.2548 -0.2731 -0.9993
 6974TIP3   OH242480   2.110   1.896   0.626  0.4976 -0.1964  0.1652
 6974TIP3    H142481   2.059   1.950   0.687 -1.1881 -2.6828  1.1285
 6974TIP3    H242482   2.090   1.932   0.540 -0.1638  1.0067  0.7876
 6975TIP3   OH242483   2.348   0.398   2.361  0.2957 -0.0923 -0.1911
 6975TIP3    H142484   2.340   0.493   2.349 -0.2537 -0.1523 -0.3094
 6975TIP3    H242485   2.439   0.379   2.336  0.3567  0.3742 -0.3424
 6976TIP3   OH242486   2.523   4.553   0.807  0.1105 -0.3031  0.4811
 6976TIP3    H142487   2.501   4.495   0.879  1.2142 -1.0418  0.2531
 6976TIP3    H242488   2.485   4.638   0.831 -1.0956 -0.9751  1.0544
 6977TIP3   OH242489   6.123   1.996   1.372 -0.0585  0.0156 -0.7419
 6977TIP3    H142490   6.172   1.936   1.317 -0.8424 -0.9516 -0.4134
 6977TIP3    H242491   6.182   2.016   1.445 -0.1529 -1.1595 -0.3326
 6978TIP3   OH242492   5.571   1.024   8.696 -0.1672 -0.6584 -0.1199
 6978TIP3    H142493   5.547   1.046   8.786  0.0648 -1.1182  0.0550
 6978TIP3    H242494   5.577   1.109   8.651 -1.3851 -0.4879  0.0149
 6979TIP3   OH242495   4.671   1.833   8.652 -0.5380  0.0901 -0.5910
 6979TIP3    H142496   4.669   1.738   8.648  4.0407 -0.1539 -1.8336
 6979TIP3    H242497   4.667   1.853   8.746  0.4053 -1.4713 -0.1860
 6980TIP3   OH242498   0.408   1.156   0.537  0.1620 -0.0585 -0.5054
 6980TIP3    H142499   0.353   1.137   0.461 -0.1882 -1.0671 -0.0295
 6980TIP3    H242500   0.452   1.238   0.515 -0.4438  0.0244 -1.5029
 6981TIP3   OH242501   4.711   5.854   0.986  0.1725  0.2092  0.0802
 6981TIP3    H142502   4.804   5.836   0.969  0.4747  1.5379  0.2102
 6981TIP3    H242503   4.710   5.944   1.019 -1.2724  0.5828 -0.8810
 6982TIP3   OH242504   1.412   4.437   2.701 -0.2742 -0.1410 -0.1352
 6982TIP3    H142505   1.336   4.445   2.758 -1.0118  0.2121 -1.1329
 6982TIP3    H242506   1.449   4.525   2.698  0.7100 -0.4927  1.0370
 6983TIP3   OH242507   1.075   4.636   1.675 -0.0904  0.2395  0.0127
 6983TIP3    H142508   1.038   4.713   1.632  0.5687 -0.7959 -2.6062
 6983TIP3    H242509   1.136   4.671   1.739  0.6125  1.9333 -1.4901
 6984TIP3   OH242510   3.146   5.120   1.837  0.4617  0.3646 -0.0734
 6984TIP3    H142511   3.238   5.104   1.859  0.2177 -0.6275  0.2852
 6984TIP3    H242512   3.099   5.044   1.872 -0.3766  0.3967 -1.0803
 6985TIP3   OH242513   4.057   5.730   8.335  0.2583  0.0304 -0.0441
 6985TIP3    H142514   3.970   5.704   8.306  0.7131 -1.0437 -0.4814
 6985TIP3    H242515   4.049   5.735   8.431 -0.4746  0.7266 -0.1272
 6986TIP3   OH242516   4.966   5.399   7.282 -0.0681  0.4532 -0.2977
 6986TIP3    H142517   4.929   5.484   7.257 -1.6673 -0.0599  0.1891
 6986TIP3    H242518   5.058   5.405   7.258 -0.4279  1.8493 -1.4791
 6987TIP3   OH242519   4.139   5.203   0.619 -0.0602  0.0206  0.5286
 6987TIP3    H142520   4.203   5.274   0.623  0.5548 -0.5800  2.5650
 6987TIP3    H242521   4.058   5.242   0.652  0.2918 -0.1878  1.7020
 6988TIP3   OH242522   5.566   0.373   1.322 -0.5419 -0.2402  0.2765
 6988TIP3    H142523   5.649   0.327   1.334  0.0088  0.5962 -0.2316
 6988TIP3    H242524   5.588   0.447   1.265 -1.8632 -0.6518 -0.8113
 6989TIP3   OH242525   1.441   1.908   0.464 -0.3539  0.2204  0.6884
 6989TIP3    H142526   1.489   1.890   0.545  1.5093  1.5179 -0.0641
 6989TIP3    H242527   1.382   1.980   0.488 -1.0337 -0.5216  1.2956
 6990TIP3   OH242528   5.935   4.826   1.993 -0.0823  0.0848  0.0567
 6990TIP3    H142529   5.850   4.860   2.023  0.0245  0.5870 -0.1948
 6990TIP3    H242530   5.913   4.748   1.942 -0.4460  0.5242 -0.4797
 6991TIP3   OH242531   3.722   0.216   0.387  0.4347  0.1408 -0.3560
 6991TIP3    H142532   3.770   0.271   0.325 -0.6733  1.2986 -0.2435
 6991TIP3    H242533   3.655   0.173   0.334 -1.1781  1.9297  0.1413
 6992TIP3   OH242534   3.772   1.323   8.175  0.3384 -0.7914  0.0706
 6992TIP3    H142535   3.817   1.245   8.209  0.5336 -0.5587  0.3473
 6992TIP3    H242536   3.686   1.290   8.147  0.7338 -1.2622 -0.6153
 6993TIP3   OH242537   4.474   1.029   1.025 -0.3404  0.2935  0.1234
 6993TIP3    H142538   4.451   1.122   1.025 -0.6470  0.2181 -0.3213
 6993TIP3    H242539   4.408   0.988   0.969 -0.1141 -0.1707  0.1959
 6994TIP3   OH242540   6.112   5.946   2.548  0.2177 -0.2248 -0.2990
 6994TIP3    H142541   6.021   5.917   2.543 -0.2939  1.5154 -3.7037
 6994TIP3    H242542   6.115   6.004   2.624 -1.7958  0.4780 -0.7102
 6995TIP3   OH242543   6.191   3.461   8.025 -0.1869  0.1102  0.1369
 6995TIP3    H142544   6.157   3.550   8.035 -0.1013  0.5370 -2.5630
 6995TIP3    H242545   6.203   3.451   7.930 -1.1667 -3.1418  0.2507
 6996TIP3   OH242546   2.876   3.862   0.844  0.9910  0.0842 -0.0464
 6996TIP3    H142547   2.844   3.802   0.912  0.1679  0.6394  0.0680
 6996TIP3    H242548   2.844   3.823   0.762  0.6397  0.2503  0.0107
 6997TIP3   OH242549   0.549   6.319   8.739 -0.4153 -0.1611 -0.4289
 6997TIP3    H142550   0.622   6.380   8.734  0.0178 -0.6443 -0.0034
 6997TIP3    H242551   0.585   6.235   8.711 -0.9706 -0.2610 -0.8648
 6998TIP3   OH242552   2.674   4.069   7.393  0.4820 -0.5436 -0.1915
 6998TIP3    H142553   2.626   4.114   7.324 -0.8060 -0.8353  0.4898
 6998TIP3    H242554   2.756   4.118   7.401 -0.7861  1.6198  0.4068
 6999TIP3   OH242555   6.112   0.921   8.358  0.0377 -0.1842 -0.4744
 6999TIP3    H142556   6.053   0.992   8.334 -0.2283 -0.1146  0.3421
 6999TIP3    H242557   6.199   0.961   8.363 -0.0848  0.0439 -0.1875
 7000TIP3   OH242558   5.171   4.573   0.556  0.4606 -0.3108 -0.1681
 7000TIP3    H142559   5.196   4.518   0.631 -0.4176 -0.5159 -0.0134
 7000TIP3    H242560   5.091   4.532   0.522  0.1643  0.4962 -0.4604
 7001TIP3   OH242561   5.714   3.053   1.465  0.3320 -0.2897 -0.1839
 7001TIP3    H142562   5.786   3.115   1.480  0.2608 -0.2510 -0.0044
 7001TIP3    H242563   5.718   2.993   1.538 -0.5536  0.4134  0.4689
 7002TIP3   OH242564   6.016   1.580   0.883  0.2603 -0.3066 -0.3939
 7002TIP3    H142565   6.029   1.675   0.891 -0.6196 -0.3541  2.5694
 7002TIP3    H242566   6.098   1.549   0.843  0.4924  1.6619 -1.6294
 7003TIP3   OH242567   4.576   3.139   3.549  0.7468 -0.3287  0.9734
 7003TIP3    H142568   4.540   3.189   3.475 -2.1838  0.3913  2.7001
 7003TIP3    H242569   4.655   3.187   3.574  1.3767 -0.1669 -1.2037
 7004TIP3   OH242570   1.233   5.826   7.742 -0.4827  0.1791 -0.0145
 7004TIP3    H142571   1.327   5.816   7.758 -0.8184 -1.7525  0.9693
 7004TIP3    H242572   1.221   5.799   7.651  0.0567  1.7711 -0.6051
 7005TIP3   OH242573   6.795   3.354   1.453  0.0684  0.7592 -0.2581
 7005TIP3    H142574   6.886   3.325   1.448 -0.6324 -1.4151 -2.5943
 7005TIP3    H242575   6.797   3.429   1.512  3.1830  0.1347  0.6196
 7006TIP3   OH242576   0.654   0.007   7.997  0.0219 -0.0228  0.3942
 7006TIP3    H142577   0.698   0.078   8.044  0.9452 -0.7094  0.5899
 7006TIP3    H242578   0.698   0.003   7.912 -0.4270  0.0232  0.1543
 7007TIP3   OH242579   0.551   5.532   0.316  0.2122 -0.1025 -0.3602
 7007TIP3    H142580   0.518   5.587   0.387  0.1333  0.6768 -0.9757
 7007TIP3    H242581   0.582   5.452   0.359  0.8089  0.6322  0.6363
 7008TIP3   OH242582   3.988   0.278   7.530 -0.1646  0.0018  0.4692
 7008TIP3    H142583   3.970   0.222   7.606 -0.4278 -0.2290  0.2357
 7008TIP3    H242584   3.903   0.293   7.490 -0.1844  1.0557  0.8585
 7009TIP3   OH242585   3.841   4.919   2.164 -0.0475  0.1546  0.6194
 7009TIP3    H142586   3.913   4.856   2.162  0.3902  0.6570  0.0636
 7009TIP3    H242587   3.799   4.905   2.248  1.1840  0.3689  1.2931
 7010TIP3   OH242588   4.095   4.717   0.980  0.9943 -0.1397 -0.3700
 7010TIP3    H142589   4.074   4.777   0.908  0.6140  0.3582  0.1530
 7010TIP3    H242590   4.189   4.729   0.994  0.6548  1.5549  0.7970
 7011TIP3   OH242591   4.136   1.006   0.503 -0.6006  0.5238  0.0817
 7011TIP3    H142592   4.135   0.921   0.547  2.0019  0.3999  0.0652
 7011TIP3    H242593   4.103   1.067   0.568 -1.2688 -0.3238  0.5512
 7012TIP3   OH242594   1.439   3.800   8.790 -0.5739  0.0864 -0.3325
 7012TIP3    H142595   1.526   3.830   8.816 -0.5894 -0.9517  1.0234
 7012TIP3    H242596   1.389   3.880   8.777  0.3247  0.6818 -0.2224
 7013TIP3   OH242597   0.249   2.269   7.512  0.0430 -0.6368 -0.2666
 7013TIP3    H142598   0.310   2.216   7.460 -0.2009 -0.5203 -0.6676
 7013TIP3    H242599   0.227   2.213   7.586  2.2827  0.0803  1.0391
 7014TIP3   OH242600   5.840   1.873   7.975  0.0754  0.2812  0.3177
 7014TIP3    H142601   5.871   1.948   8.026 -1.1366  1.6761 -0.9177
 7014TIP3    H242602   5.758   1.903   7.936 -0.6119 -1.8189  0.0471
 7015TIP3   OH242603   5.963   6.320   1.291 -0.1699 -0.2439  0.3212
 7015TIP3    H142604   5.985   6.353   1.204  0.1230  0.5363  0.6831
 7015TIP3    H242605   6.018   6.371   1.351 -2.4790  1.3647  1.2284
 7016TIP3   OH242606   1.513   5.521   7.334  0.3467 -0.5772 -0.3729
 7016TIP3    H142607   1.576   5.545   7.265 -0.4253 -1.0264 -1.2598
 7016TIP3    H242608   1.568   5.501   7.410  1.3747 -1.9576 -1.4135
 7017TIP3   OH242609   3.238   2.822   8.649 -0.0694  0.2254  0.6052
 7017TIP3    H142610   3.305   2.829   8.581 -0.1849 -1.2313  0.3148
 7017TIP3    H242611   3.276   2.866   8.725  0.5453  0.8295 -0.0416
 7018TIP3   OH242612   5.041   5.992   8.726 -0.1296  0.1708  0.3592
 7018TIP3    H142613   5.059   5.913   8.674  1.4959  0.3980  0.5313
 7018TIP3    H242614   4.994   6.050   8.667 -1.9059 -1.1166  0.4005
 7019TIP3   OH242615   2.841   3.260   0.520 -0.2305  0.1062  0.3613
 7019TIP3    H142616   2.907   3.207   0.474 -0.7675 -0.1208 -0.1658
 7019TIP3    H242617   2.766   3.201   0.530  0.3903 -0.3867  2.9576
 7020TIP3   OH242618   6.361   5.134   1.481 -0.2952 -0.0851  0.4972
 7020TIP3    H142619   6.430   5.074   1.508 -0.0425  0.7829  1.8983
 7020TIP3    H242620   6.391   5.170   1.397  0.1742 -0.9250  0.3015
 7021TIP3   OH242621   2.967   6.405   0.096  0.1286 -0.4243 -0.1284
 7021TIP3    H142622   2.977   6.367   0.183  0.9470 -1.1813 -0.5279
 7021TIP3    H242623   2.885   6.368   0.063 -1.3495  1.5861  1.1316
 7022TIP3   OH242624   4.605   6.543   1.428 -0.7453  0.0236 -0.1970
 7022TIP3    H142625   4.665   6.489   1.377 -1.9734 -0.4613 -1.1899
 7022TIP3    H242626   4.593   6.494   1.510 -2.4092 -1.6886 -1.3677
 7023TIP3   OH242627   5.933   2.688   0.695  0.0182 -0.5530  0.3554
 7023TIP3    H142628   5.978   2.631   0.758  1.8385 -0.2155 -0.5679
 7023TIP3    H242629   5.959   2.776   0.721 -0.3249 -0.3339 -0.0483
 7024TIP3   OH242630   5.835   3.698   6.720 -0.1261 -0.4328 -0.3944
 7024TIP3    H142631   5.895   3.638   6.764  0.4080  1.0275  0.9945
 7024TIP3    H242632   5.763   3.711   6.782  0.9885  2.2275  0.5158
 7025TIP3   OH242633   0.089   3.967   2.273  0.1502 -0.1566  0.2641
 7025TIP3    H142634   0.102   4.055   2.238  0.0364 -0.1677  0.1950
 7025TIP3    H242635   0.036   3.980   2.352  2.0618  0.0853  1.5883
 7026TIP3   OH242636   1.947   3.982   8.705  0.0961 -0.6173 -0.0849
 7026TIP3    H142637   2.003   3.985   8.783  1.5857  1.9950 -1.1349
 7026TIP3    H242638   1.985   3.913   8.651  1.8826  0.5694 -0.4164
 7027TIP3   OH242639   2.733   5.141   1.060  0.1811 -0.1376  0.0924
 7027TIP3    H142640   2.671   5.205   1.094 -0.5220 -0.2324 -0.9468
 7027TIP3    H242641   2.705   5.057   1.097  0.3258 -0.0303  0.4451
 7028TIP3   OH242642   1.804   2.880   7.782 -0.1284 -0.1691 -0.2254
 7028TIP3    H142643   1.847   2.870   7.697  0.8709  0.2142  0.2250
 7028TIP3    H242644   1.852   2.951   7.825 -0.0071 -0.9938  1.0355
 7029TIP3   OH242645   2.149   1.057   7.718 -0.2274 -0.2170  0.2872
 7029TIP3    H142646   2.105   1.033   7.636  0.1619 -1.3680  0.3837
 7029TIP3    H242647   2.240   1.072   7.693  1.0648 -4.9725  0.9623
 7030TIP3   OH242648   3.258   2.251   8.320  0.3028 -0.4445  0.2088
 7030TIP3    H142649   3.275   2.169   8.274 -0.2389 -1.0522  1.0598
 7030TIP3    H242650   3.191   2.228   8.386  0.9743  0.4121  1.2192
 7031TIP3   OH242651   5.461   3.797   8.607 -0.6082 -0.2972  0.0031
 7031TIP3    H142652   5.390   3.794   8.672 -1.0897 -2.1597 -0.5235
 7031TIP3    H242653   5.417   3.817   8.525 -0.1868  0.7634  0.0305
 7032TIP3   OH242654   4.709   3.291   1.620  0.1696  0.0561 -0.6019
 7032TIP3    H142655   4.618   3.262   1.631 -0.2441  0.9354 -1.6134
 7032TIP3    H242656   4.760   3.210   1.622 -0.5917 -0.4283  0.2710
 7033TIP3   OH242657   0.003   2.387   0.693  0.1299  0.1548  0.6163
 7033TIP3    H142658   0.037   2.456   0.637 -1.0275  0.6945  0.5663
 7033TIP3    H242659  -0.091   2.385   0.676 -0.4202  0.9439  3.1546
 7034TIP3   OH242660   4.690   3.190   7.536 -1.1696  0.2280 -0.5762
 7034TIP3    H142661   4.611   3.240   7.517 -1.3778 -0.2515 -1.0121
 7034TIP3    H242662   4.671   3.147   7.619 -0.8084  1.2300  0.0313
 7035TIP3   OH242663   5.241   5.170   0.646 -0.5756  0.1089 -0.0298
 7035TIP3    H142664   5.259   5.089   0.693 -1.5877 -0.3951 -0.4756
 7035TIP3    H242665   5.146   5.172   0.636 -0.5889  1.4256  0.0986
 7036TIP3   OH242666   5.020   2.712   8.211  0.2470 -0.2535  0.2930
 7036TIP3    H142667   5.035   2.804   8.191  1.0540 -0.1463  1.3174
 7036TIP3    H242668   5.017   2.669   8.126 -0.4402  0.7506 -0.2108
 7037TIP3   OH242669   3.327   2.841   1.045  0.2172 -0.3490 -0.1494
 7037TIP3    H142670   3.402   2.808   1.094 -0.1448  1.4678  1.8155
 7037TIP3    H242671   3.340   2.811   0.956  3.6023  0.3760 -0.0132
 7038TIP3   OH242672   3.900   6.163   2.005  0.2429 -0.0209 -0.2626
 7038TIP3    H142673   3.831   6.227   2.028  0.1092 -0.0820 -0.4963
 7038TIP3    H242674   3.909   6.110   2.084 -0.1407 -0.1581 -0.3082
 7039TIP3   OH242675   0.102   2.773   2.752  0.1129  0.0573 -0.0042
 7039TIP3    H142676   0.179   2.787   2.808 -0.9619 -0.2305  1.6072
 7039TIP3    H242677   0.041   2.842   2.777 -0.6646 -0.5042 -0.3089
 7040TIP3   OH242678   0.562   4.956   1.168 -0.0755 -0.4762 -0.2895
 7040TIP3    H142679   0.539   4.902   1.244  0.3473  0.6918  0.7137
 7040TIP3    H242680   0.534   5.044   1.193  2.3321  0.3946 -0.4093
 7041TIP3   OH242681   4.314   3.871   8.176  0.0835  0.0376 -0.1873
 7041TIP3    H142682   4.337   3.856   8.085  0.7317 -1.8970  0.2530
 7041TIP3    H242683   4.262   3.796   8.202  0.6475  0.0934  1.2621
 7042TIP3   OH242684   1.234   5.966   1.111 -0.2467 -0.1283 -0.0030
 7042TIP3    H142685   1.166   6.004   1.167  1.0968  0.4025  1.3352
 7042TIP3    H242686   1.194   5.885   1.077 -1.6248  0.2965  0.5310
 7043TIP3   OH242687   4.636   1.619   2.221 -0.2465  0.0299  0.2327
 7043TIP3    H142688   4.639   1.692   2.284  1.3916  0.1926  0.0001
 7043TIP3    H242689   4.678   1.547   2.267  0.4521 -0.0132 -0.4667
 7044TIP3   OH242690   6.236   3.080   0.440  0.2173 -0.0567 -0.2021
 7044TIP3    H142691   6.313   3.046   0.396 -0.0830 -0.2239 -0.6062
 7044TIP3    H242692   6.188   3.001   0.468  0.4611  0.0474  0.5205
 7045TIP3   OH242693   6.331   6.246   1.347 -0.0538 -0.3820 -0.0361
 7045TIP3    H142694   6.352   6.187   1.419 -0.4146  0.4145  0.7520
 7045TIP3    H242695   6.289   6.321   1.390  3.4230  2.0966 -0.5062
 7046TIP3   OH242696   0.386   5.031   7.945 -0.3052  0.5792 -0.6031
 7046TIP3    H142697   0.323   5.055   8.013  0.6314 -0.1225  0.5554
 7046TIP3    H242698   0.431   5.112   7.924 -0.3935  0.7452 -0.1606
 7047TIP3   OH242699   5.326   5.896   7.635  0.0553 -0.0163 -0.6228
 7047TIP3    H142700   5.289   5.884   7.547  0.9558 -0.3949 -0.9663
 7047TIP3    H242701   5.251   5.888   7.693 -0.5034 -0.1391 -1.3369
 7048TIP3   OH242702   6.783   3.312   1.124  0.1531  0.3656  0.0397
 7048TIP3    H142703   6.737   3.347   1.200  1.5111  0.5672  0.8000
 7048TIP3    H242704   6.803   3.389   1.071 -0.1623  0.3070 -0.1648
 7049TIP3   OH242705   5.050   1.972   0.790 -0.2624  0.0648  0.5159
 7049TIP3    H142706   5.119   2.036   0.778 -0.2122 -0.0195  0.3578
 7049TIP3    H242707   4.973   2.024   0.816 -0.9309  0.5086 -2.0456
 7050TIP3   OH242708   3.878   4.036   2.105 -0.0086  0.9947  0.4207
 7050TIP3    H142709   3.840   3.966   2.052  0.2033  0.8910  0.4047
 7050TIP3    H242710   3.967   4.046   2.072  0.1652  0.8480  0.8320
 7051TIP3   OH242711   3.940   1.264   7.768  0.3942 -0.1986 -0.2437
 7051TIP3    H142712   3.906   1.351   7.790  0.2479 -0.1453 -0.6592
 7051TIP3    H242713   3.880   1.232   7.700  0.3919 -0.6651 -0.0236
 7052TIP3   OH242714   6.212   3.731   1.252  0.8818 -0.3380 -0.5576
 7052TIP3    H142715   6.200   3.820   1.219  3.8772 -0.1257 -1.2900
 7052TIP3    H242716   6.130   3.686   1.230 -0.2858  1.9159 -1.1114
 7053TIP3   OH242717   0.267   3.449   7.878  0.3137  0.7135  0.0440
 7053TIP3    H142718   0.214   3.377   7.843 -1.5746  1.3740  1.3710
 7053TIP3    H242719   0.348   3.446   7.827 -0.4924 -1.1206 -1.2529
 7054TIP3   OH242720   4.534   1.085   1.918 -0.2187  0.1944 -0.0281
 7054TIP3    H142721   4.590   1.101   1.842  0.1099 -0.8888 -0.0342
 7054TIP3    H242722   4.590   1.102   1.993 -0.4054  0.7999 -0.0169
 7055TIP3   OH242723   6.361   4.347   7.135  0.6947  0.0344  0.1131
 7055TIP3    H142724   6.390   4.345   7.226 -0.6211 -1.7958  0.5523
 7055TIP3    H242725   6.324   4.260   7.120 -0.4148  0.7729 -1.7432
 7056TIP3   OH242726   5.109   5.268   1.731  0.5504 -0.2962 -0.0327
 7056TIP3    H142727   5.029   5.215   1.729  1.5095 -1.8306  0.7700
 7056TIP3    H242728   5.166   5.228   1.665  1.1135  0.0257  0.2570
 7057TIP3   OH242729   1.956   5.211   0.776 -0.0202 -0.2958 -0.5659
 7057TIP3    H142730   1.996   5.170   0.700 -1.7937 -0.3425 -1.5246
 7057TIP3    H242731   1.884   5.263   0.741  0.8881  2.0755  0.8218
 7058TIP3   OH242732   6.422   2.112   8.722 -0.1729  0.6147 -0.3226
 7058TIP3    H142733   6.371   2.177   8.673 -1.7722 -0.9006 -0.7468
 7058TIP3    H242734   6.448   2.048   8.656 -1.0852 -0.6761  0.5338
 7059TIP3   OH242735   5.150   0.498   0.023  0.8522 -0.0312  0.4053
 7059TIP3    H142736   5.153   0.414   0.068  2.0379 -1.0243 -1.4109
 7059TIP3    H242737   5.242   0.522   0.010  0.6779 -0.4544 -2.4891
 7060TIP3   OH242738   0.057   3.306   8.024 -0.1893  0.3141  0.6058
 7060TIP3    H142739  -0.023   3.257   8.046 -0.0433 -0.1460  0.1124
 7060TIP3    H242740   0.066   3.297   7.929  1.1907 -0.7951  0.8053
 7061TIP3   OH242741   1.272   1.030   7.550  0.1227  0.3542  0.1441
 7061TIP3    H142742   1.230   1.078   7.479  0.1120  0.2193  0.0581
 7061TIP3    H242743   1.301   1.098   7.611 -0.1588  0.4498  0.1719
 7062TIP3   OH242744   5.470   6.757   7.756  0.6234  0.2572  0.5108
 7062TIP3    H142745   5.417   6.712   7.822 -1.9603  0.4987 -1.2399
 7062TIP3    H242746   5.420   6.836   7.736  0.9200 -0.1487 -2.1886
 7063TIP3   OH242747   1.248   4.966   1.591 -0.4451  0.1924 -0.5050
 7063TIP3    H142748   1.163   4.941   1.627  0.5460 -1.4708  0.8008
 7063TIP3    H242749   1.246   5.062   1.591 -2.6626  0.2067 -1.4266
 7064LIG     O142750   2.972   2.316   2.060  0.3127  0.1320 -0.7918
 7064LIG     O242751   3.396   2.245   1.900  0.4478  0.1627  0.3092
 7064LIG     N142752   3.327   2.118   2.075  0.3815  0.0605  0.1895
 7064LIG     N242753   3.051   2.130   2.289  0.2250  0.2644  0.1287
 7064LIG     N342754   3.190   2.296   1.989 -0.2024 -0.5791 -0.1299
 7064LIG     N442755   3.243   2.020   2.287  0.1927  0.0705  0.3984
 7064LIG     C142756   3.114   2.167   2.175 -0.3305 -0.0896  0.4108
 7064LIG     C242757   3.235   2.101   2.178 -0.2430 -0.0432  0.3301
 7064LIG     C342758   3.082   2.257   2.072  0.0365 -0.4437  0.0686
 7064LIG     C442759   3.310   2.219   1.982  0.1576  0.2915  0.4064
 7064LIG     C542760   3.128   2.040   2.353 -0.1914 -0.0502 -0.2109
 7064LIG     C642761   3.452   2.047   2.080 -0.4884  0.5157 -0.0219
 7064LIG     C742762   2.915   2.187   2.318 -0.4132  0.8807  0.0770
 7064LIG     C842763   3.165   2.390   1.884 -0.1098 -0.7163 -0.1997
 7064LIG     H142764   3.107   1.992   2.449  1.5036 -0.9539 -0.2523
 7064LIG     H242765   3.486   1.993   1.989 -1.0177 -2.0666  1.2062
 7064LIG     H342766   3.453   1.963   2.152  3.1680  1.2072  0.9254
 7064LIG     H442767   3.537   2.107   2.117 -1.5034  3.9545 -2.6689
 7064LIG     H542768   2.844   2.157   2.238 -0.2646  2.0949 -0.5335
 7064LIG     H642769   2.910   2.297   2.336  0.7706  1.0925 -0.7440
 7064LIG     H742770   2.881   2.135   2.410 -0.5518 -0.9421 -0.9528
 7064LIG     H842771   3.255   2.452   1.863 -0.9703 -0.1931 -2.7823
 7064LIG     H942772   3.088   2.468   1.902  0.2597 -0.8628  2.4270
 7064LIG    H1042773   3.132   2.358   1.783 -1.7275  0.4714 -0.0866
   6.81764   6.81764   8.79903
