Title
81356
    1CHL1    C3    1   3.515   1.348  10.281  0.4516 -0.6878  1.6312
    1CHL1    H3    2   3.411   1.388  10.276  0.6248 -0.0511  2.8102
    1CHL1    O3    3   3.528   1.325  10.418 -0.4989  0.8941  0.3478
    1CHL1   H3'    4   3.444   1.283  10.440  0.2092 -1.4550 -1.1917
    1CHL1    C4    5   3.526   1.220  10.203  0.3664  0.1525 -1.0842
    1CHL1   H4A    6   3.627   1.177  10.214  1.0180  1.4619 -1.8652
    1CHL1   H4B    7   3.465   1.137  10.246 -0.6346  1.8735  0.9067
    1CHL1    C5    8   3.503   1.247  10.057  0.3751  0.5485  0.5143
    1CHL1    C6    9   3.408   1.176   9.989 -0.2087 -0.0637 -0.1012
    1CHL1    H6   10   3.343   1.113  10.052 -0.0490  0.4825  0.6096
    1CHL1    C7   11   3.380   1.199   9.847 -0.3915 -0.1479  0.1715
    1CHL1   H7A   12   3.368   1.104   9.791 -2.5810  0.1709  0.0422
    1CHL1   H7B   13   3.288   1.261   9.840  0.0809  0.2989 -2.2979
    1CHL1    C8   14   3.491   1.286   9.774 -0.0942 -0.4344  0.0635
    1CHL1    H8   15   3.581   1.225   9.758 -0.0196 -0.7236  1.4846
    1CHL1   C14   16   3.439   1.344   9.639  0.5566  0.6107 -0.3067
    1CHL1   H14   17   3.362   1.422   9.661  0.7654  1.3609 -2.0600
    1CHL1   C15   18   3.366   1.245   9.546 -0.4629  0.0288 -0.8877
    1CHL1  H15A   19   3.428   1.154   9.535 -1.5130 -1.2819  3.1796
    1CHL1  H15B   20   3.271   1.207   9.589 -1.0527  0.1950 -2.0399
    1CHL1   C16   21   3.360   1.326   9.411 -0.3254  0.4392  0.4970
    1CHL1  H16A   22   3.394   1.252   9.335  0.0701  0.1969  0.9101
    1CHL1  H16B   23   3.255   1.361   9.398 -1.3517 -2.4822  0.5578
    1CHL1   C17   24   3.463   1.449   9.431  0.1271  0.7047  0.4619
    1CHL1   H17   25   3.396   1.534   9.454 -0.3000  0.8530 -1.3002
    1CHL1   C13   26   3.544   1.413   9.555 -0.8915 -0.2715 -0.9218
    1CHL1   C18   27   3.655   1.309   9.512 -0.0304  0.5665  0.7212
    1CHL1  H18A   28   3.609   1.227   9.454  0.8746  0.7537 -0.2876
    1CHL1  H18B   29   3.731   1.351   9.442  1.4968 -0.9052  1.4741
    1CHL1  H18C   30   3.714   1.275   9.600 -1.1700 -1.9840  0.5283
    1CHL1   C12   31   3.589   1.538   9.638 -0.0777  0.5998 -0.5454
    1CHL1  H12A   32   3.672   1.589   9.585  0.8005 -0.1632  0.0652
    1CHL1  H12B   33   3.502   1.605   9.652 -1.0422 -1.1039  1.7991
    1CHL1   C11   34   3.647   1.484   9.775  0.5261 -0.1617  0.1391
    1CHL1  H11A   35   3.744   1.433   9.754 -0.8241 -2.0424 -1.6377
    1CHL1  H11B   36   3.680   1.571   9.836  0.0729  0.4429 -0.4669
    1CHL1    C9   37   3.549   1.397   9.862 -0.2007 -0.8732  0.8524
    1CHL1    H9   38   3.471   1.474   9.884 -1.2274 -1.9739  1.1057
    1CHL1   C10   39   3.605   1.357   9.997 -0.0826  0.4180 -0.3396
    1CHL1   C19   40   3.749   1.293   9.974  0.1699 -0.2134  0.2942
    1CHL1  H19A   41   3.752   1.232   9.881  0.4682 -0.8155  0.6930
    1CHL1  H19B   42   3.822   1.374   9.950 -0.0812  0.1839  0.8462
    1CHL1  H19C   43   3.786   1.233  10.060 -0.0781 -1.3092 -0.3548
    1CHL1    C1   44   3.606   1.481  10.084  0.3983  0.0341  0.2910
    1CHL1   H1A   45   3.690   1.548  10.055 -0.6755  0.2561 -2.5001
    1CHL1   H1B   46   3.511   1.537  10.071  0.1936 -0.5697 -0.9475
    1CHL1    C2   47   3.625   1.449  10.233  0.0438  0.7051  0.0216
    1CHL1   H2A   48   3.622   1.541  10.295 -0.5741  0.5286  0.2497
    1CHL1   H2B   49   3.724   1.408  10.262 -0.7854 -0.7610  0.8076
    1CHL1   C20   50   3.536   1.483   9.302 -0.6818 -0.1211  0.5329
    1CHL1   H20   51   3.595   1.394   9.271 -1.0680 -1.2390  2.8335
    1CHL1   C21   52   3.640   1.592   9.325  0.2999  0.1159 -0.0144
    1CHL1  H21A   53   3.728   1.567   9.388  1.1634 -0.1822 -1.3161
    1CHL1  H21B   54   3.593   1.689   9.351 -0.8531 -0.2472 -0.6833
    1CHL1  H21C   55   3.685   1.610   9.225  1.4719  2.1193  0.8340
    1CHL1   C22   56   3.440   1.517   9.182  0.3230  0.9755 -0.7908
    1CHL1  H22A   57   3.368   1.433   9.171 -0.2052  1.2860  0.1595
    1CHL1  H22B   58   3.400   1.617   9.211  1.1159  1.3965 -1.1373
    1CHL1   C23   59   3.509   1.536   9.048 -0.0579 -0.0679  0.0121
    1CHL1  H23A   60   3.566   1.631   9.044 -0.1798  0.0513  1.0187
    1CHL1  H23B   61   3.572   1.447   9.025  0.7338  0.2769  0.8395
    1CHL1   C24   62   3.409   1.538   8.930 -0.4525 -0.3697 -0.4996
    1CHL1  H24A   63   3.344   1.448   8.922  0.6489 -1.2807  0.5579
    1CHL1  H24B   64   3.341   1.626   8.931  0.7318  0.5525  0.3131
    1CHL1   C25   65   3.476   1.566   8.794  0.6339  0.7113  1.0673
    1CHL1   H25   66   3.543   1.655   8.802  0.3291  1.0750 -0.3379
    1CHL1   C26   67   3.575   1.451   8.756  1.1580 -0.2819  0.3003
    1CHL1  H26A   68   3.603   1.464   8.650  1.3772  0.5564  0.4588
    1CHL1  H26B   69   3.659   1.447   8.829 -0.2491 -1.2899  1.9249
    1CHL1  H26C   70   3.521   1.355   8.770  1.3110 -0.3623  0.3324
    1CHL1   C27   71   3.379   1.588   8.676  1.0171 -0.6116 -0.3571
    1CHL1  H27A   72   3.442   1.629   8.594  0.3935 -0.8423 -0.9522
    1CHL1  H27B   73   3.338   1.488   8.650 -0.1939 -0.1804 -0.1698
    1CHL1  H27C   74   3.296   1.658   8.702  0.9018 -0.6237 -0.6852
    2CHL1    C3   75   4.498   5.688  10.004 -0.0878 -0.1242  0.0841
    2CHL1    H3   76   4.492   5.799   9.994 -3.7273 -0.3408 -0.8794
    2CHL1    O3   77   4.536   5.651  10.138 -0.3466  0.0731  0.3563
    2CHL1   H3'   78   4.561   5.558  10.139  0.0177  0.1736  0.8330
    2CHL1    C4   79   4.363   5.631   9.970 -0.1400  0.0570  0.5170
    2CHL1   H4A   80   4.377   5.521   9.970  0.3158  0.1075 -0.9970
    2CHL1   H4B   81   4.283   5.654  10.043  0.9998  1.9414  1.1997
    2CHL1    C5   82   4.319   5.664   9.828 -0.7811  0.4781 -0.3267
    2CHL1    C6   83   4.211   5.726   9.799  0.4858  0.5767 -0.1868
    2CHL1    H6   84   4.131   5.736   9.875  1.8247 -0.5688  1.4060
    2CHL1    C7   85   4.174   5.755   9.658  0.1817 -0.3597  0.8038
    2CHL1   H7A   86   4.067   5.735   9.638  0.3181 -1.7488  1.3886
    2CHL1   H7B   87   4.180   5.863   9.632 -4.0687 -0.2517 -0.0063
    2CHL1    C8   88   4.247   5.674   9.554  0.7472  0.3834  0.6437
    2CHL1    H8   89   4.202   5.573   9.561  0.3113  0.2411 -3.2397
    2CHL1   C14   90   4.245   5.726   9.411  0.9681 -0.2879  0.1664
    2CHL1   H14   91   4.287   5.829   9.416 -0.8017  0.4725 -0.2216
    2CHL1   C15   92   4.100   5.740   9.366  0.2500 -0.3664  0.8645
    2CHL1  H15A   93   4.034   5.654   9.390 -0.0711 -0.7388 -1.2379
    2CHL1  H15B   94   4.039   5.814   9.422  1.4069  0.1866  1.3878
    2CHL1   C16   95   4.106   5.752   9.209 -0.2535  0.2788  0.1506
    2CHL1  H16A   96   4.039   5.680   9.158 -0.9988  2.1737 -1.5937
    2CHL1  H16B   97   4.084   5.853   9.170  1.0342 -0.4115 -2.4479
    2CHL1   C17   98   4.259   5.724   9.172 -0.3718  0.4609  0.1019
    2CHL1   H17   99   4.290   5.830   9.168  0.6544  0.1253 -1.5488
    2CHL1   C13  100   4.318   5.648   9.296  0.0539  1.1530  1.0204
    2CHL1   C18  101   4.269   5.503   9.282 -1.3703  0.1097 -0.0792
    2CHL1  H18A  102   4.159   5.498   9.275 -1.4170  0.7937  0.1315
    2CHL1  H18B  103   4.306   5.447   9.194  1.7882  0.0255  1.2192
    2CHL1  H18C  104   4.296   5.441   9.371  3.1890  1.0307 -0.6651
    2CHL1   C12  105   4.465   5.656   9.328  0.4086 -0.3102  0.2288
    2CHL1  H12A  106   4.539   5.613   9.258  0.7426 -0.6354  0.7801
    2CHL1  H12B  107   4.483   5.766   9.328  1.3498 -0.4374 -2.6793
    2CHL1   C11  108   4.489   5.602   9.465 -0.0176  0.0983  0.5413
    2CHL1  H11A  109   4.460   5.495   9.462  1.5108 -0.3390  0.7945
    2CHL1  H11B  110   4.599   5.602   9.482  0.0545  0.6290  0.0780
    2CHL1    C9  111   4.398   5.666   9.578  0.2624  0.0481 -0.5692
    2CHL1    H9  112   4.423   5.774   9.586  0.1930  0.1401 -1.4955
    2CHL1   C10  113   4.428   5.614   9.722  0.6611  0.5944  0.3365
    2CHL1   C19  114   4.428   5.463   9.707 -0.3705  0.1017 -0.0292
    2CHL1  H19A  115   4.516   5.426   9.651  1.3317  3.6949  0.0953
    2CHL1  H19B  116   4.429   5.413   9.805  0.7229 -1.6833 -0.9369
    2CHL1  H19C  117   4.335   5.431   9.655 -0.0096  1.0936 -1.3215
    2CHL1    C1  118   4.564   5.660   9.765 -0.6172  0.5242 -0.0429
    2CHL1   H1A  119   4.639   5.626   9.690 -0.9914 -1.4605  0.4396
    2CHL1   H1B  120   4.572   5.770   9.761  0.4365  0.5181  1.2755
    2CHL1    C2  121   4.601   5.621   9.910 -0.1375  0.0861  0.6286
    2CHL1   H2A  122   4.705   5.650   9.935 -0.2141  0.3796  0.6144
    2CHL1   H2B  123   4.595   5.511   9.924 -1.6102  0.2183  1.1419
    2CHL1   C20  124   4.280   5.654   9.030  0.0199  0.4982  0.2274
    2CHL1   H20  125   4.220   5.560   9.038  0.4090  0.3537  1.6325
    2CHL1   C21  126   4.428   5.613   8.997  0.0646 -0.0742  0.6128
    2CHL1  H21A  127   4.498   5.699   9.006 -0.6988  0.3959  2.3202
    2CHL1  H21B  128   4.431   5.571   8.894 -1.4352 -0.0718  0.5612
    2CHL1  H21C  129   4.457   5.545   9.080 -0.0311  0.4790  1.1033
    2CHL1   C22  130   4.217   5.724   8.905  0.0087  0.2577 -0.8545
    2CHL1  H22A  131   4.250   5.666   8.817 -1.3457 -1.8829 -0.0006
    2CHL1  H22B  132   4.106   5.721   8.904  0.0124 -0.9177  0.3342
    2CHL1   C23  133   4.261   5.877   8.900  0.2397 -0.5676  0.0338
    2CHL1  H23A  134   4.257   5.915   9.005  0.9177 -0.2330 -0.0565
    2CHL1  H23B  135   4.367   5.876   8.867 -0.0956 -0.5325 -1.0623
    2CHL1   C24  136   4.186   5.963   8.794  1.0657 -0.6229  0.4972
    2CHL1  H24A  137   4.162   5.908   8.701 -1.2328  1.3084 -0.0906
    2CHL1  H24B  138   4.084   5.982   8.832  0.3414 -1.5606 -0.9395
    2CHL1   C25  139   4.246   6.098   8.745 -0.1200 -0.3637  0.4911
    2CHL1   H25  140   4.290   6.155   8.829  1.5249 -0.1064 -0.5212
    2CHL1   C26  141   4.366   6.066   8.660 -0.4702  0.2379 -0.7836
    2CHL1  H26A  142   4.335   6.016   8.565 -0.9910 -1.0471  0.0424
    2CHL1  H26B  143   4.423   6.157   8.632 -0.0540  0.3019  0.2673
    2CHL1  H26C  144   4.432   5.992   8.710 -1.8113 -0.8857 -0.6326
    2CHL1   C27  145   4.147   6.192   8.679 -0.6388 -0.3978 -0.1176
    2CHL1  H27A  146   4.082   6.135   8.609 -1.8984  0.2363  0.5331
    2CHL1  H27B  147   4.088   6.238   8.761  0.5364  2.6779 -0.9132
    2CHL1  H27C  148   4.193   6.276   8.623  1.8981  0.0784  2.5940
    3CHL1    C3  149   5.174   5.642  10.229  0.6130  0.0620  0.2841
    3CHL1    H3  150   5.162   5.740  10.280  2.7206 -1.3297  3.5906
    3CHL1    O3  151   5.167   5.554  10.341 -0.3573 -0.3394 -0.1473
    3CHL1   H3'  152   5.082   5.571  10.381 -0.9346  2.3884 -2.3779
    3CHL1    C4  153   5.058   5.603  10.136 -0.0139  0.4840 -0.3834
    3CHL1   H4A  154   5.054   5.492  10.124  1.4300  0.4113 -0.3231
    3CHL1   H4B  155   4.966   5.629  10.191  1.2973 -0.1348  2.1852
    3CHL1    C5  156   5.071   5.683  10.002 -0.7231 -0.1698 -0.0058
    3CHL1    C6  157   4.966   5.753   9.958 -0.7471 -0.4504 -0.7036
    3CHL1    H6  158   4.872   5.758  10.014 -1.3419  0.1546 -1.7690
    3CHL1    C7  159   4.951   5.829   9.836 -0.4894 -0.2343 -0.4245
    3CHL1   H7A  160   4.851   5.809   9.790  0.4339 -2.0076 -1.7121
    3CHL1   H7B  161   4.960   5.938   9.853 -0.2741 -0.1631 -0.9906
    3CHL1    C8  162   5.061   5.782   9.737  0.1244  0.8228  0.6154
    3CHL1    H8  163   5.051   5.679   9.698  0.7151  0.3582  1.6494
    3CHL1   C14  164   5.064   5.877   9.606 -0.4997 -0.3332 -0.6838
    3CHL1   H14  165   5.079   5.973   9.660 -0.6718 -0.0694 -1.1011
    3CHL1   C15  166   4.942   5.892   9.515 -0.3116 -0.1379 -0.1836
    3CHL1  H15A  167   4.909   5.791   9.482  1.4543 -0.7832 -0.0123
    3CHL1  H15B  168   4.852   5.939   9.561  0.4362 -0.7641  1.9442
    3CHL1   C16  169   4.993   5.965   9.391 -0.3201  0.2179  0.2011
    3CHL1  H16A  170   4.988   5.902   9.300 -1.4897  0.1890  0.2716
    3CHL1  H16B  171   4.933   6.056   9.370  0.1465  0.4998  0.0702
    3CHL1   C17  172   5.145   5.991   9.421 -0.1906  0.5659  0.5966
    3CHL1   H17  173   5.149   6.084   9.481  0.3632 -0.4185  2.1075
    3CHL1   C13  174   5.187   5.869   9.517  0.1126  0.2255  0.5319
    3CHL1   C18  175   5.188   5.733   9.448 -0.2989 -0.5413  0.4749
    3CHL1  H18A  176   5.095   5.722   9.389  0.0703  0.7273 -0.3749
    3CHL1  H18B  177   5.276   5.723   9.380 -0.9269  1.5918 -0.6948
    3CHL1  H18C  178   5.188   5.649   9.520 -0.1274  0.1221  1.2481
    3CHL1   C12  179   5.318   5.885   9.596 -0.0471  0.0869 -0.0066
    3CHL1  H12A  180   5.397   5.887   9.518 -0.8068 -0.1831 -0.7923
    3CHL1  H12B  181   5.305   5.983   9.647 -0.5843 -0.9226  1.8710
    3CHL1   C11  182   5.323   5.778   9.708 -0.4422 -0.6702  0.2996
    3CHL1  H11A  183   5.325   5.678   9.658  0.0195  0.3554 -1.8004
    3CHL1  H11B  184   5.420   5.800   9.756 -0.3481 -0.8961  0.2148
    3CHL1    C9  185   5.203   5.783   9.807 -0.4585  0.0814  0.0867
    3CHL1    H9  186   5.216   5.877   9.865  0.1006 -0.0328  0.1463
    3CHL1   C10  187   5.202   5.675   9.929  0.4457 -0.1055  0.3597
    3CHL1   C19  188   5.220   5.532   9.870 -0.3387  0.1498 -0.2603
    3CHL1  H19A  189   5.315   5.527   9.813  0.0679 -1.9037  0.5752
    3CHL1  H19B  190   5.225   5.452   9.947 -3.1122 -0.0490 -0.2216
    3CHL1  H19C  191   5.128   5.503   9.813 -1.2092  0.1219  1.1291
    3CHL1    C1  192   5.323   5.706  10.024  0.1088 -0.1567  0.5944
    3CHL1   H1A  193   5.422   5.672   9.988  0.1421 -1.2499  1.6554
    3CHL1   H1B  194   5.330   5.814  10.049  0.8687 -0.4701  1.7620
    3CHL1    C2  195   5.309   5.631  10.166 -0.3674 -0.4169  0.2025
    3CHL1   H2A  196   5.376   5.682  10.239 -1.5256  1.7264 -0.1906
    3CHL1   H2B  197   5.325   5.522  10.150 -0.9487 -0.1934 -2.0380
    3CHL1   C20  198   5.238   6.009   9.295  0.3214 -0.2476 -0.5814
    3CHL1   H20  199   5.343   5.995   9.327  0.4535  0.0490 -0.8900
    3CHL1   C21  200   5.228   6.161   9.259 -0.4478 -0.0415  0.0986
    3CHL1  H21A  201   5.264   6.196   9.159 -1.6837  0.5538 -0.1486
    3CHL1  H21B  202   5.277   6.208   9.347 -2.4376 -1.9996  2.3304
    3CHL1  H21C  203   5.120   6.187   9.262 -0.7466 -1.3943  1.0044
    3CHL1   C22  204   5.212   5.910   9.175  0.6853 -0.2053  0.0021
    3CHL1  H22A  205   5.231   5.804   9.198 -1.1882 -0.6055 -0.1958
    3CHL1  H22B  206   5.107   5.915   9.138  1.5157  2.5392 -2.2173
    3CHL1   C23  207   5.296   5.945   9.053  0.6481  0.0891  0.1628
    3CHL1  H23A  208   5.267   6.044   9.012 -2.6338 -1.5442 -1.5842
    3CHL1  H23B  209   5.405   5.940   9.075  0.6749 -0.6062 -0.1399
    3CHL1   C24  210   5.280   5.840   8.941  0.1031 -0.4817 -0.1215
    3CHL1  H24A  211   5.307   5.737   8.973 -0.3439 -0.7420 -0.5855
    3CHL1  H24B  212   5.174   5.840   8.910  0.0134  3.6071  0.0320
    3CHL1   C25  213   5.372   5.870   8.812 -1.1748  0.0607 -0.3434
    3CHL1   H25  214   5.364   5.981   8.799 -0.6638  0.3092  1.4300
    3CHL1   C26  215   5.522   5.834   8.834 -0.0199 -0.2356 -0.6417
    3CHL1  H26A  216   5.558   5.903   8.912  1.3647 -0.5240 -1.0261
    3CHL1  H26B  217   5.526   5.734   8.882 -1.0900  0.5793  1.2102
    3CHL1  H26C  218   5.593   5.829   8.749  0.7343 -0.0737 -0.0148
    3CHL1   C27  219   5.323   5.786   8.692  0.1181  0.4624 -0.2353
    3CHL1  H27A  220   5.212   5.783   8.679 -0.3882  0.2118  3.4274
    3CHL1  H27B  221   5.370   5.816   8.596 -0.3632  1.0374 -0.2989
    3CHL1  H27C  222   5.353   5.684   8.723 -0.8181  0.1626 -0.2779
    4CHL1    C3  223   5.080   1.281  10.385  0.2159  0.5011 -0.1702
    4CHL1    H3  224   5.121   1.376  10.344  0.4479  1.4041  2.0450
    4CHL1    O3  225   5.127   1.270  10.516  0.0891 -0.1231 -0.1674
    4CHL1   H3'  226   5.179   1.189  10.523 -0.9425 -0.5625  3.2577
    4CHL1    C4  227   4.924   1.272  10.379  0.2341 -0.4326 -0.9602
    4CHL1   H4A  228   4.891   1.180  10.431  0.9893 -0.1939 -0.0462
    4CHL1   H4B  229   4.874   1.347  10.444 -0.9804 -0.4458 -1.8480
    4CHL1    C5  230   4.872   1.288  10.240 -0.1142  0.9158 -0.2614
    4CHL1    C6  231   4.784   1.377  10.198  0.0003 -0.5331 -0.4577
    4CHL1    H6  232   4.744   1.448  10.272  1.3954 -0.0225 -0.1783
    4CHL1    C7  233   4.719   1.375  10.065  0.0280 -0.9037  0.3897
    4CHL1   H7A  234   4.609   1.378  10.082 -0.5653  1.6664 -3.2222
    4CHL1   H7B  235   4.745   1.473  10.019  1.1840 -1.1544  0.4879
    4CHL1    C8  236   4.753   1.246   9.976 -0.6132 -0.1303  0.6392
    4CHL1    H8  237   4.694   1.161  10.017  1.6314 -2.1624 -0.2977
    4CHL1   C14  238   4.726   1.283   9.832 -0.0620 -0.1423 -0.2074
    4CHL1   H14  239   4.796   1.368   9.820 -0.8218  0.7706  1.7844
    4CHL1   C15  240   4.590   1.332   9.793 -0.5049 -0.3272 -0.7382
    4CHL1  H15A  241   4.514   1.260   9.831 -0.2765 -0.3332 -0.2895
    4CHL1  H15B  242   4.586   1.437   9.828  1.3818 -0.9501  1.4855
    4CHL1   C16  243   4.588   1.323   9.636  0.5757 -0.0206 -0.3126
    4CHL1  H16A  244   4.490   1.273   9.618  0.4616 -0.7609  2.2094
    4CHL1  H16B  245   4.581   1.423   9.586 -2.0095  0.0501  0.1356
    4CHL1   C17  246   4.706   1.238   9.594  0.3028  0.1472  0.2968
    4CHL1   H17  247   4.790   1.301   9.557  0.0848  0.4419  0.3039
    4CHL1   C13  248   4.758   1.174   9.731 -0.0426  0.0975 -0.4484
    4CHL1   C18  249   4.674   1.047   9.759  0.6535  0.5157 -0.5390
    4CHL1  H18A  250   4.568   1.065   9.731  1.0487  1.0556 -1.7257
    4CHL1  H18B  251   4.713   0.968   9.691  1.4326 -1.4251  2.0746
    4CHL1  H18C  252   4.686   1.013   9.865  1.1869 -0.6200 -0.9522
    4CHL1   C12  253   4.911   1.145   9.738  0.7707  0.0624  0.5637
    4CHL1  H12A  254   4.941   1.061   9.672  1.5433  0.6865  0.0972
    4CHL1  H12B  255   4.956   1.239   9.699  1.5829 -0.4228  0.3168
    4CHL1   C11  256   4.957   1.115   9.882 -0.4700 -0.1113  0.0092
    4CHL1  H11A  257   4.927   1.009   9.897 -0.0200 -0.1566  0.6115
    4CHL1  H11B  258   5.068   1.124   9.884 -0.6334  2.1506  1.7633
    4CHL1    C9  259   4.904   1.213   9.994 -0.0491 -0.2769 -0.5158
    4CHL1    H9  260   4.965   1.304   9.975 -0.0180 -0.9967 -4.3549
    4CHL1   C10  261   4.935   1.177  10.147 -0.4306 -0.5212 -0.1499
    4CHL1   C19  262   4.869   1.040  10.177  0.0402  0.1702  0.2088
    4CHL1  H19A  263   4.935   0.965  10.130 -1.0539 -0.1929 -0.7491
    4CHL1  H19B  264   4.868   1.002  10.282  0.1443  1.5650  0.7273
    4CHL1  H19C  265   4.767   1.028  10.135 -0.1093  0.6690  0.4206
    4CHL1    C1  266   5.087   1.173  10.154 -0.9546 -0.4475  0.3668
    4CHL1   H1A  267   5.128   1.089  10.095 -0.0387 -1.5368  2.4876
    4CHL1   H1B  268   5.124   1.268  10.109 -2.2849  0.3140  0.8598
    4CHL1    C2  269   5.144   1.167  10.300 -0.0984 -1.4428 -0.7531
    4CHL1   H2A  270   5.252   1.194  10.295 -0.1423 -0.9088  0.9367
    4CHL1   H2B  271   5.120   1.069  10.346 -0.8409 -1.0029 -0.1984
    4CHL1   C20  272   4.667   1.154   9.471 -0.9005  0.2011 -0.1679
    4CHL1   H20  273   4.613   1.058   9.488  1.5574 -1.2508 -0.4469
    4CHL1   C21  274   4.807   1.100   9.427  0.0204 -0.0286  0.1034
    4CHL1  H21A  275   4.832   1.001   9.473 -0.1436  0.3643  1.0514
    4CHL1  H21B  276   4.894   1.169   9.437 -1.6642  2.0022  0.9770
    4CHL1  H21C  277   4.810   1.063   9.322  1.8724 -0.2709  0.2165
    4CHL1   C22  278   4.603   1.236   9.359 -0.2889 -0.5347  0.5809
    4CHL1  H22A  279   4.500   1.252   9.397 -0.4591 -1.2665  0.4300
    4CHL1  H22B  280   4.653   1.335   9.369  0.8405 -0.7919 -1.9751
    4CHL1   C23  281   4.603   1.180   9.213  0.0759  0.4122  0.0235
    4CHL1  H23A  282   4.699   1.135   9.176 -0.6601 -0.1333 -1.2581
    4CHL1  H23B  283   4.544   1.086   9.223  2.1852 -1.0028 -0.2010
    4CHL1   C24  284   4.540   1.270   9.113 -0.1089 -0.0497 -0.1318
    4CHL1  H24A  285   4.434   1.293   9.137 -0.0867 -0.2972  0.2123
    4CHL1  H24B  286   4.585   1.371   9.121 -2.4769  1.0081  0.3498
    4CHL1   C25  287   4.543   1.208   8.974 -0.5142 -0.5847 -0.3500
    4CHL1   H25  288   4.496   1.108   8.984  3.4988 -2.6213 -0.7343
    4CHL1   C26  289   4.455   1.294   8.881 -0.4786  0.5411 -0.0927
    4CHL1  H26A  290   4.491   1.397   8.861  1.1510 -0.2534 -1.3876
    4CHL1  H26B  291   4.441   1.236   8.787 -0.2040 -0.5034  0.4961
    4CHL1  H26C  292   4.357   1.313   8.930 -0.6155  1.0064 -0.5428
    4CHL1   C27  293   4.684   1.184   8.916  0.5365  0.5261  0.1534
    4CHL1  H27A  294   4.739   1.105   8.972 -1.3572  1.2849  3.2161
    4CHL1  H27B  295   4.684   1.144   8.812 -0.8397 -1.2363  0.7992
    4CHL1  H27C  296   4.746   1.276   8.918  1.7410 -0.2929  2.1884
    5CHL1    C3  297   5.807   5.327  10.100  0.1155 -0.3546 -0.1307
    5CHL1    H3  298   5.841   5.430  10.079  0.5834 -0.2996  0.8849
    5CHL1    O3  299   5.815   5.298  10.235  0.0994 -0.1833  0.3419
    5CHL1   H3'  300   5.857   5.212  10.236  1.9508  0.6545 -1.1974
    5CHL1    C4  301   5.659   5.319  10.049 -0.0971 -0.0419  0.7126
    5CHL1   H4A  302   5.641   5.214  10.082 -0.0742 -0.8756 -1.7785
    5CHL1   H4B  303   5.593   5.386  10.107  1.5717  2.2220  0.0686
    5CHL1    C5  304   5.657   5.342   9.895 -0.8958  0.6200  0.0005
    5CHL1    C6  305   5.569   5.431   9.844  0.0109  0.2775 -0.3633
    5CHL1    H6  306   5.492   5.473   9.910 -0.2321 -1.1589  0.2836
    5CHL1    C7  307   5.550   5.450   9.698 -0.5813 -0.0295  0.2992
    5CHL1   H7A  308   5.443   5.460   9.671 -0.6286 -0.0740  0.4733
    5CHL1   H7B  309   5.598   5.546   9.671 -1.1702 -0.2137 -1.4516
    5CHL1    C8  310   5.628   5.343   9.615  0.1534 -0.7321 -0.0636
    5CHL1    H8  311   5.557   5.258   9.614 -0.0605 -0.6255  2.9198
    5CHL1   C14  312   5.652   5.407   9.478  0.0431 -0.4639 -1.0855
    5CHL1   H14  313   5.717   5.496   9.491  0.6720 -0.7595 -2.1515
    5CHL1   C15  314   5.533   5.473   9.395  0.4014  0.1723 -0.3490
    5CHL1  H15A  315   5.444   5.408   9.405  1.8816 -1.3702  3.8999
    5CHL1  H15B  316   5.525   5.569   9.452 -2.1040 -0.5712  0.6320
    5CHL1   C16  317   5.578   5.480   9.254 -0.2424  0.2673  0.3039
    5CHL1  H16A  318   5.509   5.417   9.193 -1.0302  1.6096 -0.2115
    5CHL1  H16B  319   5.572   5.584   9.216  1.2470  0.1835 -0.1932
    5CHL1   C17  320   5.720   5.426   9.260 -0.1806  0.2372  0.0101
    5CHL1   H17  321   5.788   5.508   9.291  1.9386 -1.9041  1.1340
    5CHL1   C13  322   5.723   5.321   9.376 -0.2157 -0.6032 -0.6491
    5CHL1   C18  323   5.644   5.194   9.331 -0.2013 -0.3688  0.0919
    5CHL1  H18A  324   5.628   5.133   9.423  0.3116 -1.7232 -0.7079
    5CHL1  H18B  325   5.542   5.208   9.291 -0.0662 -0.9814 -0.4738
    5CHL1  H18C  326   5.700   5.140   9.252 -2.3396  0.2913 -1.9043
    5CHL1   C12  327   5.862   5.281   9.435 -0.3459 -0.7361  0.5192
    5CHL1  H12A  328   5.925   5.217   9.369  0.5432  0.1026  0.5481
    5CHL1  H12B  329   5.920   5.374   9.454 -1.1576 -0.2979  0.8961
    5CHL1   C11  330   5.845   5.207   9.569 -0.2286 -0.4683  0.0470
    5CHL1  H11A  331   5.798   5.108   9.552  2.3237 -1.5218 -1.1423
    5CHL1  H11B  332   5.943   5.187   9.617 -0.3836 -0.8633  0.2010
    5CHL1    C9  333   5.763   5.304   9.665 -0.2321  0.0014 -0.0673
    5CHL1    H9  334   5.819   5.400   9.664 -2.0349  1.0719 -0.8691
    5CHL1   C10  335   5.758   5.256   9.816 -0.5109 -0.8526 -0.2600
    5CHL1   C19  336   5.703   5.105   9.814 -0.8941  0.1711  0.1163
    5CHL1  H19A  337   5.676   5.065   9.914 -1.4112 -1.8544 -0.8054
    5CHL1  H19B  338   5.607   5.103   9.757 -0.0917  2.7970 -1.3944
    5CHL1  H19C  339   5.767   5.026   9.770 -1.4125 -0.9712  1.3654
    5CHL1    C1  340   5.899   5.254   9.867 -0.0809  0.2942 -0.1788
    5CHL1   H1A  341   5.954   5.166   9.826 -1.2440 -1.1038  1.1992
    5CHL1   H1B  342   5.944   5.348   9.827 -0.3427  0.0361 -1.0816
    5CHL1    C2  343   5.903   5.228  10.021 -0.8068 -0.2082 -0.4192
    5CHL1   H2A  344   6.009   5.237  10.055 -1.6094 -0.0099  2.0858
    5CHL1   H2B  345   5.878   5.121  10.035 -0.1411 -0.7038 -2.6616
    5CHL1   C20  346   5.767   5.370   9.121 -0.7842 -0.1625 -0.3122
    5CHL1   H20  347   5.700   5.289   9.085 -0.4229 -0.8295  0.4867
    5CHL1   C21  348   5.907   5.315   9.125  0.0984  0.5654 -0.3343
    5CHL1  H21A  349   5.964   5.370   9.203 -1.0754  0.1891  0.8097
    5CHL1  H21B  350   5.963   5.321   9.029  1.9392 -0.6737  0.6290
    5CHL1  H21C  351   5.899   5.209   9.157  0.7496 -0.4202 -3.2801
    5CHL1   C22  352   5.749   5.474   9.012 -0.2169  0.2398  0.5386
    5CHL1  H22A  353   5.662   5.543   9.020  1.0931  1.9590  0.1802
    5CHL1  H22B  354   5.838   5.539   9.004 -0.2859  0.1289 -1.2776
    5CHL1   C23  355   5.737   5.416   8.872 -0.8208 -0.1217  0.1719
    5CHL1  H23A  356   5.816   5.341   8.850 -0.2697  0.1873  1.0635
    5CHL1  H23B  357   5.638   5.367   8.862 -0.2500 -1.4169  0.7432
    5CHL1   C24  358   5.753   5.524   8.759 -0.1632 -0.2243  0.1829
    5CHL1  H24A  359   5.657   5.574   8.738  0.2840 -0.2181 -2.0298
    5CHL1  H24B  360   5.830   5.593   8.799  0.7868  0.2604 -2.3790
    5CHL1   C25  361   5.828   5.478   8.635  0.2460 -0.2838 -0.4603
    5CHL1   H25  362   5.898   5.401   8.674  0.7674  1.2955  1.8288
    5CHL1   C26  363   5.727   5.415   8.544 -0.0862 -0.2781 -0.4397
    5CHL1  H26A  364   5.768   5.366   8.453  1.8117  0.3066  0.0626
    5CHL1  H26B  365   5.663   5.347   8.603  0.8238 -1.8144 -1.2015
    5CHL1  H26C  366   5.653   5.493   8.515  1.4013  1.4183  0.1895
    5CHL1   C27  367   5.920   5.581   8.566  0.0182  0.2819 -0.2784
    5CHL1  H27A  368   5.872   5.678   8.540 -0.6153  0.2543  0.8130
    5CHL1  H27B  369   6.015   5.602   8.621 -0.4968 -1.2901  1.2313
    5CHL1  H27C  370   5.967   5.539   8.474  1.0812  1.1248 -0.1373
    6CHL1    C3  371   3.378   3.122  10.427 -0.5438 -0.2387  0.4598
    6CHL1    H3  372   3.436   3.195  10.367 -1.3311 -0.5690 -0.7295
    6CHL1    O3  373   3.387   3.167  10.558  0.2062 -0.8085  0.3463
    6CHL1   H3'  374   3.297   3.188  10.583  1.2574  2.6265  1.6185
    6CHL1    C4  375   3.232   3.136  10.381  0.6671  0.4256 -0.0049
    6CHL1   H4A  376   3.167   3.070  10.442 -0.0024  0.5780 -0.5565
    6CHL1   H4B  377   3.201   3.242  10.378  0.7677  0.4744  0.7329
    6CHL1    C5  378   3.216   3.076  10.236 -0.4046 -0.3643  0.0024
    6CHL1    C6  379   3.161   3.147  10.132  0.7265  0.5506  0.6124
    6CHL1    H6  380   3.105   3.241  10.146 -1.4884 -0.3634 -1.7801
    6CHL1    C7  381   3.146   3.090   9.999 -0.5435 -0.4665  0.0241
    6CHL1   H7A  382   3.042   3.104   9.963 -0.7602 -1.1017  0.4059
    6CHL1   H7B  383   3.215   3.151   9.936 -1.8936  0.0798 -0.9537
    6CHL1    C8  384   3.169   2.937   9.983 -0.1503 -0.4771 -0.0630
    6CHL1    H8  385   3.082   2.884  10.027 -0.8829  1.1307  0.4549
    6CHL1   C14  386   3.181   2.904   9.837  0.0675  0.2103 -0.0850
    6CHL1   H14  387   3.270   2.960   9.800  0.8749 -0.5753  0.6441
    6CHL1   C15  388   3.084   2.951   9.728 -0.3963  0.4863  0.4769
    6CHL1  H15A  389   2.979   2.936   9.763 -0.4903  0.0342  0.0168
    6CHL1  H15B  390   3.100   3.060   9.718  0.5753  0.4150  1.1503
    6CHL1   C16  391   3.113   2.854   9.608  1.0988 -0.0216  0.1472
    6CHL1  H16A  392   3.016   2.808   9.578  0.1683  1.4927  0.8035
    6CHL1  H16B  393   3.153   2.912   9.523 -1.7648  1.0645 -0.5236
    6CHL1   C17  394   3.220   2.750   9.653  1.0153  0.2071 -0.5083
    6CHL1   H17  395   3.319   2.796   9.631  0.6279  0.5872 -1.4740
    6CHL1   C13  396   3.205   2.753   9.806 -0.2003  0.0068 -0.0198
    6CHL1   C18  397   3.075   2.679   9.850  0.7549  0.0790 -0.4659
    6CHL1  H18A  398   2.980   2.712   9.802 -0.1312 -1.9518 -0.1343
    6CHL1  H18B  399   3.090   2.571   9.831 -1.0945 -0.9879  3.5926
    6CHL1  H18C  400   3.060   2.674   9.960 -1.6186  1.8640 -0.6681
    6CHL1   C12  401   3.333   2.710   9.886  0.4077  0.3913  0.1894
    6CHL1  H12A  402   3.343   2.599   9.888 -0.4815  0.3126  0.9933
    6CHL1  H12B  403   3.424   2.755   9.842  0.4476 -0.3998 -0.5436
    6CHL1   C11  404   3.321   2.748  10.039 -0.5876  0.0007 -0.1129
    6CHL1  H11A  405   3.252   2.671  10.079 -0.0583 -0.2492  0.3195
    6CHL1  H11B  406   3.423   2.730  10.081  0.5625  2.6634 -1.5879
    6CHL1    C9  407   3.293   2.893  10.060 -0.3451 -0.4550 -0.0270
    6CHL1    H9  408   3.378   2.953  10.022 -0.2611 -0.8807 -0.5206
    6CHL1   C10  409   3.283   2.935  10.210  0.0609  0.2979 -0.3092
    6CHL1   C19  410   3.204   2.829  10.290  0.1552  0.1892 -0.9545
    6CHL1  H19A  411   3.267   2.738  10.279  1.6301  1.0304  0.2174
    6CHL1  H19B  412   3.187   2.846  10.399 -2.4440 -0.5527 -1.2070
    6CHL1  H19C  413   3.109   2.820  10.233  0.8861 -1.2730 -1.9808
    6CHL1    C1  414   3.426   2.926  10.273 -0.5945 -0.8556 -0.0519
    6CHL1   H1A  415   3.483   2.833  10.253  3.1240  1.5456 -1.3353
    6CHL1   H1B  416   3.485   3.003  10.217 -1.1873  0.6806  1.3996
    6CHL1    C2  417   3.439   2.977  10.415  1.1503 -0.5480 -0.0640
    6CHL1   H2A  418   3.547   2.983  10.437  0.5734  0.9617  2.6008
    6CHL1   H2B  419   3.385   2.910  10.485 -1.2921  1.9379  0.5299
    6CHL1   C20  420   3.223   2.609   9.576 -0.2886  0.5691  0.1299
    6CHL1   H20  421   3.145   2.536   9.606  0.5950  0.3154  1.8838
    6CHL1   C21  422   3.365   2.549   9.610 -0.2346  0.0898  0.1191
    6CHL1  H21A  423   3.360   2.495   9.707 -2.5501 -2.8436 -1.5167
    6CHL1  H21B  424   3.442   2.629   9.612  0.7519 -0.7950 -1.0527
    6CHL1  H21C  425   3.394   2.469   9.538 -1.4166 -0.1664 -0.0741
    6CHL1   C22  426   3.239   2.632   9.425 -0.0706  1.1296  0.0612
    6CHL1  H22A  427   3.156   2.692   9.382 -1.2358  0.3021  1.1263
    6CHL1  H22B  428   3.340   2.670   9.400  0.8941 -0.8498  0.8543
    6CHL1   C23  429   3.229   2.499   9.345 -0.3032 -0.5054  0.0956
    6CHL1  H23A  430   3.311   2.431   9.375  0.9757  1.2741  0.7065
    6CHL1  H23B  431   3.151   2.435   9.392  1.3965 -1.7147  1.3111
    6CHL1   C24  432   3.214   2.506   9.195  0.2546  0.0566 -0.2015
    6CHL1  H24A  433   3.291   2.568   9.144  2.7219 -3.7840 -1.3827
    6CHL1  H24B  434   3.227   2.401   9.162  0.6899  0.1670 -0.3853
    6CHL1   C25  435   3.076   2.557   9.134  0.0339  0.5875  0.1775
    6CHL1   H25  436   3.062   2.654   9.188 -2.7247  1.1813 -1.5102
    6CHL1   C26  437   3.080   2.575   8.990 -0.3788  0.0654 -0.2112
    6CHL1  H26A  438   3.112   2.475   8.952 -0.5599 -0.4182  0.9032
    6CHL1  H26B  439   2.981   2.585   8.941  0.1049 -2.2125 -1.7942
    6CHL1  H26C  440   3.151   2.657   8.968 -1.4774  1.0581 -0.0859
    6CHL1   C27  441   2.955   2.463   9.169  0.7683  0.9582 -0.0411
    6CHL1  H27A  442   2.944   2.477   9.279 -1.5114 -0.1374 -0.1174
    6CHL1  H27B  443   2.859   2.498   9.125 -0.3703 -0.4864  1.2490
    6CHL1  H27C  444   2.977   2.361   9.133  0.6184  1.5873 -1.9644
    7CHL1    C3  445   6.148   6.353  10.303 -0.5337  0.3652 -0.7262
    7CHL1    H3  446   6.255   6.353  10.275  0.1410  0.5468  1.7897
    7CHL1    O3  447   6.133   6.320  10.442  0.2016  0.6093 -0.2420
    7CHL1   H3'  448   6.052   6.366  10.465 -0.0768  1.0244 -1.9479
    7CHL1    C4  449   6.086   6.492  10.277  0.0931  0.6153  0.2507
    7CHL1   H4A  450   5.988   6.495  10.328 -0.7299  0.0338 -1.2645
    7CHL1   H4B  451   6.154   6.567  10.324  0.8651 -0.8613  1.5294
    7CHL1    C5  452   6.069   6.527  10.133 -0.5268 -0.2263  0.5998
    7CHL1    C6  453   6.132   6.637  10.085  0.0077  0.2430 -0.6922
    7CHL1    H6  454   6.187   6.701  10.156  0.7961 -2.4198  1.1717
    7CHL1    C7  455   6.106   6.691   9.946 -0.4380  0.1775  0.5238
    7CHL1   H7A  456   6.068   6.794   9.966 -1.9918 -0.7950  2.6953
    7CHL1   H7B  457   6.200   6.696   9.887 -2.2034  1.8398 -2.2666
    7CHL1    C8  458   6.001   6.609   9.865 -0.3383  0.6659 -0.4258
    7CHL1    H8  459   5.898   6.640   9.895  0.0273 -0.6225  2.3253
    7CHL1   C14  460   6.014   6.624   9.715  0.4187 -0.0298 -0.2466
    7CHL1   H14  461   6.102   6.564   9.685  0.8873 -0.1178  1.2365
    7CHL1   C15  462   6.055   6.771   9.674 -0.1601 -0.9223 -0.0474
    7CHL1  H15A  463   5.996   6.851   9.723  0.3896  0.0310 -0.9070
    7CHL1  H15B  464   6.162   6.794   9.697 -0.5122  0.0927  0.6285
    7CHL1   C16  465   6.017   6.767   9.526 -0.2578 -0.6138  0.4942
    7CHL1  H16A  466   5.933   6.837   9.502  0.5657  0.2993  0.2512
    7CHL1  H16B  467   6.102   6.794   9.460 -1.2431  0.1601 -0.4914
    7CHL1   C17  468   5.976   6.616   9.489 -0.1466 -0.5376 -0.1328
    7CHL1   H17  469   6.068   6.556   9.472  0.0614  0.4825 -2.8618
    7CHL1   C13  470   5.914   6.565   9.621 -0.4443 -0.1947  0.9761
    7CHL1   C18  471   5.771   6.618   9.657  0.2795 -0.5816  0.2137
    7CHL1  H18A  472   5.741   6.602   9.763  1.1554  0.1592  0.5884
    7CHL1  H18B  473   5.761   6.725   9.631 -3.5979  0.4369  5.0964
    7CHL1  H18C  474   5.692   6.583   9.588  0.8093  2.3651 -1.9680
    7CHL1   C12  475   5.929   6.413   9.646  0.3084  0.0460 -0.1927
    7CHL1  H12A  476   5.855   6.361   9.581  0.0214 -0.6702  0.7092
    7CHL1  H12B  477   6.024   6.381   9.597  1.8204  3.4094  0.4102
    7CHL1   C11  478   5.915   6.375   9.792 -0.1924 -0.0329 -0.7125
    7CHL1  H11A  479   5.811   6.399   9.823 -0.4212 -0.0922 -1.4283
    7CHL1  H11B  480   5.941   6.267   9.800 -1.9104 -0.3879  0.6001
    7CHL1    C9  481   6.015   6.457   9.895  0.2329  0.7994  0.3609
    7CHL1    H9  482   6.120   6.440   9.866  1.0863  4.1893  1.2529
    7CHL1   C10  483   6.000   6.428  10.044  0.3799  0.3638  0.1514
    7CHL1   C19  484   5.849   6.427  10.084  0.0521 -0.5351 -0.3901
    7CHL1  H19A  485   5.801   6.337  10.041 -0.2719 -0.2760 -0.5700
    7CHL1  H19B  486   5.846   6.410  10.194 -1.8274 -2.0169 -0.6397
    7CHL1  H19C  487   5.801   6.525  10.063  0.5984 -0.4722 -1.3608
    7CHL1    C1  488   6.061   6.287  10.068  0.4063 -0.2842 -0.2315
    7CHL1   H1A  489   6.006   6.211  10.009 -0.0792 -0.5015  0.4973
    7CHL1   H1B  490   6.163   6.289  10.024  0.3872 -1.7183 -0.3666
    7CHL1    C2  491   6.075   6.242  10.216  0.1138  0.0597 -0.7737
    7CHL1   H2A  492   6.137   6.150  10.216  1.5541  1.0043 -0.2678
    7CHL1   H2B  493   5.977   6.218  10.263  0.3973 -2.6464 -1.5127
    7CHL1   C20  494   5.887   6.607   9.366 -0.4306 -0.5199 -0.9213
    7CHL1   H20  495   5.787   6.653   9.383  0.2810  0.3799  0.8887
    7CHL1   C21  496   5.868   6.464   9.324  0.5675 -0.0211 -0.2096
    7CHL1  H21A  497   5.781   6.415   9.374  0.8419 -0.1316  0.1567
    7CHL1  H21B  498   5.962   6.405   9.332  1.3874  1.1093 -1.2954
    7CHL1  H21C  499   5.848   6.470   9.214  0.1602 -2.1218 -0.2722
    7CHL1   C22  500   5.949   6.684   9.244  0.2939 -0.4021 -0.1619
    7CHL1  H22A  501   5.874   6.687   9.162  0.7978 -0.5439 -0.6294
    7CHL1  H22B  502   5.970   6.789   9.273 -1.9186 -0.1941  0.8381
    7CHL1   C23  503   6.069   6.621   9.182  0.5080  0.3819 -0.8508
    7CHL1  H23A  504   6.140   6.586   9.261 -1.1354 -1.9473 -0.3494
    7CHL1  H23B  505   6.034   6.531   9.127  0.2951 -1.5086  2.2350
    7CHL1   C24  506   6.141   6.703   9.074  0.2385 -0.0295 -0.4398
    7CHL1  H24A  507   6.058   6.745   9.012  1.2443  2.2853 -0.2480
    7CHL1  H24B  508   6.192   6.791   9.119 -0.0563  0.8191 -1.7144
    7CHL1   C25  509   6.231   6.608   8.989 -0.2961  0.2048  0.2334
    7CHL1   H25  510   6.176   6.512   8.976  1.7473 -0.9274 -0.2869
    7CHL1   C26  511   6.248   6.669   8.852 -0.2930 -0.4701  0.4062
    7CHL1  H26A  512   6.153   6.678   8.796 -0.1058 -1.1911 -0.0212
    7CHL1  H26B  513   6.293   6.770   8.842 -1.1851  0.0843  1.7738
    7CHL1  H26C  514   6.313   6.600   8.795 -0.9182 -2.3735  1.9367
    7CHL1   C27  515   6.373   6.584   9.058  0.4828  0.0354 -0.0460
    7CHL1  H27A  516   6.436   6.512   9.002  2.2722 -1.0635  3.2223
    7CHL1  H27B  517   6.432   6.678   9.049  0.6695 -0.1769 -1.0053
    7CHL1  H27C  518   6.366   6.548   9.163 -0.5853  1.6879  0.4792
    8CHL1    C3  519   6.752   1.205  10.259  0.5260  1.2189  0.4964
    8CHL1    H3  520   6.833   1.143  10.215  0.5480 -0.0020  2.2052
    8CHL1    O3  521   6.787   1.236  10.391 -0.4751  0.1355 -0.0433
    8CHL1   H3'  522   6.769   1.329  10.410  1.2708  0.5787 -0.5053
    8CHL1    C4  523   6.742   1.331  10.166 -0.0092  0.5278 -0.1218
    8CHL1   H4A  524   6.666   1.401  10.206  1.0251  0.5045  2.0101
    8CHL1   H4B  525   6.836   1.388  10.182  1.7454 -1.8711 -1.5000
    8CHL1    C5  526   6.715   1.291  10.016  0.1780  0.5257  0.2500
    8CHL1    C6  527   6.798   1.323   9.918 -0.0621  1.1285 -0.0608
    8CHL1    H6  528   6.887   1.384   9.941  1.1563 -0.4627 -0.5003
    8CHL1    C7  529   6.772   1.280   9.772 -0.1287  0.1130 -0.7478
    8CHL1   H7A  530   6.807   1.360   9.704 -0.5400  1.9386  1.1315
    8CHL1   H7B  531   6.844   1.197   9.757 -0.2428 -0.2629  0.6745
    8CHL1    C8  532   6.621   1.247   9.747  1.2099 -0.0530 -0.8491
    8CHL1    H8  533   6.554   1.336   9.749 -2.2818 -2.5804  1.1774
    8CHL1   C14  534   6.600   1.180   9.612 -0.2517 -0.1132 -0.3734
    8CHL1   H14  535   6.654   1.084   9.622 -2.8596 -1.6110 -0.3737
    8CHL1   C15  536   6.656   1.250   9.489 -0.3797 -0.0724  0.0502
    8CHL1  H15A  537   6.634   1.359   9.491 -1.1480 -0.2305  0.3401
    8CHL1  H15B  538   6.764   1.226   9.489 -0.0388  1.4548 -0.4729
    8CHL1   C16  539   6.588   1.180   9.377 -0.4604  0.2865  0.3961
    8CHL1  H16A  540   6.534   1.252   9.312 -2.0382 -1.5956 -0.4204
    8CHL1  H16B  541   6.662   1.138   9.306  0.4178  2.6233 -0.1371
    8CHL1   C17  542   6.484   1.074   9.432 -0.3096  0.2592  0.3383
    8CHL1   H17  543   6.533   0.974   9.443  0.8929  0.6894 -1.0119
    8CHL1   C13  544   6.458   1.131   9.574 -0.5482  0.2217  0.3350
    8CHL1   C18  545   6.363   1.252   9.571  0.8189  0.1092 -0.2545
    8CHL1  H18A  546   6.336   1.296   9.669 -0.1325  0.7352 -0.7885
    8CHL1  H18B  547   6.400   1.330   9.501 -0.0958 -0.1248 -1.0056
    8CHL1  H18C  548   6.266   1.223   9.527  1.2639  0.6067 -1.6086
    8CHL1   C12  549   6.417   1.031   9.679 -0.0852 -0.2382 -0.2525
    8CHL1  H12A  550   6.314   0.990   9.665 -0.2397 -0.0476  0.3308
    8CHL1  H12B  551   6.481   0.940   9.679  1.2640  0.6905  0.4633
    8CHL1   C11  552   6.438   1.076   9.822 -0.5231 -0.1267  0.1767
    8CHL1  H11A  553   6.352   1.146   9.826 -0.9024 -0.2995 -2.9745
    8CHL1  H11B  554   6.432   0.989   9.889  0.3766  2.2396  3.4381
    8CHL1    C9  555   6.571   1.154   9.854  0.1779  0.9005  0.5782
    8CHL1    H9  556   6.645   1.073   9.835 -1.0153 -0.0573 -0.0606
    8CHL1   C10  557   6.592   1.205  10.000  0.6991  0.2617 -0.0658
    8CHL1   C19  558   6.468   1.298  10.031  0.7773  0.5421 -0.5554
    8CHL1  H19A  559   6.443   1.374   9.953  0.3092  0.0749 -0.8557
    8CHL1  H19B  560   6.369   1.252  10.047  0.2702  1.6494 -0.4323
    8CHL1  H19C  561   6.482   1.354  10.126 -1.1508  0.5635 -0.2674
    8CHL1    C1  562   6.600   1.088  10.097 -0.0926 -0.2896 -0.3728
    8CHL1   H1A  563   6.501   1.037  10.091 -1.3757  1.9251  1.0396
    8CHL1   H1B  564   6.680   1.018  10.065 -1.4092 -1.7854 -0.4790
    8CHL1    C2  565   6.621   1.125  10.247  0.0031 -0.4647 -1.0588
    8CHL1   H2A  566   6.623   1.031  10.305 -3.7113  1.0115  1.6888
    8CHL1   H2B  567   6.530   1.183  10.274  0.2738 -0.5148  0.0074
    8CHL1   C20  568   6.360   1.054   9.336  0.0420 -0.5018  0.2674
    8CHL1   H20  569   6.315   1.156   9.333  0.4539 -0.3386 -0.5416
    8CHL1   C21  570   6.264   0.946   9.392 -0.2351 -0.3910 -0.0851
    8CHL1  H21A  571   6.196   0.985   9.471 -0.3599  0.3069 -0.5312
    8CHL1  H21B  572   6.309   0.852   9.430 -1.3811 -0.9911 -0.1860
    8CHL1  H21C  573   6.186   0.903   9.325 -1.0203 -0.4443  0.8376
    8CHL1   C22  574   6.406   1.023   9.195  0.4186 -0.3702 -0.3160
    8CHL1  H22A  575   6.478   1.101   9.163  0.0115 -0.0151 -0.3611
    8CHL1  H22B  576   6.454   0.923   9.206  2.1251  0.5072  0.3536
    8CHL1   C23  577   6.294   1.014   9.082  0.1235 -0.0248 -0.4937
    8CHL1  H23A  578   6.245   0.916   9.102 -0.5617  0.5345  0.5834
    8CHL1  H23B  579   6.239   1.111   9.076  0.0532  0.0714  1.5081
    8CHL1   C24  580   6.366   1.004   8.947  0.7523  0.2517  0.0932
    8CHL1  H24A  581   6.436   1.090   8.941  0.1355  0.6926 -1.0557
    8CHL1  H24B  582   6.436   0.918   8.950 -1.2845 -1.4125  1.3069
    8CHL1   C25  583   6.285   0.996   8.810  0.3636  0.5987  0.1524
    8CHL1   H25  584   6.217   0.909   8.826 -1.0444  1.4839 -0.9209
    8CHL1   C26  585   6.214   1.130   8.778 -0.2232 -0.5282 -0.5074
    8CHL1  H26A  586   6.147   1.170   8.857 -1.6256 -2.5177 -0.6767
    8CHL1  H26B  587   6.284   1.215   8.759 -1.2257  0.5672  0.6138
    8CHL1  H26C  588   6.156   1.121   8.684  2.4378 -0.5127 -2.2142
    8CHL1   C27  589   6.385   0.962   8.700 -0.0157 -0.0999  0.1896
    8CHL1  H27A  590   6.335   0.975   8.602  2.0230  0.3112 -0.8190
    8CHL1  H27B  591   6.477   1.022   8.704 -0.2151  0.1680  0.9025
    8CHL1  H27C  592   6.418   0.856   8.694  1.2559  0.3691 -1.4564
    9CHL1    C3  593   2.685   4.016  10.355  0.1092  0.2693  0.3830
    9CHL1    H3  594   2.586   3.969  10.341  1.3091 -1.7126 -1.6623
    9CHL1    O3  595   2.727   4.031  10.484 -0.0265  0.0909 -0.1589
    9CHL1   H3'  596   2.720   4.124  10.505  0.4868  0.3854 -1.2399
    9CHL1    C4  597   2.795   3.934  10.278  0.1771  0.5340 -0.0346
    9CHL1   H4A  598   2.893   3.974  10.312  0.9887 -0.6640 -0.9644
    9CHL1   H4B  599   2.782   3.830  10.314 -3.4948  0.4051 -1.4838
    9CHL1    C5  600   2.779   3.949  10.127  0.1614 -0.6143  0.1617
    9CHL1    C6  601   2.779   3.834  10.058 -0.4756 -1.3074  0.1473
    9CHL1    H6  602   2.816   3.746  10.114  2.7122 -0.0368  0.1139
    9CHL1    C7  603   2.746   3.833   9.909  0.1385 -0.0974 -0.6813
    9CHL1   H7A  604   2.817   3.772   9.850 -1.1058 -2.9372  0.6719
    9CHL1   H7B  605   2.646   3.787   9.895 -0.0226 -0.6246  1.9416
    9CHL1    C8  606   2.749   3.972   9.843 -0.9892  0.0677  0.4383
    9CHL1    H8  607   2.855   4.000   9.825 -1.1086  0.2269 -0.0087
    9CHL1   C14  608   2.679   3.972   9.708 -0.4724  0.3324  0.8909
    9CHL1   H14  609   2.576   3.949   9.741  0.3553 -0.3831  3.0629
    9CHL1   C15  610   2.708   3.864   9.598  0.5917  0.0263 -0.3223
    9CHL1  H15A  611   2.818   3.849   9.599  0.5200 -0.6903  2.1866
    9CHL1  H15B  612   2.655   3.775   9.638 -1.6169  0.8161 -1.4549
    9CHL1   C16  613   2.660   3.926   9.470  0.9164 -0.1093 -0.0705
    9CHL1  H16A  614   2.741   3.948   9.397 -1.1938  1.8446 -1.9438
    9CHL1  H16B  615   2.573   3.872   9.427  1.2947 -1.7670  1.2073
    9CHL1   C17  616   2.595   4.063   9.513  0.4897  0.0199  0.0816
    9CHL1   H17  617   2.495   4.026   9.543  1.1997 -2.0541 -0.0457
    9CHL1   C13  618   2.664   4.106   9.644  0.8471 -0.2233 -0.1042
    9CHL1   C18  619   2.797   4.175   9.600 -0.4073 -0.1926 -0.1060
    9CHL1  H18A  620   2.785   4.271   9.545  3.9326  1.1352  1.0831
    9CHL1  H18B  621   2.859   4.189   9.691 -1.9665 -1.2773  1.1509
    9CHL1  H18C  622   2.845   4.094   9.541 -0.2418  0.7034 -1.2209
    9CHL1   C12  623   2.595   4.204   9.725 -0.5272 -0.5478 -0.2775
    9CHL1  H12A  624   2.593   4.306   9.680  1.1888 -1.2611 -2.0556
    9CHL1  H12B  625   2.492   4.166   9.742 -1.3831  1.4218 -0.9079
    9CHL1   C11  626   2.659   4.221   9.859  0.2678 -0.9493 -0.5035
    9CHL1  H11A  627   2.754   4.277   9.845 -1.5614  2.2678 -0.6834
    9CHL1  H11B  628   2.591   4.280   9.924 -0.5016 -0.8572 -1.3807
    9CHL1    C9  629   2.683   4.080   9.929 -0.3118  0.4061 -0.3447
    9CHL1    H9  630   2.580   4.039   9.938  0.2680 -0.8167  0.7495
    9CHL1   C10  631   2.750   4.090  10.066  0.0988 -0.2873  0.3199
    9CHL1   C19  632   2.884   4.170  10.054 -0.7321  0.1164  0.1140
    9CHL1  H19A  633   2.926   4.178  10.157  0.7938 -1.4190 -0.3594
    9CHL1  H19B  634   2.968   4.128   9.995 -0.8428  0.6774 -0.4386
    9CHL1  H19C  635   2.861   4.268  10.008 -0.7538 -0.1521 -0.4453
    9CHL1    C1  636   2.658   4.170  10.155 -0.1616  0.1348 -0.0335
    9CHL1   H1A  637   2.666   4.276  10.125 -0.5369  0.6644  1.7154
    9CHL1   H1B  638   2.558   4.123  10.136 -0.0444 -0.1355  0.0092
    9CHL1    C2  639   2.688   4.160  10.303  0.0988 -0.0713  0.0945
    9CHL1   H2A  640   2.621   4.224  10.364 -2.3871 -1.5292 -1.0110
    9CHL1   H2B  641   2.792   4.193  10.317 -0.5349  3.0216 -2.0378
    9CHL1   C20  642   2.582   4.158   9.392  0.0595 -0.1590 -0.6295
    9CHL1   H20  643   2.680   4.197   9.356  0.6551 -0.9423  0.0925
    9CHL1   C21  644   2.493   4.278   9.434  0.0978  0.1499  0.1546
    9CHL1  H21A  645   2.482   4.339   9.341  0.4876 -0.5298 -0.3481
    9CHL1  H21B  646   2.546   4.347   9.502  0.9392 -0.5366  0.1997
    9CHL1  H21C  647   2.396   4.241   9.472  0.0216 -0.5383 -0.6929
    9CHL1   C22  648   2.515   4.096   9.273  0.0802 -0.0895 -0.1939
    9CHL1  H22A  649   2.575   4.012   9.232  1.3596  1.3563 -1.3583
    9CHL1  H22B  650   2.424   4.043   9.308  1.2950 -0.1225  3.0521
    9CHL1   C23  651   2.507   4.183   9.146  0.8419 -0.5049  0.2636
    9CHL1  H23A  652   2.469   4.286   9.163 -0.4972 -1.0328  0.5420
    9CHL1  H23B  653   2.601   4.185   9.088  1.7730  0.1847  1.7510
    9CHL1   C24  654   2.411   4.128   9.049 -0.1984 -0.5495 -0.4118
    9CHL1  H24A  655   2.438   4.022   9.027  1.9032 -0.4125  1.3502
    9CHL1  H24B  656   2.305   4.121   9.084  0.4418  3.7529  2.6807
    9CHL1   C25  657   2.412   4.216   8.920  0.0503 -0.0157 -0.4064
    9CHL1   H25  658   2.518   4.248   8.911  0.0583  0.6115  1.6639
    9CHL1   C26  659   2.370   4.132   8.810 -0.7770 -0.8519  0.0787
    9CHL1  H26A  660   2.266   4.099   8.829 -0.8317  0.7393  2.7321
    9CHL1  H26B  661   2.373   4.196   8.719 -2.4350 -0.6122  0.1816
    9CHL1  H26C  662   2.432   4.041   8.795 -1.6924 -1.5217  0.3600
    9CHL1   C27  663   2.321   4.341   8.921  0.5569  0.2406  0.3942
    9CHL1  H27A  664   2.217   4.301   8.911  0.9123 -0.8851  1.0802
    9CHL1  H27B  665   2.330   4.387   9.022 -0.3014  2.2790 -0.4356
    9CHL1  H27C  666   2.348   4.423   8.852  2.0719  1.0583  1.9275
   10CHL1    C3  667   1.938   1.134   9.920  0.3153  0.0466  0.4803
   10CHL1    H3  668   1.962   1.026   9.925 -0.2768 -0.1752 -1.1890
   10CHL1    O3  669   2.023   1.194  10.020  0.2259  0.6036  0.4036
   10CHL1   H3'  670   1.973   1.191  10.102 -0.1427 -2.1014  0.1295
   10CHL1    C4  671   1.961   1.198   9.780 -0.0166  0.4595 -0.0724
   10CHL1   H4A  672   1.967   1.308   9.790 -1.1385  0.6791 -1.6516
   10CHL1   H4B  673   2.065   1.173   9.750 -0.5101 -1.1723 -0.4895
   10CHL1    C5  674   1.872   1.141   9.673  0.2198  0.3674 -0.3123
   10CHL1    C6  675   1.910   1.065   9.570  0.3600 -0.6720  0.7240
   10CHL1    H6  676   2.018   1.047   9.559  0.4250 -0.8293  1.6337
   10CHL1    C7  677   1.822   1.014   9.459  0.5179 -0.0371  0.1339
   10CHL1   H7A  678   1.867   1.032   9.359 -1.3093 -1.3151 -0.9564
   10CHL1   H7B  679   1.801   0.906   9.477  0.7785  0.0920  1.2859
   10CHL1    C8  680   1.691   1.089   9.456 -0.2712 -0.1272  0.3528
   10CHL1    H8  681   1.702   1.194   9.420 -0.1658 -1.0599 -2.4646
   10CHL1   C14  682   1.593   1.004   9.364 -1.0935  0.0087  0.5448
   10CHL1   H14  683   1.573   0.903   9.406 -0.6343 -0.5351 -0.5312
   10CHL1   C15  684   1.638   0.969   9.217 -0.3444  0.4464  0.1316
   10CHL1  H15A  685   1.683   1.060   9.170  1.1955 -0.1040  0.5120
   10CHL1  H15B  686   1.707   0.882   9.220 -1.5175 -0.4319  2.6444
   10CHL1   C16  687   1.508   0.929   9.152  0.2919 -0.6470  0.4952
   10CHL1  H16A  688   1.503   1.001   9.067  0.0630 -0.5713  0.5727
   10CHL1  H16B  689   1.503   0.829   9.105 -3.2985 -0.7578  0.9321
   10CHL1   C17  690   1.393   0.963   9.255  0.2527 -0.3127  0.5472
   10CHL1   H17  691   1.369   0.867   9.305  1.3574 -0.6196  0.4964
   10CHL1   C13  692   1.455   1.065   9.351  0.0407 -0.5900  0.3890
   10CHL1   C18  693   1.456   1.208   9.281  0.2809  0.2727 -0.1879
   10CHL1  H18A  694   1.352   1.247   9.281  0.3596  0.5245  1.3007
   10CHL1  H18B  695   1.515   1.281   9.341 -1.3787  0.3802  1.3730
   10CHL1  H18C  696   1.478   1.202   9.173 -0.2482 -0.6081 -0.2507
   10CHL1   C12  697   1.396   1.078   9.486  0.5202  0.1918 -0.5590
   10CHL1  H12A  698   1.299   1.130   9.479  1.0967  2.0292  3.4715
   10CHL1  H12B  699   1.373   0.978   9.527 -0.8618  1.5907  2.1741
   10CHL1   C11  700   1.487   1.153   9.593 -0.1228  0.4590 -0.0148
   10CHL1  H11A  701   1.495   1.257   9.558 -0.3520  0.5222  0.1175
   10CHL1  H11B  702   1.438   1.151   9.693  0.4133 -1.4229  0.2274
   10CHL1    C9  703   1.635   1.098   9.601 -0.0143 -0.0234 -0.6237
   10CHL1    H9  704   1.625   0.992   9.632  0.7073  0.9056  2.9946
   10CHL1   C10  705   1.724   1.168   9.705  0.1773 -0.3533  0.9061
   10CHL1   C19  706   1.704   1.318   9.691  0.2675 -0.0384 -0.1434
   10CHL1  H19A  707   1.752   1.382   9.769 -0.2086 -0.5540  0.5782
   10CHL1  H19B  708   1.730   1.361   9.592  3.2526  3.1033  1.8400
   10CHL1  H19C  709   1.598   1.341   9.716  0.3660 -1.0195  1.2156
   10CHL1    C1  710   1.696   1.125   9.849  0.2796 -0.0348 -0.8536
   10CHL1   H1A  711   1.597   1.172   9.872  0.5774  1.0930 -1.8590
   10CHL1   H1B  712   1.684   1.015   9.851  2.6327 -0.3000  0.8948
   10CHL1    C2  713   1.794   1.158   9.961  0.6000 -0.2007  0.3024
   10CHL1   H2A  714   1.761   1.099  10.049 -2.9049 -0.5251 -1.1824
   10CHL1   H2B  715   1.791   1.264   9.993 -0.2589 -0.3344  0.6790
   10CHL1   C20  716   1.257   0.995   9.179  0.3873 -0.2438 -0.0887
   10CHL1   H20  717   1.271   1.081   9.110 -0.5041  0.3987  0.5244
   10CHL1   C21  718   1.140   1.020   9.276  0.3058 -0.1574 -0.1546
   10CHL1  H21A  719   1.146   0.958   9.367  0.6669 -2.1417 -1.4925
   10CHL1  H21B  720   1.038   1.009   9.235  0.7786  0.1556 -1.4794
   10CHL1  H21C  721   1.149   1.128   9.302 -1.0595  0.6714 -2.8940
   10CHL1   C22  722   1.203   0.868   9.105 -0.0755  0.6151  0.0978
   10CHL1  H22A  723   1.287   0.809   9.060  0.7278  0.6264  1.5529
   10CHL1  H22B  724   1.149   0.808   9.181 -1.0913  0.3798 -0.8020
   10CHL1   C23  725   1.108   0.897   8.996 -0.7535  0.7041  0.4413
   10CHL1  H23A  726   1.016   0.945   9.035 -0.4523  1.5091  0.1743
   10CHL1  H23B  727   1.162   0.968   8.930 -1.5136 -0.1254 -1.0867
   10CHL1   C24  728   1.051   0.772   8.915 -0.0564  0.5372  0.9513
   10CHL1  H24A  729   1.135   0.715   8.871 -0.9259  1.4714 -2.0289
   10CHL1  H24B  730   0.994   0.700   8.978  0.2631 -0.2985  0.2887
   10CHL1   C25  731   0.952   0.816   8.806 -0.3868 -1.3672 -0.0825
   10CHL1   H25  732   0.874   0.869   8.866 -0.0759 -2.3226  1.1820
   10CHL1   C26  733   1.016   0.898   8.693  0.1909  0.0925  0.3239
   10CHL1  H26A  734   1.120   0.869   8.664  0.8377  0.7252  1.9342
   10CHL1  H26B  735   0.952   0.918   8.605 -1.3560  2.4210  1.9054
   10CHL1  H26C  736   1.030   1.001   8.733 -1.2897  0.2046  0.5622
   10CHL1   C27  737   0.889   0.702   8.736  0.0658 -0.6960  0.1991
   10CHL1  H27A  738   0.798   0.734   8.681 -1.0119 -2.2106  1.0902
   10CHL1  H27B  739   0.951   0.656   8.655 -0.4548 -1.6947  0.3674
   10CHL1  H27C  740   0.857   0.620   8.803 -1.0472  0.0495  0.5930
   11CHL1    C3  741   4.243   4.461   9.943 -0.4460 -0.5892 -0.1215
   11CHL1    H3  742   4.330   4.523   9.914 -0.4654 -0.4527  0.1084
   11CHL1    O3  743   4.237   4.448  10.086 -0.2500 -0.1326 -0.1063
   11CHL1   H3'  744   4.324   4.439  10.125 -1.2796  2.4654  3.0455
   11CHL1    C4  745   4.105   4.518   9.903  0.5738 -0.6334 -0.3308
   11CHL1   H4A  746   4.027   4.444   9.931 -1.3153  1.3635 -0.2228
   11CHL1   H4B  747   4.098   4.611   9.962  1.5120 -0.1563 -0.9465
   11CHL1    C5  748   4.095   4.533   9.747 -0.5969 -0.5865 -0.8593
   11CHL1    C6  749   4.067   4.648   9.688  0.3031  0.4090 -0.2268
   11CHL1    H6  750   4.056   4.743   9.742 -0.9304  0.0834  0.1139
   11CHL1    C7  751   4.043   4.661   9.544 -0.2207  0.2235  0.3868
   11CHL1   H7A  752   3.953   4.721   9.521 -0.3542  0.2340  0.9260
   11CHL1   H7B  753   4.122   4.729   9.508  0.7925 -1.6097 -0.9623
   11CHL1    C8  754   4.035   4.530   9.467  0.1732  0.3686  0.2245
   11CHL1    H8  755   3.933   4.488   9.481  0.4154  0.5397  2.6014
   11CHL1   C14  756   4.062   4.554   9.314  0.2587 -0.2663 -0.2980
   11CHL1   H14  757   4.167   4.583   9.295  0.3968 -2.3191 -2.8992
   11CHL1   C15  758   3.993   4.670   9.247 -0.5206  0.3649  0.1770
   11CHL1  H15A  759   3.887   4.672   9.280 -1.0177  0.3129 -1.3588
   11CHL1  H15B  760   4.045   4.768   9.244 -0.0393  0.0934 -0.7751
   11CHL1   C16  761   3.987   4.634   9.098 -0.0414 -0.1355  0.6385
   11CHL1  H16A  762   3.890   4.634   9.045  0.6972  3.1572 -0.8593
   11CHL1  H16B  763   4.042   4.697   9.024 -2.2744 -0.8650 -1.7302
   11CHL1   C17  764   4.045   4.490   9.079  0.1509 -0.0972 -0.2438
   11CHL1   H17  765   4.155   4.501   9.070 -0.0404  1.2034 -1.0929
   11CHL1   C13  766   4.035   4.428   9.227 -0.6432 -0.6446 -0.7250
   11CHL1   C18  767   3.883   4.375   9.248 -0.3685 -0.0885  0.2413
   11CHL1  H18A  768   3.857   4.301   9.169 -1.0506  0.5152 -0.1057
   11CHL1  H18B  769   3.890   4.319   9.344 -1.5510  0.3842  0.6168
   11CHL1  H18C  770   3.812   4.460   9.260 -1.2316 -0.6143 -1.0513
   11CHL1   C12  771   4.147   4.334   9.273 -0.0413  0.3615 -1.1098
   11CHL1  H12A  772   4.156   4.237   9.219  0.1583 -0.7207  0.8233
   11CHL1  H12B  773   4.243   4.380   9.244 -0.7444  2.7694  0.2492
   11CHL1   C11  774   4.144   4.305   9.429  0.1863  0.0676 -0.3801
   11CHL1  H11A  775   4.062   4.237   9.459 -1.0758  1.3198 -0.9723
   11CHL1  H11B  776   4.245   4.262   9.445  0.7734  1.0730 -1.3048
   11CHL1    C9  777   4.134   4.427   9.518  0.1214 -0.2566  0.4165
   11CHL1    H9  778   4.229   4.482   9.505 -1.3060  2.0626 -0.5110
   11CHL1   C10  779   4.118   4.403   9.669  0.2983  0.3289 -0.6624
   11CHL1   C19  780   4.001   4.304   9.695 -0.0351  0.4022 -0.0730
   11CHL1  H19A  781   4.025   4.205   9.650  0.2533  0.7626 -0.7141
   11CHL1  H19B  782   3.982   4.292   9.804  0.0754 -2.0846 -0.3020
   11CHL1  H19C  783   3.908   4.336   9.643  0.1399  0.7995 -0.1427
   11CHL1    C1  784   4.244   4.339   9.723 -0.3685  0.5471  0.0971
   11CHL1   H1A  785   4.246   4.240   9.672 -3.1178  0.6871 -0.3671
   11CHL1   H1B  786   4.330   4.395   9.681  0.6905  0.9521  2.7548
   11CHL1    C2  787   4.250   4.325   9.877  0.2819  0.5623 -0.1286
   11CHL1   H2A  788   4.342   4.266   9.902 -0.9003 -2.4043 -2.4556
   11CHL1   H2B  789   4.171   4.251   9.899  0.9848 -1.0663 -2.7865
   11CHL1   C20  790   3.989   4.410   8.955  0.3273  0.7550 -0.5224
   11CHL1   H20  791   3.880   4.393   8.967  0.1935  1.4800 -0.7059
   11CHL1   C21  792   4.064   4.274   8.961 -0.1181 -0.1656 -0.0405
   11CHL1  H21A  793   4.174   4.267   8.943  0.4125  2.2531  1.9544
   11CHL1  H21B  794   4.026   4.213   8.876  0.9455  1.6817 -1.9246
   11CHL1  H21C  795   4.039   4.217   9.052  1.7791  0.3107  0.7922
   11CHL1   C22  796   4.013   4.487   8.820 -0.0455  0.2336 -0.7479
   11CHL1  H22A  797   3.992   4.594   8.838  1.6427  0.4811 -0.2281
   11CHL1  H22B  798   4.119   4.469   8.792  0.4871 -1.3556  2.1493
   11CHL1   C23  799   3.934   4.444   8.705 -0.4751  0.4285  0.6002
   11CHL1  H23A  800   3.970   4.347   8.664 -2.3461 -0.2638  0.5538
   11CHL1  H23B  801   3.827   4.434   8.733 -0.3711 -0.8140  0.5712
   11CHL1   C24  802   3.940   4.546   8.587  0.0231 -0.5297 -0.4323
   11CHL1  H24A  803   3.894   4.643   8.616 -3.2433 -2.3377  0.6219
   11CHL1  H24B  804   4.042   4.558   8.545  0.7680 -1.4801  1.0931
   11CHL1   C25  805   3.855   4.498   8.469 -0.6614  0.0932  0.1777
   11CHL1   H25  806   3.876   4.389   8.456 -0.3787  0.3582 -1.7306
   11CHL1   C26  807   3.706   4.510   8.495  0.4657 -0.5663 -0.0690
   11CHL1  H26A  808   3.672   4.615   8.511  1.1984 -0.7055  2.7712
   11CHL1  H26B  809   3.649   4.474   8.407  0.7738 -0.5924 -0.2552
   11CHL1  H26C  810   3.679   4.464   8.593 -1.1986 -1.3143 -0.8650
   11CHL1   C27  811   3.879   4.566   8.333 -0.8890 -0.2913  0.3950
   11CHL1  H27A  812   3.984   4.564   8.296 -0.8878  0.9013  0.3003
   11CHL1  H27B  813   3.826   4.512   8.252  1.6476  1.0253 -2.2535
   11CHL1  H27C  814   3.841   4.670   8.339 -2.4233 -0.8279  0.0729
   12CHL1    C3  815   1.014   0.775  10.351  0.0594 -0.2829 -0.1802
   12CHL1    H3  816   1.043   0.881  10.333  2.4525 -0.8356  0.3154
   12CHL1    O3  817   1.038   0.742  10.485 -0.0323  0.2371  0.1356
   12CHL1   H3'  818   0.978   0.669  10.502  0.1208 -0.1089 -0.7884
   12CHL1    C4  819   0.866   0.763  10.329 -0.4719 -0.3378 -0.6997
   12CHL1   H4A  820   0.833   0.664  10.366 -2.3127  0.1313 -1.0081
   12CHL1   H4B  821   0.812   0.838  10.392 -1.7707 -1.3663 -0.5676
   12CHL1    C5  822   0.842   0.788  10.177 -0.3918 -0.2417  0.4638
   12CHL1    C6  823   0.759   0.885  10.135 -0.4516 -0.1386  0.1772
   12CHL1    H6  824   0.709   0.944  10.213 -0.9860 -0.1498 -0.1557
   12CHL1    C7  825   0.723   0.893   9.985  0.9331 -0.5216 -0.5510
   12CHL1   H7A  826   0.614   0.916   9.978  0.7711 -0.7100  1.2059
   12CHL1   H7B  827   0.769   0.975   9.925 -1.9479  2.3666  1.0262
   12CHL1    C8  828   0.761   0.761   9.902  0.2818  0.1049 -0.0210
   12CHL1    H8  829   0.696   0.679   9.939  0.0013  0.8237  1.1089
   12CHL1   C14  830   0.740   0.796   9.753 -0.0803  0.0166 -0.9350
   12CHL1   H14  831   0.800   0.890   9.744  1.1327 -0.6608 -0.1794
   12CHL1   C15  832   0.592   0.835   9.722  0.4541  0.0794  0.3752
   12CHL1  H15A  833   0.531   0.754   9.769 -0.5420  1.1484  0.9658
   12CHL1  H15B  834   0.571   0.935   9.766 -0.8685  0.2527 -0.6057
   12CHL1   C16  835   0.590   0.813   9.569  0.2548 -0.0025 -0.5280
   12CHL1  H16A  836   0.508   0.737   9.562  0.8837 -0.5821 -1.8045
   12CHL1  H16B  837   0.559   0.896   9.502  2.2406  0.8855 -0.3685
   12CHL1   C17  838   0.735   0.762   9.530  0.3392 -0.2568  0.3429
   12CHL1   H17  839   0.805   0.843   9.500  1.8720 -0.2486  3.6442
   12CHL1   C13  840   0.784   0.693   9.654  0.1165  0.4741  0.7559
   12CHL1   C18  841   0.713   0.554   9.678 -0.1208  0.4714 -0.5423
   12CHL1  H18A  842   0.746   0.475   9.607 -1.3448 -0.7188  0.1739
   12CHL1  H18B  843   0.752   0.515   9.775  2.5512  0.5488 -1.5495
   12CHL1  H18C  844   0.603   0.567   9.692 -0.1071 -1.2582  1.4307
   12CHL1   C12  845   0.935   0.680   9.679  0.1324  0.3657  0.1384
   12CHL1  H12A  846   0.960   0.611   9.596 -3.0819 -1.3498  0.5065
   12CHL1  H12B  847   0.979   0.782   9.672  0.0112  0.3985 -0.1434
   12CHL1   C11  848   0.973   0.636   9.823  0.4095  0.0620 -0.3060
   12CHL1  H11A  849   0.940   0.532   9.841  0.8290 -0.0753 -0.3300
   12CHL1  H11B  850   1.082   0.629   9.840  0.5376  1.3675 -0.5086
   12CHL1    C9  851   0.906   0.734   9.930  0.2988  0.7126 -0.4966
   12CHL1    H9  852   0.944   0.839   9.923  3.9178 -0.2742  2.6478
   12CHL1   C10  853   0.918   0.698  10.080  0.2967  0.0423 -0.8133
   12CHL1   C19  854   0.863   0.552  10.107 -0.5123 -0.8177  0.3788
   12CHL1  H19A  855   0.882   0.518  10.211 -0.6523 -0.5154  0.5047
   12CHL1  H19B  856   0.753   0.537  10.092 -1.2393  1.9104  2.6051
   12CHL1  H19C  857   0.915   0.481  10.039  1.7560  1.6220 -0.5262
   12CHL1    C1  858   1.068   0.701  10.116  0.1203 -0.8419  0.4101
   12CHL1   H1A  859   1.114   0.616  10.062  3.6774  0.4103  1.2894
   12CHL1   H1B  860   1.118   0.792  10.076  0.5300 -0.6248  1.3791
   12CHL1    C2  861   1.097   0.681  10.265 -0.2470 -0.0197 -0.0318
   12CHL1   H2A  862   1.205   0.682  10.288 -0.1519  2.1937 -0.4207
   12CHL1   H2B  863   1.073   0.576  10.293 -0.4042 -0.1362 -0.6032
   12CHL1   C20  864   0.715   0.668   9.406 -0.4237 -0.2543  0.4341
   12CHL1   H20  865   0.662   0.574   9.429  1.3923 -0.8202  2.4784
   12CHL1   C21  866   0.851   0.619   9.357  0.0291  0.5821  0.2131
   12CHL1  H21A  867   0.910   0.547   9.418  0.8921  0.6085 -0.5817
   12CHL1  H21B  868   0.927   0.697   9.337 -1.2394  1.7823  0.0469
   12CHL1  H21C  869   0.850   0.569   9.258 -0.9644  1.6090 -0.3066
   12CHL1   C22  870   0.645   0.735   9.281  0.1492  0.1971  0.2259
   12CHL1  H22A  871   0.661   0.664   9.198  0.5680 -0.9590  1.2748
   12CHL1  H22B  872   0.539   0.752   9.310  0.0685  1.6477 -0.8809
   12CHL1   C23  873   0.712   0.866   9.230 -0.9543  0.0647  0.3046
   12CHL1  H23A  874   0.718   0.937   9.316  1.3356  1.6180 -1.0736
   12CHL1  H23B  875   0.818   0.856   9.198 -1.0973 -1.1754  0.1827
   12CHL1   C24  876   0.639   0.936   9.115 -0.5182  0.4023 -0.1962
   12CHL1  H24A  877   0.692   1.029   9.086 -0.4382  0.3587 -0.1894
   12CHL1  H24B  878   0.652   0.862   9.033  0.5502 -0.5310  0.8024
   12CHL1   C25  879   0.491   0.962   9.126  0.5966 -0.8034 -0.2117
   12CHL1   H25  880   0.442   0.865   9.151  0.6994 -0.9717 -0.6724
   12CHL1   C26  881   0.458   1.061   9.236  0.5339  0.3606  0.4196
   12CHL1  H26A  882   0.466   1.010   9.334  0.3216 -0.2858  0.1099
   12CHL1  H26B  883   0.536   1.140   9.234  2.1964 -1.2423 -0.9886
   12CHL1  H26C  884   0.362   1.113   9.219 -0.1949 -1.3074 -0.7502
   12CHL1   C27  885   0.441   1.022   9.000  0.5418 -1.2945  0.6812
   12CHL1  H27A  886   0.332   1.039   9.007  0.9242  1.7712 -0.3093
   12CHL1  H27B  887   0.501   1.110   8.971 -3.3004  1.1521 -0.1662
   12CHL1  H27C  888   0.454   0.957   8.911  0.8223 -2.8763  1.8480
   13CHL1    C3  889   6.525   2.791  10.110 -0.4376  0.4294 -0.9135
   13CHL1    H3  890   6.507   2.899  10.096  2.2803  0.9869 -0.3795
   13CHL1    O3  891   6.565   2.769  10.242  0.0095  0.4913  0.7130
   13CHL1   H3'  892   6.558   2.674  10.253 -0.2125  0.5192  0.8196
   13CHL1    C4  893   6.400   2.703  10.085 -0.3601 -0.1094  0.2407
   13CHL1   H4A  894   6.424   2.600  10.118  1.5439  0.8384  1.8724
   13CHL1   H4B  895   6.317   2.747  10.145  1.6056  3.1704  0.6915
   13CHL1    C5  896   6.355   2.707   9.941  0.3097 -0.3125  0.2165
   13CHL1    C6  897   6.227   2.733   9.904 -0.0422  0.7369 -0.1331
   13CHL1    H6  898   6.153   2.749   9.983  0.2104  0.6296  0.1253
   13CHL1    C7  899   6.172   2.736   9.758 -0.5234 -0.1315 -0.4530
   13CHL1   H7A  900   6.071   2.689   9.750 -0.0840 -1.1858  0.0771
   13CHL1   H7B  901   6.165   2.838   9.716 -0.1363 -0.4926 -1.3871
   13CHL1    C8  902   6.274   2.668   9.659  0.4048  0.8234  0.3645
   13CHL1    H8  903   6.262   2.558   9.669  0.9384  0.5510 -1.8182
   13CHL1   C14  904   6.246   2.705   9.515  0.1658 -0.1172  0.2480
   13CHL1   H14  905   6.257   2.815   9.504  1.9912 -0.3559 -0.4893
   13CHL1   C15  906   6.110   2.687   9.460  0.2907  0.2137 -0.2070
   13CHL1  H15A  907   6.078   2.582   9.476  0.9729 -0.2938 -2.0739
   13CHL1  H15B  908   6.027   2.746   9.504  1.0502 -0.0716  1.6498
   13CHL1   C16  909   6.132   2.730   9.313  0.5062  0.5227  0.3530
   13CHL1  H16A  910   6.066   2.671   9.247  1.4402  0.3886 -0.4641
   13CHL1  H16B  911   6.107   2.838   9.311 -0.7870  0.2826  2.2319
   13CHL1   C17  912   6.286   2.713   9.285  0.0231 -0.9006  0.9287
   13CHL1   H17  913   6.328   2.816   9.280 -0.5052 -0.7248  0.1688
   13CHL1   C13  914   6.347   2.646   9.407  0.7209 -0.8066  0.3210
   13CHL1   C18  915   6.324   2.495   9.404 -0.8885 -0.1949 -0.1349
   13CHL1  H18A  916   6.285   2.452   9.499  1.2340  3.0600  2.3082
   13CHL1  H18B  917   6.249   2.462   9.329  1.4423  1.9016 -3.4900
   13CHL1  H18C  918   6.422   2.448   9.381 -1.2455 -2.0352  1.8757
   13CHL1   C12  919   6.490   2.691   9.440  0.2243 -0.1112 -0.1278
   13CHL1  H12A  920   6.573   2.662   9.372  0.4361  0.2798 -0.0376
   13CHL1  H12B  921   6.489   2.802   9.441  1.5329 -0.1008  1.2960
   13CHL1   C11  922   6.527   2.652   9.587 -0.3900 -0.1565 -0.0401
   13CHL1  H11A  923   6.534   2.541   9.584 -0.1219 -0.1076 -2.8172
   13CHL1  H11B  924   6.623   2.702   9.614 -0.4519  0.3843 -0.8139
   13CHL1    C9  925   6.419   2.700   9.694 -0.2321 -0.0148  0.8706
   13CHL1    H9  926   6.426   2.809   9.679 -1.1165  0.1554  1.6966
   13CHL1   C10  927   6.464   2.678   9.837  0.3136 -0.7063 -0.1372
   13CHL1   C19  928   6.487   2.528   9.860  0.5255 -0.2694 -0.6882
   13CHL1  H19A  929   6.393   2.471   9.849 -0.4705  0.8569  1.6701
   13CHL1  H19B  930   6.565   2.487   9.792  1.3274  2.3248 -1.4135
   13CHL1  H19C  931   6.525   2.506   9.962 -0.9140  0.2331 -0.0335
   13CHL1    C1  932   6.583   2.775   9.871  0.1090  0.1505 -0.2468
   13CHL1   H1A  933   6.668   2.748   9.805 -0.7997  2.7398 -2.5416
   13CHL1   H1B  934   6.559   2.878   9.837  0.0287  0.7146  1.4609
   13CHL1    C2  935   6.640   2.765  10.010 -0.9111  0.5537  0.5959
   13CHL1   H2A  936   6.721   2.841  10.007 -0.8775  0.4808 -0.4420
   13CHL1   H2B  937   6.684   2.665  10.025 -1.0692  0.4732  0.5239
   13CHL1   C20  938   6.321   2.656   9.137 -0.1781 -0.6509  0.5093
   13CHL1   H20  939   6.274   2.556   9.132 -1.5083 -0.2640  3.7645
   13CHL1   C21  940   6.472   2.653   9.117 -0.2982 -0.2136  0.3765
   13CHL1  H21A  941   6.511   2.580   9.191 -1.0490  0.9270  1.9341
   13CHL1  H21B  942   6.522   2.750   9.134  0.0015 -0.6713  2.3300
   13CHL1  H21C  943   6.492   2.611   9.016 -1.7751  1.2211 -0.5364
   13CHL1   C22  944   6.251   2.744   9.030  0.2047  0.1474 -0.1422
   13CHL1  H22A  945   6.282   2.687   8.939  1.3072  1.0357 -0.3338
   13CHL1  H22B  946   6.143   2.727   9.052  0.4027 -0.8858  0.0503
   13CHL1   C23  947   6.283   2.895   9.020  0.0236  0.3638  0.1763
   13CHL1  H23A  948   6.259   2.949   9.114 -0.8735  0.1933  0.0522
   13CHL1  H23B  949   6.391   2.896   8.993 -0.5687  2.8138 -2.4026
   13CHL1   C24  950   6.231   2.967   8.900  0.1972  0.7112 -0.0988
   13CHL1  H24A  951   6.263   2.922   8.804  2.2068  1.3010  0.2860
   13CHL1  H24B  952   6.120   2.966   8.900  0.1345  1.6292 -3.0821
   13CHL1   C25  953   6.260   3.120   8.898  0.5954  0.3872  0.0741
   13CHL1   H25  954   6.369   3.137   8.903  0.8436 -0.7489 -1.3564
   13CHL1   C26  955   6.228   3.182   8.768  0.4034 -1.0269  0.1259
   13CHL1  H26A  956   6.119   3.169   8.750  0.5290 -0.3420 -1.1846
   13CHL1  H26B  957   6.258   3.288   8.757 -0.3362 -0.8243  0.0774
   13CHL1  H26C  958   6.279   3.132   8.682 -1.4806 -0.9816 -1.0543
   13CHL1   C27  959   6.183   3.196   9.010  0.1127 -0.6569  0.8115
   13CHL1  H27A  960   6.210   3.184   9.117  2.4381 -0.8141  0.2355
   13CHL1  H27B  961   6.202   3.304   8.989  0.4308 -0.5413  1.6634
   13CHL1  H27C  962   6.074   3.182   8.994  0.1016  0.7739 -0.5133
   14CHL1    C3  963   5.834   5.939  10.239  0.0573  0.0178 -0.7016
   14CHL1    H3  964   5.878   6.037  10.213  0.2013 -0.0927 -0.8779
   14CHL1    O3  965   5.820   5.916  10.376  0.5191 -0.1922 -0.1023
   14CHL1   H3'  966   5.834   5.821  10.373  0.7627 -0.1193 -1.4183
   14CHL1    C4  967   5.696   5.918  10.177 -0.3738 -0.3019  0.0183
   14CHL1   H4A  968   5.645   5.824  10.205 -0.3167 -0.9007 -1.7778
   14CHL1   H4B  969   5.631   5.994  10.225  0.8083  0.7984 -0.0810
   14CHL1    C5  970   5.698   5.933  10.027  0.0629 -0.2198  0.5046
   14CHL1    C6  971   5.634   6.032   9.967  0.2264 -0.3217 -0.1593
   14CHL1    H6  972   5.573   6.100  10.029 -0.3934  0.9879 -2.1325
   14CHL1    C7  973   5.639   6.068   9.818  0.7720 -0.5005  0.1447
   14CHL1   H7A  974   5.540   6.094   9.775  0.8221  3.1451  2.0521
   14CHL1   H7B  975   5.687   6.167   9.807 -0.2212  0.0326  0.5376
   14CHL1    C8  976   5.696   5.947   9.733 -0.2489 -0.2898 -0.3656
   14CHL1    H8  977   5.616   5.873   9.714  0.6649 -1.6510  0.9551
   14CHL1   C14  978   5.743   6.002   9.606  0.4689  0.5835  0.0768
   14CHL1   H14  979   5.836   6.060   9.623  0.8934  1.2677 -4.0083
   14CHL1   C15  980   5.650   6.099   9.527 -0.6307  0.3111  0.5833
   14CHL1  H15A  981   5.548   6.060   9.506 -0.6240 -0.9730  2.8607
   14CHL1  H15B  982   5.638   6.197   9.577  2.9216  2.1364 -1.9202
   14CHL1   C16  983   5.717   6.108   9.387 -0.1772  0.5672 -0.1217
   14CHL1  H16A  984   5.639   6.081   9.312  1.3459 -0.6458 -1.2891
   14CHL1  H16B  985   5.740   6.212   9.358 -0.3960 -0.2229 -3.3381
   14CHL1   C17  986   5.836   6.009   9.387  0.1664  0.0782 -0.4893
   14CHL1   H17  987   5.919   6.068   9.431 -0.2135  0.8407 -0.7996
   14CHL1   C13  988   5.802   5.912   9.497  0.0137  0.2999 -0.1131
   14CHL1   C18  989   5.684   5.820   9.437 -0.1759 -0.1876  0.0790
   14CHL1  H18A  990   5.628   5.766   9.516  1.9155 -0.5833  1.3514
   14CHL1  H18B  991   5.601   5.884   9.400  1.3020  2.2513  0.8477
   14CHL1  H18C  992   5.726   5.748   9.364  0.5657 -0.4625  0.7719
   14CHL1   C12  993   5.913   5.829   9.569  0.0307 -1.0481  0.3007
   14CHL1  H12A  994   5.962   5.745   9.514 -0.6457 -1.0612 -0.2978
   14CHL1  H12B  995   5.998   5.897   9.590 -1.9302  0.9393  1.9566
   14CHL1   C11  996   5.882   5.774   9.707  0.2795  0.0826 -0.0620
   14CHL1  H11A  997   5.817   5.686   9.688 -0.2011  0.3825  0.1828
   14CHL1  H11B  998   5.979   5.733   9.741 -0.2963  0.1044  1.6906
   14CHL1    C9  999   5.812   5.882   9.805 -1.1047 -0.0576 -0.7585
   14CHL1    H9 1000   5.891   5.960   9.802 -4.0063  2.9321 -2.6926
   14CHL1   C10 1001   5.792   5.841   9.950 -0.1448 -0.0822 -0.3303
   14CHL1   C19 1002   5.736   5.701   9.948 -0.1522  0.5795 -0.1134
   14CHL1  H19A 1003   5.803   5.631   9.895  0.0768 -0.1918  1.1630
   14CHL1  H19B 1004   5.716   5.654  10.047  1.3815 -2.3651 -1.1455
   14CHL1  H19C 1005   5.639   5.691   9.894 -0.0663 -1.4923  0.0595
   14CHL1    C1 1006   5.936   5.845  10.030 -0.7921 -0.4148  0.2686
   14CHL1   H1A 1007   6.008   5.775   9.982 -1.3074 -2.2101  2.0342
   14CHL1   H1B 1008   5.986   5.943  10.012 -0.6309 -0.6063 -0.3632
   14CHL1    C2 1009   5.926   5.825  10.178  0.6158  0.3277 -0.5265
   14CHL1   H2A 1010   6.023   5.825  10.231 -0.0128  1.3354  0.6352
   14CHL1   H2B 1011   5.871   5.730  10.197  3.0581 -0.6121  2.2060
   14CHL1   C20 1012   5.894   5.960   9.252 -0.2667 -0.2245 -0.3072
   14CHL1   H20 1013   5.810   5.900   9.211 -1.9603  1.1805  1.0312
   14CHL1   C21 1014   6.016   5.860   9.266 -0.1621  0.0875  1.0397
   14CHL1  H21A 1015   5.972   5.767   9.308 -0.9587  0.3544  0.8080
   14CHL1  H21B 1016   6.097   5.900   9.331  2.3103  0.0123 -1.8528
   14CHL1  H21C 1017   6.061   5.842   9.166  0.3669  1.8630  0.9475
   14CHL1   C22 1018   5.917   6.071   9.146  0.2305  0.2731  0.1352
   14CHL1  H22A 1019   5.860   6.163   9.171 -2.0952 -0.7619 -1.2145
   14CHL1  H22B 1020   6.024   6.100   9.147  0.1216  0.6729  0.1341
   14CHL1   C23 1021   5.890   6.018   9.005 -0.6315  0.4120  0.1614
   14CHL1  H23A 1022   5.971   5.950   8.970 -0.1357  1.3612 -0.5659
   14CHL1  H23B 1023   5.797   5.957   9.006 -0.9212  0.7921 -1.7178
   14CHL1   C24 1024   5.882   6.130   8.895 -0.3689  0.0517  0.8134
   14CHL1  H24A 1025   5.784   6.182   8.889  0.1217  0.7985 -0.8021
   14CHL1  H24B 1026   5.949   6.218   8.904 -0.5309  0.3992 -1.2070
   14CHL1   C25 1027   5.921   6.088   8.751  0.1540 -0.2864 -0.1726
   14CHL1   H25 1028   6.024   6.045   8.757 -0.0010 -0.4039  2.0628
   14CHL1   C26 1029   5.845   5.960   8.695  0.2514  0.1868  0.5594
   14CHL1  H26A 1030   5.891   5.932   8.598  0.4626  0.8310  0.4744
   14CHL1  H26B 1031   5.853   5.879   8.771 -3.8594 -1.2436 -0.3596
   14CHL1  H26C 1032   5.737   5.981   8.677  0.2741 -0.6966 -0.7228
   14CHL1   C27 1033   5.899   6.213   8.669 -0.3964 -0.1086 -0.0720
   14CHL1  H27A 1034   5.924   6.312   8.712  0.8393  0.3153 -1.6983
   14CHL1  H27B 1035   5.959   6.209   8.575 -0.6712 -0.1307 -0.2446
   14CHL1  H27C 1036   5.800   6.208   8.619 -0.7224 -2.0820  0.7370
   15CHL1    C3 1037   6.229   4.836  10.048 -0.2283 -0.9022 -0.2236
   15CHL1    H3 1038   6.336   4.864  10.045  0.3560 -2.2663  4.2869
   15CHL1    O3 1039   6.189   4.803  10.181 -0.0981  0.0429 -0.1767
   15CHL1   H3' 1040   6.225   4.717  10.205 -2.0012 -0.8765 -0.6117
   15CHL1    C4 1041   6.154   4.956   9.995  0.4506  0.4408  0.5141
   15CHL1   H4A 1042   6.046   4.937  10.015  0.1643 -0.8658 -2.1866
   15CHL1   H4B 1043   6.193   5.041  10.055 -0.6390 -0.7144  2.9441
   15CHL1    C5 1044   6.180   4.982   9.847  0.4345 -0.3245  0.1544
   15CHL1    C6 1045   6.218   5.102   9.811  0.1414 -0.2517  0.4996
   15CHL1    H6 1046   6.210   5.178   9.890  1.7937  1.3022 -0.7541
   15CHL1    C7 1047   6.248   5.145   9.672 -0.4208  0.8317  0.1279
   15CHL1   H7A 1048   6.184   5.231   9.642 -1.4960  0.0476  0.1347
   15CHL1   H7B 1049   6.354   5.171   9.654 -0.1714 -0.4977 -0.3729
   15CHL1    C8 1050   6.212   5.035   9.573 -0.5740 -1.0712  0.4522
   15CHL1    H8 1051   6.102   5.045   9.558 -0.3712  0.7218  0.0206
   15CHL1   C14 1052   6.274   5.057   9.442 -0.3188 -0.1664 -0.0024
   15CHL1   H14 1053   6.385   5.052   9.451 -0.3973  0.2571  1.3615
   15CHL1   C15 1054   6.250   5.194   9.374 -0.8227 -0.4603 -0.3279
   15CHL1  H15A 1055   6.153   5.245   9.391 -0.8237 -0.7134  0.4707
   15CHL1  H15B 1056   6.322   5.265   9.419  1.4754 -1.3010 -2.5787
   15CHL1   C16 1057   6.290   5.186   9.225 -0.7724  0.4607  0.2510
   15CHL1  H16A 1058   6.205   5.228   9.167 -0.0637  0.2841 -0.9508
   15CHL1  H16B 1059   6.381   5.246   9.203  0.6019 -0.6250  2.7823
   15CHL1   C17 1060   6.320   5.032   9.213 -0.3905 -0.0838  0.2857
   15CHL1   H17 1061   6.427   5.012   9.236 -0.2923  0.3382  0.1862
   15CHL1   C13 1062   6.234   4.965   9.331 -0.3467 -0.4710  0.2083
   15CHL1   C18 1063   6.084   4.977   9.300 -0.0526 -0.0932 -0.3767
   15CHL1  H18A 1064   6.058   5.075   9.254 -1.4940 -0.4029 -0.2297
   15CHL1  H18B 1065   6.048   4.901   9.228 -0.1512  1.1266 -1.6423
   15CHL1  H18C 1066   6.014   4.957   9.384  1.2131 -0.5288  0.5879
   15CHL1   C12 1067   6.276   4.828   9.379 -0.1033  0.4840  0.1347
   15CHL1  H12A 1068   6.239   4.754   9.305  1.8828  0.3136 -0.7159
   15CHL1  H12B 1069   6.387   4.825   9.385 -0.0961  1.5774  0.7297
   15CHL1   C11 1070   6.213   4.798   9.517  0.3836  0.2901 -0.5408
   15CHL1  H11A 1071   6.103   4.793   9.509 -0.0866  3.0138  3.0653
   15CHL1  H11B 1072   6.262   4.706   9.556  1.4233  2.1284  2.6227
   15CHL1    C9 1073   6.244   4.899   9.623 -0.0001 -0.1334 -1.1776
   15CHL1    H9 1074   6.352   4.890   9.648 -0.0372  1.8915 -0.1742
   15CHL1   C10 1075   6.173   4.859   9.760 -0.9806 -0.1893 -0.1191
   15CHL1   C19 1076   6.028   4.840   9.741  0.0307  0.0516  0.0019
   15CHL1  H19A 1077   5.968   4.834   9.835  0.7398  2.5364  0.6494
   15CHL1  H19B 1078   5.981   4.924   9.685  1.7217  1.1464  0.1833
   15CHL1  H19C 1079   5.997   4.745   9.694 -1.6533  0.1605  0.8414
   15CHL1    C1 1080   6.238   4.735   9.827 -0.1886 -0.5864  0.3155
   15CHL1   H1A 1081   6.226   4.638   9.776 -0.5331  0.4014 -1.5193
   15CHL1   H1B 1082   6.348   4.746   9.831 -0.0017 -0.7625 -3.0188
   15CHL1    C2 1083   6.187   4.708   9.971 -0.3882  0.0829 -0.1326
   15CHL1   H2A 1084   6.238   4.619  10.016 -2.2788 -1.6183 -1.2688
   15CHL1   H2B 1085   6.079   4.686   9.978 -0.0711 -1.8903 -0.9846
   15CHL1   C20 1086   6.283   4.966   9.082  0.6920  0.7802  0.5980
   15CHL1   H20 1087   6.173   4.973   9.071  0.9102 -0.2287 -2.4684
   15CHL1   C21 1088   6.335   4.826   9.059 -0.4653 -0.8514  0.5509
   15CHL1  H21A 1089   6.373   4.829   8.955 -0.8430  1.5114  0.4491
   15CHL1  H21B 1090   6.257   4.747   9.055 -1.9558  0.5815  0.5378
   15CHL1  H21C 1091   6.422   4.814   9.126  0.1627 -0.1715 -0.1290
   15CHL1   C22 1092   6.339   5.057   8.962 -0.1042  0.3520 -0.2423
   15CHL1  H22A 1093   6.312   5.163   8.976  0.6124  0.5750 -0.5208
   15CHL1  H22B 1094   6.449   5.044   8.958 -0.6582 -5.9452 -0.6393
   15CHL1   C23 1095   6.265   5.031   8.827 -0.0096 -0.1857 -0.0505
   15CHL1  H23A 1096   6.294   4.928   8.797 -3.3666 -1.7673  1.8523
   15CHL1  H23B 1097   6.156   5.049   8.836  0.2419  0.9199  0.7652
   15CHL1   C24 1098   6.309   5.131   8.721 -0.2253  0.6857 -0.6233
   15CHL1  H24A 1099   6.302   5.236   8.758  0.0488  0.6076 -0.3486
   15CHL1  H24B 1100   6.419   5.114   8.712 -0.4632 -2.7804  2.2369
   15CHL1   C25 1101   6.251   5.127   8.578  0.2031 -0.1733  0.2861
   15CHL1   H25 1102   6.152   5.177   8.586  0.1127 -0.3129  0.0273
   15CHL1   C26 1103   6.328   5.225   8.488  0.1066  0.2134  0.3945
   15CHL1  H26A 1104   6.329   5.327   8.532 -1.5254  0.4129 -0.0206
   15CHL1  H26B 1105   6.435   5.193   8.487  0.6367  1.9087  0.9581
   15CHL1  H26C 1106   6.285   5.224   8.386  2.0130  0.1758 -0.4439
   15CHL1   C27 1107   6.234   4.998   8.502  0.7806  0.4756  0.9360
   15CHL1  H27A 1108   6.145   4.935   8.522  0.6606  0.3761  0.1058
   15CHL1  H27B 1109   6.228   5.024   8.394  2.2539  3.4364  1.5012
   15CHL1  H27C 1110   6.324   4.934   8.511  1.2558  1.1066  0.6875
   16CHL1    C3 1111   0.229   5.863  10.201 -0.6774 -0.2728  0.0720
   16CHL1    H3 1112   0.297   5.950  10.186 -0.3495 -0.3384  1.1195
   16CHL1    O3 1113   0.234   5.836  10.336 -0.0157 -0.8019  0.3321
   16CHL1   H3' 1114   0.201   5.914  10.381 -0.6307 -1.2560  0.6784
   16CHL1    C4 1115   0.090   5.905  10.155 -0.2608  0.5646  0.1502
   16CHL1   H4A 1116   0.021   5.825  10.189  0.4138 -0.6674 -1.3365
   16CHL1   H4B 1117   0.075   6.003  10.205 -1.1915  0.7629 -0.4978
   16CHL1    C5 1118   0.072   5.920  10.006 -0.1659  0.0877  0.0590
   16CHL1    C6 1119   0.028   6.026   9.946  0.2010 -0.5974  0.3480
   16CHL1    H6 1120  -0.005   6.104  10.017 -1.0247 -1.6014  0.8999
   16CHL1    C7 1121   0.009   6.037   9.800  0.8574  0.6553 -1.0900
   16CHL1   H7A 1122  -0.081   6.099   9.782 -0.0221 -0.0947  0.6158
   16CHL1   H7B 1123   0.093   6.096   9.759  0.1794  0.6995 -2.4541
   16CHL1    C8 1124   0.006   5.897   9.725  1.0833  0.4431  0.9909
   16CHL1    H8 1125  -0.085   5.842   9.753 -0.4557  1.6496 -1.4380
   16CHL1   C14 1126   0.020   5.915   9.579 -0.1349 -0.4114 -0.1639
   16CHL1   H14 1127   0.116   5.970   9.565 -0.8558  1.3680  1.6726
   16CHL1   C15 1128  -0.085   6.009   9.508  0.3995  0.2150  0.2588
   16CHL1  H15A 1129  -0.190   5.991   9.539  0.5254 -2.7020 -0.7794
   16CHL1  H15B 1130  -0.068   6.118   9.516 -2.4494  0.8242 -1.4892
   16CHL1   C16 1131  -0.057   5.978   9.359  0.0487 -0.2196  0.3658
   16CHL1  H16A 1132  -0.152   5.969   9.303 -0.3794  2.1855  0.6521
   16CHL1  H16B 1133  -0.005   6.064   9.311 -0.4551 -0.9200 -1.4598
   16CHL1   C17 1134   0.034   5.850   9.350 -0.3722  0.2837 -0.1857
   16CHL1   H17 1135   0.140   5.882   9.337  0.2791 -1.6019  0.3007
   16CHL1   C13 1136   0.024   5.791   9.493  0.0534  0.1744  0.3685
   16CHL1   C18 1137  -0.110   5.718   9.509  0.4347 -0.8779  0.5497
   16CHL1  H18A 1138  -0.137   5.692   9.614  3.1248 -1.3963  1.1723
   16CHL1  H18B 1139  -0.190   5.781   9.465  0.6117 -1.4023 -0.5256
   16CHL1  H18C 1140  -0.110   5.616   9.466  1.5222 -1.2803  1.4881
   16CHL1   C12 1141   0.147   5.708   9.538 -0.4196 -0.3283 -0.0284
   16CHL1  H12A 1142   0.158   5.614   9.480 -0.7104 -0.1417 -0.3901
   16CHL1  H12B 1143   0.236   5.774   9.531 -0.0287 -0.9534 -1.2528
   16CHL1   C11 1144   0.143   5.688   9.688  0.2089 -0.6601 -0.7474
   16CHL1  H11A 1145   0.060   5.618   9.713  0.1081 -0.2211  0.1860
   16CHL1  H11B 1146   0.236   5.637   9.722 -0.8292 -1.9005  0.2784
   16CHL1    C9 1147   0.126   5.814   9.774 -0.3963 -0.1444 -1.0624
   16CHL1    H9 1148   0.214   5.879   9.754  0.9140 -1.2662  0.9585
   16CHL1   C10 1149   0.115   5.795   9.924  0.1921 -0.5331  0.2234
   16CHL1   C19 1150   0.012   5.682   9.959  0.5802 -0.7107  0.0382
   16CHL1  H19A 1151  -0.089   5.718   9.929 -1.2253 -4.6915  0.9766
   16CHL1  H19B 1152   0.042   5.588   9.907 -0.0020  0.1931 -1.9737
   16CHL1  H19C 1153   0.004   5.654  10.066 -0.8125  3.0365  0.9631
   16CHL1    C1 1154   0.255   5.750   9.971 -0.4982 -0.4324  0.6568
   16CHL1   H1A 1155   0.287   5.654   9.926  1.8391 -0.4677  2.2707
   16CHL1   H1B 1156   0.319   5.835   9.939 -0.0429 -0.7631  0.6765
   16CHL1    C2 1157   0.272   5.731  10.121 -0.1508 -0.9192 -0.2479
   16CHL1   H2A 1158   0.377   5.712  10.152  0.6906  1.9247 -1.2098
   16CHL1   H2B 1159   0.193   5.664  10.161 -2.2214  1.0888 -0.8821
   16CHL1   C20 1160  -0.011   5.768   9.229 -0.0788  0.6311 -0.4456
   16CHL1   H20 1161  -0.108   5.725   9.265  1.3380 -1.9377  0.4860
   16CHL1   C21 1162   0.071   5.635   9.222 -0.3123  0.4156  0.3550
   16CHL1  H21A 1163   0.178   5.664   9.217  0.5046 -2.6900 -1.7803
   16CHL1  H21B 1164   0.052   5.576   9.130  0.0341  0.3471  0.3280
   16CHL1  H21C 1165   0.052   5.562   9.303 -1.6950  0.0283 -0.3032
   16CHL1   C22 1166  -0.027   5.840   9.087 -0.4345 -0.0685  0.1229
   16CHL1  H22A 1167  -0.057   5.762   9.014  1.2307  0.3926 -1.0731
   16CHL1  H22B 1168  -0.119   5.900   9.073  0.1951  1.4275  2.1013
   16CHL1   C23 1169   0.100   5.907   9.039 -0.0190  0.2996 -0.2025
   16CHL1  H23A 1170   0.110   5.989   9.113  0.3317  0.4862 -0.4581
   16CHL1  H23B 1171   0.178   5.830   9.055 -0.9061 -0.2888  1.4917
   16CHL1   C24 1172   0.092   5.978   8.900  0.2342 -0.1089  0.0914
   16CHL1  H24A 1173   0.009   6.051   8.913 -1.5268 -1.5695 -2.4455
   16CHL1  H24B 1174   0.186   6.034   8.881 -0.1520  0.9982  1.3261
   16CHL1   C25 1175   0.065   5.876   8.790  0.6818  0.3683  0.0564
   16CHL1   H25 1176  -0.002   5.790   8.811  2.0841 -0.7216  0.1321
   16CHL1   C26 1177   0.013   5.938   8.656 -0.0749 -0.0488 -0.2669
   16CHL1  H26A 1178   0.087   6.010   8.616 -0.6883  0.2048 -0.9741
   16CHL1  H26B 1179   0.004   5.862   8.575  2.9098  0.2517 -0.9394
   16CHL1  H26C 1180  -0.085   5.980   8.688  0.7098  1.3956  0.2701
   16CHL1   C27 1181   0.194   5.806   8.757 -0.1630 -0.0931 -0.1122
   16CHL1  H27A 1182   0.163   5.731   8.681 -1.6372  0.6209 -0.2272
   16CHL1  H27B 1183   0.280   5.861   8.712  0.0606  1.0951  1.7111
   16CHL1  H27C 1184   0.243   5.745   8.837  2.6495 -1.1932 -2.5657
   17CHL1    C3 1185   2.669   2.296  10.480  0.3862  0.6924  0.3804
   17CHL1    H3 1186   2.608   2.204  10.466 -0.4018  1.3096 -0.2503
   17CHL1    O3 1187   2.679   2.313  10.617  0.0452 -0.3371  0.0842
   17CHL1   H3' 1188   2.642   2.398  10.642  2.7483  0.2317  2.3236
   17CHL1    C4 1189   2.807   2.259  10.426 -0.6987 -0.5920  0.1178
   17CHL1   H4A 1190   2.882   2.340  10.435 -1.3745  0.3573 -2.1171
   17CHL1   H4B 1191   2.843   2.175  10.488 -0.1069  0.7452  1.6083
   17CHL1    C5 1192   2.797   2.227  10.280  1.0555  0.7064  0.0488
   17CHL1    C6 1193   2.813   2.106  10.239  0.1415 -1.1450 -0.4204
   17CHL1    H6 1194   2.848   2.023  10.302  1.1957  0.7412  1.5632
   17CHL1    C7 1195   2.805   2.084  10.092  1.4169 -0.2846 -0.2018
   17CHL1   H7A 1196   2.888   2.018  10.057  1.9303 -0.3653  1.1444
   17CHL1   H7B 1197   2.707   2.037  10.071  1.0693 -0.2096  1.2554
   17CHL1    C8 1198   2.810   2.206   9.994  0.4241 -0.0889  0.3255
   17CHL1    H8 1199   2.913   2.246  10.008  0.1090  0.7208  0.3510
   17CHL1   C14 1200   2.770   2.176   9.855  0.1407  0.4936 -0.1742
   17CHL1   H14 1201   2.663   2.147   9.854  0.4688 -0.7295 -1.0565
   17CHL1   C15 1202   2.855   2.062   9.792  0.6667  0.0241  0.0774
   17CHL1  H15A 1203   2.961   2.093   9.803  0.9032 -0.5704 -0.5117
   17CHL1  H15B 1204   2.830   1.968   9.844  0.0689 -0.5051 -1.1371
   17CHL1   C16 1205   2.809   2.071   9.644 -0.5060  0.7382 -0.0558
   17CHL1  H16A 1206   2.899   2.086   9.580 -0.3571  1.3119  0.2822
   17CHL1  H16B 1207   2.745   1.990   9.605 -2.1513  1.3620  1.2826
   17CHL1   C17 1208   2.729   2.210   9.627  0.0655 -0.1022 -0.2069
   17CHL1   H17 1209   2.622   2.182   9.636  0.4160 -1.4101  0.0618
   17CHL1   C13 1210   2.759   2.292   9.757  0.3726  0.3162  0.0566
   17CHL1   C18 1211   2.895   2.363   9.741  0.3487  0.4110 -0.4253
   17CHL1  H18A 1212   2.983   2.303   9.711  0.1311  0.0902 -0.4153
   17CHL1  H18B 1213   2.889   2.460   9.686  3.7680  1.6074  1.1593
   17CHL1  H18C 1214   2.927   2.398   9.842  0.0954 -2.6030  0.7386
   17CHL1   C12 1215   2.641   2.378   9.805  0.0255  0.2170  0.0661
   17CHL1  H12A 1216   2.637   2.473   9.746 -0.0085 -0.2953 -0.7665
   17CHL1  H12B 1217   2.542   2.329   9.819  0.2786  0.3909  2.6293
   17CHL1   C11 1218   2.674   2.422   9.957 -0.2916 -0.3001 -0.5376
   17CHL1  H11A 1219   2.764   2.486   9.950 -0.0163 -0.5154  0.9706
   17CHL1  H11B 1220   2.582   2.472   9.994 -0.1684 -0.3278 -0.1869
   17CHL1    C9 1221   2.709   2.298  10.052 -0.5766 -0.3843 -0.3982
   17CHL1    H9 1222   2.615   2.238  10.055  1.2382 -3.2160  2.0826
   17CHL1   C10 1223   2.740   2.347  10.197 -0.2191  0.4262  0.3811
   17CHL1   C19 1224   2.831   2.474  10.189  0.3884 -0.3301 -0.5968
   17CHL1  H19A 1225   2.907   2.447  10.113  2.1155 -0.1670  1.0301
   17CHL1  H19B 1226   2.772   2.559  10.149 -0.3525 -1.6472 -2.3259
   17CHL1  H19C 1227   2.879   2.512  10.282 -0.4067  0.5697 -0.5490
   17CHL1    C1 1228   2.605   2.387  10.262 -0.2395 -0.5750 -0.2010
   17CHL1   H1A 1229   2.558   2.477  10.218  0.4535  0.5561  1.3319
   17CHL1   H1B 1230   2.537   2.302  10.241  0.0538 -0.8151 -0.1798
   17CHL1    C2 1231   2.611   2.412  10.413 -0.0414 -0.1591 -0.4345
   17CHL1   H2A 1232   2.503   2.427  10.437  0.6468  0.3162  2.5274
   17CHL1   H2B 1233   2.665   2.502  10.450  1.5477 -1.0118 -0.6473
   17CHL1   C20 1234   2.748   2.284   9.495  0.4704 -0.1188  0.7202
   17CHL1   H20 1235   2.842   2.343   9.500  0.3671  0.0223  1.0103
   17CHL1   C21 1236   2.634   2.381   9.469  0.5738 -0.0315  0.1652
   17CHL1  H21A 1237   2.538   2.325   9.475 -0.1231  1.2340  1.0924
   17CHL1  H21B 1238   2.635   2.432   9.370 -0.2095  0.7675  0.5564
   17CHL1  H21C 1239   2.649   2.464   9.542  2.5611 -1.7673  1.8239
   17CHL1   C22 1240   2.759   2.183   9.375  0.5799 -1.0436  0.4656
   17CHL1  H22A 1241   2.796   2.246   9.292 -1.2756  0.9372  1.1012
   17CHL1  H22B 1242   2.837   2.107   9.394 -0.5173 -2.4916 -0.6674
   17CHL1   C23 1243   2.629   2.109   9.340  0.4725  0.5992 -0.1523
   17CHL1  H23A 1244   2.588   2.064   9.433 -1.2671 -0.1636 -1.2570
   17CHL1  H23B 1245   2.561   2.187   9.301 -1.2664 -0.5919  0.4197
   17CHL1   C24 1246   2.647   1.994   9.233  0.0498  0.0595  0.5006
   17CHL1  H24A 1247   2.712   1.921   9.287 -0.9923 -1.1209  0.2005
   17CHL1  H24B 1248   2.549   1.946   9.212 -0.6659  1.2590  1.0453
   17CHL1   C25 1249   2.725   2.025   9.110 -0.1178 -0.1814 -0.4590
   17CHL1   H25 1250   2.813   2.083   9.145  1.4261 -2.6593 -0.1023
   17CHL1   C26 1251   2.761   1.901   9.029  0.3062  0.2203 -0.0377
   17CHL1  H26A 1252   2.833   1.837   9.085 -1.3877 -0.4608  1.4091
   17CHL1  H26B 1253   2.666   1.847   9.009 -0.1914  0.3403  1.9419
   17CHL1  H26C 1254   2.809   1.940   8.936 -0.0825  1.7463  0.3859
   17CHL1   C27 1255   2.652   2.136   9.023 -0.5754 -0.1587 -0.2014
   17CHL1  H27A 1256   2.624   2.225   9.083 -1.6582 -0.3443 -0.4332
   17CHL1  H27B 1257   2.706   2.160   8.929 -2.9432 -1.8963 -2.0432
   17CHL1  H27C 1258   2.556   2.090   8.992 -0.0684 -1.7866  0.6055
   18CHL1    C3 1259   1.743   0.777  10.162  0.6763 -0.1968  0.1437
   18CHL1    H3 1260   1.733   0.886  10.142 -3.3665 -0.3702  0.7707
   18CHL1    O3 1261   1.775   0.764  10.301 -0.2217 -0.2240 -0.2936
   18CHL1   H3' 1262   1.813   0.677  10.313  0.1628  0.1882  1.6075
   18CHL1    C4 1263   1.610   0.700  10.139  0.1877  0.2853  0.0889
   18CHL1   H4A 1264   1.622   0.595  10.172 -0.2065  0.8797  2.1667
   18CHL1   H4B 1265   1.528   0.754  10.192  1.5417  3.3983 -0.8737
   18CHL1    C5 1266   1.567   0.681   9.989 -0.0933 -0.1517  0.2205
   18CHL1    C6 1267   1.448   0.723   9.945 -0.3613  0.0965 -0.2887
   18CHL1    H6 1268   1.373   0.773  10.008 -2.2763 -0.0662 -2.3964
   18CHL1    C7 1269   1.398   0.714   9.804 -0.0419 -0.2157  0.5504
   18CHL1   H7A 1270   1.293   0.676   9.802 -0.8838  2.0670 -0.4935
   18CHL1   H7B 1271   1.408   0.813   9.754 -0.1274 -0.4223  0.1235
   18CHL1    C8 1272   1.497   0.621   9.720  0.1305  0.0156  0.5338
   18CHL1    H8 1273   1.466   0.518   9.747 -1.6989  0.3255 -0.3124
   18CHL1   C14 1274   1.465   0.621   9.568  1.5922 -0.2649  0.3552
   18CHL1   H14 1275   1.487   0.724   9.533 -1.8478  0.7024  0.8274
   18CHL1   C15 1276   1.321   0.594   9.534 -0.3196 -0.2761 -0.1204
   18CHL1  H15A 1277   1.288   0.507   9.594  1.8231  1.3666  3.5671
   18CHL1  H15B 1278   1.256   0.680   9.560 -0.7034 -0.6071  0.0388
   18CHL1   C16 1279   1.320   0.563   9.381 -0.3402  0.5693  0.6028
   18CHL1  H16A 1280   1.284   0.459   9.363  1.4983  0.2348 -1.3029
   18CHL1  H16B 1281   1.261   0.635   9.322  0.3179  0.7066  0.1043
   18CHL1   C17 1282   1.476   0.570   9.338 -0.1558  0.5137 -0.5166
   18CHL1   H17 1283   1.497   0.679   9.328 -1.2256  0.9546  1.7088
   18CHL1   C13 1284   1.548   0.536   9.471 -0.1900  0.3994  0.6339
   18CHL1   C18 1285   1.535   0.381   9.494 -0.1374 -0.3870  0.1094
   18CHL1  H18A 1286   1.609   0.335   9.424  0.0270  0.2280 -0.1209
   18CHL1  H18B 1287   1.568   0.356   9.597  0.0302  0.4780  0.2634
   18CHL1  H18C 1288   1.433   0.342   9.471 -0.0817  0.0080 -0.8277
   18CHL1   C12 1289   1.687   0.588   9.494 -0.2654  0.2162  0.0119
   18CHL1  H12A 1290   1.752   0.528   9.426 -0.2568  0.1406  0.0872
   18CHL1  H12B 1291   1.694   0.694   9.460  0.7666 -0.2833 -1.4124
   18CHL1   C11 1292   1.731   0.578   9.642  0.4661 -0.5507  0.6754
   18CHL1  H11A 1293   1.753   0.470   9.662 -0.2905 -1.5778 -3.5847
   18CHL1  H11B 1294   1.831   0.625   9.652  0.0255  0.9675 -1.7880
   18CHL1    C9 1295   1.637   0.650   9.747 -0.2378  0.5995 -0.3551
   18CHL1    H9 1296   1.653   0.757   9.720  0.6826  0.1835 -1.5212
   18CHL1   C10 1297   1.678   0.632   9.893 -0.9723 -0.2066  0.9341
   18CHL1   C19 1298   1.681   0.481   9.916 -0.1677  0.3058 -0.5236
   18CHL1  H19A 1299   1.743   0.422   9.844 -1.3173  2.2646 -3.2163
   18CHL1  H19B 1300   1.712   0.466  10.021  2.3813  1.7035 -1.0276
   18CHL1  H19C 1301   1.582   0.432   9.909  1.7930 -4.1530  0.8382
   18CHL1    C1 1302   1.811   0.700   9.926  0.3469  0.0255  0.1509
   18CHL1   H1A 1303   1.887   0.639   9.872  0.7088  0.7377 -0.1579
   18CHL1   H1B 1304   1.815   0.806   9.892 -0.3189 -0.1964 -0.6164
   18CHL1    C2 1305   1.856   0.724  10.074  0.3689  0.6566  0.2294
   18CHL1   H2A 1306   1.944   0.791  10.079  0.1196  1.1633 -1.6236
   18CHL1   H2B 1307   1.873   0.620  10.109 -0.9313  0.7521  1.2042
   18CHL1   C20 1308   1.506   0.485   9.207 -0.2464  0.0555 -0.8689
   18CHL1   H20 1309   1.492   0.377   9.226 -1.0784  0.4377  0.7695
   18CHL1   C21 1310   1.654   0.515   9.182 -0.6874 -0.1768 -0.5654
   18CHL1  H21A 1311   1.690   0.474   9.085  2.6597  1.8864 -0.2740
   18CHL1  H21B 1312   1.721   0.454   9.246 -1.7918 -1.2610 -0.4015
   18CHL1  H21C 1313   1.672   0.624   9.188  0.8250 -0.4274 -0.4873
   18CHL1   C22 1314   1.421   0.538   9.092 -0.2670 -0.3806  0.7857
   18CHL1  H22A 1315   1.313   0.534   9.119 -0.4115 -0.0139  0.2706
   18CHL1  H22B 1316   1.443   0.646   9.085  1.7529 -0.9240 -1.9436
   18CHL1   C23 1317   1.449   0.462   8.967  0.5774  0.1486 -0.4810
   18CHL1  H23A 1318   1.555   0.452   8.936  0.3963 -1.4199 -0.6007
   18CHL1  H23B 1319   1.407   0.362   8.991  1.0409  0.1811  0.4978
   18CHL1   C24 1320   1.375   0.524   8.842 -0.2787 -0.0480  0.0404
   18CHL1  H24A 1321   1.265   0.530   8.855 -0.1559 -1.7261  2.2088
   18CHL1  H24B 1322   1.419   0.625   8.840  0.6346 -0.4432  0.0159
   18CHL1   C25 1323   1.405   0.444   8.709  0.2953 -0.0630 -0.5218
   18CHL1   H25 1324   1.515   0.443   8.692  0.3716 -0.6920  0.0031
   18CHL1   C26 1325   1.355   0.300   8.712  0.0619 -0.3024 -0.4136
   18CHL1  H26A 1326   1.247   0.311   8.734 -0.3173 -3.3664 -0.6148
   18CHL1  H26B 1327   1.368   0.256   8.611 -2.8214  0.6004 -1.2158
   18CHL1  H26C 1328   1.407   0.236   8.786  0.0105 -0.9912 -0.9744
   18CHL1   C27 1329   1.332   0.525   8.595  0.1086 -0.0542  0.7037
   18CHL1  H27A 1330   1.365   0.630   8.606 -1.6013  0.4119  1.6678
   18CHL1  H27B 1331   1.368   0.487   8.497 -1.4662  0.4874 -0.1134
   18CHL1  H27C 1332   1.221   0.527   8.605  0.0827 -0.8674  0.6615
   19CHL1    C3 1333   6.505   4.208   9.987 -0.4037  0.1847 -0.5397
   19CHL1    H3 1334   6.398   4.196  10.014 -0.4631 -1.0143 -1.2779
   19CHL1    O3 1335   6.581   4.183  10.101  0.2086 -0.1589  0.1393
   19CHL1   H3' 1336   6.651   4.249  10.100  0.2041 -0.1344  1.0095
   19CHL1    C4 1337   6.537   4.100   9.888  0.1072  0.3564 -0.3833
   19CHL1   H4A 1338   6.648   4.105   9.877  0.1276  0.7431 -0.0299
   19CHL1   H4B 1339   6.499   4.009   9.938  1.1698 -0.1386 -0.4630
   19CHL1    C5 1340   6.458   4.126   9.762 -0.2745 -0.4992  0.6040
   19CHL1    C6 1341   6.382   4.031   9.700  0.3191 -0.0267 -0.3654
   19CHL1    H6 1342   6.375   3.930   9.741 -3.0980  0.6909  0.9812
   19CHL1    C7 1343   6.325   4.047   9.564 -0.2401  0.3973 -0.2417
   19CHL1   H7A 1344   6.354   3.960   9.502  1.2883  1.0144 -0.4219
   19CHL1   H7B 1345   6.215   4.058   9.567 -0.0783  1.8900  1.0180
   19CHL1    C8 1346   6.374   4.171   9.487  0.2162  0.3396 -0.1323
   19CHL1    H8 1347   6.477   4.151   9.448 -0.2894 -2.8758  0.0822
   19CHL1   C14 1348   6.283   4.210   9.374 -0.0871 -0.4906  0.2617
   19CHL1   H14 1349   6.182   4.229   9.414  0.5220  1.1891  1.0257
   19CHL1   C15 1350   6.258   4.106   9.262  0.5551  0.0432 -0.1195
   19CHL1  H15A 1351   6.357   4.066   9.229 -0.0990 -1.3572 -0.4190
   19CHL1  H15B 1352   6.189   4.021   9.283 -0.5376  0.9792  0.0839
   19CHL1   C16 1353   6.193   4.190   9.149 -0.0537  0.2633 -0.1577
   19CHL1  H16A 1354   6.243   4.163   9.054  1.1737 -0.2495  0.6203
   19CHL1  H16B 1355   6.082   4.184   9.151 -0.0667  0.3118 -0.6775
   19CHL1   C17 1356   6.227   4.333   9.182 -1.0565 -0.2980 -0.4051
   19CHL1   H17 1357   6.137   4.386   9.223 -1.3138 -1.8585  1.1060
   19CHL1   C13 1358   6.331   4.337   9.301  0.0991  0.1807  0.5768
   19CHL1   C18 1359   6.474   4.328   9.237 -0.2847  0.6535 -0.2280
   19CHL1  H18A 1360   6.490   4.242   9.168  0.8434  0.9030 -0.2877
   19CHL1  H18B 1361   6.513   4.412   9.177 -0.2387 -0.2040 -1.4336
   19CHL1  H18C 1362   6.543   4.326   9.324  0.9148  1.2169 -1.1511
   19CHL1   C12 1363   6.324   4.461   9.391 -0.1701 -0.3348 -0.0315
   19CHL1  H12A 1364   6.352   4.559   9.345  0.0801 -0.1555  0.5041
   19CHL1  H12B 1365   6.222   4.467   9.434  0.4409 -1.8038  1.6671
   19CHL1   C11 1366   6.410   4.432   9.516  0.4159 -0.5051  0.0877
   19CHL1  H11A 1367   6.517   4.444   9.489  1.2140 -0.6313  3.0363
   19CHL1  H11B 1368   6.385   4.508   9.593 -1.3558 -0.0916 -0.8705
   19CHL1    C9 1369   6.386   4.294   9.582  0.2967 -0.3501  0.0117
   19CHL1    H9 1370   6.285   4.308   9.628 -0.5906 -0.3730 -1.8825
   19CHL1   C10 1371   6.478   4.271   9.705  0.4875  0.3673  0.0211
   19CHL1   C19 1372   6.626   4.267   9.655 -0.3102  0.2948  0.1849
   19CHL1  H19A 1373   6.650   4.374   9.638  0.2845  0.2409  0.7021
   19CHL1  H19B 1374   6.703   4.235   9.728  0.0715 -2.3476 -1.3167
   19CHL1  H19C 1375   6.646   4.209   9.562 -1.6703  1.4780 -0.8768
   19CHL1    C1 1376   6.461   4.383   9.814 -0.1514 -0.3741 -0.0999
   19CHL1   H1A 1377   6.490   4.484   9.777 -1.7388 -0.7367 -2.4874
   19CHL1   H1B 1378   6.356   4.379   9.851 -0.7457  1.7812 -1.4474
   19CHL1    C2 1379   6.549   4.347   9.940 -0.5686  0.1731  0.3114
   19CHL1   H2A 1380   6.523   4.423  10.016  0.0544  1.0079 -0.2946
   19CHL1   H2B 1381   6.657   4.354   9.918 -0.1022 -1.2783  2.0395
   19CHL1   C20 1382   6.245   4.442   9.071  0.0771 -0.0423 -0.4898
   19CHL1   H20 1383   6.301   4.524   9.120 -3.0222  1.0665  1.3831
   19CHL1   C21 1384   6.101   4.498   9.033 -0.4586 -0.2658  0.4058
   19CHL1  H21A 1385   6.120   4.572   8.953  0.6792 -1.3904 -0.3659
   19CHL1  H21B 1386   6.060   4.566   9.111 -0.8113 -0.4959  0.4254
   19CHL1  H21C 1387   6.036   4.414   9.001 -1.0187 -0.3487  1.7140
   19CHL1   C22 1388   6.314   4.387   8.948  0.0626 -0.1358  0.4894
   19CHL1  H22A 1389   6.406   4.328   8.968  0.2998  0.5601  1.4371
   19CHL1  H22B 1390   6.248   4.325   8.884  1.2109  2.3983 -3.3199
   19CHL1   C23 1391   6.366   4.503   8.859  0.0858 -0.6826 -0.1565
   19CHL1  H23A 1392   6.294   4.587   8.857  2.3972  1.3278 -0.7725
   19CHL1  H23B 1393   6.457   4.547   8.905  0.9467 -0.4977 -1.9882
   19CHL1   C24 1394   6.415   4.465   8.715 -0.7107 -0.3554  0.0072
   19CHL1  H24A 1395   6.505   4.402   8.730 -1.1921 -0.8375  0.9277
   19CHL1  H24B 1396   6.341   4.397   8.667 -1.0379  0.3263 -0.4548
   19CHL1   C25 1397   6.464   4.581   8.625 -0.3022  0.2675 -0.2508
   19CHL1   H25 1398   6.507   4.535   8.533 -1.0190 -3.3551  1.1229
   19CHL1   C26 1399   6.342   4.661   8.580 -0.6357  0.2479  0.3964
   19CHL1  H26A 1400   6.364   4.718   8.487 -1.7178  0.9495  0.5681
   19CHL1  H26B 1401   6.258   4.593   8.555  0.2598 -0.0421 -2.0206
   19CHL1  H26C 1402   6.321   4.735   8.660 -0.2745  2.3897 -1.4410
   19CHL1   C27 1403   6.578   4.662   8.690  0.3075  0.3629 -0.4718
   19CHL1  H27A 1404   6.667   4.600   8.713  1.2303  2.1714  0.9444
   19CHL1  H27B 1405   6.615   4.737   8.616 -0.8560  1.0652 -0.3543
   19CHL1  H27C 1406   6.543   4.704   8.787  2.5462  0.1350  0.4500
   20CHL1    C3 1407   0.981   5.292  10.342  1.1434 -0.5361 -0.0579
   20CHL1    H3 1408   0.969   5.399  10.312 -0.1920 -0.4271  0.8540
   20CHL1    O3 1409   0.986   5.290  10.478 -0.0837  0.3363 -0.2138
   20CHL1   H3' 1410   0.996   5.195  10.482 -2.2311  0.0256 -1.3724
   20CHL1    C4 1411   0.873   5.206  10.285  0.3515 -0.4791 -0.4378
   20CHL1   H4A 1412   0.897   5.101  10.315  1.6712 -0.0645 -0.0094
   20CHL1   H4B 1413   0.777   5.247  10.323  1.3813  0.0398  1.7213
   20CHL1    C5 1414   0.876   5.222  10.135  0.3561  0.1188 -0.3079
   20CHL1    C6 1415   0.766   5.259  10.069 -0.0121  0.3524 -0.5850
   20CHL1    H6 1416   0.677   5.281  10.130  1.3506 -0.6383  1.8406
   20CHL1    C7 1417   0.757   5.269   9.921 -0.9170 -0.3320  0.4887
   20CHL1   H7A 1418   0.671   5.203   9.896 -1.9979  1.2565 -0.0478
   20CHL1   H7B 1419   0.731   5.372   9.889 -0.7954 -1.1252 -2.3003
   20CHL1    C8 1420   0.881   5.205   9.845 -0.6579  0.6725  0.2734
   20CHL1    H8 1421   0.876   5.095   9.855  1.5843  0.4737 -0.5797
   20CHL1   C14 1422   0.875   5.252   9.706 -0.0013  0.0976  0.1170
   20CHL1   H14 1423   0.884   5.363   9.704  2.5257 -0.1051 -2.0781
   20CHL1   C15 1424   0.747   5.221   9.627  0.2745 -0.5405 -0.3663
   20CHL1  H15A 1425   0.719   5.113   9.628  3.8498 -1.5364  0.3688
   20CHL1  H15B 1426   0.663   5.286   9.657  0.8633  1.1463 -2.2374
   20CHL1   C16 1427   0.792   5.253   9.488 -0.4655 -0.1363  0.3849
   20CHL1  H16A 1428   0.748   5.177   9.420 -2.2556 -0.6145  2.0506
   20CHL1  H16B 1429   0.755   5.356   9.468 -0.4971 -0.0082  1.0777
   20CHL1   C17 1430   0.946   5.255   9.483 -0.3040 -0.5926 -0.1972
   20CHL1   H17 1431   0.968   5.363   9.500 -0.5323 -0.8875  2.0843
   20CHL1   C13 1432   0.986   5.191   9.621  0.3100  0.5396 -0.4232
   20CHL1   C18 1433   0.977   5.034   9.605  0.4299  0.0033  0.1409
   20CHL1  H18A 1434   0.892   4.998   9.544 -0.3650  0.8521  0.7234
   20CHL1  H18B 1435   1.072   4.991   9.568  0.2495 -0.7625  0.5685
   20CHL1  H18C 1436   0.964   4.996   9.709 -1.1776  0.6763  0.1996
   20CHL1   C12 1437   1.126   5.238   9.678  0.2168  0.3281  0.2014
   20CHL1  H12A 1438   1.217   5.194   9.632  0.8086  2.2109 -0.4482
   20CHL1  H12B 1439   1.136   5.348   9.671  0.3561  0.4107  1.6443
   20CHL1   C11 1440   1.132   5.208   9.831 -0.7846  0.2963 -0.0974
   20CHL1  H11A 1441   1.130   5.097   9.828 -2.7329  0.2806  1.1163
   20CHL1  H11B 1442   1.223   5.258   9.870 -0.7709  1.9264 -2.1438
   20CHL1    C9 1443   1.008   5.244   9.915 -0.2199  0.0459 -0.7599
   20CHL1    H9 1444   1.013   5.354   9.911  0.3857 -0.0427 -2.5743
   20CHL1   C10 1445   1.009   5.186  10.059  0.2663 -0.0270 -0.0882
   20CHL1   C19 1446   1.024   5.031  10.077 -1.1292 -0.1496  0.1870
   20CHL1  H19A 1447   1.108   4.985  10.021 -0.6550 -1.2103  1.7116
   20CHL1  H19B 1448   1.035   5.001  10.184  0.2836  0.8535  0.3239
   20CHL1  H19C 1449   0.930   4.984  10.041 -1.0949  0.7863 -1.1278
   20CHL1    C1 1450   1.135   5.248  10.134 -0.4977  0.2849 -0.2245
   20CHL1   H1A 1451   1.224   5.190  10.102 -0.5995 -0.7624  1.3233
   20CHL1   H1B 1452   1.146   5.353  10.099  0.3447  1.7200  3.9262
   20CHL1    C2 1453   1.119   5.246  10.296  0.6638 -0.4193  0.0739
   20CHL1   H2A 1454   1.198   5.314  10.333  0.9156 -0.6531 -0.0314
   20CHL1   H2B 1455   1.145   5.141  10.322 -1.9966 -0.6211  2.0436
   20CHL1   C20 1456   1.010   5.209   9.350 -0.6872 -0.3641 -0.1656
   20CHL1   H20 1457   0.985   5.102   9.340 -0.5607 -0.3380 -0.7766
   20CHL1   C21 1458   1.162   5.209   9.347 -0.2230  0.3440  0.1262
   20CHL1  H21A 1459   1.195   5.171   9.248  0.8871 -1.1871  1.0819
   20CHL1  H21B 1460   1.210   5.157   9.432  2.4133  1.5749 -0.5501
   20CHL1  H21C 1461   1.196   5.315   9.350 -0.4814  0.3871  1.9137
   20CHL1   C22 1462   0.950   5.276   9.223  0.3671  0.1554 -0.8400
   20CHL1  H22A 1463   0.971   5.212   9.134 -0.8192  0.1223 -1.1064
   20CHL1  H22B 1464   0.839   5.278   9.231  0.4901 -1.0607  1.3467
   20CHL1   C23 1465   0.998   5.415   9.197  0.5157  0.8961  0.6614
   20CHL1  H23A 1466   0.975   5.470   9.291  2.0041  0.8069  1.0982
   20CHL1  H23B 1467   1.109   5.418   9.188  0.8482 -0.0537  3.7713
   20CHL1   C24 1468   0.923   5.477   9.075  0.6581  0.0285 -0.1757
   20CHL1  H24A 1469   0.817   5.447   9.079 -0.1708  2.2619 -3.3941
   20CHL1  H24B 1470   0.944   5.586   9.087  0.5414  0.0011  0.2830
   20CHL1   C25 1471   0.985   5.430   8.938  0.1236  0.3058  0.1197
   20CHL1   H25 1472   0.988   5.319   8.945 -1.3751  0.2784  0.3794
   20CHL1   C26 1473   0.899   5.481   8.822  0.2585 -0.0840 -0.8476
   20CHL1  H26A 1474   0.793   5.455   8.840  0.5686  0.0826  1.3740
   20CHL1  H26B 1475   0.901   5.592   8.820 -0.2577 -0.0664 -0.5441
   20CHL1  H26C 1476   0.925   5.448   8.719 -1.1463  1.9040 -1.8658
   20CHL1   C27 1477   1.128   5.472   8.907 -0.5784  0.0008  0.1253
   20CHL1  H27A 1478   1.132   5.583   8.908 -0.5236 -0.0058  1.2945
   20CHL1  H27B 1479   1.199   5.422   8.976  0.0273 -2.9706 -2.5691
   20CHL1  H27C 1480   1.164   5.441   8.807 -2.2031  0.1290 -0.5190
   21CHL1    C3 1481   1.052   1.375  10.430 -0.2741 -0.2301 -0.1346
   21CHL1    H3 1482   1.126   1.366  10.347  1.3397 -0.4934  1.3044
   21CHL1    O3 1483   1.115   1.371  10.554 -0.0054 -0.2306 -0.1808
   21CHL1   H3' 1484   1.051   1.350  10.622  1.8159 -1.9311  1.0499
   21CHL1    C4 1485   0.961   1.505  10.417 -0.5175 -0.4865  0.4942
   21CHL1   H4A 1486   0.887   1.500  10.500 -1.9908 -0.9902 -0.8255
   21CHL1   H4B 1487   1.025   1.596  10.421  1.1583 -1.5519 -1.3406
   21CHL1    C5 1488   0.883   1.498  10.284  0.5998 -0.4733  0.2251
   21CHL1    C6 1489   0.913   1.593  10.187  0.6923  1.0090  0.4300
   21CHL1    H6 1490   0.983   1.676  10.205  0.6919  0.9734  0.5986
   21CHL1    C7 1491   0.855   1.589  10.049 -0.0002 -0.2316 -0.5037
   21CHL1   H7A 1492   0.836   1.691  10.008  0.9942  0.1922  0.0678
   21CHL1   H7B 1493   0.933   1.545   9.983 -1.3724 -2.1904 -0.8526
   21CHL1    C8 1494   0.725   1.503  10.048  0.6831 -0.1370  0.2202
   21CHL1    H8 1495   0.646   1.558  10.105  1.4070  0.9435  0.1838
   21CHL1   C14 1496   0.686   1.482   9.901  0.2440  0.2594  0.3529
   21CHL1   H14 1497   0.757   1.412   9.853  0.2602 -0.0641  0.8429
   21CHL1   C15 1498   0.687   1.607   9.815  0.1761  1.0837 -0.2988
   21CHL1  H15A 1499   0.650   1.693   9.874 -0.8469  0.2232  0.3330
   21CHL1  H15B 1500   0.783   1.641   9.772 -0.3568  1.1617 -1.4576
   21CHL1   C16 1501   0.594   1.573   9.692  0.2013 -0.8347  0.6685
   21CHL1  H16A 1502   0.509   1.643   9.674  0.8831 -0.4851 -1.4003
   21CHL1  H16B 1503   0.653   1.577   9.598 -2.5558 -0.7140 -1.1149
   21CHL1   C17 1504   0.538   1.433   9.720  0.1909  0.0666 -0.9182
   21CHL1   H17 1505   0.618   1.365   9.683  0.3839  0.3941 -1.1028
   21CHL1   C13 1506   0.552   1.410   9.877 -0.4730 -0.1055  0.2533
   21CHL1   C18 1507   0.433   1.483   9.947 -0.4408  0.1398  0.6532
   21CHL1  H18A 1508   0.454   1.507  10.054 -1.8674  1.0832  0.7227
   21CHL1  H18B 1509   0.406   1.580   9.900  1.4403  1.3604  1.9983
   21CHL1  H18C 1510   0.346   1.415   9.938  1.3649 -2.1134 -0.1833
   21CHL1   C12 1511   0.577   1.268   9.927 -1.0366 -0.5158  0.0516
   21CHL1  H12A 1512   0.482   1.211   9.925 -0.9669 -0.5911 -1.1557
   21CHL1  H12B 1513   0.644   1.204   9.866  1.8629  1.5498  0.9401
   21CHL1   C11 1514   0.628   1.259  10.073 -0.0841 -0.7640 -0.0770
   21CHL1  H11A 1515   0.538   1.285  10.131  0.2542 -0.0434  0.1311
   21CHL1  H11B 1516   0.656   1.156  10.102  2.0553  0.1970  1.4011
   21CHL1    C9 1517   0.747   1.362  10.108  0.3886 -0.1970 -0.5172
   21CHL1    H9 1518   0.834   1.329  10.048  0.8386  1.1121 -0.5893
   21CHL1   C10 1519   0.797   1.370  10.258 -0.0718  0.3876 -0.0709
   21CHL1   C19 1520   0.669   1.378  10.345  0.0165  0.2325 -0.0237
   21CHL1  H19A 1521   0.610   1.285  10.331  2.3576 -1.5195  1.2795
   21CHL1  H19B 1522   0.701   1.383  10.451  1.2568 -1.2842 -0.3061
   21CHL1  H19C 1523   0.601   1.461  10.317  1.2473  0.3724 -2.7909
   21CHL1    C1 1524   0.895   1.244  10.278  0.3060  0.2393 -0.0627
   21CHL1   H1A 1525   0.850   1.143  10.266 -1.1844  0.7177  1.3678
   21CHL1   H1B 1526   0.979   1.248  10.206  0.9679  0.8780  0.7264
   21CHL1    C2 1527   0.973   1.250  10.408  0.0185  0.3470  0.0059
   21CHL1   H2A 1528   1.033   1.158  10.422  0.3918  0.5727 -0.1139
   21CHL1   H2B 1529   0.897   1.260  10.489 -1.6975 -1.5969 -1.2994
   21CHL1   C20 1530   0.411   1.399   9.637  0.3448 -0.1861  0.1238
   21CHL1   H20 1531   0.338   1.475   9.673 -1.8740 -3.3226  2.5191
   21CHL1   C21 1532   0.369   1.258   9.674  0.0278 -0.3974 -0.4573
   21CHL1  H21A 1533   0.360   1.250   9.785  0.3012  1.9034 -0.2566
   21CHL1  H21B 1534   0.452   1.186   9.654  0.1542  0.0124 -1.3926
   21CHL1  H21C 1535   0.271   1.227   9.632 -0.9936  0.8452  0.9457
   21CHL1   C22 1536   0.420   1.438   9.489  0.4403 -0.0727 -0.2020
   21CHL1  H22A 1537   0.425   1.549   9.484 -2.0840  0.0383 -0.9437
   21CHL1  H22B 1538   0.510   1.398   9.437  1.9056  0.5072  1.8393
   21CHL1   C23 1539   0.293   1.406   9.414 -0.1080 -0.1949 -0.6653
   21CHL1  H23A 1540   0.269   1.298   9.415 -2.5524  0.3086  1.7220
   21CHL1  H23B 1541   0.206   1.446   9.472  2.0555  0.1172  2.5268
   21CHL1   C24 1542   0.309   1.460   9.268 -0.6273 -0.0170  0.1069
   21CHL1  H24A 1543   0.341   1.566   9.273 -3.2125  0.7382  1.4644
   21CHL1  H24B 1544   0.391   1.400   9.222  0.6273  0.4511  1.6375
   21CHL1   C25 1545   0.185   1.439   9.188  0.1657  0.0390  0.0704
   21CHL1   H25 1546   0.117   1.371   9.243  1.6758 -1.2479  0.3440
   21CHL1   C26 1547   0.106   1.576   9.179 -0.2227 -0.3043 -0.7591
   21CHL1  H26A 1548   0.089   1.601   9.286 -1.5528 -1.6124 -0.6651
   21CHL1  H26B 1549   0.172   1.654   9.133 -1.9311  1.3003 -0.5395
   21CHL1  H26C 1550   0.010   1.575   9.125 -0.0293  0.7469 -1.1420
   21CHL1   C27 1551   0.216   1.383   9.045  0.0647 -0.8893 -0.2921
   21CHL1  H27A 1552   0.124   1.367   8.985 -0.0568 -0.3914 -0.2412
   21CHL1  H27B 1553   0.289   1.456   9.002 -0.8398  0.9350  1.1927
   21CHL1  H27C 1554   0.260   1.281   9.046  1.2840 -0.4372 -2.4502
   22CHL1    C3 1555   0.902   2.629  10.149 -0.7273  0.4157 -0.3385
   22CHL1    H3 1556   1.004   2.650  10.111  0.2203  1.2369  2.5659
   22CHL1    O3 1557   0.907   2.626  10.290 -0.9287  0.4563 -0.0457
   22CHL1   H3' 1558   0.934   2.716  10.310 -0.0757 -0.0593  1.2584
   22CHL1    C4 1559   0.818   2.747  10.102  0.3279 -0.1237  0.0020
   22CHL1   H4A 1560   0.714   2.732  10.138  0.7408 -2.3700  0.3385
   22CHL1   H4B 1561   0.853   2.841  10.148  0.7485 -1.5976  2.8045
   22CHL1    C5 1562   0.803   2.752   9.947  0.8571  0.0569  0.2310
   22CHL1    C6 1563   0.831   2.862   9.874  0.1929 -0.4286 -0.5796
   22CHL1    H6 1564   0.856   2.960   9.917 -2.9887  0.4739 -0.6325
   22CHL1    C7 1565   0.809   2.861   9.722  0.0812  0.9373  0.0276
   22CHL1   H7A 1566   0.763   2.954   9.681  0.9631  1.1950 -0.3829
   22CHL1   H7B 1567   0.907   2.841   9.675 -1.0196 -1.5711 -1.3229
   22CHL1    C8 1568   0.718   2.743   9.667  0.5230 -0.2092 -0.0707
   22CHL1    H8 1569   0.612   2.766   9.692  0.4661  0.0650 -0.5668
   22CHL1   C14 1570   0.720   2.732   9.516 -0.9473 -0.1034 -0.6563
   22CHL1   H14 1571   0.827   2.708   9.495 -1.1990  0.8048 -3.1053
   22CHL1   C15 1572   0.693   2.853   9.438 -0.8000 -0.3695  0.2862
   22CHL1  H15A 1573   0.610   2.902   9.494 -1.0003 -1.8045  1.2776
   22CHL1  H15B 1574   0.780   2.921   9.428 -0.3467 -1.0249 -0.3251
   22CHL1   C16 1575   0.646   2.802   9.301  0.7197 -0.0603 -1.2458
   22CHL1  H16A 1576   0.544   2.844   9.283  0.1907 -0.4391  0.6798
   22CHL1  H16B 1577   0.720   2.842   9.229  1.5802  1.6205  0.5085
   22CHL1   C17 1578   0.652   2.648   9.312 -0.3639 -0.2697 -0.4628
   22CHL1   H17 1579   0.747   2.603   9.277  0.1325  0.3847  0.0446
   22CHL1   C13 1580   0.633   2.619   9.466  0.5167  0.5042  0.7381
   22CHL1   C18 1581   0.481   2.641   9.495 -0.7753  0.6501 -0.5025
   22CHL1  H18A 1582   0.433   2.548   9.457 -0.8627  0.4109  0.1982
   22CHL1  H18B 1583   0.463   2.640   9.604  0.8472 -2.1194 -0.1954
   22CHL1  H18C 1584   0.445   2.736   9.450 -1.4373  0.5113 -0.2723
   22CHL1   C12 1585   0.693   2.483   9.516  0.2433  0.4688 -0.6009
   22CHL1  H12A 1586   0.621   2.405   9.483  1.4826 -0.3789 -1.3417
   22CHL1  H12B 1587   0.797   2.473   9.477 -1.1709 -0.9414 -4.1616
   22CHL1   C11 1588   0.704   2.478   9.670  1.1186  0.0577 -0.0264
   22CHL1  H11A 1589   0.597   2.477   9.699 -0.1054 -2.1154 -4.2420
   22CHL1  H11B 1590   0.764   2.392   9.707 -0.8318 -1.0779  0.5883
   22CHL1    C9 1591   0.763   2.610   9.735  0.1187 -0.1023 -0.6598
   22CHL1    H9 1592   0.872   2.599   9.714  0.2176 -0.8214  0.1939
   22CHL1   C10 1593   0.754   2.618   9.889 -0.7610  0.3548  0.4885
   22CHL1   C19 1594   0.605   2.614   9.934  0.2569 -0.6884 -0.5233
   22CHL1  H19A 1595   0.586   2.630  10.042  0.2981  0.6762 -0.7160
   22CHL1  H19B 1596   0.539   2.685   9.880  0.3189  1.0942  1.6750
   22CHL1  H19C 1597   0.574   2.509   9.912  4.0746 -1.5730 -2.0192
   22CHL1    C1 1598   0.837   2.501   9.947 -0.4378 -0.7996 -0.2944
   22CHL1   H1A 1599   0.801   2.401   9.915 -0.3492 -0.6767 -0.7783
   22CHL1   H1B 1600   0.941   2.513   9.909 -0.2811  3.6088  1.2594
   22CHL1    C2 1601   0.848   2.494  10.095 -0.0346 -0.1165 -0.3282
   22CHL1   H2A 1602   0.925   2.423  10.130  2.5357  2.1771 -1.1420
   22CHL1   H2B 1603   0.751   2.479  10.148  0.3952 -1.6615  0.0234
   22CHL1   C20 1604   0.544   2.599   9.211  0.7410 -0.9173 -0.8533
   22CHL1   H20 1605   0.444   2.633   9.246  0.5539 -1.8185 -0.5159
   22CHL1   C21 1606   0.536   2.443   9.209 -0.4891  0.4735  0.4101
   22CHL1  H21A 1607   0.466   2.401   9.134  0.7708  0.6386 -0.8917
   22CHL1  H21B 1608   0.507   2.398   9.306 -0.6792  1.2897  0.7343
   22CHL1  H21C 1609   0.636   2.410   9.172  0.0009  3.0595 -0.7078
   22CHL1   C22 1610   0.564   2.658   9.073  0.5984 -0.7911 -0.2236
   22CHL1  H22A 1611   0.551   2.768   9.068  0.6542 -0.7863 -0.2522
   22CHL1  H22B 1612   0.668   2.637   9.041  1.3597 -1.5357  2.6172
   22CHL1   C23 1613   0.467   2.600   8.967  0.4698 -0.1442  0.1871
   22CHL1  H23A 1614   0.463   2.489   8.956  2.5373  0.0386 -3.1343
   22CHL1  H23B 1615   0.363   2.609   9.004  0.3912  0.6775 -0.2362
   22CHL1   C24 1616   0.481   2.662   8.832  0.5020 -0.1783  0.2817
   22CHL1  H24A 1617   0.455   2.770   8.835  0.6751 -0.1418  0.4855
   22CHL1  H24B 1618   0.588   2.655   8.802  0.7156  1.6650  0.5421
   22CHL1   C25 1619   0.399   2.602   8.719  0.5295 -0.0320 -0.2248
   22CHL1   H25 1620   0.429   2.495   8.719 -0.0519 -0.1946 -0.9814
   22CHL1   C26 1621   0.246   2.623   8.740  0.4503  0.1525 -0.5508
   22CHL1  H26A 1622   0.236   2.733   8.748  0.0399  0.3741 -3.5841
   22CHL1  H26B 1623   0.195   2.588   8.647  1.4561  1.4678 -1.6228
   22CHL1  H26C 1624   0.214   2.561   8.827  1.4851 -0.4207 -0.5697
   22CHL1   C27 1625   0.438   2.660   8.584 -0.2997 -0.2945  0.0324
   22CHL1  H27A 1626   0.549   2.651   8.585 -0.2546 -0.0306 -1.2777
   22CHL1  H27B 1627   0.412   2.593   8.499 -0.5505 -0.6150  0.3647
   22CHL1  H27C 1628   0.405   2.766   8.577 -0.7735 -0.4838 -0.6970
   23CHL1    C3 1629   3.643   3.685  10.277 -0.5673  0.1844 -0.2282
   23CHL1    H3 1630   3.542   3.729  10.267 -0.3646  1.2235  1.9345
   23CHL1    O3 1631   3.688   3.726  10.406 -0.0108  0.1667 -0.0969
   23CHL1   H3' 1632   3.767   3.676  10.424  0.0783  0.6583  0.8788
   23CHL1    C4 1633   3.643   3.536  10.248  1.0104 -0.0213 -0.4230
   23CHL1   H4A 1634   3.744   3.490  10.247  1.2737  0.5104  1.5296
   23CHL1   H4B 1635   3.593   3.476  10.327 -3.8191  2.1768 -1.6397
   23CHL1    C5 1636   3.590   3.500  10.110 -0.6992 -0.5549  0.1320
   23CHL1    C6 1637   3.486   3.425  10.087  0.3174  0.5473 -0.9605
   23CHL1    H6 1638   3.443   3.381  10.178 -0.9309  0.4407 -1.5921
   23CHL1    C7 1639   3.429   3.391   9.951  0.9719  0.4387 -0.4941
   23CHL1   H7A 1640   3.415   3.281   9.945  0.9127  0.5387 -2.5699
   23CHL1   H7B 1641   3.326   3.431   9.938  1.2875  2.0608  1.7382
   23CHL1    C8 1642   3.520   3.438   9.834  0.2157 -0.2088  0.3411
   23CHL1    H8 1643   3.598   3.360   9.825  0.0885 -0.4484  1.2719
   23CHL1   C14 1644   3.446   3.439   9.692 -0.2914 -0.3405  0.2667
   23CHL1   H14 1645   3.369   3.517   9.710 -2.2110 -2.1111 -0.0664
   23CHL1   C15 1646   3.357   3.322   9.646  0.2258 -0.1695  0.7870
   23CHL1  H15A 1647   3.410   3.226   9.662 -0.3030 -0.5316  0.3640
   23CHL1  H15B 1648   3.264   3.313   9.705  1.2672 -1.1399  2.3103
   23CHL1   C16 1649   3.338   3.345   9.489 -0.2160 -0.1148  0.4786
   23CHL1  H16A 1650   3.376   3.248   9.450  0.3491  0.1995  0.2376
   23CHL1  H16B 1651   3.234   3.373   9.461  1.2941  2.8310 -2.5491
   23CHL1   C17 1652   3.432   3.459   9.445 -0.1669 -0.0401 -0.1657
   23CHL1   H17 1653   3.362   3.544   9.453 -0.3117 -0.0184 -1.5284
   23CHL1   C13 1654   3.523   3.478   9.569  0.1715  0.1049  0.0928
   23CHL1   C18 1655   3.644   3.391   9.556  0.2415  0.6194  0.2610
   23CHL1  H18A 1656   3.700   3.403   9.462 -2.4476 -3.1160 -1.9653
   23CHL1  H18B 1657   3.722   3.405   9.633  1.3117 -0.0953 -0.6825
   23CHL1  H18C 1658   3.623   3.282   9.567  0.0128  0.7755  1.4530
   23CHL1   C12 1659   3.568   3.622   9.595  0.0672 -0.5372 -0.1427
   23CHL1  H12A 1660   3.639   3.656   9.517  2.3896 -0.2380  2.0325
   23CHL1  H12B 1661   3.474   3.681   9.591  0.8771  0.8121  0.4809
   23CHL1   C11 1662   3.638   3.641   9.739  0.3235 -0.1019 -0.6318
   23CHL1  H11A 1663   3.735   3.591   9.722  0.0580 -0.4373 -1.1770
   23CHL1  H11B 1664   3.660   3.747   9.767 -1.5092 -0.4574  2.3681
   23CHL1    C9 1665   3.569   3.580   9.861  0.7780  0.3479  0.0097
   23CHL1    H9 1666   3.471   3.632   9.872  0.5491 -0.3937  1.6373
   23CHL1   C10 1667   3.655   3.586   9.991 -0.0464 -0.5337 -0.2455
   23CHL1   C19 1668   3.806   3.539   9.963  0.5268 -0.0454  0.0133
   23CHL1  H19A 1669   3.784   3.448   9.902 -3.8887 -0.7051  2.3961
   23CHL1  H19B 1670   3.852   3.616   9.897 -1.5269  1.9631  0.8388
   23CHL1  H19C 1671   3.861   3.528  10.058  1.2235 -0.1447 -0.3977
   23CHL1    C1 1672   3.668   3.731  10.036 -0.0379  0.6480  0.5611
   23CHL1   H1A 1673   3.727   3.788   9.961 -1.5665 -1.0790 -2.0445
   23CHL1   H1B 1674   3.564   3.772  10.036 -0.0766  0.6350  2.8693
   23CHL1    C2 1675   3.720   3.764  10.172 -0.1131  0.3684  0.3997
   23CHL1   H2A 1676   3.708   3.871  10.199  1.0856  0.2336  1.5343
   23CHL1   H2B 1677   3.827   3.743  10.194 -0.0809 -0.9247 -0.8860
   23CHL1   C20 1678   3.485   3.437   9.300 -0.3028  0.4467  0.2907
   23CHL1   H20 1679   3.542   3.342   9.299  1.7538  1.6488  0.3953
   23CHL1   C21 1680   3.574   3.554   9.267 -0.0732  0.4231  0.1663
   23CHL1  H21A 1681   3.667   3.546   9.328 -1.0117 -2.7601  1.2862
   23CHL1  H21B 1682   3.534   3.653   9.298  1.2412  0.7888  0.7617
   23CHL1  H21C 1683   3.604   3.558   9.160 -1.4560 -0.2315 -0.2528
   23CHL1   C22 1684   3.372   3.419   9.202  0.5341 -1.1269 -0.2460
   23CHL1  H22A 1685   3.304   3.337   9.234 -0.7893 -0.4996 -1.3774
   23CHL1  H22B 1686   3.309   3.510   9.199 -1.0523 -2.1491  1.3101
   23CHL1   C23 1687   3.418   3.374   9.058  0.2717  0.9685  0.2255
   23CHL1  H23A 1688   3.496   3.446   9.024 -0.6425  1.6512 -0.4580
   23CHL1  H23B 1689   3.451   3.268   9.065 -0.9388  0.4739 -1.1994
   23CHL1   C24 1690   3.305   3.377   8.954 -0.4732 -0.3488  0.3744
   23CHL1  H24A 1691   3.225   3.308   8.990 -1.9344  0.4995 -1.1494
   23CHL1  H24B 1692   3.268   3.481   8.959  0.5723  0.1639 -1.8861
   23CHL1   C25 1693   3.340   3.339   8.812 -0.2980  0.4882  0.0109
   23CHL1   H25 1694   3.403   3.426   8.781 -2.0626  2.4437  1.7866
   23CHL1   C26 1695   3.423   3.207   8.802  0.6236 -0.0490 -0.1033
   23CHL1  H26A 1696   3.440   3.182   8.695 -1.0257 -1.8622  0.0321
   23CHL1  H26B 1697   3.519   3.232   8.851  0.8401  0.5558 -0.8233
   23CHL1  H26C 1698   3.366   3.126   8.853  0.1487  2.0151  2.7494
   23CHL1   C27 1699   3.209   3.335   8.736  0.6614 -0.0335 -0.9134
   23CHL1  H27A 1700   3.168   3.438   8.743 -0.8355 -0.5555 -1.6696
   23CHL1  H27B 1701   3.228   3.332   8.627 -2.0549 -1.3051 -1.4069
   23CHL1  H27C 1702   3.140   3.257   8.776  0.2392  0.4273 -0.7318
   24CHL1    C3 1703   5.119   4.395  10.194  0.3272 -0.2232 -0.3261
   24CHL1    H3 1704   5.009   4.386  10.191  0.3256  0.1024 -1.4191
   24CHL1    O3 1705   5.168   4.356  10.322  0.5392  0.0236 -0.2078
   24CHL1   H3' 1706   5.235   4.289  10.313  0.2009 -0.7600  2.8237
   24CHL1    C4 1707   5.167   4.300  10.083  0.4447 -0.6183  0.4310
   24CHL1   H4A 1708   5.278   4.291  10.085  0.4539 -0.2837  1.9524
   24CHL1   H4B 1709   5.140   4.194  10.104  0.7321 -1.0392 -1.1961
   24CHL1    C5 1710   5.116   4.342   9.942 -0.0443 -0.2677 -0.5260
   24CHL1    C6 1711   5.062   4.254   9.863  0.2716  0.0419  0.3813
   24CHL1    H6 1712   5.045   4.150   9.896  1.2759 -1.0583 -2.3686
   24CHL1    C7 1713   5.018   4.286   9.717 -0.0030 -1.0160 -0.4435
   24CHL1   H7A 1714   5.036   4.211   9.637  0.6579  1.0003 -2.2518
   24CHL1   H7B 1715   4.907   4.297   9.718  0.1340  0.4447 -0.5395
   24CHL1    C8 1716   5.076   4.416   9.672 -0.2825 -0.3353  0.6687
   24CHL1    H8 1717   5.176   4.391   9.632 -0.4387  0.8208 -0.4697
   24CHL1   C14 1718   4.988   4.468   9.551  0.1352  1.0007  0.1415
   24CHL1   H14 1719   4.886   4.483   9.592  0.5126 -0.9046  1.8808
   24CHL1   C15 1720   4.970   4.373   9.430 -0.7385  0.2209 -0.7263
   24CHL1  H15A 1721   5.069   4.329   9.405 -1.8054 -2.1515 -0.8752
   24CHL1  H15B 1722   4.897   4.292   9.451  0.1385 -0.9903 -2.3265
   24CHL1   C16 1723   4.934   4.457   9.309 -0.1605 -0.5625 -0.7032
   24CHL1  H16A 1724   5.009   4.443   9.228  0.7320  0.4984 -0.0835
   24CHL1  H16B 1725   4.828   4.440   9.281 -0.6738 -1.0303  1.4540
   24CHL1   C17 1726   4.957   4.605   9.362 -0.8923  0.0732  0.3922
   24CHL1   H17 1727   4.856   4.638   9.394 -1.3342  0.2065 -1.1112
   24CHL1   C13 1728   5.040   4.596   9.489  0.0549 -0.4492 -0.4744
   24CHL1   C18 1729   5.188   4.589   9.445 -0.0557  0.5690  0.5021
   24CHL1  H18A 1730   5.218   4.692   9.416  0.2069  0.1263 -0.8159
   24CHL1  H18B 1731   5.254   4.552   9.526 -0.9200 -1.1725  0.4404
   24CHL1  H18C 1732   5.205   4.522   9.359  0.5582  1.8532 -0.3949
   24CHL1   C12 1733   5.023   4.706   9.595  0.0776  0.6865  0.3157
   24CHL1  H12A 1734   5.056   4.803   9.552 -1.7360  0.3473 -1.9802
   24CHL1  H12B 1735   4.916   4.717   9.624 -0.0326  0.2775  0.0671
   24CHL1   C11 1736   5.099   4.667   9.726  0.3942  0.2487 -0.3354
   24CHL1  H11A 1737   5.209   4.660   9.713  0.4300 -3.9008  1.2846
   24CHL1  H11B 1738   5.077   4.743   9.803 -0.5776 -1.3533  1.0024
   24CHL1    C9 1739   5.070   4.525   9.777  0.0831  0.2702 -0.2867
   24CHL1    H9 1740   4.964   4.535   9.808 -0.0604  2.4326 -1.3867
   24CHL1   C10 1741   5.152   4.487   9.900  0.1661 -0.5086 -0.2539
   24CHL1   C19 1742   5.303   4.496   9.886  0.1779 -0.6538 -0.4147
   24CHL1  H19A 1743   5.330   4.421   9.809  1.9810 -0.6235  0.1705
   24CHL1  H19B 1744   5.328   4.602   9.867  1.0812 -0.1607  3.2378
   24CHL1  H19C 1745   5.355   4.471   9.981  0.5285 -0.7848 -0.6367
   24CHL1    C1 1746   5.099   4.577  10.019 -0.7847  0.2080  0.6880
   24CHL1   H1A 1747   5.139   4.680  10.009  2.2982 -0.9976  0.1395
   24CHL1   H1B 1748   4.988   4.575  10.030 -0.6816 -1.6325  1.4302
   24CHL1    C2 1749   5.151   4.539  10.160 -0.1049 -0.4012 -0.0278
   24CHL1   H2A 1750   5.112   4.611  10.235  0.5593  1.1162 -1.1123
   24CHL1   H2B 1751   5.261   4.551  10.168 -0.1995  2.1937 -1.9481
   24CHL1   C20 1752   5.007   4.700   9.246  0.5619  0.2389 -0.6767
   24CHL1   H20 1753   5.109   4.666   9.215  0.5244  1.9691 -2.7090
   24CHL1   C21 1754   5.031   4.840   9.294  0.2840  0.3321  0.4065
   24CHL1  H21A 1755   5.126   4.836   9.351 -1.1319 -2.6972  2.7201
   24CHL1  H21B 1756   4.948   4.876   9.359 -0.6516 -0.3738 -0.3714
   24CHL1  H21C 1757   5.046   4.909   9.209  0.0118 -0.2667 -0.1381
   24CHL1   C22 1758   4.916   4.691   9.118 -0.2262 -0.1770 -0.3914
   24CHL1  H22A 1759   4.863   4.594   9.105 -1.2757  0.2854  0.3969
   24CHL1  H22B 1760   4.832   4.761   9.137 -1.0378 -1.5451  1.1624
   24CHL1   C23 1761   4.969   4.748   8.988 -0.6591 -0.9281  0.3625
   24CHL1  H23A 1762   4.980   4.857   9.004 -0.8968 -1.0252  1.2185
   24CHL1  H23B 1763   5.065   4.698   8.962 -0.5071  0.3578 -1.6688
   24CHL1   C24 1764   4.872   4.724   8.869 -0.5037  0.5044 -0.1256
   24CHL1  H24A 1765   4.843   4.617   8.869  2.0581 -0.2168  0.0421
   24CHL1  H24B 1766   4.790   4.796   8.893  0.8324  1.2360  2.4947
   24CHL1   C25 1767   4.935   4.740   8.728  0.0268  0.5722 -0.5324
   24CHL1   H25 1768   4.969   4.844   8.707 -1.3170  1.3090  0.8178
   24CHL1   C26 1769   5.045   4.639   8.689  0.1531  0.2717 -0.6273
   24CHL1  H26A 1770   5.013   4.534   8.705  0.8612 -0.2826 -2.7699
   24CHL1  H26B 1771   5.089   4.635   8.587  1.2672 -0.6189 -0.1271
   24CHL1  H26C 1772   5.128   4.656   8.762  1.6464  0.5966 -2.3813
   24CHL1   C27 1773   4.821   4.706   8.624 -0.3548 -1.4296 -0.0620
   24CHL1  H27A 1774   4.752   4.621   8.642  1.0043 -2.5324 -0.0537
   24CHL1  H27B 1775   4.763   4.801   8.615  2.8901  0.8275  1.9418
   24CHL1  H27C 1776   4.867   4.689   8.524 -0.6845 -0.4447 -0.3934
   25CHL1    C3 1777   6.763   6.422  10.259  0.2218  0.0100  0.1126
   25CHL1    H3 1778   6.837   6.350  10.219  0.3145 -0.3291  0.8903
   25CHL1    O3 1779   6.803   6.468  10.387 -0.2729 -0.1630 -0.4880
   25CHL1   H3' 1780   6.755   6.551  10.394 -1.6309 -0.8571 -1.3460
   25CHL1    C4 1781   6.750   6.545  10.167  0.3390 -0.5335  0.5605
   25CHL1   H4A 1782   6.671   6.611  10.209 -0.5560 -0.3988 -1.2669
   25CHL1   H4B 1783   6.844   6.604  10.174  0.7935 -0.8168 -2.2821
   25CHL1    C5 1784   6.712   6.510  10.023 -0.0002  0.2449  0.1406
   25CHL1    C6 1785   6.802   6.535   9.928 -0.3308 -0.0438 -0.4041
   25CHL1    H6 1786   6.896   6.586   9.954 -0.2024  0.8331 -2.4379
   25CHL1    C7 1787   6.779   6.498   9.782 -0.0166 -0.5351  0.3584
   25CHL1   H7A 1788   6.797   6.581   9.710 -1.2493 -0.9564 -0.4479
   25CHL1   H7B 1789   6.843   6.409   9.762 -1.0789 -0.6536 -2.7513
   25CHL1    C8 1790   6.628   6.468   9.758  0.9170 -0.2022  0.2638
   25CHL1    H8 1791   6.575   6.565   9.747 -2.5156 -2.2004 -1.7088
   25CHL1   C14 1792   6.619   6.397   9.625  0.3300 -0.3530  0.4484
   25CHL1   H14 1793   6.670   6.298   9.631  0.3288 -0.3315  0.7786
   25CHL1   C15 1794   6.679   6.469   9.500  0.7104  0.3215  0.0743
   25CHL1  H15A 1795   6.649   6.575   9.515 -1.3077 -0.3151  0.6729
   25CHL1  H15B 1796   6.790   6.464   9.507  0.8202 -0.2578 -1.7657
   25CHL1   C16 1797   6.603   6.406   9.382 -0.1838 -0.1797  0.5566
   25CHL1  H16A 1798   6.569   6.489   9.317 -1.3367 -1.1992 -0.1640
   25CHL1  H16B 1799   6.657   6.336   9.314  0.5758  2.0074 -1.1318
   25CHL1   C17 1800   6.491   6.314   9.440  0.1561  0.5230 -0.9573
   25CHL1   H17 1801   6.543   6.218   9.461 -1.3197 -0.5480 -2.1018
   25CHL1   C13 1802   6.465   6.364   9.580  0.0696  0.6390 -0.8519
   25CHL1   C18 1803   6.382   6.497   9.552 -0.6689  0.0037 -0.6418
   25CHL1  H18A 1804   6.277   6.475   9.524 -0.7372  0.7745 -0.9901
   25CHL1  H18B 1805   6.375   6.562   9.641 -0.1734  1.4060 -1.6120
   25CHL1  H18C 1806   6.438   6.559   9.479 -2.3748 -0.1692 -2.1398
   25CHL1   C12 1807   6.414   6.268   9.692  1.0306 -0.4436  0.2940
   25CHL1  H12A 1808   6.314   6.222   9.673  0.3748  0.3961  1.6103
   25CHL1  H12B 1809   6.485   6.183   9.695  1.0118 -0.4054  2.1827
   25CHL1   C11 1810   6.421   6.344   9.825 -0.0573 -0.1742  0.9874
   25CHL1  H11A 1811   6.335   6.414   9.829 -1.2086 -1.6313  2.5875
   25CHL1  H11B 1812   6.393   6.268   9.901  1.4571  0.6233  2.3752
   25CHL1    C9 1813   6.569   6.379   9.866  0.6013  0.4509 -0.0876
   25CHL1    H9 1814   6.634   6.289   9.856  2.3356  1.4978  1.5039
   25CHL1   C10 1815   6.580   6.434  10.009  0.0362  0.3450  0.0371
   25CHL1   C19 1816   6.470   6.535  10.049 -0.0519 -0.5989  0.3895
   25CHL1  H19A 1817   6.366   6.497  10.045 -0.5671  1.0438 -2.7878
   25CHL1  H19B 1818   6.489   6.576  10.151  2.5813  1.0951 -0.7503
   25CHL1  H19C 1819   6.468   6.617   9.974 -0.1724 -2.2413 -1.4443
   25CHL1    C1 1820   6.579   6.314  10.110 -0.0422 -0.0546 -0.4140
   25CHL1   H1A 1821   6.474   6.278  10.120 -0.4870  1.3976  0.3643
   25CHL1   H1B 1822   6.630   6.226  10.066  1.5117 -0.5331  2.1959
   25CHL1    C2 1823   6.623   6.353  10.255  0.0906 -0.6423 -0.8616
   25CHL1   H2A 1824   6.635   6.258  10.311  3.1270  0.3021  0.2192
   25CHL1   H2B 1825   6.551   6.416  10.311  0.0746 -0.5794 -0.9523
   25CHL1   C20 1826   6.379   6.283   9.337  0.0442 -0.4872 -0.0715
   25CHL1   H20 1827   6.342   6.383   9.306  1.5040 -0.2988 -1.2377
   25CHL1   C21 1828   6.265   6.209   9.399  0.4757 -0.8075 -0.0828
   25CHL1  H21A 1829   6.292   6.104   9.425  0.5405 -0.7403  0.1222
   25CHL1  H21B 1830   6.179   6.219   9.328  1.4535 -3.9159 -1.8271
   25CHL1  H21C 1831   6.239   6.259   9.495  0.2670  0.0164 -0.5676
   25CHL1   C22 1832   6.425   6.205   9.218  0.1887  0.2293 -0.3950
   25CHL1  H22A 1833   6.504   6.261   9.163  1.2085 -1.4378 -0.6748
   25CHL1  H22B 1834   6.466   6.108   9.253  0.1747  0.4548  0.2524
   25CHL1   C23 1835   6.330   6.161   9.095 -0.5959  0.0730  0.0639
   25CHL1  H23A 1836   6.231   6.120   9.125  0.8453 -2.1486  2.0367
   25CHL1  H23B 1837   6.316   6.260   9.048  1.2124 -0.6430 -2.0583
   25CHL1   C24 1838   6.398   6.053   9.002 -0.3505 -0.3605 -0.7357
   25CHL1  H24A 1839   6.491   6.098   8.961 -0.0483  0.9472  1.2877
   25CHL1  H24B 1840   6.429   5.972   9.072  0.8667  0.6738 -0.0490
   25CHL1   C25 1841   6.328   6.004   8.885  0.4659 -0.4189 -0.4358
   25CHL1   H25 1842   6.238   5.952   8.926 -0.1716  0.8060 -0.2392
   25CHL1   C26 1843   6.295   6.118   8.785  0.3222 -0.1422 -0.3876
   25CHL1  H26A 1844   6.255   6.090   8.685  1.2700 -0.8716 -0.5771
   25CHL1  H26B 1845   6.236   6.193   8.841  0.7758  0.6788 -1.0011
   25CHL1  H26C 1846   6.391   6.168   8.761 -0.4323  1.4558 -0.0826
   25CHL1   C27 1847   6.406   5.898   8.801 -0.1338  0.0340 -0.0704
   25CHL1  H27A 1848   6.467   5.834   8.868 -0.8782 -1.7174 -1.0143
   25CHL1  H27B 1849   6.338   5.841   8.734 -0.0408 -2.9090  2.2000
   25CHL1  H27C 1850   6.488   5.948   8.746  1.6360 -2.2086  0.4420
   26CHL1    C3 1851   1.247   2.034  10.433  0.4181  0.8380  0.2889
   26CHL1    H3 1852   1.313   1.950  10.405 -1.1259 -0.2721 -0.0878
   26CHL1    O3 1853   1.272   2.081  10.562  0.6620  0.5301  0.4737
   26CHL1   H3' 1854   1.267   2.176  10.552  0.6539  0.7169  2.0437
   26CHL1    C4 1855   1.280   2.151  10.328  0.5170  0.1672  0.0446
   26CHL1   H4A 1856   1.205   2.232  10.346  2.1770  1.7671 -0.1276
   26CHL1   H4B 1857   1.381   2.185  10.359  0.0967 -0.4224  2.1567
   26CHL1    C5 1858   1.260   2.095  10.190  0.7339  0.3577  0.7757
   26CHL1    C6 1859   1.359   2.090  10.105 -0.0001  0.2502  0.0527
   26CHL1    H6 1860   1.461   2.117  10.136 -0.2194  1.6651 -0.4237
   26CHL1    C7 1861   1.347   2.047   9.957 -0.4269 -0.1338  0.0689
   26CHL1   H7A 1862   1.402   2.125   9.900  0.0964 -1.1886 -0.8730
   26CHL1   H7B 1863   1.374   1.942   9.933  1.7508  0.2944  0.6034
   26CHL1    C8 1864   1.196   2.052   9.917 -0.6106  0.0276 -0.2195
   26CHL1    H8 1865   1.173   2.160   9.921  0.6174  0.3152 -0.6036
   26CHL1   C14 1866   1.173   1.997   9.786 -0.5951  0.0518 -0.2429
   26CHL1   H14 1867   1.196   1.890   9.804 -1.4090 -0.5870 -2.8000
   26CHL1   C15 1868   1.266   2.048   9.668  0.0162  0.1214 -0.6149
   26CHL1  H15A 1869   1.269   2.156   9.693  0.0513 -0.2937  1.1813
   26CHL1  H15B 1870   1.364   1.995   9.673 -0.8387 -1.3275  0.9999
   26CHL1   C16 1871   1.184   2.006   9.537 -0.1167  0.7620 -0.7375
   26CHL1  H16A 1872   1.149   2.103   9.495  0.0194  0.6527 -1.1005
   26CHL1  H16B 1873   1.249   1.945   9.471 -0.4806 -1.7361  1.1435
   26CHL1   C17 1874   1.061   1.920   9.582 -0.5791  0.2412  0.0167
   26CHL1   H17 1875   1.105   1.819   9.593 -1.0000 -0.3140 -2.8738
   26CHL1   C13 1876   1.030   1.981   9.725 -0.0470  0.3870  0.2777
   26CHL1   C18 1877   0.955   2.120   9.720  0.4050  0.5398 -0.0619
   26CHL1  H18A 1878   0.849   2.102   9.691  0.8476 -0.0015 -1.4033
   26CHL1  H18B 1879   0.952   2.183   9.811  2.1703  0.3869  0.1162
   26CHL1  H18C 1880   1.011   2.193   9.656 -0.6736  1.4470  0.0172
   26CHL1   C12 1881   0.953   1.893   9.829 -0.3257  0.0923  0.4928
   26CHL1  H12A 1882   0.857   1.865   9.780 -0.6294  1.1320  0.4769
   26CHL1  H12B 1883   1.005   1.795   9.833  0.5179  0.3533 -2.7383
   26CHL1   C11 1884   0.958   1.948   9.971  0.1434 -0.4459 -0.6412
   26CHL1  H11A 1885   0.894   2.038   9.986 -1.6848 -1.8706  0.2607
   26CHL1  H11B 1886   0.901   1.878  10.036  1.7886 -0.7504  0.4868
   26CHL1    C9 1887   1.105   1.976  10.021  0.1014  0.5286 -0.4541
   26CHL1    H9 1888   1.149   1.875  10.033  0.0450  0.2125 -2.6997
   26CHL1   C10 1889   1.111   2.046  10.159 -0.0091 -1.0651  0.2333
   26CHL1   C19 1890   1.012   2.170  10.167  0.2462 -0.4133  0.2123
   26CHL1  H19A 1891   1.022   2.232  10.259  0.6870 -2.3418  1.5089
   26CHL1  H19B 1892   1.014   2.229  10.073 -1.9081 -1.1891 -0.3630
   26CHL1  H19C 1893   0.909   2.128  10.168  1.4733 -3.7723 -2.0550
   26CHL1    C1 1894   1.072   1.942  10.270  0.4142 -0.6675  0.1828
   26CHL1   H1A 1895   0.964   1.921  10.260  0.8286 -2.0242 -1.8410
   26CHL1   H1B 1896   1.131   1.848  10.272  0.0786 -0.8464  2.4914
   26CHL1    C2 1897   1.098   1.995  10.414  0.5971 -0.3799  0.3568
   26CHL1   H2A 1898   1.070   1.913  10.483  1.1711  0.2688  1.3731
   26CHL1   H2B 1899   1.034   2.080  10.446  1.0104 -0.5496  1.6361
   26CHL1   C20 1900   0.953   1.927   9.478  1.5922  0.5187  0.3270
   26CHL1   H20 1901   0.885   2.015   9.483 -1.3394 -1.6153 -0.3087
   26CHL1   C21 1902   0.861   1.809   9.491  0.2873  0.6974 -0.3981
   26CHL1  H21A 1903   0.819   1.802   9.594  0.0293 -1.5617 -0.6261
   26CHL1  H21B 1904   0.895   1.706   9.469 -0.5926  0.2527  0.2750
   26CHL1  H21C 1905   0.779   1.833   9.420 -0.7367 -1.2800  0.0661
   26CHL1   C22 1906   1.003   1.933   9.332 -0.2821  0.2438 -0.1450
   26CHL1  H22A 1907   1.056   2.030   9.318  2.2624 -0.7396  2.1150
   26CHL1  H22B 1908   1.063   1.841   9.320 -1.1556 -0.7358  2.5448
   26CHL1   C23 1909   0.894   1.934   9.223  0.1608  0.1343  0.6225
   26CHL1  H23A 1910   0.853   1.831   9.223 -0.1250  0.2410  1.6894
   26CHL1  H23B 1911   0.815   2.011   9.235 -1.3323 -0.9136 -2.0912
   26CHL1   C24 1912   0.967   1.940   9.088  1.0215  0.0694  0.6900
   26CHL1  H24A 1913   1.031   2.030   9.096  1.1994  0.0560 -0.4758
   26CHL1  H24B 1914   1.037   1.854   9.087  0.6902 -0.2253  1.8131
   26CHL1   C25 1915   0.871   1.941   8.968 -0.3426  0.5109  0.5244
   26CHL1   H25 1916   0.792   2.017   8.987 -0.7543 -0.2085  1.7809
   26CHL1   C26 1917   0.959   1.973   8.848 -0.0690 -0.8833 -0.5809
   26CHL1  H26A 1918   1.051   1.911   8.844  0.2512 -0.5225  1.0721
   26CHL1  H26B 1919   0.905   1.967   8.750  2.4954 -1.2726 -2.0058
   26CHL1  H26C 1920   0.994   2.077   8.865 -1.6408 -0.7945  2.3531
   26CHL1   C27 1921   0.797   1.806   8.947  0.2128 -0.2190 -0.2408
   26CHL1  H27A 1922   0.741   1.767   9.035  0.9763  1.2675  0.9224
   26CHL1  H27B 1923   0.725   1.817   8.863 -1.3487 -0.9534  0.9574
   26CHL1  H27C 1924   0.867   1.725   8.917 -1.4091 -0.7253 -2.8329
   27CHL1    C3 1925   0.638   6.295  10.246 -0.8960  0.7445  0.2191
   27CHL1    H3 1926   0.749   6.285  10.240 -0.9120 -0.8253  2.1590
   27CHL1    O3 1927   0.618   6.318  10.383  0.7486 -0.6554  0.5797
   27CHL1   H3' 1928   0.661   6.241  10.421  1.2324 -1.7629 -2.0948
   27CHL1    C4 1929   0.580   6.418  10.177 -0.4693 -0.1955 -0.1628
   27CHL1   H4A 1930   0.474   6.441  10.202 -1.0224 -0.1414 -2.4346
   27CHL1   H4B 1931   0.644   6.507  10.197 -0.2158 -0.2702 -0.6375
   27CHL1    C5 1932   0.583   6.391  10.030  0.0874 -0.7843  0.7006
   27CHL1    C6 1933   0.660   6.470   9.957  0.8957 -0.1814 -0.1112
   27CHL1    H6 1934   0.716   6.550  10.007 -0.9339  0.4812  0.9315
   27CHL1    C7 1935   0.681   6.460   9.808  0.3087  0.1478  0.3852
   27CHL1   H7A 1936   0.673   6.562   9.763 -1.3050  0.3564  1.1043
   27CHL1   H7B 1937   0.777   6.411   9.781  0.1506 -0.1077  0.2830
   27CHL1    C8 1938   0.557   6.381   9.744  1.0680 -0.0433  0.2394
   27CHL1    H8 1939   0.466   6.440   9.767  0.1121 -2.0968  1.9244
   27CHL1   C14 1940   0.584   6.340   9.600  0.4617  0.7523  0.2921
   27CHL1   H14 1941   0.677   6.278   9.603 -0.3820 -0.7454 -2.5394
   27CHL1   C15 1942   0.620   6.444   9.491  0.6087  0.2973  0.0492
   27CHL1  H15A 1943   0.545   6.525   9.500 -1.6909 -1.8308  0.7110
   27CHL1  H15B 1944   0.727   6.472   9.500  1.4849 -1.7296 -3.3443
   27CHL1   C16 1945   0.620   6.360   9.360  0.0148  0.6637 -0.2450
   27CHL1  H16A 1946   0.560   6.399   9.275 -1.1666 -0.5667  0.0128
   27CHL1  H16B 1947   0.722   6.337   9.324  0.5348  1.8190  0.4473
   27CHL1   C17 1948   0.545   6.222   9.388 -0.0485 -0.6445  0.2741
   27CHL1   H17 1949   0.635   6.156   9.396  2.5534  2.7004 -0.1763
   27CHL1   C13 1950   0.491   6.235   9.533  0.2562  0.5032  0.8688
   27CHL1   C18 1951   0.353   6.297   9.509 -0.2459  0.3216  0.0709
   27CHL1  H18A 1952   0.314   6.345   9.602  0.7463  0.2803  0.5183
   27CHL1  H18B 1953   0.352   6.378   9.433  0.1367  0.4733  0.2222
   27CHL1  H18C 1954   0.279   6.219   9.482  0.8743 -0.1704 -1.6155
   27CHL1   C12 1955   0.492   6.107   9.614 -0.1505 -0.0639 -1.0158
   27CHL1  H12A 1956   0.429   6.026   9.569  0.3983  0.3311 -2.5262
   27CHL1  H12B 1957   0.593   6.061   9.619  0.6716  1.8499  0.2198
   27CHL1   C11 1958   0.444   6.149   9.756 -0.2151 -0.5176  0.2644
   27CHL1  H11A 1959   0.338   6.179   9.740 -0.7158 -2.3621  0.0287
   27CHL1  H11B 1960   0.456   6.062   9.824 -0.5024 -0.1117  0.8449
   27CHL1    C9 1961   0.545   6.246   9.824  0.3155  0.5217  0.4976
   27CHL1    H9 1962   0.650   6.211   9.817  0.5027  0.6895  2.2854
   27CHL1   C10 1963   0.508   6.264   9.973  0.4346  0.0797 -0.3453
   27CHL1   C19 1964   0.352   6.285   9.992  0.1817  0.0168  0.0470
   27CHL1  H19A 1965   0.283   6.218   9.936  0.6009  2.8526 -4.0889
   27CHL1  H19B 1966   0.331   6.276  10.101  0.2989  0.1905  0.0830
   27CHL1  H19C 1967   0.306   6.383   9.965 -0.1687  0.0776  0.8385
   27CHL1    C1 1968   0.555   6.148  10.055  0.0499 -0.1710  0.1032
   27CHL1   H1A 1969   0.491   6.062  10.027  0.9820 -0.4393 -1.2720
   27CHL1   H1B 1970   0.659   6.121  10.024 -0.0755 -0.5892  0.0388
   27CHL1    C2 1971   0.557   6.168  10.210 -0.0327  0.0724  0.3758
   27CHL1   H2A 1972   0.595   6.077  10.262  0.3614  0.9855  1.6865
   27CHL1   H2B 1973   0.450   6.170  10.239 -0.8063  0.4676 -2.3673
   27CHL1   C20 1974   0.461   6.166   9.267  0.0192  0.4584  0.3732
   27CHL1   H20 1975   0.375   6.228   9.236 -0.0107  1.2708  2.0261
   27CHL1   C21 1976   0.407   6.024   9.299  0.4448 -0.1899 -0.1403
   27CHL1  H21A 1977   0.323   6.035   9.370  1.6395  1.9709  1.0026
   27CHL1  H21B 1978   0.486   5.958   9.340  0.8656  0.8857  0.8262
   27CHL1  H21C 1979   0.369   5.976   9.207 -2.1596  1.1647  0.1912
   27CHL1   C22 1980   0.546   6.166   9.140  0.0513 -0.4824  0.0821
   27CHL1  H22A 1981   0.598   6.263   9.126 -1.3569 -0.0999 -2.7796
   27CHL1  H22B 1982   0.631   6.096   9.159 -0.3555 -0.6540  1.2748
   27CHL1   C23 1983   0.462   6.125   9.014  0.2215 -0.2151  0.3833
   27CHL1  H23A 1984   0.450   6.016   9.027  1.0705 -0.4353 -0.5837
   27CHL1  H23B 1985   0.367   6.183   9.017  0.2244 -0.2664  1.9196
   27CHL1   C24 1986   0.540   6.144   8.887  0.0184  0.6120 -0.4537
   27CHL1  H24A 1987   0.598   6.239   8.883  0.7380  0.1632 -0.7533
   27CHL1  H24B 1988   0.616   6.063   8.890  0.1598  0.7859  1.2029
   27CHL1   C25 1989   0.453   6.117   8.759 -0.0587  0.0360 -0.0799
   27CHL1   H25 1990   0.384   6.031   8.772 -1.3847  1.3648  1.9572
   27CHL1   C26 1991   0.359   6.234   8.720 -0.2087 -0.5884  0.6418
   27CHL1  H26A 1992   0.414   6.328   8.698  1.0566 -1.3736  0.4223
   27CHL1  H26B 1993   0.302   6.191   8.635  0.8447 -2.4257  0.8549
   27CHL1  H26C 1994   0.296   6.261   8.808  3.7566  4.4138  2.2296
   27CHL1   C27 1995   0.543   6.090   8.640 -0.1106 -0.5720  0.7261
   27CHL1  H27A 1996   0.606   6.177   8.611 -0.1158 -0.3528  1.3740
   27CHL1  H27B 1997   0.617   6.010   8.658  0.3860 -1.1532 -3.2945
   27CHL1  H27C 1998   0.476   6.045   8.563 -0.9705  0.5893  0.7788
   28CHL1    C3 1999   6.745   4.880  10.027 -0.4226  0.5081  0.5738
   28CHL1    H3 2000   6.704   4.787  10.073 -0.9719 -0.3224 -1.4958
   28CHL1    O3 2001   6.759   4.978  10.130  0.1407 -0.4260  0.7228
   28CHL1   H3' 2002   6.836   4.952  10.183 -0.6954 -3.7986  0.4301
   28CHL1    C4 2003   6.881   4.859   9.961  0.2787  0.0689 -0.6552
   28CHL1   H4A 2004   6.922   4.955   9.924  0.7090 -0.6558 -2.0864
   28CHL1   H4B 2005   6.952   4.810  10.031  0.3381 -0.9272 -1.3981
   28CHL1    C5 2006   6.868   4.769   9.837 -0.2817  0.1484 -0.2969
   28CHL1    C6 2007   6.926   4.649   9.828  0.7448 -0.0815 -0.9473
   28CHL1    H6 2008   6.988   4.620   9.913 -0.4451  0.3627  0.0929
   28CHL1    C7 2009   6.922   4.556   9.709 -0.5317 -0.3861 -0.3295
   28CHL1   H7A 2010   7.017   4.503   9.689 -0.7641 -0.3680 -1.4927
   28CHL1   H7B 2011   6.843   4.479   9.719 -0.8513 -0.2979 -2.0398
   28CHL1    C8 2012   6.886   4.638   9.581  0.0530 -0.0080 -0.3176
   28CHL1    H8 2013   6.974   4.702   9.559 -1.8640  3.1346  0.8415
   28CHL1   C14 2014   6.866   4.552   9.461 -0.4415 -0.1288  0.3371
   28CHL1   H14 2015   6.775   4.490   9.476 -0.1159 -1.0599 -1.3073
   28CHL1   C15 2016   6.985   4.456   9.417 -0.1403 -0.0852  0.3027
   28CHL1  H15A 2017   7.089   4.490   9.433 -0.4776  0.7366  0.8236
   28CHL1  H15B 2018   6.969   4.361   9.472 -0.2677  0.1274  0.6366
   28CHL1   C16 2019   6.959   4.423   9.274  0.1958  0.4937  1.1279
   28CHL1  H16A 2020   7.041   4.468   9.213 -1.3537  0.7346 -0.8250
   28CHL1  H16B 2021   6.956   4.314   9.255  1.9446  0.4660  0.8966
   28CHL1   C17 2022   6.835   4.504   9.230  0.2429  0.1036  0.3471
   28CHL1   H17 2023   6.750   4.440   9.263  0.2936  0.3268  0.9279
   28CHL1   C13 2024   6.828   4.621   9.329 -0.5571  0.4856  0.1548
   28CHL1   C18 2025   6.941   4.726   9.290  0.3460  0.0596  1.0830
   28CHL1  H18A 2026   6.896   4.784   9.207  1.3740  1.9232  1.8034
   28CHL1  H18B 2027   6.957   4.792   9.378  0.7221  1.2209  0.1531
   28CHL1  H18C 2028   7.040   4.682   9.264 -1.0941 -2.4238 -0.3599
   28CHL1   C12 2029   6.693   4.697   9.348  0.2974 -0.6412  0.4551
   28CHL1  H12A 2030   6.678   4.764   9.261 -1.1527 -0.6430  0.6884
   28CHL1  H12B 2031   6.600   4.638   9.366 -0.4063 -0.0176 -1.1253
   28CHL1   C11 2032   6.707   4.788   9.476  0.6767  0.0143  0.9868
   28CHL1  H11A 2033   6.779   4.866   9.444 -0.2672 -0.2190 -1.8498
   28CHL1  H11B 2034   6.610   4.840   9.493  0.6652  0.3708 -0.1332
   28CHL1    C9 2035   6.766   4.726   9.609  0.4321  0.5791 -0.2772
   28CHL1    H9 2036   6.693   4.650   9.644  0.0260  0.2252 -1.8224
   28CHL1   C10 2037   6.785   4.826   9.723 -0.3630 -0.0374  0.2654
   28CHL1   C19 2038   6.859   4.952   9.669  0.3762  0.0083 -0.5046
   28CHL1  H19A 2039   6.807   4.993   9.579 -0.7343  0.6673  0.4166
   28CHL1  H19B 2040   6.864   5.021   9.756  0.5035 -0.3331 -0.2429
   28CHL1  H19C 2041   6.960   4.923   9.634  0.8833  1.7969 -0.6147
   28CHL1    C1 2042   6.646   4.869   9.778  0.3892 -0.6174 -1.0272
   28CHL1   H1A 2043   6.592   4.937   9.709  0.0094 -0.4245 -0.5363
   28CHL1   H1B 2044   6.594   4.771   9.789 -1.3616  0.5963  1.9726
   28CHL1    C2 2045   6.651   4.931   9.918 -0.3069 -0.0636  0.0421
   28CHL1   H2A 2046   6.547   4.939   9.957  0.1049 -2.4279  1.7030
   28CHL1   H2B 2047   6.692   5.033   9.901  1.9603 -1.1435 -1.1957
   28CHL1   C20 2048   6.830   4.516   9.080  0.7774  0.3797 -0.5731
   28CHL1   H20 2049   6.913   4.577   9.038  1.2826  0.4895  0.5539
   28CHL1   C21 2050   6.712   4.606   9.036  0.1487  0.2454 -0.2721
   28CHL1  H21A 2051   6.719   4.710   9.077 -0.2204  0.3300 -0.4165
   28CHL1  H21B 2052   6.615   4.560   9.067  2.0366 -2.3320  2.0435
   28CHL1  H21C 2053   6.707   4.621   8.926  0.1019  2.3447 -0.0176
   28CHL1   C22 2054   6.825   4.380   9.012 -0.1104 -0.0076  0.0669
   28CHL1  H22A 2055   6.916   4.321   9.034 -0.4559 -0.6255 -0.1457
   28CHL1  H22B 2056   6.742   4.312   9.043 -0.1315  0.0892  0.2229
   28CHL1   C23 2057   6.831   4.391   8.854  0.5943 -0.5874 -0.3804
   28CHL1  H23A 2058   6.732   4.428   8.822  0.4141 -0.1676  0.6512
   28CHL1  H23B 2059   6.901   4.473   8.827 -1.3093  0.8986 -0.9523
   28CHL1   C24 2060   6.867   4.263   8.786  0.3921  0.7737  0.1042
   28CHL1  H24A 2061   6.969   4.233   8.817  1.0010  1.9977 -0.6882
   28CHL1  H24B 2062   6.787   4.187   8.803  1.6053 -0.4934  0.2396
   28CHL1   C25 2063   6.890   4.268   8.629  0.3148  0.0610  0.5685
   28CHL1   H25 2064   6.983   4.327   8.614  1.6026 -1.0925  3.5024
   28CHL1   C26 2065   6.934   4.118   8.589  0.2072 -0.1118  0.1946
   28CHL1  H26A 2066   6.847   4.053   8.613  0.4037  0.1152  1.5413
   28CHL1  H26B 2067   6.975   4.112   8.486 -0.6301 -1.1475 -0.0928
   28CHL1  H26C 2068   7.015   4.079   8.654 -1.3227  0.0208  2.2376
   28CHL1   C27 2069   6.777   4.322   8.544  0.2064 -0.3593 -0.4262
   28CHL1  H27A 2070   6.813   4.325   8.439 -0.8819  1.2724 -0.7674
   28CHL1  H27B 2071   6.681   4.267   8.551  0.3178 -0.8098 -2.2519
   28CHL1  H27C 2072   6.749   4.426   8.573  1.3302 -0.2341  0.2458
   29CHL1    C3 2073   1.441   3.101   6.702  0.1892  0.3446  0.3486
   29CHL1    H3 2074   1.351   3.036   6.712  2.2419 -2.4198  1.7402
   29CHL1    O3 2075   1.473   3.104   6.564  0.8842  0.3137  0.5380
   29CHL1   H3' 2076   1.474   3.011   6.540  0.6048 -0.0406  1.8981
   29CHL1    C4 2077   1.401   3.240   6.755 -0.1442 -0.4394  0.0419
   29CHL1   H4A 2078   1.481   3.315   6.734 -1.2168  0.3942 -1.1145
   29CHL1   H4B 2079   1.318   3.278   6.693 -0.5234  0.4353  1.0642
   29CHL1    C5 2080   1.366   3.235   6.902 -0.1134  0.3811 -0.0043
   29CHL1    C6 2081   1.243   3.278   6.943  0.1671  0.4603 -0.3273
   29CHL1    H6 2082   1.180   3.326   6.867  0.8027  0.1468 -1.0625
   29CHL1    C7 2083   1.201   3.267   7.087  0.1298  0.5898 -0.4257
   29CHL1   H7A 2084   1.144   3.360   7.108  1.9409  1.6158  0.0703
   29CHL1   H7B 2085   1.139   3.175   7.095  0.2912  0.6366  1.5665
   29CHL1    C8 2086   1.323   3.257   7.188  0.3972 -0.7723  0.1212
   29CHL1    H8 2087   1.380   3.351   7.193  1.8076 -1.6763  1.3062
   29CHL1   C14 2088   1.272   3.223   7.331 -0.8279  0.1007 -0.7697
   29CHL1   H14 2089   1.222   3.124   7.327  1.1933 -1.0414  1.3287
   29CHL1   C15 2090   1.161   3.313   7.402 -0.3358  0.2433 -0.3879
   29CHL1  H15A 2091   1.184   3.420   7.382  1.8486 -0.4338 -1.7089
   29CHL1  H15B 2092   1.060   3.303   7.357 -0.1105  0.6879 -0.9945
   29CHL1   C16 2093   1.171   3.275   7.550  0.3206  0.0193 -0.2717
   29CHL1  H16A 2094   1.180   3.378   7.591 -1.2109 -0.3848  1.1256
   29CHL1  H16B 2095   1.076   3.235   7.591  1.1273 -0.4625  1.1493
   29CHL1   C17 2096   1.297   3.183   7.562  0.0624 -0.2044  0.5250
   29CHL1   H17 2097   1.262   3.078   7.548 -0.5448  0.4145 -2.9941
   29CHL1   C13 2098   1.380   3.217   7.427  0.2926  0.3440  0.2586
   29CHL1   C18 2099   1.449   3.353   7.460 -0.5408 -0.1644  0.0557
   29CHL1  H18A 2100   1.372   3.424   7.496 -0.4296 -0.7426  1.4523
   29CHL1  H18B 2101   1.521   3.339   7.544 -0.0134 -1.6405 -0.6283
   29CHL1  H18C 2102   1.495   3.392   7.367  0.3814  1.7409  1.2874
   29CHL1   C12 2103   1.486   3.110   7.383 -0.3017  0.1639 -0.1107
   29CHL1  H12A 2104   1.579   3.121   7.442 -0.6351  1.9100  0.1312
   29CHL1  H12B 2105   1.447   3.011   7.412  1.2733 -0.1164  1.1202
   29CHL1   C11 2106   1.531   3.125   7.237 -0.0785  0.2271  0.1468
   29CHL1  H11A 2107   1.604   3.209   7.238  1.1486 -0.7740 -1.6762
   29CHL1  H11B 2108   1.578   3.028   7.208 -0.5751 -0.4059  1.4346
   29CHL1    C9 2109   1.421   3.141   7.141 -0.1088 -0.0356 -0.4941
   29CHL1    H9 2110   1.360   3.048   7.145 -1.5475  0.9098 -0.2745
   29CHL1   C10 2111   1.467   3.167   6.995 -0.3008  0.0523 -0.2241
   29CHL1   C19 2112   1.582   3.277   7.000  0.6748  0.3111 -0.5666
   29CHL1  H19A 2113   1.609   3.316   6.899 -0.2380 -0.6591 -1.1954
   29CHL1  H19B 2114   1.554   3.359   7.070 -0.3235 -0.4785 -0.0323
   29CHL1  H19C 2115   1.671   3.224   7.039  1.1679  3.2306  2.4993
   29CHL1    C1 2116   1.513   3.027   6.934 -0.1097 -0.0492 -0.3929
   29CHL1   H1A 2117   1.590   2.988   7.004 -0.3770 -1.7551 -1.0171
   29CHL1   H1B 2118   1.435   2.949   6.944  0.1314 -0.0881  1.4708
   29CHL1    C2 2119   1.560   3.037   6.783 -1.1099  0.2700  0.4685
   29CHL1   H2A 2120   1.576   2.936   6.741  0.3051  0.3506  0.7720
   29CHL1   H2B 2121   1.647   3.106   6.776 -0.3375 -1.0122 -3.2317
   29CHL1   C20 2122   1.376   3.183   7.692 -0.5164  0.3337  0.4080
   29CHL1   H20 2123   1.483   3.183   7.664 -0.0228  0.9062  2.1936
   29CHL1   C21 2124   1.337   3.061   7.771  1.1533  0.2772  0.6547
   29CHL1  H21A 2125   1.379   3.059   7.874 -0.8660 -0.8591  1.4726
   29CHL1  H21B 2126   1.379   2.968   7.727  0.6001 -0.0708  0.8642
   29CHL1  H21C 2127   1.227   3.051   7.775  0.9566  2.1099  0.3148
   29CHL1   C22 2128   1.357   3.314   7.774  0.1387  0.4041  0.5515
   29CHL1  H22A 2129   1.360   3.408   7.715  1.1888  0.8972  1.3896
   29CHL1  H22B 2130   1.251   3.309   7.807  0.6838  1.0019  2.4119
   29CHL1   C23 2131   1.445   3.339   7.891  0.4105 -0.8771 -0.1406
   29CHL1  H23A 2132   1.467   3.245   7.948 -0.1435  0.1223  1.7763
   29CHL1  H23B 2133   1.545   3.370   7.854  0.7302  0.8232  2.0351
   29CHL1   C24 2134   1.391   3.451   7.988  0.1948  0.4754  0.8605
   29CHL1  H24A 2135   1.373   3.540   7.925  1.2806 -0.1895 -0.4060
   29CHL1  H24B 2136   1.297   3.415   8.035 -0.8872  0.0756 -1.5653
   29CHL1   C25 2137   1.479   3.505   8.103  0.0434  0.6142 -0.8250
   29CHL1   H25 2138   1.561   3.570   8.066 -0.0579  1.2504  0.0677
   29CHL1   C26 2139   1.399   3.582   8.207 -0.1714 -0.4193  0.3187
   29CHL1  H26A 2140   1.366   3.677   8.160 -2.5770 -1.6644 -0.5437
   29CHL1  H26B 2141   1.311   3.529   8.247  0.0459  0.8024  2.5168
   29CHL1  H26C 2142   1.461   3.612   8.295 -2.4012  2.0203  1.1182
   29CHL1   C27 2143   1.560   3.399   8.185 -0.0310  0.3553 -0.2118
   29CHL1  H27A 2144   1.647   3.445   8.237  0.5037 -0.3017 -0.5126
   29CHL1  H27B 2145   1.495   3.342   8.254  1.3306 -1.4040 -0.3283
   29CHL1  H27C 2146   1.617   3.340   8.109  1.0019  1.1740 -0.0841
   30CHL1    C3 2147   6.383   0.988   7.313 -0.1002  0.4537 -0.1535
   30CHL1    H3 2148   6.489   1.017   7.302 -0.2812  1.5820  1.0550
   30CHL1    O3 2149   6.334   0.953   7.188 -0.1404  0.6266  0.3959
   30CHL1   H3' 2150   6.377   1.009   7.124 -1.7148 -1.3998 -2.5911
   30CHL1    C4 2151   6.363   0.880   7.418 -0.6144  0.5305  0.7764
   30CHL1   H4A 2152   6.262   0.834   7.415 -0.6535  0.7368 -1.2322
   30CHL1   H4B 2153   6.427   0.793   7.392 -0.2470  0.5413  1.6046
   30CHL1    C5 2154   6.391   0.920   7.557  0.6447 -0.4837  0.3186
   30CHL1    C6 2155   6.479   0.855   7.634 -0.4111  0.1561  0.3940
   30CHL1    H6 2156   6.526   0.764   7.595  1.3305  0.9312  0.6373
   30CHL1    C7 2157   6.514   0.885   7.776 -0.4068  0.8388  0.2260
   30CHL1   H7A 2158   6.515   0.787   7.828  1.5352  1.1331  0.8109
   30CHL1   H7B 2159   6.616   0.928   7.787  0.4099 -1.2229  1.0014
   30CHL1    C8 2160   6.424   0.997   7.833 -0.0511 -0.0142 -0.2555
   30CHL1    H8 2161   6.324   0.955   7.859  0.6611 -1.4644  0.1678
   30CHL1   C14 2162   6.493   1.065   7.954  0.0608 -0.2985  0.1129
   30CHL1   H14 2163   6.572   1.134   7.917 -1.9292  2.4506  0.9074
   30CHL1   C15 2164   6.551   0.961   8.052  0.5753 -1.4449 -0.4038
   30CHL1  H15A 2165   6.497   0.866   8.072 -0.1402 -0.6753  1.4736
   30CHL1  H15B 2166   6.659   0.945   8.029  1.0890 -0.2208  1.0387
   30CHL1   C16 2167   6.546   1.042   8.189 -0.4778 -0.0641 -0.1674
   30CHL1  H16A 2168   6.466   1.000   8.252 -1.5042  1.4480 -0.4406
   30CHL1  H16B 2169   6.644   1.034   8.242  1.0353  0.2094 -2.8029
   30CHL1   C17 2170   6.496   1.190   8.152  0.1119  0.2242 -0.7219
   30CHL1   H17 2171   6.583   1.246   8.113  1.1287  1.1453  2.7178
   30CHL1   C13 2172   6.406   1.167   8.029  0.6131 -0.3686  0.0995
   30CHL1   C18 2173   6.271   1.101   8.066  0.1113  0.0396  0.6606
   30CHL1  H18A 2174   6.283   1.002   8.115  0.4387  0.4422  1.4008
   30CHL1  H18B 2175   6.203   1.161   8.130  0.1104  0.4278  0.2981
   30CHL1  H18C 2176   6.209   1.083   7.975  1.0930 -2.9422  0.5559
   30CHL1   C12 2177   6.381   1.279   7.930  0.3241 -0.4859  0.2720
   30CHL1  H12A 2178   6.323   1.364   7.972  2.0086  1.1109 -0.5604
   30CHL1  H12B 2179   6.475   1.334   7.909  1.4103 -2.1206  0.7890
   30CHL1   C11 2180   6.323   1.231   7.796  0.7653  0.2350  0.4335
   30CHL1  H11A 2181   6.216   1.206   7.814  0.7733 -0.6134 -0.6115
   30CHL1  H11B 2182   6.328   1.316   7.724  0.7864 -0.5851 -0.5566
   30CHL1    C9 2183   6.398   1.109   7.733 -0.3317 -0.0048  0.0428
   30CHL1    H9 2184   6.491   1.160   7.700 -0.4622 -0.6215 -1.2942
   30CHL1   C10 2185   6.328   1.047   7.608  0.7136  0.5914  0.3363
   30CHL1   C19 2186   6.173   1.026   7.641 -0.0491 -0.2833  0.0401
   30CHL1  H19A 2187   6.148   0.973   7.735 -0.4530 -0.8842 -0.4044
   30CHL1  H19B 2188   6.124   1.125   7.655 -0.5587 -0.5813  0.3551
   30CHL1  H19C 2189   6.118   0.967   7.565  0.3457  0.0447 -0.5068
   30CHL1    C1 2190   6.354   1.161   7.495 -0.5101 -0.1254  0.8966
   30CHL1   H1A 2191   6.292   1.253   7.509 -0.4460 -0.1155  1.1162
   30CHL1   H1B 2192   6.464   1.177   7.492 -0.3049 -1.6797 -0.0780
   30CHL1    C2 2193   6.297   1.108   7.362  0.0747  0.4384 -0.2765
   30CHL1   H2A 2194   6.304   1.191   7.289  1.5556  0.8257  0.2921
   30CHL1   H2B 2195   6.191   1.074   7.368  0.7757 -1.6944  0.4630
   30CHL1   C20 2196   6.438   1.263   8.282 -0.2918  0.3638 -0.6771
   30CHL1   H20 2197   6.364   1.195   8.330  1.4230 -0.6858  0.5198
   30CHL1   C21 2198   6.370   1.393   8.248  0.4948  0.1119 -0.1554
   30CHL1  H21A 2199   6.321   1.444   8.333 -0.7968 -0.0444 -0.7982
   30CHL1  H21B 2200   6.285   1.377   8.179 -1.2860 -0.0826  2.0346
   30CHL1  H21C 2201   6.433   1.467   8.193 -0.5997  2.1801  1.3299
   30CHL1   C22 2202   6.548   1.285   8.393  1.2004 -0.5197 -0.6731
   30CHL1  H22A 2203   6.591   1.185   8.415  1.7583  0.2347  1.8833
   30CHL1  H22B 2204   6.622   1.361   8.360  1.2488 -0.7333 -1.0521
   30CHL1   C23 2205   6.485   1.329   8.521 -0.3139 -0.6157  0.4830
   30CHL1  H23A 2206   6.432   1.425   8.500  0.9064  0.2873  1.4583
   30CHL1  H23B 2207   6.405   1.258   8.550 -1.3163  0.3577  0.1722
   30CHL1   C24 2208   6.586   1.358   8.641 -0.7773 -0.2128 -0.0926
   30CHL1  H24A 2209   6.624   1.256   8.665 -1.8747 -1.0394 -1.7264
   30CHL1  H24B 2210   6.658   1.428   8.594  0.3324 -0.8640  0.6212
   30CHL1   C25 2211   6.532   1.422   8.768  0.1283 -0.1968  0.9251
   30CHL1   H25 2212   6.434   1.375   8.792  0.9128 -2.5258 -0.2624
   30CHL1   C26 2213   6.635   1.392   8.880  0.2150 -0.3334 -0.4307
   30CHL1  H26A 2214   6.596   1.428   8.977  0.2364  3.8590 -1.8456
   30CHL1  H26B 2215   6.674   1.288   8.881 -0.0526 -0.4624 -1.7560
   30CHL1  H26C 2216   6.727   1.449   8.853 -1.4176  2.2950 -0.5332
   30CHL1   C27 2217   6.508   1.571   8.744 -0.7971  0.4678  0.6951
   30CHL1  H27A 2218   6.480   1.637   8.829 -1.6474  2.2791 -0.9455
   30CHL1  H27B 2219   6.608   1.610   8.718 -1.1106  1.3043  0.7233
   30CHL1  H27C 2220   6.448   1.592   8.652  2.1696 -0.6290 -1.5792
   31CHL1    C3 2221   5.457   2.589   6.737 -0.6454  0.1126  0.1099
   31CHL1    H3 2222   5.416   2.693   6.743 -1.3436  0.1996 -4.3592
   31CHL1    O3 2223   5.442   2.564   6.600 -0.0590 -0.6530  0.5650
   31CHL1   H3' 2224   5.361   2.513   6.613  1.4049 -2.5836  2.4404
   31CHL1    C4 2225   5.602   2.572   6.780 -0.3822 -0.1706  0.2724
   31CHL1   H4A 2226   5.634   2.470   6.751  0.0873 -0.9011  3.1736
   31CHL1   H4B 2227   5.654   2.646   6.716 -1.1011  0.1864  0.0891
   31CHL1    C5 2228   5.634   2.589   6.929  0.5618  0.1875  0.8992
   31CHL1    C6 2229   5.735   2.671   6.975 -0.0468 -0.6074 -0.0694
   31CHL1    H6 2230   5.782   2.729   6.895 -1.7192 -1.7022 -1.8933
   31CHL1    C7 2231   5.768   2.673   7.121 -0.7835 -0.0528 -0.0555
   31CHL1   H7A 2232   5.877   2.665   7.139 -0.8311 -0.4051  0.0752
   31CHL1   H7B 2233   5.745   2.776   7.154 -0.6285 -0.2998  0.8253
   31CHL1    C8 2234   5.692   2.574   7.211 -0.5281 -0.1693 -0.9068
   31CHL1    H8 2235   5.752   2.480   7.207  0.2627  0.2772  0.2051
   31CHL1   C14 2236   5.698   2.621   7.358  0.8533  0.2761  0.7550
   31CHL1   H14 2237   5.640   2.715   7.356  0.0328 -0.2511 -0.7190
   31CHL1   C15 2238   5.828   2.663   7.423 -0.3318  0.5652 -0.2167
   31CHL1  H15A 2239   5.901   2.580   7.415 -2.3969 -1.3242 -0.0261
   31CHL1  H15B 2240   5.875   2.752   7.376  1.4320 -1.1721 -1.7981
   31CHL1   C16 2241   5.792   2.680   7.570  0.5068  0.1629  0.1335
   31CHL1  H16A 2242   5.874   2.632   7.629 -0.0215 -0.1533  0.6162
   31CHL1  H16B 2243   5.796   2.785   7.607 -0.5191 -0.1839  1.2567
   31CHL1   C17 2244   5.651   2.612   7.589  0.5120 -0.2234  0.0884
   31CHL1   H17 2245   5.577   2.693   7.572  0.7775  0.0300  0.1599
   31CHL1   C13 2246   5.627   2.531   7.460  0.5514 -0.2681 -0.4374
   31CHL1   C18 2247   5.700   2.391   7.464  0.2415 -0.1149  0.2056
   31CHL1  H18A 2248   5.642   2.315   7.521  1.5380 -0.3475  1.2147
   31CHL1  H18B 2249   5.716   2.353   7.360  0.2120  0.5256 -0.0352
   31CHL1  H18C 2250   5.797   2.400   7.516 -0.6489  0.6960  1.7693
   31CHL1   C12 2251   5.481   2.514   7.415  0.7410  0.1482 -0.0741
   31CHL1  H12A 2252   5.432   2.438   7.480 -0.3440  0.7749 -0.1454
   31CHL1  H12B 2253   5.424   2.609   7.425  0.5691 -0.1029  1.4102
   31CHL1   C11 2254   5.475   2.467   7.266  0.3393  0.6354  0.6492
   31CHL1  H11A 2255   5.507   2.361   7.265  2.0012  1.0641  3.3485
   31CHL1  H11B 2256   5.368   2.467   7.233 -0.6230 -3.3657  3.4355
   31CHL1    C9 2257   5.550   2.553   7.169 -0.5700 -0.1873 -0.2492
   31CHL1    H9 2258   5.504   2.654   7.177  2.5434  1.4278 -1.6287
   31CHL1   C10 2259   5.541   2.501   7.023  0.1487 -0.1631  0.8481
   31CHL1   C19 2260   5.575   2.352   7.015  0.3928 -0.0183 -0.3579
   31CHL1  H19A 2261   5.594   2.314   6.912  0.9289 -1.8184  0.3761
   31CHL1  H19B 2262   5.678   2.342   7.056  0.2514  1.0922  0.2712
   31CHL1  H19C 2263   5.501   2.285   7.064 -0.1176 -0.4252 -1.6539
   31CHL1    C1 2264   5.386   2.520   6.976 -0.9021 -0.1284 -0.7444
   31CHL1   H1A 2265   5.329   2.445   7.035  1.5195 -2.3258 -1.0701
   31CHL1   H1B 2266   5.351   2.622   7.001  2.4639  1.0050 -0.4266
   31CHL1    C2 2267   5.372   2.496   6.824  0.4805  0.0546  0.3952
   31CHL1   H2A 2268   5.271   2.531   6.795  1.1710  0.1397 -1.9611
   31CHL1   H2B 2269   5.394   2.391   6.796 -0.0241  0.2278 -0.6649
   31CHL1   C20 2270   5.619   2.550   7.722 -0.6116  0.4425  0.3752
   31CHL1   H20 2271   5.622   2.440   7.711 -1.5185  0.5032 -0.6016
   31CHL1   C21 2272   5.471   2.582   7.757 -0.9213  0.0167  0.0429
   31CHL1  H21A 2273   5.470   2.680   7.808 -0.7007  0.5729 -0.9987
   31CHL1  H21B 2274   5.431   2.495   7.814 -0.7576  0.3555  0.6732
   31CHL1  H21C 2275   5.409   2.591   7.665  0.0134 -2.0964 -0.8422
   31CHL1   C22 2276   5.714   2.596   7.834  0.2167  0.0940 -0.5849
   31CHL1  H22A 2277   5.810   2.553   7.800  0.3817 -0.1109  0.1251
   31CHL1  H22B 2278   5.713   2.707   7.823 -1.1535  0.2616  1.0529
   31CHL1   C23 2279   5.688   2.559   7.983 -0.0673 -0.0995 -0.6259
   31CHL1  H23A 2280   5.589   2.592   8.022 -0.3689 -1.1103 -0.5198
   31CHL1  H23B 2281   5.688   2.450   8.004  0.2137  0.4012  2.2574
   31CHL1   C24 2282   5.800   2.625   8.067 -0.7404  0.5485  0.9683
   31CHL1  H24A 2283   5.897   2.579   8.038 -1.5552 -0.3580 -0.3578
   31CHL1  H24B 2284   5.805   2.731   8.035 -1.4938  0.2428 -0.2034
   31CHL1   C25 2285   5.776   2.612   8.221  0.6208  0.7359  0.4056
   31CHL1   H25 2286   5.744   2.509   8.248 -1.5751  1.0753 -0.8025
   31CHL1   C26 2287   5.909   2.655   8.289 -0.2599 -0.0227 -0.0597
   31CHL1  H26A 2288   5.934   2.752   8.241  0.3562  0.3516  0.9990
   31CHL1  H26B 2289   5.899   2.666   8.399  0.6622  0.7936 -0.0510
   31CHL1  H26C 2290   5.982   2.572   8.278 -0.3664 -0.1298  0.0381
   31CHL1   C27 2291   5.664   2.700   8.282 -0.0856 -0.1626  0.0861
   31CHL1  H27A 2292   5.696   2.805   8.262 -1.7601 -0.0406 -2.2835
   31CHL1  H27B 2293   5.657   2.685   8.391  1.4047  2.0115  0.5097
   31CHL1  H27C 2294   5.561   2.686   8.244 -0.5946  0.9979  1.0142
   32CHL1    C3 2295   6.620   1.319   7.085  0.0926 -0.2245 -0.1096
   32CHL1    H3 2296   6.522   1.296   7.131  1.1279 -0.3463  2.0841
   32CHL1    O3 2297   6.603   1.344   6.944  0.4121  0.0515 -0.1023
   32CHL1   H3' 2298   6.687   1.377   6.911  1.3807  0.3893  2.6293
   32CHL1    C4 2299   6.671   1.455   7.137  0.2257 -0.0133 -0.0858
   32CHL1   H4A 2300   6.770   1.476   7.091  0.7838  1.7308  1.8344
   32CHL1   H4B 2301   6.592   1.527   7.107  0.2433 -0.3482 -0.9561
   32CHL1    C5 2302   6.696   1.445   7.292 -0.0383  0.4170  0.9840
   32CHL1    C6 2303   6.624   1.521   7.374  1.0349  0.0308 -0.0294
   32CHL1    H6 2304   6.545   1.590   7.343  0.9169 -0.9931 -2.0668
   32CHL1    C7 2305   6.630   1.522   7.525 -0.8681  0.2111 -0.4760
   32CHL1   H7A 2306   6.632   1.628   7.560 -0.5342  0.2810 -0.7021
   32CHL1   H7B 2307   6.545   1.458   7.558  0.6442 -2.6864 -1.9905
   32CHL1    C8 2308   6.755   1.439   7.565 -0.4071  0.4565 -0.6235
   32CHL1    H8 2309   6.849   1.498   7.552 -0.0371  0.3805  1.5059
   32CHL1   C14 2310   6.747   1.400   7.716  0.0444 -0.4856  0.1735
   32CHL1   H14 2311   6.655   1.339   7.723 -0.3137  0.1571  1.1602
   32CHL1   C15 2312   6.718   1.511   7.821 -0.4205  0.5419 -0.2793
   32CHL1  H15A 2313   6.791   1.591   7.796 -0.3573  0.2761 -0.9864
   32CHL1  H15B 2314   6.614   1.549   7.817 -0.3491  0.7386 -0.2612
   32CHL1   C16 2315   6.758   1.439   7.949  0.5053  0.2556 -0.0696
   32CHL1  H16A 2316   6.818   1.508   8.011  0.0223  1.6279 -1.1225
   32CHL1  H16B 2317   6.665   1.432   8.009  0.5175  0.6213 -0.0087
   32CHL1   C17 2318   6.837   1.305   7.919  0.4941  0.6094  0.3055
   32CHL1   H17 2319   6.767   1.219   7.913 -1.0050  1.8457  0.0758
   32CHL1   C13 2320   6.876   1.325   7.765  0.2753  0.4492  0.3793
   32CHL1   C18 2321   7.017   1.392   7.763 -0.1992 -0.7131 -0.0430
   32CHL1  H18A 2322   7.039   1.394   7.654 -4.0437  0.8664 -0.8564
   32CHL1  H18B 2323   7.031   1.493   7.808 -0.3859 -0.3052 -0.8961
   32CHL1  H18C 2324   7.079   1.313   7.811 -0.0894 -0.6796 -0.1308
   32CHL1   C12 2325   6.876   1.194   7.689  0.4012 -0.0133  0.0312
   32CHL1  H12A 2326   6.958   1.125   7.716 -0.3558 -2.0133 -2.5871
   32CHL1  H12B 2327   6.786   1.139   7.724 -0.1891  0.7461 -0.2824
   32CHL1   C11 2328   6.869   1.210   7.535 -0.9800  0.1619 -0.2416
   32CHL1  H11A 2329   6.971   1.242   7.508 -0.7455 -0.4851 -0.1378
   32CHL1  H11B 2330   6.865   1.105   7.498 -1.0184  0.4180 -0.9693
   32CHL1    C9 2331   6.766   1.311   7.484 -0.3733 -0.2604  1.0353
   32CHL1    H9 2332   6.663   1.272   7.498 -0.8464  0.8316  0.6579
   32CHL1   C10 2333   6.784   1.332   7.337 -0.2820  0.0226  0.4258
   32CHL1   C19 2334   6.934   1.369   7.293  0.1593  0.0454  0.1849
   32CHL1  H19A 2335   7.001   1.282   7.306  1.3207  0.4454 -2.7740
   32CHL1  H19B 2336   6.943   1.384   7.183 -1.1213  0.7157  0.1504
   32CHL1  H19C 2337   6.970   1.455   7.354  1.0649  0.3112 -0.7253
   32CHL1    C1 2338   6.750   1.201   7.259 -1.0800  0.5469 -0.6164
   32CHL1   H1A 2339   6.838   1.137   7.285 -0.3686  2.2019  1.1894
   32CHL1   H1B 2340   6.665   1.145   7.304 -0.3688  1.0770  1.4598
   32CHL1    C2 2341   6.716   1.209   7.113  0.1065 -0.1775 -0.1352
   32CHL1   H2A 2342   6.674   1.117   7.067 -0.8046  1.5392 -2.8301
   32CHL1   H2B 2343   6.809   1.230   7.057 -0.2574 -1.7516 -1.3672
   32CHL1   C20 2344   6.945   1.278   8.025  0.0564 -0.7366 -0.7468
   32CHL1   H20 2345   7.032   1.346   8.018 -0.2692 -0.0878  1.1456
   32CHL1   C21 2346   6.999   1.134   8.005  0.1373  0.5874 -0.1566
   32CHL1  H21A 2347   6.918   1.058   7.994 -0.7772  1.3319  1.2641
   32CHL1  H21B 2348   7.077   1.113   8.081 -0.5283 -0.6027  0.2076
   32CHL1  H21C 2349   7.048   1.120   7.906 -1.1372 -1.6154 -0.5139
   32CHL1   C22 2350   6.885   1.293   8.166 -0.1753 -0.6190  0.7688
   32CHL1  H22A 2351   6.870   1.400   8.191  0.9645 -0.2790  0.0753
   32CHL1  H22B 2352   6.785   1.245   8.169 -0.9153  0.7330 -1.2404
   32CHL1   C23 2353   6.978   1.246   8.275 -0.6401 -0.2627  0.0908
   32CHL1  H23A 2354   6.979   1.135   8.262 -0.7786 -0.1273 -1.1259
   32CHL1  H23B 2355   7.076   1.294   8.255  0.2461 -1.1070  2.2193
   32CHL1   C24 2356   6.930   1.282   8.415 -0.0937 -0.5101  0.2657
   32CHL1  H24A 2357   6.891   1.385   8.407  2.4383  0.3773 -0.8468
   32CHL1  H24B 2358   6.837   1.224   8.435 -0.3057 -0.2492  0.0330
   32CHL1   C25 2359   7.037   1.269   8.525 -0.4309  0.1431  0.1963
   32CHL1   H25 2360   7.133   1.313   8.491 -0.4351  0.7012  0.8977
   32CHL1   C26 2361   7.005   1.338   8.665 -0.7545 -0.4916  0.4794
   32CHL1  H26A 2362   7.007   1.448   8.676 -0.8730 -0.4274 -0.1456
   32CHL1  H26B 2363   6.904   1.306   8.699 -0.4543  0.5573  2.4364
   32CHL1  H26C 2364   7.080   1.299   8.738  0.2983  1.6191  0.5564
   32CHL1   C27 2365   7.066   1.122   8.552  0.7580  0.5322  0.0717
   32CHL1  H27A 2366   6.976   1.066   8.587  0.3610  0.2517 -1.3431
   32CHL1  H27B 2367   7.101   1.074   8.458 -2.3501  0.3233 -1.0342
   32CHL1  H27C 2368   7.136   1.104   8.635  1.3689 -2.5499 -1.0472
   33CHL1    C3 2369   0.964   1.456   6.865 -0.4946  0.7576  0.4674
   33CHL1    H3 2370   1.063   1.470   6.913  0.4032  1.7784 -1.6113
   33CHL1    O3 2371   0.992   1.432   6.721  0.4543 -0.5396 -0.2650
   33CHL1   H3' 2372   0.903   1.442   6.685  0.3252 -1.9782 -0.3459
   33CHL1    C4 2373   0.898   1.334   6.925 -0.3032  0.0501  0.2308
   33CHL1   H4A 2374   0.809   1.307   6.864  1.9596 -1.1967 -2.5967
   33CHL1   H4B 2375   0.977   1.257   6.914  1.0390  0.7842  4.0643
   33CHL1    C5 2376   0.856   1.344   7.064  0.1272 -0.8372  0.6980
   33CHL1    C6 2377   0.903   1.257   7.154  0.0149  0.8195 -0.0579
   33CHL1    H6 2378   0.956   1.166   7.122 -0.4119  1.2863 -2.1749
   33CHL1    C7 2379   0.874   1.268   7.305  1.0934  0.5966 -0.7796
   33CHL1   H7A 2380   0.861   1.170   7.356  3.0879  2.4450  3.5231
   33CHL1   H7B 2381   0.970   1.299   7.351 -0.2636  1.6585  1.4040
   33CHL1    C8 2382   0.760   1.371   7.343 -0.9395  0.5299  0.7992
   33CHL1    H8 2383   0.662   1.322   7.325 -0.6575  0.6684 -1.2571
   33CHL1   C14 2384   0.757   1.404   7.496 -0.3487 -0.1688 -0.0768
   33CHL1   H14 2385   0.852   1.458   7.514 -1.1466  0.8452  1.1122
   33CHL1   C15 2386   0.752   1.290   7.599 -0.2620  0.1651  0.3091
   33CHL1  H15A 2387   0.678   1.213   7.571  0.7501 -1.0117  0.8502
   33CHL1  H15B 2388   0.845   1.230   7.609 -1.0472 -1.2205 -0.6321
   33CHL1   C16 2389   0.723   1.366   7.723  1.0528 -0.2513 -0.0599
   33CHL1  H16A 2390   0.645   1.309   7.778  2.5353 -0.5798  1.7493
   33CHL1  H16B 2391   0.801   1.367   7.802 -0.7718  1.5458  1.7819
   33CHL1   C17 2392   0.669   1.502   7.677 -0.0472  0.1331  0.7684
   33CHL1   H17 2393   0.747   1.580   7.691  2.9149 -2.7750  1.1052
   33CHL1   C13 2394   0.643   1.500   7.522 -1.0853 -0.0564 -0.2156
   33CHL1   C18 2395   0.505   1.449   7.493  1.2271 -0.0267  0.0624
   33CHL1  H18A 2396   0.419   1.517   7.512  0.8800 -0.8342  1.3938
   33CHL1  H18B 2397   0.492   1.422   7.386 -2.3436 -0.5016  0.5745
   33CHL1  H18C 2398   0.484   1.368   7.566  1.9286  0.5256  0.8902
   33CHL1   C12 2399   0.668   1.630   7.443 -0.3720  0.1144  0.0952
   33CHL1  H12A 2400   0.584   1.696   7.471 -1.5287 -0.9053 -0.9176
   33CHL1  H12B 2401   0.766   1.675   7.471 -1.3579  2.0136  0.5768
   33CHL1   C11 2402   0.673   1.607   7.289  0.0700  0.1652  0.0045
   33CHL1  H11A 2403   0.571   1.564   7.273 -0.9518  1.3274  3.0080
   33CHL1  H11B 2404   0.680   1.707   7.242  0.0729  1.1423  2.0391
   33CHL1    C9 2405   0.770   1.493   7.258 -0.4457  0.4841 -0.9313
   33CHL1    H9 2406   0.868   1.531   7.293 -1.3514 -0.0861  2.3142
   33CHL1   C10 2407   0.772   1.469   7.102  0.5102  0.3079 -0.0879
   33CHL1   C19 2408   0.626   1.449   7.050 -0.5782  0.9650  0.0417
   33CHL1  H19A 2409   0.561   1.390   7.118 -0.3286  0.4663 -0.1460
   33CHL1  H19B 2410   0.578   1.548   7.035  0.4622  1.6166  0.9406
   33CHL1  H19C 2411   0.615   1.403   6.949 -0.8082  1.4680 -0.1602
   33CHL1    C1 2412   0.838   1.587   7.030 -0.5259 -1.1249  0.0604
   33CHL1   H1A 2413   0.765   1.669   7.047 -0.6365 -0.9963 -0.9983
   33CHL1   H1B 2414   0.928   1.616   7.089 -0.6605  0.1143 -0.3265
   33CHL1    C2 2415   0.868   1.575   6.877 -0.1111  0.0007  0.1839
   33CHL1   H2A 2416   0.911   1.670   6.839 -1.1259  1.4698  2.6334
   33CHL1   H2B 2417   0.783   1.544   6.813  1.5903  0.5724 -2.4458
   33CHL1   C20 2418   0.560   1.552   7.766  0.2221  0.1503  0.4864
   33CHL1   H20 2419   0.477   1.479   7.763  1.2548 -1.0127 -1.6258
   33CHL1   C21 2420   0.505   1.693   7.724 -0.0486 -0.6422 -0.4459
   33CHL1  H21A 2421   0.580   1.775   7.727  0.6605 -1.3135  1.1350
   33CHL1  H21B 2422   0.428   1.722   7.799  1.4087  0.5652  0.6080
   33CHL1  H21C 2423   0.448   1.685   7.630  0.3722 -3.9979 -0.4804
   33CHL1   C22 2424   0.604   1.563   7.915  0.5075  0.6649 -0.3066
   33CHL1  H22A 2425   0.667   1.475   7.942 -0.0296  0.4929  0.4333
   33CHL1  H22B 2426   0.664   1.654   7.936 -0.5574  1.5913 -1.2262
   33CHL1   C23 2427   0.488   1.560   8.022  0.1165  0.4727  0.5251
   33CHL1  H23A 2428   0.410   1.637   8.001  0.6086  1.1865  1.2642
   33CHL1  H23B 2429   0.446   1.457   8.023  1.3668 -0.0683 -1.2133
   33CHL1   C24 2430   0.531   1.588   8.167 -0.7360 -0.3128 -0.6599
   33CHL1  H24A 2431   0.592   1.505   8.210 -0.4079  1.0710  1.6261
   33CHL1  H24B 2432   0.586   1.685   8.165 -0.2396 -0.5992 -1.1081
   33CHL1   C25 2433   0.419   1.603   8.272 -0.5711  0.1708  0.2992
   33CHL1   H25 2434   0.351   1.515   8.268  1.8834 -1.7266 -0.8101
   33CHL1   C26 2435   0.483   1.604   8.418  0.1946 -0.6087  1.1650
   33CHL1  H26A 2436   0.407   1.636   8.492  1.0971  1.6147  1.1960
   33CHL1  H26B 2437   0.541   1.511   8.436 -0.4996 -1.0722  1.0007
   33CHL1  H26C 2438   0.550   1.693   8.415 -2.9767  1.8566 -0.3835
   33CHL1   C27 2439   0.348   1.740   8.262 -0.9982 -0.2741 -0.3220
   33CHL1  H27A 2440   0.312   1.765   8.160 -1.0158 -1.0289 -0.5010
   33CHL1  H27B 2441   0.257   1.737   8.326 -1.5850  1.2206 -1.0623
   33CHL1  H27C 2442   0.409   1.820   8.308 -1.2197 -1.8469  2.8356
   34CHL1    C3 2443   2.178   0.516   6.977 -0.1348  0.1930  0.0989
   34CHL1    H3 2444   2.144   0.410   6.970  0.0402  0.1453 -0.0236
   34CHL1    O3 2445   2.215   0.566   6.849  0.4656  0.6753 -0.8546
   34CHL1   H3' 2446   2.278   0.501   6.818 -0.6930 -0.9545  0.1440
   34CHL1    C4 2447   2.063   0.606   7.034  0.3614 -0.8204  0.2178
   34CHL1   H4A 2448   2.099   0.711   7.037 -1.6808  0.0137 -2.1831
   34CHL1   H4B 2449   1.979   0.599   6.961 -2.3384  1.0542  2.9980
   34CHL1    C5 2450   2.027   0.569   7.176  0.2094 -0.4469  0.4116
   34CHL1    C6 2451   1.903   0.554   7.212  0.2540 -0.0434  0.4542
   34CHL1    H6 2452   1.834   0.568   7.128  2.2760  1.1477 -1.0536
   34CHL1    C7 2453   1.852   0.517   7.348  0.0733  0.7491  0.6201
   34CHL1   H7A 2454   1.768   0.581   7.382 -0.6908 -0.1139  0.3851
   34CHL1   H7B 2455   1.806   0.415   7.348 -1.0485  1.2442  1.5148
   34CHL1    C8 2456   1.973   0.529   7.452 -0.0062  0.3500 -0.1499
   34CHL1    H8 2457   1.977   0.638   7.472 -1.7866  0.5022 -0.4787
   34CHL1   C14 2458   1.941   0.450   7.574 -0.8738 -0.3168  0.4251
   34CHL1   H14 2459   1.957   0.342   7.552 -0.3230 -0.5507  1.9360
   34CHL1   C15 2460   1.800   0.454   7.635 -0.2294 -0.6697  1.3348
   34CHL1  H15A 2461   1.769   0.560   7.635 -0.8681 -0.8566  1.3919
   34CHL1  H15B 2462   1.729   0.392   7.577 -0.0754 -2.0079  2.5354
   34CHL1   C16 2463   1.815   0.409   7.783 -0.4546  0.0550 -0.1687
   34CHL1  H16A 2464   1.790   0.491   7.854  2.2748 -0.9000  1.9611
   34CHL1  H16B 2465   1.755   0.320   7.813  0.2615  0.4939  2.7317
   34CHL1   C17 2466   1.963   0.379   7.809  0.0916 -0.3335  0.0137
   34CHL1   H17 2467   1.982   0.275   7.773 -0.2758 -0.5250  0.3738
   34CHL1   C13 2468   2.036   0.469   7.698 -0.4429 -0.0553  0.3068
   34CHL1   C18 2469   2.041   0.618   7.740  1.0948  0.1892  0.2708
   34CHL1  H18A 2470   2.095   0.684   7.668 -1.1232  3.3077  1.3153
   34CHL1  H18B 2471   1.943   0.671   7.746  1.1427  0.5257 -1.5529
   34CHL1  H18C 2472   2.095   0.640   7.834 -0.4256 -1.6649  1.6091
   34CHL1   C12 2473   2.179   0.418   7.646 -0.1130  0.1189  0.0736
   34CHL1  H12A 2474   2.259   0.434   7.722 -0.8391  0.2398  0.8149
   34CHL1  H12B 2475   2.162   0.310   7.625 -0.0858  0.2470 -0.6187
   34CHL1   C11 2476   2.221   0.492   7.519  0.1386 -0.3447  0.7613
   34CHL1  H11A 2477   2.256   0.595   7.543 -0.8751 -0.3454  2.2864
   34CHL1  H11B 2478   2.303   0.428   7.481  0.3300 -0.0206  0.6206
   34CHL1    C9 2479   2.111   0.493   7.408  0.4194 -0.2174  0.1822
   34CHL1    H9 2480   2.110   0.384   7.386  2.1031 -0.4829  1.3424
   34CHL1   C10 2481   2.147   0.559   7.272  0.4942 -0.3253 -0.1731
   34CHL1   C19 2482   2.179   0.708   7.297 -0.5727  0.0415 -0.4390
   34CHL1  H19A 2483   2.092   0.762   7.341  1.3301  1.0277  2.2176
   34CHL1  H19B 2484   2.261   0.721   7.370 -1.2663  0.2337  0.3110
   34CHL1  H19C 2485   2.205   0.759   7.202  2.0470 -2.0449 -0.8984
   34CHL1    C1 2486   2.262   0.472   7.210 -0.0516 -0.2183 -0.1642
   34CHL1   H1A 2487   2.352   0.497   7.270  1.0283 -0.4050 -1.6823
   34CHL1   H1B 2488   2.236   0.364   7.225  1.1871 -0.4598  0.2557
   34CHL1    C2 2489   2.304   0.517   7.068  0.4354 -0.1413  0.1692
   34CHL1   H2A 2490   2.389   0.456   7.029  1.6237  1.4376  0.2568
   34CHL1   H2B 2491   2.342   0.621   7.076  1.5452 -0.4965 -0.3697
   34CHL1   C20 2492   2.008   0.396   7.961  0.4809  0.1346 -0.6704
   34CHL1   H20 2493   1.970   0.498   7.986  0.8873  0.1569 -0.1216
   34CHL1   C21 2494   2.162   0.389   7.973  0.2862  0.7704 -0.0166
   34CHL1  H21A 2495   2.209   0.489   7.956 -1.5604  1.6595 -0.0280
   34CHL1  H21B 2496   2.194   0.319   7.892  1.8336 -1.3770  2.3795
   34CHL1  H21C 2497   2.192   0.346   8.070 -1.9910 -0.2120  0.2664
   34CHL1   C22 2498   1.938   0.300   8.063 -0.0784  0.3480 -0.4908
   34CHL1  H22A 2499   1.827   0.292   8.060 -0.1595  1.3371 -0.3061
   34CHL1  H22B 2500   1.983   0.203   8.034  1.2919  0.6021  0.7130
   34CHL1   C23 2501   1.984   0.314   8.208 -0.0574 -0.4438 -0.2783
   34CHL1  H23A 2502   2.089   0.279   8.221  0.0607 -1.0801 -2.6403
   34CHL1  H23B 2503   1.991   0.424   8.222 -0.8750 -0.3438 -0.6138
   34CHL1   C24 2504   1.900   0.252   8.321  0.0870 -0.2328 -0.5626
   34CHL1  H24A 2505   1.794   0.272   8.297 -0.7420 -1.5437  1.7324
   34CHL1  H24B 2506   1.909   0.141   8.322 -0.6164 -0.3027 -1.7652
   34CHL1   C25 2507   1.925   0.326   8.454 -0.0624 -0.0881  0.2540
   34CHL1   H25 2508   1.934   0.431   8.420 -0.1551  0.1378  0.9195
   34CHL1   C26 2509   1.807   0.301   8.550 -0.0272 -0.1825  0.6120
   34CHL1  H26A 2510   1.816   0.196   8.587  1.5018 -0.4891 -0.5692
   34CHL1  H26B 2511   1.814   0.376   8.632 -0.6313  0.1119  0.3926
   34CHL1  H26C 2512   1.711   0.305   8.495  1.1785 -0.8791 -1.6074
   34CHL1   C27 2513   2.068   0.293   8.521 -0.5296  0.1118  0.3161
   34CHL1  H27A 2514   2.141   0.335   8.448 -0.8643 -2.4174 -1.5522
   34CHL1  H27B 2515   2.072   0.341   8.621 -0.3223 -2.2780  1.5027
   34CHL1  H27C 2516   2.083   0.183   8.518 -0.5532  0.1367 -1.5893
   35CHL1    C3 2517   4.890   1.201   7.120 -0.2655 -0.2498  0.3862
   35CHL1    H3 2518   4.861   1.307   7.102 -0.3138 -0.2362  0.5517
   35CHL1    O3 2519   4.845   1.125   7.008  0.3419  0.1135  0.0490
   35CHL1   H3' 2520   4.891   1.042   7.023 -0.3726 -0.3708 -0.3983
   35CHL1    C4 2521   5.039   1.202   7.121 -0.0827 -0.9079  0.2589
   35CHL1   H4A 2522   5.068   1.096   7.103 -1.1616 -1.5849  2.2533
   35CHL1   H4B 2523   5.083   1.250   7.032 -1.6537  0.3213  0.1221
   35CHL1    C5 2524   5.093   1.259   7.252  0.4030 -0.3246 -0.4953
   35CHL1    C6 2525   5.190   1.352   7.247  0.2521 -0.3143 -0.2617
   35CHL1    H6 2526   5.210   1.387   7.145 -0.6833 -1.9869 -1.0396
   35CHL1    C7 2527   5.254   1.418   7.369  0.5847  0.1308  0.0467
   35CHL1   H7A 2528   5.363   1.433   7.353  0.6633  0.2008  0.6504
   35CHL1   H7B 2529   5.217   1.522   7.385  3.5860  0.7210  3.7214
   35CHL1    C8 2530   5.243   1.331   7.493  1.0413  0.3889  0.2947
   35CHL1    H8 2531   5.321   1.253   7.489  1.8192  1.2166 -1.2721
   35CHL1   C14 2532   5.273   1.418   7.614 -0.3825 -0.3325 -0.3944
   35CHL1   H14 2533   5.201   1.503   7.615  1.7104  1.5140 -2.1521
   35CHL1   C15 2534   5.412   1.498   7.615 -0.1009 -0.2524 -0.2277
   35CHL1  H15A 2535   5.501   1.432   7.611  0.3044  0.1604  1.4944
   35CHL1  H15B 2536   5.411   1.567   7.528  2.3490  1.6404  1.1588
   35CHL1   C16 2537   5.402   1.560   7.755  0.1978 -0.1603  0.6629
   35CHL1  H16A 2538   5.502   1.566   7.802  0.4557  4.6068 -0.1857
   35CHL1  H16B 2539   5.353   1.658   7.735 -2.4257 -1.1806  1.8638
   35CHL1   C17 2540   5.299   1.481   7.844 -0.2003 -0.0193 -0.2239
   35CHL1   H17 2541   5.201   1.534   7.840 -0.1513  0.2707  1.7942
   35CHL1   C13 2542   5.261   1.356   7.755  0.0551  0.0865 -0.4646
   35CHL1   C18 2543   5.375   1.249   7.773 -0.0323 -0.2332  0.0173
   35CHL1  H18A 2544   5.363   1.166   7.699 -0.1203 -1.4384  1.3644
   35CHL1  H18B 2545   5.473   1.299   7.755 -1.1207  1.0017 -2.7976
   35CHL1  H18C 2546   5.381   1.213   7.878 -1.5969 -0.4889  0.0357
   35CHL1   C12 2547   5.123   1.301   7.761 -0.1626  0.1419 -0.0713
   35CHL1  H12A 2548   5.124   1.244   7.857 -0.4781  0.5257  0.1594
   35CHL1  H12B 2549   5.045   1.380   7.755  0.3876  0.8502  1.6930
   35CHL1   C11 2550   5.085   1.208   7.644 -0.1303 -0.0521 -0.5066
   35CHL1  H11A 2551   5.148   1.116   7.640 -1.6764 -1.1533  0.0951
   35CHL1  H11B 2552   4.978   1.177   7.648  0.1743 -1.0054  0.6806
   35CHL1    C9 2553   5.105   1.272   7.504 -0.2038 -0.5418  0.7140
   35CHL1    H9 2554   5.041   1.362   7.513 -1.2813 -1.2796  0.6280
   35CHL1   C10 2555   5.057   1.198   7.379 -1.3168  0.0060 -0.3512
   35CHL1   C19 2556   5.113   1.059   7.396 -0.7676  0.2448  0.0552
   35CHL1  H19A 2557   5.049   1.000   7.465  1.1826 -3.0820 -0.8623
   35CHL1  H19B 2558   5.108   0.987   7.311  0.4624 -1.4149  1.3228
   35CHL1  H19C 2559   5.219   1.056   7.430 -0.2617 -3.5891 -1.5727
   35CHL1    C1 2560   4.901   1.201   7.375  0.6020  0.9630  0.0265
   35CHL1   H1A 2561   4.866   1.133   7.456  0.2697 -1.7896 -2.3567
   35CHL1   H1B 2562   4.867   1.304   7.402 -0.1764  1.2766 -2.0325
   35CHL1    C2 2563   4.836   1.149   7.250  0.6386  0.4446 -0.6827
   35CHL1   H2A 2564   4.726   1.166   7.250  0.8040  1.5668 -0.3570
   35CHL1   H2B 2565   4.832   1.039   7.265 -0.0086  0.2391 -2.2540
   35CHL1   C20 2566   5.329   1.459   7.994  0.7191  0.0770 -0.5399
   35CHL1   H20 2567   5.418   1.393   7.999  1.1433  0.7346  0.6300
   35CHL1   C21 2568   5.217   1.380   8.064  0.3849 -0.0508  0.2476
   35CHL1  H21A 2569   5.119   1.406   8.018 -0.0496 -0.1976  1.0811
   35CHL1  H21B 2570   5.214   1.396   8.174 -1.3162  1.3010  0.0310
   35CHL1  H21C 2571   5.241   1.273   8.046 -0.2635  0.0569 -1.3790
   35CHL1   C22 2572   5.355   1.591   8.070 -0.2146  0.3232  0.5797
   35CHL1  H22A 2573   5.411   1.666   8.010  0.4749  0.2550  1.1296
   35CHL1  H22B 2574   5.262   1.647   8.091 -1.6384 -1.1540 -1.5716
   35CHL1   C23 2575   5.440   1.576   8.194  0.5812  0.5757 -0.3424
   35CHL1  H23A 2576   5.375   1.521   8.266 -0.4862  2.3740  0.1294
   35CHL1  H23B 2577   5.536   1.526   8.173  0.9468  1.3077 -0.4334
   35CHL1   C24 2578   5.469   1.715   8.252 -0.2203  0.4245  0.1109
   35CHL1  H24A 2579   5.548   1.762   8.190  0.2606  0.7865  0.9858
   35CHL1  H24B 2580   5.374   1.773   8.247  0.0474  1.2876  3.6328
   35CHL1   C25 2581   5.514   1.700   8.401 -0.0724 -0.1581 -0.5311
   35CHL1   H25 2582   5.441   1.635   8.455 -0.0121  0.2067 -0.0051
   35CHL1   C26 2583   5.654   1.637   8.408  0.3531 -0.4868  0.2056
   35CHL1  H26A 2584   5.666   1.545   8.347 -1.2171  0.5859 -1.7599
   35CHL1  H26B 2585   5.723   1.713   8.365 -1.0061  1.4785  1.4127
   35CHL1  H26C 2586   5.675   1.620   8.516  2.8234  0.9288 -0.0072
   35CHL1   C27 2587   5.517   1.837   8.477  0.1085  0.2433 -0.1168
   35CHL1  H27A 2588   5.417   1.885   8.473 -0.3995 -0.6412  1.4318
   35CHL1  H27B 2589   5.587   1.917   8.445 -1.3961  1.5713 -0.1291
   35CHL1  H27C 2590   5.545   1.810   8.581 -0.1305  0.1881 -0.0666
   36CHL1    C3 2591   5.669   0.205   7.155  0.9383  0.4666  0.4653
   36CHL1    H3 2592   5.665   0.102   7.195  0.6637 -0.9149 -2.9047
   36CHL1    O3 2593   5.672   0.199   7.009  0.5841  0.1291  0.5006
   36CHL1   H3' 2594   5.724   0.273   6.977  0.1156 -0.7129 -2.3673
   36CHL1    C4 2595   5.539   0.272   7.200 -0.3302  0.3354  0.4078
   36CHL1   H4A 2596   5.547   0.377   7.165 -0.7062  0.1032 -0.3851
   36CHL1   H4B 2597   5.452   0.225   7.149 -0.0501 -0.7423  0.9030
   36CHL1    C5 2598   5.522   0.262   7.349  0.7977 -0.2647 -0.1218
   36CHL1    C6 2599   5.410   0.211   7.409 -0.4297  0.0084 -0.3607
   36CHL1    H6 2600   5.319   0.188   7.352 -1.4824  0.5860  1.0608
   36CHL1    C7 2601   5.387   0.215   7.557  0.1134  0.3243 -0.0288
   36CHL1   H7A 2602   5.282   0.249   7.571 -0.6668 -1.6184 -1.1001
   36CHL1   H7B 2603   5.389   0.110   7.593  1.3903  0.3557  0.0101
   36CHL1    C8 2604   5.487   0.307   7.633  0.4263 -0.5388 -0.2936
   36CHL1    H8 2605   5.452   0.412   7.616  2.5590  0.3665  0.8537
   36CHL1   C14 2606   5.484   0.278   7.779  0.4066  0.4475 -0.6633
   36CHL1   H14 2607   5.518   0.174   7.799 -0.4850  0.0050 -1.4243
   36CHL1   C15 2608   5.350   0.285   7.859  0.3078  0.1288  0.4118
   36CHL1  H15A 2609   5.295   0.370   7.815  0.3781  0.1089  0.2874
   36CHL1  H15B 2610   5.278   0.202   7.837  0.0488  1.0188 -2.2201
   36CHL1   C16 2611   5.385   0.305   8.008 -0.0488  0.2226 -0.3480
   36CHL1  H16A 2612   5.325   0.395   8.036 -0.0195 -0.4988  2.0973
   36CHL1  H16B 2613   5.361   0.223   8.078 -0.7550  0.3550 -0.4290
   36CHL1   C17 2614   5.544   0.316   8.013  0.3275 -0.7345 -0.4442
   36CHL1   H17 2615   5.586   0.214   8.007 -0.3627 -0.9535 -1.8098
   36CHL1   C13 2616   5.582   0.359   7.869 -0.2015 -0.5164  0.5548
   36CHL1   C18 2617   5.555   0.506   7.865 -0.1776 -0.0691  0.0967
   36CHL1  H18A 2618   5.648   0.555   7.901 -0.6704  0.4379  0.7252
   36CHL1  H18B 2619   5.542   0.546   7.762  0.4486 -1.0330 -0.3560
   36CHL1  H18C 2620   5.468   0.540   7.927  0.2973 -0.5492  1.0467
   36CHL1   C12 2621   5.723   0.320   7.819  0.2009  0.9674  0.3689
   36CHL1  H12A 2622   5.809   0.356   7.880  1.6897 -1.0521 -0.4583
   36CHL1  H12B 2623   5.728   0.209   7.819  0.0754  0.9621 -0.7485
   36CHL1   C11 2624   5.740   0.361   7.669  0.4219  0.0086 -0.5010
   36CHL1  H11A 2625   5.716   0.469   7.671 -0.3959 -0.1852  1.1174
   36CHL1  H11B 2626   5.839   0.337   7.624 -0.4743 -1.9184 -1.5338
   36CHL1    C9 2627   5.633   0.290   7.575 -0.5275 -0.3452  0.0831
   36CHL1    H9 2628   5.652   0.181   7.577  1.5960 -0.0224 -0.8322
   36CHL1   C10 2629   5.639   0.326   7.429  0.1653 -0.2518 -0.2816
   36CHL1   C19 2630   5.670   0.479   7.420 -0.4434 -0.3142  0.0982
   36CHL1  H19A 2631   5.584   0.529   7.468  0.8305  1.7183  0.2971
   36CHL1  H19B 2632   5.771   0.510   7.454 -0.6543 -1.1631  1.5371
   36CHL1  H19C 2633   5.677   0.513   7.314 -1.4839  0.2040  0.1899
   36CHL1    C1 2634   5.774   0.258   7.375  0.6201 -0.2791 -0.4017
   36CHL1   H1A 2635   5.861   0.319   7.407  1.9536 -1.4855 -1.6749
   36CHL1   H1B 2636   5.787   0.157   7.419  0.7977 -0.4040 -0.7466
   36CHL1    C2 2637   5.792   0.268   7.218 -0.1547 -0.3621  0.1215
   36CHL1   H2A 2638   5.886   0.222   7.181  0.7903  2.2124 -0.8130
   36CHL1   H2B 2639   5.798   0.374   7.186 -0.2913 -0.3980 -0.0212
   36CHL1   C20 2640   5.610   0.395   8.129 -0.5228 -0.6399  0.8907
   36CHL1   H20 2641   5.580   0.500   8.106 -0.3173 -0.6284  0.6754
   36CHL1   C21 2642   5.764   0.375   8.133  0.0188  0.6682  0.3008
   36CHL1  H21A 2643   5.794   0.270   8.115  1.5593  0.9176  1.3438
   36CHL1  H21B 2644   5.806   0.406   8.231  0.6001  1.4286 -0.1850
   36CHL1  H21C 2645   5.808   0.456   8.071 -1.9375  0.3182 -1.5935
   36CHL1   C22 2646   5.546   0.366   8.268 -0.2037  0.2246  1.1960
   36CHL1  H22A 2647   5.439   0.342   8.252  0.2945  0.6536 -3.3162
   36CHL1  H22B 2648   5.593   0.277   8.315  0.1867 -0.3600 -0.2871
   36CHL1   C23 2649   5.550   0.495   8.361 -0.0124  0.8712 -0.0242
   36CHL1  H23A 2650   5.652   0.540   8.359  1.2260 -1.7122  1.7217
   36CHL1  H23B 2651   5.474   0.567   8.326 -1.3995 -0.0285  1.1187
   36CHL1   C24 2652   5.523   0.463   8.514  0.0003  1.3286  0.2503
   36CHL1  H24A 2653   5.417   0.431   8.520  0.4508 -0.6183 -1.2062
   36CHL1  H24B 2654   5.587   0.377   8.546  0.2074  1.1280 -0.6860
   36CHL1   C25 2655   5.556   0.586   8.597 -0.5479  0.2286 -0.3412
   36CHL1   H25 2656   5.661   0.614   8.574 -1.0026  1.9486 -0.3681
   36CHL1   C26 2657   5.462   0.699   8.571  0.6200 -0.3545 -0.4693
   36CHL1  H26A 2658   5.356   0.673   8.591  0.6176  0.7892  1.1181
   36CHL1  H26B 2659   5.491   0.788   8.631 -0.7207  0.4633 -1.0206
   36CHL1  H26C 2660   5.469   0.745   8.470  1.8073  2.9345  1.0245
   36CHL1   C27 2661   5.543   0.555   8.747 -0.1065  0.4228 -0.1037
   36CHL1  H27A 2662   5.438   0.521   8.759  1.1518 -3.2524  1.1120
   36CHL1  H27B 2663   5.605   0.467   8.772 -1.3281 -0.4815 -0.2131
   36CHL1  H27C 2664   5.577   0.647   8.800  1.9850 -1.1075  1.2798
   37CHL1    C3 2665   2.713   3.345   6.822 -0.2488  0.1565 -0.5241
   37CHL1    H3 2666   2.782   3.259   6.836 -0.5343 -0.3589 -2.2021
   37CHL1    O3 2667   2.724   3.408   6.698  0.4780 -0.1910 -0.5444
   37CHL1   H3' 2668   2.654   3.473   6.689 -2.5560 -3.1011  0.9335
   37CHL1    C4 2669   2.567   3.296   6.847  0.5822 -1.1203 -0.0780
   37CHL1   H4A 2670   2.498   3.377   6.816 -0.6388 -2.8368 -2.0659
   37CHL1   H4B 2671   2.533   3.220   6.773 -0.7722 -0.0029 -0.6244
   37CHL1    C5 2672   2.535   3.267   6.993 -0.5653  0.4862  0.2713
   37CHL1    C6 2673   2.466   3.157   7.031  0.0520 -0.8088 -0.4317
   37CHL1    H6 2674   2.430   3.085   6.956 -0.7931 -1.0548  0.2089
   37CHL1    C7 2675   2.437   3.104   7.165  0.4244  0.0183  0.0030
   37CHL1   H7A 2676   2.333   3.068   7.178 -0.2278  0.5153 -3.5365
   37CHL1   H7B 2677   2.504   3.018   7.184  0.7280 -0.3025 -2.4406
   37CHL1    C8 2678   2.469   3.216   7.272  0.0933  0.6171  0.1278
   37CHL1    H8 2679   2.383   3.285   7.262  0.0061  0.2540 -1.7173
   37CHL1   C14 2680   2.468   3.157   7.416 -0.0231 -0.0626  0.6679
   37CHL1   H14 2681   2.556   3.090   7.422 -0.7733 -0.9993  1.3893
   37CHL1   C15 2682   2.343   3.077   7.455 -0.6536  0.5717  0.2617
   37CHL1  H15A 2683   2.253   3.123   7.407 -1.5302  0.5684  1.8599
   37CHL1  H15B 2684   2.347   2.977   7.407 -2.3330  0.7282 -0.2363
   37CHL1   C16 2685   2.346   3.071   7.609 -0.7297 -0.2482  0.2756
   37CHL1  H16A 2686   2.253   3.117   7.649 -1.4954 -1.4234 -0.1461
   37CHL1  H16B 2687   2.353   2.973   7.659  0.8273 -0.0468  0.4940
   37CHL1   C17 2688   2.472   3.157   7.651  0.2365  0.1908 -0.0888
   37CHL1   H17 2689   2.559   3.089   7.639  0.0242  0.0233 -0.6995
   37CHL1   C13 2690   2.492   3.252   7.530  0.4207  0.8097  0.3910
   37CHL1   C18 2691   2.374   3.360   7.528  0.3511 -0.3416  0.4948
   37CHL1  H18A 2692   2.392   3.434   7.609 -2.1981  0.1712  0.6305
   37CHL1  H18B 2693   2.355   3.418   7.436  0.5228  0.3008  0.8611
   37CHL1  H18C 2694   2.270   3.324   7.544 -0.0266  0.8709  0.8193
   37CHL1   C12 2695   2.625   3.327   7.507 -0.6985 -0.8395  0.2057
   37CHL1  H12A 2696   2.631   3.409   7.581 -1.7561  0.8752 -1.5589
   37CHL1  H12B 2697   2.711   3.257   7.513 -0.0355 -0.1798 -1.2351
   37CHL1   C11 2698   2.630   3.385   7.358 -0.6781 -0.1776 -0.2486
   37CHL1  H11A 2699   2.551   3.463   7.365 -0.8878 -0.4290  0.2288
   37CHL1  H11B 2700   2.723   3.444   7.341 -1.1222  1.1897  1.8916
   37CHL1    C9 2701   2.599   3.291   7.247  0.2530 -0.2877  0.1897
   37CHL1    H9 2702   2.685   3.222   7.262  0.0222 -0.5032  0.5309
   37CHL1   C10 2703   2.602   3.358   7.102  0.1465  0.2813 -0.0921
   37CHL1   C19 2704   2.516   3.494   7.106 -0.0641 -0.4382 -0.2015
   37CHL1  H19A 2705   2.476   3.524   7.007 -1.3002 -0.7856  0.1826
   37CHL1  H19B 2706   2.432   3.464   7.173  0.4561  1.8202  1.5057
   37CHL1  H19C 2707   2.570   3.574   7.160  0.2375 -1.1906  0.6133
   37CHL1    C1 2708   2.744   3.386   7.067  0.3153 -0.0120  0.1580
   37CHL1   H1A 2709   2.794   3.454   7.139  0.0232  0.6342 -0.2503
   37CHL1   H1B 2710   2.807   3.294   7.066  0.7912  0.3138 -1.0864
   37CHL1    C2 2711   2.752   3.445   6.927  0.2648 -0.3366 -0.3898
   37CHL1   H2A 2712   2.857   3.475   6.906  0.2263 -1.5510 -2.3593
   37CHL1   H2B 2713   2.685   3.533   6.925  0.9331  0.1570 -3.5634
   37CHL1   C20 2714   2.479   3.203   7.798  0.0093 -0.3678 -0.3625
   37CHL1   H20 2715   2.437   3.306   7.801  1.4425  0.3019 -2.2020
   37CHL1   C21 2716   2.620   3.228   7.841  0.0737  0.0067  0.4038
   37CHL1  H21A 2717   2.626   3.276   7.941 -0.7074 -1.3079  1.0969
   37CHL1  H21B 2718   2.679   3.294   7.774 -1.0517 -0.0712 -0.6615
   37CHL1  H21C 2719   2.671   3.129   7.850  0.1909 -0.0687 -1.0129
   37CHL1   C22 2720   2.410   3.101   7.902 -0.0582 -0.1080 -0.1520
   37CHL1  H22A 2721   2.306   3.085   7.867 -0.1945  1.9944 -0.7931
   37CHL1  H22B 2722   2.455   3.001   7.884 -0.1814 -0.1164 -0.4057
   37CHL1   C23 2723   2.413   3.140   8.041 -0.5800  0.3193 -0.2255
   37CHL1  H23A 2724   2.518   3.127   8.073 -0.8926  1.4644  1.3162
   37CHL1  H23B 2725   2.382   3.245   8.063 -1.3263  0.1279 -0.3374
   37CHL1   C24 2726   2.312   3.052   8.120 -0.2920 -0.7687 -0.1847
   37CHL1  H24A 2727   2.271   3.103   8.210 -0.5599 -0.7095 -0.3432
   37CHL1  H24B 2728   2.230   3.036   8.047  1.0615  1.1672 -2.2138
   37CHL1   C25 2729   2.371   2.916   8.153  0.0706  0.0843  0.2847
   37CHL1   H25 2730   2.435   2.883   8.068 -1.1572  0.3450 -0.7447
   37CHL1   C26 2731   2.470   2.927   8.276 -0.8300 -0.5496  0.4320
   37CHL1  H26A 2732   2.412   2.976   8.358  1.0508 -0.0289  1.4820
   37CHL1  H26B 2733   2.509   2.826   8.302 -3.1265 -1.7940 -0.8221
   37CHL1  H26C 2734   2.561   2.980   8.240 -0.5565 -3.0598 -2.7554
   37CHL1   C27 2735   2.254   2.819   8.163 -0.5080  0.1402  0.5971
   37CHL1  H27A 2736   2.285   2.712   8.156 -1.3730  0.0102 -1.6990
   37CHL1  H27B 2737   2.202   2.839   8.259  1.9722  1.1303  1.7900
   37CHL1  H27C 2738   2.194   2.817   8.070 -1.4984 -2.7197  1.2279
   38CHL1    C3 2739   5.807   3.403   6.597 -1.0160 -0.0076 -0.4246
   38CHL1    H3 2740   5.918   3.404   6.599 -0.9720 -3.0986  1.9781
   38CHL1    O3 2741   5.740   3.392   6.470  0.4443  0.7160  0.1495
   38CHL1   H3' 2742   5.648   3.404   6.496  0.4321  3.5471 -1.0436
   38CHL1    C4 2743   5.764   3.281   6.688 -0.2075  0.4239  0.0985
   38CHL1   H4A 2744   5.653   3.271   6.697 -0.1942  0.0227 -0.1894
   38CHL1   H4B 2745   5.808   3.193   6.637  0.5336  1.3177 -0.8116
   38CHL1    C5 2746   5.814   3.289   6.831  0.1261  0.2217 -0.6698
   38CHL1    C6 2747   5.882   3.187   6.888 -0.1677  0.2866  0.0273
   38CHL1    H6 2748   5.897   3.093   6.832 -0.6245  0.7688 -0.9064
   38CHL1    C7 2749   5.933   3.190   7.029  0.0589  0.1555 -0.2666
   38CHL1   H7A 2750   5.904   3.097   7.082 -2.9503  0.7870 -0.7315
   38CHL1   H7B 2751   6.044   3.188   7.018  0.0476 -1.5425 -0.2379
   38CHL1    C8 2752   5.882   3.318   7.106 -0.0493  0.7181  0.3398
   38CHL1    H8 2753   5.779   3.291   7.140  1.0693 -0.3733  2.9565
   38CHL1   C14 2754   5.958   3.338   7.234  0.1802 -0.1186  0.7622
   38CHL1   H14 2755   6.057   3.379   7.205  1.4614 -2.2237  2.0276
   38CHL1   C15 2756   5.993   3.214   7.325 -0.1037  0.2207  0.1997
   38CHL1  H15A 2757   5.899   3.159   7.348 -0.9559  1.2170 -0.8382
   38CHL1  H15B 2758   6.057   3.149   7.263  1.1656  0.8212  0.8638
   38CHL1   C16 2759   6.062   3.290   7.444 -0.1162  0.1739 -0.2195
   38CHL1  H16A 2760   6.052   3.229   7.536  2.5374  1.1206  0.7544
   38CHL1  H16B 2761   6.170   3.299   7.421  0.0226 -0.8657  0.0312
   38CHL1   C17 2762   5.997   3.431   7.454 -0.4060  0.3241  0.2427
   38CHL1   H17 2763   6.072   3.507   7.424  0.4970 -0.0917  1.4054
   38CHL1   C13 2764   5.899   3.441   7.329  0.2511 -0.5189 -0.1110
   38CHL1   C18 2765   5.754   3.396   7.377 -0.7599 -0.0316 -0.1802
   38CHL1  H18A 2766   5.714   3.463   7.456  1.9143 -0.5876  1.7113
   38CHL1  H18B 2767   5.676   3.399   7.298 -1.1954  2.2319  0.2829
   38CHL1  H18C 2768   5.768   3.293   7.415  2.6509 -1.1777 -4.2013
   38CHL1   C12 2769   5.901   3.571   7.257 -0.0822 -0.6701 -0.4466
   38CHL1  H12A 2770   5.854   3.657   7.311 -0.2299 -1.5776  0.9057
   38CHL1  H12B 2771   6.007   3.597   7.242  0.0475  0.2457  1.7912
   38CHL1   C11 2772   5.834   3.557   7.122  0.7199 -0.4967 -0.2050
   38CHL1  H11A 2773   5.724   3.550   7.135  0.6708  0.7780  0.1402
   38CHL1  H11B 2774   5.842   3.657   7.074  0.3019 -0.1581  0.4194
   38CHL1    C9 2775   5.874   3.448   7.026 -0.2734  0.2803 -0.0418
   38CHL1    H9 2776   5.976   3.475   6.992 -0.4562  0.4157 -0.4906
   38CHL1   C10 2777   5.784   3.426   6.897  0.0902 -0.7667 -0.4510
   38CHL1   C19 2778   5.637   3.425   6.935  0.2269  0.1441 -0.3782
   38CHL1  H19A 2779   5.613   3.350   7.013 -0.9745 -1.0201 -1.8232
   38CHL1  H19B 2780   5.604   3.527   6.965 -0.2970 -0.3067  0.5703
   38CHL1  H19C 2781   5.564   3.399   6.856 -0.9862  1.1311  0.4005
   38CHL1    C1 2782   5.827   3.544   6.806 -0.5193 -0.2062 -0.3451
   38CHL1   H1A 2783   5.784   3.638   6.845  0.4454 -0.5463  1.6050
   38CHL1   H1B 2784   5.937   3.561   6.804 -0.2013 -2.1793 -0.5000
   38CHL1    C2 2785   5.765   3.534   6.663  0.3053  0.6849  0.1447
   38CHL1   H2A 2786   5.779   3.629   6.606 -0.2794 -0.0511 -1.2681
   38CHL1   H2B 2787   5.655   3.541   6.679 -0.0468  0.8731 -2.1547
   38CHL1   C20 2788   5.950   3.470   7.598 -0.1342 -0.6356 -0.3640
   38CHL1   H20 2789   5.870   3.396   7.619 -1.5666  0.7788 -0.6601
   38CHL1   C21 2790   5.899   3.612   7.611 -0.0076 -0.8167 -0.5807
   38CHL1  H21A 2791   5.849   3.619   7.710 -1.8817  0.8026 -1.5905
   38CHL1  H21B 2792   5.819   3.631   7.537  0.1920 -1.0916 -0.8676
   38CHL1  H21C 2793   5.972   3.696   7.609 -3.6831  2.5182 -0.6748
   38CHL1   C22 2794   6.052   3.434   7.708  0.4683 -0.4272  0.0321
   38CHL1  H22A 2795   5.990   3.429   7.800  0.3281  0.2017 -0.0239
   38CHL1  H22B 2796   6.077   3.327   7.696 -0.9632 -0.9319  1.4039
   38CHL1   C23 2797   6.182   3.521   7.707 -0.9135 -0.3405  0.1423
   38CHL1  H23A 2798   6.248   3.508   7.619 -0.4970  1.0722  0.2356
   38CHL1  H23B 2799   6.150   3.627   7.697  0.8054  0.2826  1.0232
   38CHL1   C24 2800   6.260   3.513   7.835  0.0059 -0.9450 -0.3263
   38CHL1  H24A 2801   6.196   3.544   7.920  0.6784 -0.9913  0.1986
   38CHL1  H24B 2802   6.284   3.410   7.868  0.7747 -0.2199  1.4589
   38CHL1   C25 2803   6.377   3.609   7.835  0.0656 -0.3174 -0.4303
   38CHL1   H25 2804   6.454   3.569   7.766  3.0152  0.0381  2.5507
   38CHL1   C26 2805   6.340   3.747   7.787  0.6180 -0.0218  0.2275
   38CHL1  H26A 2806   6.253   3.798   7.833 -0.3747 -2.0880  0.6886
   38CHL1  H26B 2807   6.430   3.812   7.794 -0.9137  1.8107  3.9341
   38CHL1  H26C 2808   6.311   3.744   7.680 -1.6903 -2.0952  0.8593
   38CHL1   C27 2809   6.433   3.628   7.972 -0.0727  0.6967  0.0376
   38CHL1  H27A 2810   6.474   3.527   7.995 -1.3449 -0.4703 -2.6349
   38CHL1  H27B 2811   6.503   3.713   7.988  0.6167  0.2637 -0.6518
   38CHL1  H27C 2812   6.355   3.644   8.050  0.1676 -0.9782  0.6348
   39CHL1    C3 2813   5.163   2.000   6.889 -0.0008  0.3261  0.2072
   39CHL1    H3 2814   5.054   1.994   6.911  0.0050  1.5175  0.6421
   39CHL1    O3 2815   5.172   1.984   6.744  0.0182 -0.0932 -0.6725
   39CHL1   H3' 2816   5.192   2.071   6.709 -3.2189  0.8881 -0.2786
   39CHL1    C4 2817   5.223   2.134   6.937 -0.1006  0.0346 -0.3661
   39CHL1   H4A 2818   5.331   2.134   6.910 -0.6164 -0.0610 -2.5661
   39CHL1   H4B 2819   5.174   2.220   6.887 -1.1872  0.6068  1.6270
   39CHL1    C5 2820   5.208   2.153   7.088  0.8571 -0.1256 -0.5651
   39CHL1    C6 2821   5.137   2.251   7.146  0.2196  0.1589  0.0925
   39CHL1    H6 2822   5.108   2.328   7.073  2.5612  0.5287 -0.4780
   39CHL1    C7 2823   5.118   2.275   7.300  0.6352 -0.0147 -0.4669
   39CHL1   H7A 2824   5.127   2.383   7.323  2.5872  0.0176 -1.3409
   39CHL1   H7B 2825   5.012   2.249   7.323  1.0152 -0.7885  0.4304
   39CHL1    C8 2826   5.219   2.183   7.384  0.2115  0.1538 -0.2964
   39CHL1    H8 2827   5.320   2.229   7.376  0.9856 -0.9425  2.6061
   39CHL1   C14 2828   5.176   2.181   7.535 -0.8390 -0.2424  0.1936
   39CHL1   H14 2829   5.080   2.125   7.533 -0.5952 -0.6617  0.1182
   39CHL1   C15 2830   5.158   2.313   7.610  0.4069 -0.4540  0.1085
   39CHL1  H15A 2831   5.225   2.394   7.574 -1.4373  1.4323  0.8724
   39CHL1  H15B 2832   5.056   2.356   7.604  1.0088  1.1465  1.0829
   39CHL1   C16 2833   5.184   2.279   7.756 -0.6470 -0.2087 -0.0101
   39CHL1  H16A 2834   5.269   2.344   7.789  2.3284 -3.7990 -0.2806
   39CHL1  H16B 2835   5.089   2.291   7.813  0.6208 -0.2740  2.1724
   39CHL1   C17 2836   5.218   2.127   7.768 -1.2652  0.0739  0.1175
   39CHL1   H17 2837   5.129   2.060   7.778 -0.7065 -0.6215  0.4909
   39CHL1   C13 2838   5.265   2.088   7.621 -0.6567 -0.0180 -0.1331
   39CHL1   C18 2839   5.409   2.130   7.606 -0.4430  0.0398  0.2254
   39CHL1  H18A 2840   5.427   2.230   7.652 -2.9264 -0.0962  1.6023
   39CHL1  H18B 2841   5.471   2.050   7.652  3.1357  1.2042 -2.3287
   39CHL1  H18C 2842   5.452   2.130   7.503  1.4283  3.7154  0.9318
   39CHL1   C12 2843   5.235   1.950   7.573 -0.1432 -0.0045 -0.7128
   39CHL1  H12A 2844   5.283   1.878   7.642  0.2903  1.3480  0.4308
   39CHL1  H12B 2845   5.124   1.939   7.575 -0.1859  0.5494  0.3110
   39CHL1   C11 2846   5.277   1.939   7.426 -0.1009  0.4956  0.5034
   39CHL1  H11A 2847   5.386   1.954   7.413 -0.2914  1.7835  0.3330
   39CHL1  H11B 2848   5.252   1.834   7.402  1.8876  0.1868 -0.2955
   39CHL1    C9 2849   5.211   2.040   7.326  0.2725  0.0651 -0.6346
   39CHL1    H9 2850   5.102   2.021   7.317  0.0305  0.9642  0.2910
   39CHL1   C10 2851   5.260   2.033   7.176  0.6636  0.3015 -0.0058
   39CHL1   C19 2852   5.413   2.048   7.171 -0.3561  0.3774 -0.0729
   39CHL1  H19A 2853   5.454   2.045   7.068 -0.8848 -0.6069 -0.2543
   39CHL1  H19B 2854   5.438   2.145   7.220  0.1592  0.1572  0.1132
   39CHL1  H19C 2855   5.459   1.958   7.219  0.0204 -0.1391 -1.3971
   39CHL1    C1 2856   5.216   1.893   7.113  0.1489 -0.2831  0.2828
   39CHL1   H1A 2857   5.278   1.812   7.158  0.5858 -0.6007 -0.8882
   39CHL1   H1B 2858   5.107   1.888   7.131 -0.8534  2.7033 -4.0592
   39CHL1    C2 2859   5.232   1.881   6.959 -0.5747 -0.8903  0.5244
   39CHL1   H2A 2860   5.180   1.786   6.933 -3.5744  0.7105  0.4099
   39CHL1   H2B 2861   5.339   1.880   6.930 -0.4085  0.2102  1.0615
   39CHL1   C20 2862   5.302   2.091   7.893  0.4375  0.1627 -0.1469
   39CHL1   H20 2863   5.407   2.126   7.888 -0.4209  2.6253 -3.6127
   39CHL1   C21 2864   5.299   1.943   7.916  0.4312 -0.6668  0.5149
   39CHL1  H21A 2865   5.320   1.879   7.827  1.3856 -1.5567  1.3707
   39CHL1  H21B 2866   5.204   1.906   7.962 -0.5637  1.0738 -0.0955
   39CHL1  H21C 2867   5.377   1.905   7.985  0.8868 -0.7363 -0.0376
   39CHL1   C22 2868   5.247   2.159   8.014  0.2566  0.3296  0.5908
   39CHL1  H22A 2869   5.260   2.266   7.988 -0.6794  0.0482 -1.0369
   39CHL1  H22B 2870   5.138   2.140   8.023  0.7330 -1.5674  2.8179
   39CHL1   C23 2871   5.323   2.144   8.140 -0.2298  0.2722 -0.0302
   39CHL1  H23A 2872   5.298   2.040   8.170  1.1746 -0.0801 -0.0549
   39CHL1  H23B 2873   5.431   2.154   8.116 -0.8280  2.8253 -1.9125
   39CHL1   C24 2874   5.277   2.236   8.256 -0.1375  0.4359 -0.5690
   39CHL1  H24A 2875   5.347   2.210   8.338 -1.1803  1.0770  0.5343
   39CHL1  H24B 2876   5.300   2.345   8.255  1.2950  0.1840  1.9329
   39CHL1   C25 2877   5.131   2.212   8.296  0.2314  0.6248  0.3219
   39CHL1   H25 2878   5.072   2.236   8.205 -0.0218 -1.4060 -0.0891
   39CHL1   C26 2879   5.098   2.061   8.330  0.5421 -0.1139  0.2680
   39CHL1  H26A 2880   5.077   2.003   8.238  0.8534  0.9222 -0.4616
   39CHL1  H26B 2881   5.193   2.016   8.366 -0.5990 -2.2572  0.6569
   39CHL1  H26C 2882   5.024   2.041   8.410  0.8018  0.0638  0.5561
   39CHL1   C27 2883   5.087   2.299   8.411 -0.0595  0.4993  0.1854
   39CHL1  H27A 2884   4.980   2.290   8.440 -0.2082  0.2177 -0.4447
   39CHL1  H27B 2885   5.147   2.264   8.497  0.7065 -0.8558 -0.8776
   39CHL1  H27C 2886   5.120   2.403   8.392 -0.7772  1.1889  2.6001
   40CHL1    C3 2887   1.557   2.411   6.871 -0.1036 -0.1019  0.0083
   40CHL1    H3 2888   1.524   2.305   6.884 -0.4870 -0.1820 -1.5185
   40CHL1    O3 2889   1.598   2.433   6.735  0.0413  0.5856  0.3100
   40CHL1   H3' 2890   1.523   2.412   6.678  0.1424 -0.0206  0.3915
   40CHL1    C4 2891   1.430   2.508   6.903  0.1223 -0.1051  0.4429
   40CHL1   H4A 2892   1.458   2.608   6.865  0.8194 -0.5452 -0.2286
   40CHL1   H4B 2893   1.342   2.485   6.840  0.4737  0.2871 -0.1982
   40CHL1    C5 2894   1.395   2.500   7.052  0.6288  0.2452 -0.5539
   40CHL1    C6 2895   1.267   2.483   7.088 -0.4283 -0.6867  0.6947
   40CHL1    H6 2896   1.187   2.464   7.014  0.9317 -3.5285 -0.0896
   40CHL1    C7 2897   1.220   2.488   7.230 -0.4984 -0.3612  0.2113
   40CHL1   H7A 2898   1.141   2.565   7.240  0.0153  0.1234  0.6026
   40CHL1   H7B 2899   1.183   2.391   7.273 -1.3071  0.1018  0.5736
   40CHL1    C8 2900   1.323   2.545   7.330 -0.2550 -0.2744  0.3163
   40CHL1    H8 2901   1.317   2.656   7.336  1.5729 -0.1759  0.6515
   40CHL1   C14 2902   1.299   2.496   7.470  0.1037 -0.1791 -0.2350
   40CHL1   H14 2903   1.305   2.385   7.468 -1.2759 -0.2514 -1.5994
   40CHL1   C15 2904   1.154   2.525   7.520 -0.3445  0.0178 -0.5003
   40CHL1  H15A 2905   1.137   2.632   7.495  0.9348  0.1006 -1.0177
   40CHL1  H15B 2906   1.082   2.448   7.484 -2.0984  1.0163  0.7814
   40CHL1   C16 2907   1.168   2.501   7.670  0.0701 -0.3934 -0.1868
   40CHL1  H16A 2908   1.120   2.585   7.726 -0.8624 -0.5454 -0.7532
   40CHL1  H16B 2909   1.115   2.407   7.695 -0.4003 -0.7294 -2.3878
   40CHL1   C17 2910   1.324   2.478   7.697  0.2747  0.0284 -0.3517
   40CHL1   H17 2911   1.341   2.369   7.689 -1.3655 -0.3193  0.6129
   40CHL1   C13 2912   1.390   2.545   7.577 -0.3726  0.5369  0.8177
   40CHL1   C18 2913   1.387   2.703   7.596 -0.4574  0.9360 -0.4549
   40CHL1  H18A 2914   1.416   2.758   7.504 -0.6755  2.7938  0.5647
   40CHL1  H18B 2915   1.289   2.745   7.627 -1.8008  0.4774 -3.7685
   40CHL1  H18C 2916   1.458   2.744   7.670 -0.8181  0.9379 -0.1058
   40CHL1   C12 2917   1.530   2.504   7.548 -0.0914  0.4304 -0.3008
   40CHL1  H12A 2918   1.604   2.546   7.620  0.9892 -0.4588 -0.8840
   40CHL1  H12B 2919   1.543   2.394   7.553  3.0770  0.8067  0.7752
   40CHL1   C11 2920   1.574   2.547   7.404  0.3380  0.1558 -0.7039
   40CHL1  H11A 2921   1.604   2.654   7.415 -0.0008  0.1435  0.3115
   40CHL1  H11B 2922   1.673   2.503   7.378  0.9845  1.6662 -0.8451
   40CHL1    C9 2923   1.464   2.497   7.295 -0.0137  0.3005  0.7302
   40CHL1    H9 2924   1.454   2.386   7.301 -0.2499  0.4191  3.0402
   40CHL1   C10 2925   1.505   2.532   7.149 -0.0932  0.1975  0.6381
   40CHL1   C19 2926   1.529   2.691   7.140 -0.3521  0.3050  0.3315
   40CHL1  H19A 2927   1.547   2.709   7.031  0.4552  2.7096  0.8251
   40CHL1  H19B 2928   1.437   2.746   7.167 -0.3929  0.9164 -0.9959
   40CHL1  H19C 2929   1.612   2.726   7.206 -0.2393 -0.7168  0.7276
   40CHL1    C1 2930   1.637   2.453   7.115 -0.3181  0.4268 -0.0460
   40CHL1   H1A 2931   1.722   2.487   7.177 -0.0145  1.3285 -0.9325
   40CHL1   H1B 2932   1.618   2.350   7.151  1.0516  0.4925  0.8733
   40CHL1    C2 2933   1.675   2.444   6.965 -0.4256  0.4988  0.7959
   40CHL1   H2A 2934   1.761   2.379   6.939 -0.6530  0.4057  0.2508
   40CHL1   H2B 2935   1.706   2.549   6.946  0.2873 -0.1804 -2.0770
   40CHL1   C20 2936   1.383   2.513   7.837  0.0457 -0.1635 -0.1230
   40CHL1   H20 2937   1.473   2.570   7.805  0.1819 -0.8301 -0.9298
   40CHL1   C21 2938   1.437   2.382   7.892 -0.2326 -0.2751 -0.0015
   40CHL1  H21A 2939   1.476   2.400   7.994 -0.4845 -0.9267  0.2149
   40CHL1  H21B 2940   1.521   2.345   7.829 -0.1671 -1.5182  0.7901
   40CHL1  H21C 2941   1.349   2.315   7.885 -0.3587  0.0343 -1.4807
   40CHL1   C22 2942   1.306   2.595   7.939 -0.5819  0.1165 -0.2849
   40CHL1  H22A 2943   1.257   2.673   7.877 -0.8818 -0.6712 -1.0554
   40CHL1  H22B 2944   1.213   2.555   7.986 -0.0330 -0.1081  0.6197
   40CHL1   C23 2945   1.395   2.658   8.044  0.6769 -0.3136 -0.3577
   40CHL1  H23A 2946   1.403   2.584   8.126  0.1094 -0.4968 -0.4663
   40CHL1  H23B 2947   1.500   2.667   8.007  2.3416 -3.3553  3.3372
   40CHL1   C24 2948   1.346   2.792   8.102 -0.0872 -0.3375 -0.6670
   40CHL1  H24A 2949   1.328   2.863   8.019 -1.4857  3.0121  2.3439
   40CHL1  H24B 2950   1.247   2.772   8.148  0.2253  1.5609  0.8920
   40CHL1   C25 2951   1.438   2.854   8.215 -0.1641  0.6139 -0.3248
   40CHL1   H25 2952   1.454   2.780   8.296  0.7044 -1.6169 -2.4853
   40CHL1   C26 2953   1.576   2.882   8.153 -0.0757 -0.3734  0.7207
   40CHL1  H26A 2954   1.627   2.969   8.201 -0.7188  1.3415 -1.5824
   40CHL1  H26B 2955   1.651   2.801   8.145 -0.7031 -0.8969  0.0897
   40CHL1  H26C 2956   1.565   2.928   8.052 -0.6489 -1.8767  0.0949
   40CHL1   C27 2957   1.372   2.983   8.265  0.4081  0.1571 -0.6631
   40CHL1  H27A 2958   1.318   3.037   8.185  1.6637  2.7998  0.2177
   40CHL1  H27B 2959   1.300   2.949   8.342  0.6220 -0.6438 -0.8122
   40CHL1  H27C 2960   1.458   3.046   8.296  2.8659 -2.2105 -2.3948
   41CHL1    C3 2961   2.183   2.231   7.111 -0.4122 -0.8411  0.6245
   41CHL1    H3 2962   2.280   2.180   7.129  1.2729  2.3022  0.6818
   41CHL1    O3 2963   2.193   2.284   6.979 -0.6614 -0.2443 -0.4141
   41CHL1   H3' 2964   2.287   2.291   6.962 -0.7045  1.5811  0.0082
   41CHL1    C4 2965   2.066   2.130   7.115  0.3572 -0.6296 -0.4793
   41CHL1   H4A 2966   1.970   2.177   7.085 -1.3827 -0.8362  4.2346
   41CHL1   H4B 2967   2.096   2.049   7.046  2.5607 -1.0608  0.9318
   41CHL1    C5 2968   2.050   2.079   7.255 -0.1724  0.6155  0.5646
   41CHL1    C6 2969   2.039   1.947   7.293  0.2676  0.0948 -0.1323
   41CHL1    H6 2970   2.038   1.866   7.219 -1.3524 -0.3099  0.3058
   41CHL1    C7 2971   2.002   1.906   7.429 -0.7543  0.1023 -0.1649
   41CHL1   H7A 2972   1.936   1.816   7.434  0.4016 -0.8928 -2.4032
   41CHL1   H7B 2973   2.090   1.861   7.480 -2.9609 -0.9188  2.9195
   41CHL1    C8 2974   1.952   2.013   7.528 -0.1572  0.1962 -0.3252
   41CHL1    H8 2975   1.842   2.022   7.513 -0.1239  0.9373 -0.1571
   41CHL1   C14 2976   1.986   1.971   7.670 -0.0258 -0.1302 -0.2745
   41CHL1   H14 2977   2.096   1.962   7.682 -0.4764 -2.5796  2.6929
   41CHL1   C15 2978   1.941   1.832   7.714  0.2886  0.1586 -0.5719
   41CHL1  H15A 2979   1.835   1.818   7.683  0.2019  2.7996 -1.5508
   41CHL1  H15B 2980   2.003   1.752   7.668 -0.2472 -1.6303  1.6961
   41CHL1   C16 2981   1.961   1.840   7.869  0.5533 -0.9744 -0.3637
   41CHL1  H16A 2982   1.877   1.795   7.928 -0.6722  1.5153 -0.1298
   41CHL1  H16B 2983   2.054   1.793   7.908 -0.6839 -3.5781 -0.4479
   41CHL1   C17 2984   1.984   1.987   7.909  0.6900 -0.1115  0.9610
   41CHL1   H17 2985   2.095   1.999   7.913  0.8217 -1.1250  0.5429
   41CHL1   C13 2986   1.941   2.066   7.785  0.2898  0.5687  0.1443
   41CHL1   C18 2987   1.790   2.090   7.799 -0.2011 -0.7545 -0.6138
   41CHL1  H18A 2988   1.756   2.142   7.707  2.0766  0.5387 -0.7678
   41CHL1  H18B 2989   1.739   1.995   7.826 -0.7106 -0.5493 -0.8574
   41CHL1  H18C 2990   1.774   2.161   7.883 -0.1372 -0.1963 -1.0659
   41CHL1   C12 2991   2.009   2.200   7.761 -0.0668 -0.2740  0.3382
   41CHL1  H12A 2992   1.969   2.270   7.837 -0.7808  1.1658 -1.3299
   41CHL1  H12B 2993   2.119   2.197   7.780 -0.0411 -1.1264  0.0724
   41CHL1   C11 2994   1.986   2.251   7.615  0.1599 -0.0483  0.0650
   41CHL1  H11A 2995   1.877   2.270   7.604 -0.2348 -1.7146  1.0619
   41CHL1  H11B 2996   2.032   2.352   7.609 -2.6469  1.5304  3.5228
   41CHL1    C9 2997   2.031   2.151   7.507  0.2060  0.3323  0.9136
   41CHL1    H9 2998   2.135   2.124   7.534  0.3769 -0.5419 -0.5277
   41CHL1   C10 2999   2.031   2.198   7.360  0.5117  0.4081 -0.3020
   41CHL1   C19 3000   1.900   2.275   7.342  0.1101 -0.3455 -0.0856
   41CHL1  H19A 3001   1.822   2.213   7.391  0.5354 -1.3452 -0.6569
   41CHL1  H19B 3002   1.922   2.372   7.391 -0.1468  0.1394 -0.9056
   41CHL1  H19C 3003   1.883   2.298   7.234 -1.6375 -2.5043 -0.3012
   41CHL1    C1 3004   2.150   2.294   7.340  0.0024 -0.7447 -0.2065
   41CHL1   H1A 3005   2.141   2.375   7.415  1.2221  1.0666 -1.9608
   41CHL1   H1B 3006   2.246   2.247   7.371 -0.1326 -0.8496  0.0528
   41CHL1    C2 3007   2.172   2.358   7.207 -0.1469  0.4074  0.6881
   41CHL1   H2A 3008   2.269   2.412   7.194  1.5000 -2.5587  0.0935
   41CHL1   H2B 3009   2.088   2.419   7.169 -0.0372  0.0749 -0.1028
   41CHL1   C20 3010   1.938   2.023   8.052 -0.2204 -0.9857  0.0758
   41CHL1   H20 3011   1.827   2.023   8.054 -0.3415  1.7881 -2.8135
   41CHL1   C21 3012   1.993   2.167   8.078  0.8280  0.3598 -0.4251
   41CHL1  H21A 3013   1.995   2.188   8.187  1.0346 -1.4901 -0.0602
   41CHL1  H21B 3014   1.936   2.243   8.021  2.7076  2.5873  0.5885
   41CHL1  H21C 3015   2.100   2.171   8.050  0.7030  0.2020 -0.9422
   41CHL1   C22 3016   1.983   1.936   8.169 -0.0925 -0.0308  0.0196
   41CHL1  H22A 3017   2.000   1.830   8.142  1.8427  0.3754 -0.4603
   41CHL1  H22B 3018   2.081   1.973   8.205 -0.7570  2.1164 -0.2508
   41CHL1   C23 3019   1.882   1.945   8.289  0.0336 -0.1531 -0.9439
   41CHL1  H23A 3020   1.933   1.906   8.379 -1.1660  1.6557  0.5391
   41CHL1  H23B 3021   1.869   2.054   8.306  1.6117 -0.3743  1.9017
   41CHL1   C24 3022   1.752   1.861   8.262  0.9535  1.5087 -0.5777
   41CHL1  H24A 3023   1.692   1.921   8.190 -1.3298  1.1145  0.9655
   41CHL1  H24B 3024   1.780   1.765   8.212  0.9202 -0.8593  3.7719
   41CHL1   C25 3025   1.677   1.841   8.393  0.1333 -0.8452  0.2407
   41CHL1   H25 3026   1.749   1.786   8.459  0.5888 -0.4074  0.1111
   41CHL1   C26 3027   1.646   1.976   8.469 -0.6691  0.2754 -0.2877
   41CHL1  H26A 3028   1.589   2.053   8.413  0.5925  0.6953 -1.0190
   41CHL1  H26B 3029   1.599   1.960   8.569 -0.7749  1.2032 -0.1829
   41CHL1  H26C 3030   1.746   2.015   8.495  0.0129 -1.8398  0.3523
   41CHL1   C27 3031   1.552   1.752   8.374 -0.0440 -0.2564  0.0796
   41CHL1  H27A 3032   1.584   1.649   8.346 -0.3732 -0.1674 -0.6363
   41CHL1  H27B 3033   1.510   1.740   8.476 -1.4403  0.8478 -0.3342
   41CHL1  H27C 3034   1.476   1.799   8.308 -1.7421 -0.6124  1.7328
   42CHL1    C3 3035   3.401   5.754   6.977 -0.1372 -0.7072  0.2752
   42CHL1    H3 3036   3.376   5.650   7.007 -0.2852 -0.1798  2.0024
   42CHL1    O3 3037   3.411   5.754   6.836  0.1075 -0.0553 -0.2581
   42CHL1   H3' 3038   3.475   5.684   6.819 -1.7562 -1.4395 -1.8449
   42CHL1    C4 3039   3.280   5.845   7.012 -0.8730 -1.0210 -1.0007
   42CHL1   H4A 3040   3.311   5.949   6.991  1.8265 -1.5096  0.4227
   42CHL1   H4B 3041   3.187   5.829   6.952 -1.9027 -1.8855  0.7838
   42CHL1    C5 3042   3.246   5.832   7.158 -0.0687  0.7356 -0.2387
   42CHL1    C6 3043   3.122   5.793   7.198  0.5810 -0.3919  0.8869
   42CHL1    H6 3044   3.051   5.767   7.118  1.4946  1.6388 -0.6562
   42CHL1    C7 3045   3.079   5.781   7.341 -0.0310  0.5457  0.5698
   42CHL1   H7A 3046   3.000   5.854   7.368  1.0342  2.2168 -0.7360
   42CHL1   H7B 3047   3.035   5.683   7.370 -2.1357  0.4496 -2.7875
   42CHL1    C8 3048   3.187   5.819   7.449 -0.8421  0.2857  0.6513
   42CHL1    H8 3049   3.195   5.929   7.460  3.3703 -0.0047  1.2472
   42CHL1   C14 3050   3.157   5.760   7.585 -0.0142 -0.5163  0.0837
   42CHL1   H14 3051   3.180   5.654   7.560 -1.4680 -0.5318 -1.2286
   42CHL1   C15 3052   3.020   5.752   7.647 -0.0519  0.3962  0.9219
   42CHL1  H15A 3053   2.965   5.848   7.649  0.3604  0.7350 -1.9541
   42CHL1  H15B 3054   2.955   5.682   7.590 -1.4460  1.1942  1.5016
   42CHL1   C16 3055   3.047   5.721   7.790  0.2423  0.2339  0.3377
   42CHL1  H16A 3056   2.998   5.782   7.869 -1.7710 -0.6168 -0.2139
   42CHL1  H16B 3057   3.007   5.619   7.809  0.0925  0.1174 -0.5696
   42CHL1   C17 3058   3.199   5.715   7.813  0.3561  0.2179  0.2384
   42CHL1   H17 3059   3.230   5.611   7.787 -0.7993  0.4275 -2.0878
   42CHL1   C13 3060   3.254   5.805   7.695 -0.5281 -0.2808  0.0479
   42CHL1   C18 3061   3.228   5.955   7.732  0.3994 -0.6020 -0.7077
   42CHL1  H18A 3062   3.286   5.986   7.821  0.5506  1.0377 -1.3688
   42CHL1  H18B 3063   3.277   6.015   7.653 -0.4326 -0.4075 -1.0860
   42CHL1  H18C 3064   3.124   5.983   7.761  0.4753  0.8850 -1.8305
   42CHL1   C12 3065   3.404   5.777   7.648  0.3279  0.1056 -0.6858
   42CHL1  H12A 3066   3.473   5.819   7.724  0.0145  0.5190 -0.6280
   42CHL1  H12B 3067   3.420   5.667   7.653  2.3633  0.3806 -0.4672
   42CHL1   C11 3068   3.439   5.828   7.508  0.7035 -0.6416  0.4129
   42CHL1  H11A 3069   3.434   5.939   7.518 -3.3064 -0.7567  0.2722
   42CHL1  H11B 3070   3.540   5.794   7.475  0.5896 -1.5365  0.9791
   42CHL1    C9 3071   3.332   5.792   7.397  0.0595  0.6664  0.1191
   42CHL1    H9 3072   3.343   5.683   7.377  2.6536  0.8891  0.1512
   42CHL1   C10 3073   3.353   5.854   7.261 -0.2059 -0.6856 -0.3572
   42CHL1   C19 3074   3.375   6.006   7.257  0.1560  0.8554  0.6605
   42CHL1  H19A 3075   3.454   6.033   7.330 -1.4490 -1.3067  3.3063
   42CHL1  H19B 3076   3.408   6.040   7.157 -0.7268  0.8379  0.3573
   42CHL1  H19C 3077   3.279   6.054   7.286 -0.4267 -0.8337  1.6180
   42CHL1    C1 3078   3.488   5.786   7.211  0.2873 -0.3033  0.3452
   42CHL1   H1A 3079   3.575   5.809   7.277 -1.6998  3.2423  1.8795
   42CHL1   H1B 3080   3.472   5.677   7.226  0.2707  0.1757  4.3812
   42CHL1    C2 3081   3.522   5.809   7.061 -0.4379  0.0892  0.5997
   42CHL1   H2A 3082   3.607   5.741   7.039 -2.2982 -1.5226 -1.8617
   42CHL1   H2B 3083   3.546   5.915   7.036 -0.0315 -0.1426 -0.0045
   42CHL1   C20 3084   3.231   5.746   7.967 -0.5579  0.0583  0.1309
   42CHL1   H20 3085   3.179   5.835   8.006 -1.0877  0.1405 -0.7372
   42CHL1   C21 3086   3.390   5.744   7.985  0.1618  0.0183  0.3425
   42CHL1  H21A 3087   3.421   5.742   8.092  0.9168 -4.4413  0.1635
   42CHL1  H21B 3088   3.433   5.828   7.926  1.0083 -0.6216  0.0283
   42CHL1  H21C 3089   3.423   5.648   7.941  1.0035 -0.1330  1.2763
   42CHL1   C22 3090   3.183   5.624   8.051  0.1418  0.6554 -0.1244
   42CHL1  H22A 3091   3.083   5.590   8.016 -0.3384  1.5169  0.4104
   42CHL1  H22B 3092   3.246   5.532   8.044 -1.6519 -0.5383 -0.9031
   42CHL1   C23 3093   3.185   5.650   8.203 -0.6639  0.1876 -0.7911
   42CHL1  H23A 3094   3.277   5.681   8.257 -0.8039  0.8214 -0.9091
   42CHL1  H23B 3095   3.123   5.741   8.219 -1.5704 -0.1424 -2.3253
   42CHL1   C24 3096   3.117   5.533   8.280  0.3685  0.5899 -0.7883
   42CHL1  H24A 3097   3.007   5.542   8.261  0.2725 -0.4645 -0.7485
   42CHL1  H24B 3098   3.144   5.432   8.242  1.2631  0.2645  0.6903
   42CHL1   C25 3099   3.149   5.536   8.434  0.3449  0.9840  0.4026
   42CHL1   H25 3100   3.083   5.466   8.490  3.7772 -1.6578  1.2971
   42CHL1   C26 3101   3.289   5.470   8.454 -0.1076 -1.8279 -0.3450
   42CHL1  H26A 3102   3.289   5.370   8.406 -0.0934 -1.8382 -0.3225
   42CHL1  H26B 3103   3.376   5.528   8.416 -1.5569  1.3027  0.9123
   42CHL1  H26C 3104   3.305   5.464   8.564 -3.7786 -0.5603  0.3374
   42CHL1   C27 3105   3.141   5.675   8.508  0.6677 -0.7980  0.3677
   42CHL1  H27A 3106   3.132   5.649   8.616 -0.7302 -0.8464  0.2525
   42CHL1  H27B 3107   3.062   5.733   8.455  0.4065 -0.1039  1.5052
   42CHL1  H27C 3108   3.232   5.737   8.494  1.5002 -2.0960 -0.0373
   43CHL1    C3 3109   3.496   3.195   6.894  0.2934 -0.1271 -0.1109
   43CHL1    H3 3110   3.607   3.209   6.895  0.0814  1.9852 -1.6640
   43CHL1    O3 3111   3.441   3.204   6.766  0.5733  0.2301  0.8138
   43CHL1   H3' 3112   3.472   3.124   6.723  3.9867  0.9050  1.8356
   43CHL1    C4 3113   3.452   3.067   6.959  0.3027 -0.0229  0.5156
   43CHL1   H4A 3114   3.345   3.068   6.932  0.7771 -1.6244 -1.5560
   43CHL1   H4B 3115   3.499   2.984   6.901  0.4096  0.9858 -0.8842
   43CHL1    C5 3116   3.465   3.051   7.108  0.2648 -0.0742  0.0045
   43CHL1    C6 3117   3.541   2.954   7.160  0.8798 -0.6319 -0.6381
   43CHL1    H6 3118   3.591   2.880   7.096  2.1816 -1.1185  0.8954
   43CHL1    C7 3119   3.578   2.935   7.307  0.0196  0.1346  0.1292
   43CHL1   H7A 3120   3.567   2.831   7.344  0.9290  0.0959  0.3087
   43CHL1   H7B 3121   3.682   2.970   7.324  0.2784 -1.4583  1.8726
   43CHL1    C8 3122   3.497   3.031   7.395  0.0276  0.1876  0.9066
   43CHL1    H8 3123   3.398   2.982   7.409  0.8910 -3.0149 -3.3811
   43CHL1   C14 3124   3.572   3.034   7.528  0.3070  1.1241 -0.6408
   43CHL1   H14 3125   3.671   3.080   7.506  1.1293  1.5370  3.5308
   43CHL1   C15 3126   3.612   2.906   7.602  0.5232  0.1737  0.5015
   43CHL1  H15A 3127   3.534   2.829   7.619 -0.0082  0.4553 -0.5888
   43CHL1  H15B 3128   3.699   2.857   7.554 -0.0454  0.8692 -1.2622
   43CHL1   C16 3129   3.657   2.974   7.734  0.0993 -0.2163  0.1561
   43CHL1  H16A 3130   3.640   2.907   7.822  3.4131 -0.7829  0.4339
   43CHL1  H16B 3131   3.765   2.995   7.718  0.4988 -2.0464  0.3324
   43CHL1   C17 3132   3.593   3.118   7.755 -0.4772  0.3406  0.1167
   43CHL1   H17 3133   3.673   3.193   7.742  0.4196 -0.9932 -2.2656
   43CHL1   C13 3134   3.501   3.124   7.630 -0.7383 -0.2031  0.0164
   43CHL1   C18 3135   3.362   3.069   7.658 -0.4064  0.4671 -0.0510
   43CHL1  H18A 3136   3.311   3.146   7.720  0.1731  0.7455  0.0820
   43CHL1  H18B 3137   3.290   3.043   7.578 -1.4801  0.0401  1.0288
   43CHL1  H18C 3138   3.370   2.976   7.718  2.4216 -0.1361 -1.2760
   43CHL1   C12 3139   3.479   3.260   7.572 -0.3933  0.2425  0.4046
   43CHL1  H12A 3140   3.414   3.327   7.632 -0.5683  1.1414 -0.7689
   43CHL1  H12B 3141   3.582   3.304   7.568 -1.0565  1.7754 -0.1080
   43CHL1   C11 3142   3.409   3.255   7.434 -1.1831 -1.0328  0.1071
   43CHL1  H11A 3143   3.307   3.218   7.461 -0.2181 -2.1965  2.4011
   43CHL1  H11B 3144   3.393   3.361   7.405  0.9413 -1.5058 -2.9194
   43CHL1    C9 3145   3.482   3.168   7.333 -0.4227 -0.1300 -0.4736
   43CHL1    H9 3146   3.584   3.204   7.311 -0.7749  0.8771 -0.4672
   43CHL1   C10 3147   3.414   3.172   7.191  0.3458  0.0729  0.2004
   43CHL1   C19 3148   3.258   3.172   7.202 -1.2520  0.3763 -0.6177
   43CHL1  H19A 3149   3.224   3.270   7.241  1.2220 -0.1902  3.2851
   43CHL1  H19B 3150   3.213   3.152   7.103 -0.5204  0.3038 -0.9331
   43CHL1  H19C 3151   3.226   3.085   7.264 -0.7370  0.3782 -0.3459
   43CHL1    C1 3152   3.465   3.306   7.119 -0.0014  0.2350 -0.4726
   43CHL1   H1A 3153   3.406   3.385   7.170  0.4583 -0.4909  1.2008
   43CHL1   H1B 3154   3.575   3.322   7.128  0.0609 -0.2575 -0.3719
   43CHL1    C2 3155   3.425   3.312   6.975 -0.1137  0.5396  0.2957
   43CHL1   H2A 3156   3.450   3.411   6.933  0.6857  0.5009  0.6711
   43CHL1   H2B 3157   3.317   3.285   6.973 -0.2874  0.9800  2.4830
   43CHL1   C20 3158   3.547   3.139   7.902  0.3705  0.4309  0.3104
   43CHL1   H20 3159   3.479   3.058   7.935  0.0300  1.2660  1.6912
   43CHL1   C21 3160   3.483   3.274   7.916 -0.5151 -0.2487  0.2154
   43CHL1  H21A 3161   3.423   3.289   8.008 -0.7948  1.9271 -0.3044
   43CHL1  H21B 3162   3.407   3.287   7.836  0.2161  1.4711 -0.2135
   43CHL1  H21C 3163   3.565   3.349   7.908 -0.7365  0.1072  1.3226
   43CHL1   C22 3164   3.663   3.141   8.004 -0.0629  0.5822  0.1057
   43CHL1  H22A 3165   3.729   3.058   7.971 -0.2283  1.1240 -1.6517
   43CHL1  H22B 3166   3.725   3.233   7.995  1.0841  0.0790  2.4431
   43CHL1   C23 3167   3.631   3.127   8.157 -1.7150  0.0008  0.0956
   43CHL1  H23A 3168   3.536   3.177   8.186  0.7075  3.9989  1.5596
   43CHL1  H23B 3169   3.636   3.024   8.198  0.7466  0.7118  1.6548
   43CHL1   C24 3170   3.730   3.204   8.244  0.2645  0.6786  0.2525
   43CHL1  H24A 3171   3.831   3.163   8.220 -0.4343  0.1136 -1.7673
   43CHL1  H24B 3172   3.729   3.310   8.210  0.0375  0.6755  0.2492
   43CHL1   C25 3173   3.701   3.217   8.397  0.1841 -0.6546  0.6378
   43CHL1   H25 3174   3.677   3.114   8.432 -1.2628 -1.3479 -2.2251
   43CHL1   C26 3175   3.830   3.265   8.464  0.0197  0.0177  0.5529
   43CHL1  H26A 3176   3.864   3.359   8.416  0.4678  1.5101  3.6496
   43CHL1  H26B 3177   3.805   3.272   8.572  1.1241 -0.0094  0.8181
   43CHL1  H26C 3178   3.909   3.189   8.444 -1.0510 -0.8845 -0.3128
   43CHL1   C27 3179   3.584   3.311   8.425  0.2625 -1.3425 -0.2597
   43CHL1  H27A 3180   3.493   3.250   8.407 -0.7692  0.3948 -1.0988
   43CHL1  H27B 3181   3.589   3.360   8.525  0.7151  0.3645 -1.0965
   43CHL1  H27C 3182   3.565   3.387   8.346 -1.6047  0.0081  1.4326
   44CHL1    C3 3183   3.074   1.766   6.557 -0.6793  0.0113  0.0150
   44CHL1    H3 3184   2.967   1.782   6.532 -0.7762 -0.2883  0.2290
   44CHL1    O3 3185   3.143   1.768   6.431  0.2063  0.2412  0.5251
   44CHL1   H3' 3186   3.157   1.860   6.408  0.7510  0.0785  0.1931
   44CHL1    C4 3187   3.129   1.872   6.653 -0.5302 -0.2284  0.4068
   44CHL1   H4A 3188   3.239   1.864   6.649 -0.2735  1.4006  3.3100
   44CHL1   H4B 3189   3.095   1.968   6.610  1.1453 -0.0783 -0.6039
   44CHL1    C5 3190   3.079   1.858   6.791 -0.4475  0.2370 -0.5134
   44CHL1    C6 3191   3.043   1.959   6.866  0.4311 -0.3266  0.6490
   44CHL1    H6 3192   3.045   2.060   6.823  1.0523 -0.1992  0.9743
   44CHL1    C7 3193   3.000   1.955   7.006 -0.5830  0.0667  0.1465
   44CHL1   H7A 3194   3.068   2.017   7.068  0.3400  2.4752 -3.1128
   44CHL1   H7B 3195   2.899   1.998   7.023 -0.8611  0.6223 -2.7026
   44CHL1    C8 3196   3.007   1.819   7.071 -0.4948  0.7504 -0.2098
   44CHL1    H8 3197   3.108   1.804   7.115 -0.2465  0.9441 -0.7130
   44CHL1   C14 3198   2.920   1.805   7.193 -0.0124  0.1233  0.2529
   44CHL1   H14 3199   2.818   1.808   7.148  0.9260 -1.8669 -2.1189
   44CHL1   C15 3200   2.929   1.904   7.304  0.2492  0.4881 -0.0492
   44CHL1  H15A 3201   3.033   1.934   7.328  1.6776 -4.9507  1.2102
   44CHL1  H15B 3202   2.881   1.999   7.272 -1.7863 -0.3155  0.5016
   44CHL1   C16 3203   2.856   1.839   7.420  0.4366  0.1148  0.0801
   44CHL1  H16A 3204   2.923   1.842   7.509 -1.6029  0.3447  1.6551
   44CHL1  H16B 3205   2.757   1.887   7.439  1.1120  1.3886  0.4695
   44CHL1   C17 3206   2.825   1.689   7.381  0.6719 -0.9713 -0.1287
   44CHL1   H17 3207   2.733   1.681   7.321  0.3460  0.7360  0.1101
   44CHL1   C13 3208   2.923   1.666   7.262 -0.2428  1.2278 -0.3744
   44CHL1   C18 3209   3.066   1.641   7.315  0.4002 -0.3251  0.0959
   44CHL1  H18A 3210   3.111   1.731   7.362  0.5673  0.4227 -1.4422
   44CHL1  H18B 3211   3.077   1.549   7.377 -0.3866  1.3969  2.8752
   44CHL1  H18C 3212   3.134   1.632   7.227  0.1900  1.5378 -0.2820
   44CHL1   C12 3213   2.880   1.556   7.165 -0.3634  0.0594  0.3284
   44CHL1  H12A 3214   2.887   1.456   7.212  2.4317 -0.2355 -0.6268
   44CHL1  H12B 3215   2.774   1.560   7.132 -0.7406 -0.6766  1.4417
   44CHL1   C11 3216   2.980   1.562   7.040 -0.2324 -0.5056 -0.7228
   44CHL1  H11A 3217   3.083   1.525   7.059  0.2677 -0.1059 -2.6438
   44CHL1  H11B 3218   2.943   1.482   6.973 -0.8571 -1.1940  0.4281
   44CHL1    C9 3219   2.980   1.703   6.967 -0.4048 -0.8213  0.4752
   44CHL1    H9 3220   2.876   1.711   6.930 -0.0016 -0.7857 -0.6553
   44CHL1   C10 3221   3.070   1.714   6.846  0.2189  0.4706 -0.7991
   44CHL1   C19 3222   3.213   1.663   6.883 -0.4445  0.2928 -0.0281
   44CHL1  H19A 3223   3.221   1.557   6.916 -2.3863 -0.2976 -1.3201
   44CHL1  H19B 3224   3.285   1.652   6.799 -0.4331 -1.8522  0.2427
   44CHL1  H19C 3225   3.254   1.731   6.960 -1.1459 -1.5549  2.0413
   44CHL1    C1 3226   3.013   1.614   6.746 -0.2271  0.5398 -0.8788
   44CHL1   H1A 3227   3.008   1.506   6.772 -0.2243  0.4827 -1.1067
   44CHL1   H1B 3228   2.907   1.643   6.727 -0.4916 -0.3203 -0.7767
   44CHL1    C2 3229   3.091   1.620   6.604  0.4276  0.7355 -0.4265
   44CHL1   H2A 3230   3.032   1.559   6.533 -0.8984 -2.2995  3.1066
   44CHL1   H2B 3231   3.196   1.586   6.615  0.0237 -0.7208 -1.0120
   44CHL1   C20 3232   2.812   1.586   7.497  0.0662 -0.7873 -0.0264
   44CHL1   H20 3233   2.829   1.491   7.443  3.8393 -0.8345  1.1404
   44CHL1   C21 3234   2.669   1.617   7.538  1.3285 -0.1830  0.6566
   44CHL1  H21A 3235   2.587   1.590   7.468  3.3324 -0.3940 -1.6844
   44CHL1  H21B 3236   2.651   1.725   7.551  0.3095 -0.3928  1.0136
   44CHL1  H21C 3237   2.638   1.578   7.638 -1.0893  1.8707  0.7519
   44CHL1   C22 3238   2.903   1.608   7.615  0.1536 -0.2260 -0.3265
   44CHL1  H22A 3239   3.010   1.630   7.594  0.8084 -1.1639  1.9253
   44CHL1  H22B 3240   2.865   1.703   7.657  0.0037 -0.3689 -0.1392
   44CHL1   C23 3241   2.888   1.497   7.722 -0.2997  0.1858 -0.7718
   44CHL1  H23A 3242   2.788   1.492   7.772  0.5431  0.3584  0.9524
   44CHL1  H23B 3243   2.894   1.396   7.676 -0.1891 -1.4383  2.6590
   44CHL1   C24 3244   2.996   1.498   7.831  0.4238 -0.1919 -0.9016
   44CHL1  H24A 3245   3.089   1.508   7.771  0.5923  0.6908 -0.5009
   44CHL1  H24B 3246   2.987   1.584   7.901  1.7509  1.0622 -2.2399
   44CHL1   C25 3247   3.012   1.362   7.904 -0.8403 -0.2978  0.0674
   44CHL1   H25 3248   2.987   1.273   7.842  1.1224 -0.9114  0.1140
   44CHL1   C26 3249   3.150   1.361   7.972  0.2475 -0.7999  0.1370
   44CHL1  H26A 3250   3.154   1.271   8.038 -0.9483 -1.4143 -0.5899
   44CHL1  H26B 3251   3.237   1.349   7.905  1.0434 -0.3337  1.0661
   44CHL1  H26C 3252   3.161   1.452   8.035  1.3991 -1.9296  1.6123
   44CHL1   C27 3253   2.898   1.352   8.004  0.1311 -0.1639 -0.3988
   44CHL1  H27A 3254   2.910   1.421   8.090 -0.4702 -0.3396 -0.1732
   44CHL1  H27B 3255   2.796   1.358   7.960  0.2195 -0.9736 -0.7142
   44CHL1  H27C 3256   2.913   1.252   8.050 -1.2338  0.9571  2.6678
   45CHL1    C3 3257   3.975   6.724   6.835  0.0604  0.2501 -0.2133
   45CHL1    H3 3258   4.004   6.828   6.861 -1.6259  0.8896 -0.8355
   45CHL1    O3 3259   3.977   6.698   6.696 -0.3276  0.0011  0.5135
   45CHL1   H3' 3260   3.907   6.754   6.663 -0.6789 -0.6520  0.1329
   45CHL1    C4 3261   4.076   6.628   6.899  0.1980 -0.6428 -0.4105
   45CHL1   H4A 3262   4.047   6.522   6.884 -1.0542 -0.5660  1.3450
   45CHL1   H4B 3263   4.178   6.645   6.859  0.2046  0.7820  0.1676
   45CHL1    C5 3264   4.073   6.634   7.057 -0.0850  0.1966 -0.1097
   45CHL1    C6 3265   4.184   6.675   7.122 -0.0449  0.0757  0.1659
   45CHL1    H6 3266   4.279   6.698   7.072 -1.6748  1.6059 -2.3825
   45CHL1    C7 3267   4.183   6.693   7.274 -0.1709 -0.5861  0.9687
   45CHL1   H7A 3268   4.276   6.649   7.318 -0.3985 -2.6173 -0.5090
   45CHL1   H7B 3269   4.183   6.801   7.298  1.1908 -1.2035  4.0111
   45CHL1    C8 3270   4.057   6.627   7.336  0.0910 -0.4150  0.0573
   45CHL1    H8 3271   4.075   6.518   7.327 -0.9531 -0.8946  3.1902
   45CHL1   C14 3272   4.053   6.658   7.483  0.4647 -0.3492  0.3181
   45CHL1   H14 3273   4.029   6.765   7.499 -0.2162 -0.3375 -0.7480
   45CHL1   C15 3274   4.184   6.635   7.562 -0.5231 -0.1258  0.0765
   45CHL1  H15A 3275   4.216   6.534   7.528 -0.9404 -0.2686  0.1015
   45CHL1  H15B 3276   4.259   6.713   7.538  0.0507 -1.2393 -1.9111
   45CHL1   C16 3277   4.133   6.621   7.710  0.2562 -0.7031  0.0797
   45CHL1  H16A 3278   4.176   6.534   7.764 -1.6736 -0.5766  1.8878
   45CHL1  H16B 3279   4.158   6.710   7.772  0.3546 -0.8585  0.2657
   45CHL1   C17 3280   3.977   6.625   7.709 -0.7015 -0.2463  1.1081
   45CHL1   H17 3281   3.940   6.729   7.723  0.6782  0.8728 -3.0907
   45CHL1   C13 3282   3.938   6.591   7.564  0.0109 -0.2126 -0.0067
   45CHL1   C18 3283   3.932   6.434   7.554  0.3217 -0.9101 -0.2747
   45CHL1  H18A 3284   3.917   6.401   7.449 -0.0207 -2.2108  0.1743
   45CHL1  H18B 3285   4.021   6.385   7.597  0.8478  0.4708  0.2278
   45CHL1  H18C 3286   3.838   6.400   7.603 -0.6343  0.0090 -1.4290
   45CHL1   C12 3287   3.806   6.641   7.502 -0.2029 -0.4523  0.3956
   45CHL1  H12A 3288   3.714   6.597   7.546 -0.8863  0.6644  0.1058
   45CHL1  H12B 3289   3.794   6.750   7.515 -1.0545 -0.5264  0.2688
   45CHL1   C11 3290   3.802   6.611   7.344  0.8806 -0.7741 -0.3897
   45CHL1  H11A 3291   3.781   6.501   7.344  0.2671 -0.6681  0.9603
   45CHL1  H11B 3292   3.711   6.663   7.307  0.0403 -1.1205  1.1719
   45CHL1    C9 3293   3.925   6.661   7.263 -0.8518  0.5690 -0.3406
   45CHL1    H9 3294   3.921   6.772   7.263  1.9507  0.7221  2.3695
   45CHL1   C10 3295   3.934   6.614   7.119 -0.2957  0.6210  0.4071
   45CHL1   C19 3296   3.894   6.464   7.101 -0.1449 -0.5154 -0.8691
   45CHL1  H19A 3297   3.918   6.429   6.999  0.1447  0.3552 -1.1001
   45CHL1  H19B 3298   3.941   6.398   7.177  1.6820  0.8461 -0.8002
   45CHL1  H19C 3299   3.784   6.451   7.113 -0.2790 -1.5738 -2.9424
   45CHL1    C1 3300   3.831   6.707   7.041 -0.2979 -0.2565  0.2289
   45CHL1   H1A 3301   3.729   6.695   7.084 -0.9410  1.1232 -0.8579
   45CHL1   H1B 3302   3.860   6.811   7.066 -0.0149 -0.3672  0.3630
   45CHL1    C2 3303   3.830   6.700   6.883 -0.0008 -0.4693 -0.4291
   45CHL1   H2A 3304   3.750   6.759   6.834 -0.2908  0.9698  1.7338
   45CHL1   H2B 3305   3.800   6.600   6.844  0.8731 -0.9884  0.1902
   45CHL1   C20 3306   3.913   6.546   7.823  0.0328  0.4267  0.4435
   45CHL1   H20 3307   3.930   6.436   7.810  0.4498  0.6035 -0.6092
   45CHL1   C21 3308   3.763   6.560   7.828  0.3018 -0.7787  0.4070
   45CHL1  H21A 3309   3.702   6.534   7.738 -1.2590  0.6789  1.0116
   45CHL1  H21B 3310   3.743   6.665   7.857  0.7007 -1.1249  1.9544
   45CHL1  H21C 3311   3.715   6.502   7.910 -0.8744 -2.6734 -1.5460
   45CHL1   C22 3312   3.978   6.576   7.969 -0.1885 -0.7717 -0.4673
   45CHL1  H22A 3313   4.079   6.529   7.968  0.4454  0.5879 -1.6215
   45CHL1  H22B 3314   3.993   6.685   7.981 -1.2759 -0.6090 -0.5568
   45CHL1   C23 3315   3.908   6.526   8.096  0.0084  0.5465  0.7350
   45CHL1  H23A 3316   3.829   6.598   8.127 -1.7390 -1.5082  1.1344
   45CHL1  H23B 3317   3.854   6.430   8.083 -1.2332  1.0555  2.0136
   45CHL1   C24 3318   4.006   6.518   8.212  0.1293  0.5450  1.0179
   45CHL1  H24A 3319   4.091   6.454   8.179  0.3630  0.7341  1.2495
   45CHL1  H24B 3320   4.049   6.620   8.227  0.6370  0.3005  1.2739
   45CHL1   C25 3321   3.936   6.472   8.342  0.7460  0.8957  0.3943
   45CHL1   H25 3322   3.865   6.392   8.312  1.0074  1.0480 -0.6554
   45CHL1   C26 3323   4.034   6.396   8.426  0.4713  0.1176 -0.2761
   45CHL1  H26A 3324   3.976   6.367   8.516 -1.3651 -1.1484 -1.8198
   45CHL1  H26B 3325   4.078   6.301   8.390  0.0551 -0.8345  1.6538
   45CHL1  H26C 3326   4.116   6.464   8.458  0.7057 -0.8636  1.2588
   45CHL1   C27 3327   3.863   6.582   8.430  0.2356  0.3088  0.2755
   45CHL1  H27A 3328   3.926   6.670   8.455 -0.2819  0.6851  0.2646
   45CHL1  H27B 3329   3.775   6.625   8.378  1.3715  0.4931 -1.5651
   45CHL1  H27C 3330   3.821   6.537   8.523 -1.4017  2.9081  0.8468
   46CHL1    C3 3331   4.006   0.953   6.900  0.9276  0.4402 -0.3616
   46CHL1    H3 3332   3.960   1.047   6.936  2.4721  1.6804 -1.5625
   46CHL1    O3 3333   3.992   0.952   6.757 -0.0222  0.7170 -0.0108
   46CHL1   H3' 3334   3.924   0.890   6.731 -0.6687  0.0331  3.0332
   46CHL1    C4 3335   4.147   0.942   6.950 -0.0176  0.0414  0.0349
   46CHL1   H4A 3336   4.205   0.856   6.911  0.2938  0.0516  0.4820
   46CHL1   H4B 3337   4.197   1.031   6.906 -0.3366 -0.9272 -2.3623
   46CHL1    C5 3338   4.143   0.940   7.104 -0.6269 -0.3210  0.1522
   46CHL1    C6 3339   4.202   1.035   7.171 -0.5463  0.9863 -0.1396
   46CHL1    H6 3340   4.267   1.108   7.120 -2.0518  2.0300 -0.6048
   46CHL1    C7 3341   4.210   1.030   7.315  0.4829 -0.0820 -0.7183
   46CHL1   H7A 3342   4.309   1.064   7.353  1.1209 -1.8442 -0.7325
   46CHL1   H7B 3343   4.138   1.105   7.355  1.7747  1.3586 -1.0326
   46CHL1    C8 3344   4.164   0.901   7.386  0.3410  0.5423 -0.6529
   46CHL1    H8 3345   4.242   0.824   7.367 -0.8712 -0.7160 -0.5829
   46CHL1   C14 3346   4.130   0.936   7.528  0.4024  0.8224 -0.6560
   46CHL1   H14 3347   4.035   0.994   7.521 -0.3450 -0.1944  0.6428
   46CHL1   C15 3348   4.231   1.023   7.605  0.4170  0.3097  0.3579
   46CHL1  H15A 3349   4.327   0.974   7.578  0.9407  0.6135  1.6033
   46CHL1  H15B 3350   4.224   1.133   7.587 -0.2496  0.0257 -1.1662
   46CHL1   C16 3351   4.193   0.992   7.753 -0.0662 -0.0832  0.2289
   46CHL1  H16A 3352   4.287   0.975   7.810 -0.2792 -3.7059 -0.3789
   46CHL1  H16B 3353   4.149   1.089   7.786  0.3228 -0.1484  0.9535
   46CHL1   C17 3354   4.090   0.881   7.755  0.3377 -0.8394  0.0209
   46CHL1   H17 3355   3.995   0.938   7.753  0.9180  0.1199 -1.3341
   46CHL1   C13 3356   4.094   0.818   7.613  0.0055  0.2676  0.0867
   46CHL1   C18 3357   4.213   0.718   7.611  0.5429  0.3506  0.4643
   46CHL1  H18A 3358   4.311   0.766   7.629  0.4663  1.0161 -0.8323
   46CHL1  H18B 3359   4.204   0.628   7.675  3.8825  0.2675  0.9056
   46CHL1  H18C 3360   4.226   0.678   7.508  0.9199  0.1415  0.5941
   46CHL1   C12 3361   3.964   0.760   7.550  0.3407 -0.2187 -0.3692
   46CHL1  H12A 3362   3.934   0.669   7.607 -0.0199 -0.9546 -1.7269
   46CHL1  H12B 3363   3.886   0.837   7.567  0.8800 -0.2787  2.6719
   46CHL1   C11 3364   3.982   0.732   7.402 -0.8506 -0.0084  0.6517
   46CHL1  H11A 3365   4.051   0.647   7.390  1.2519  1.2795  3.0655
   46CHL1  H11B 3366   3.883   0.697   7.364  0.5993 -2.2729 -1.1671
   46CHL1    C9 3367   4.034   0.853   7.325 -0.2777  0.4140 -0.3698
   46CHL1    H9 3368   3.959   0.935   7.324  0.3791  1.0617  1.0287
   46CHL1   C10 3369   4.059   0.829   7.172 -0.3048 -0.8156 -0.1771
   46CHL1   C19 3370   4.129   0.694   7.152 -0.5695 -0.5784  0.1877
   46CHL1  H19A 3371   4.229   0.696   7.199  0.1623 -0.4313 -1.3538
   46CHL1  H19B 3372   4.059   0.616   7.191 -0.2526 -2.0040 -2.0213
   46CHL1  H19C 3373   4.139   0.675   7.043 -0.3534 -2.7341  0.5577
   46CHL1    C1 3374   3.915   0.834   7.109 -0.6542 -1.0410  0.1870
   46CHL1   H1A 3375   3.843   0.751   7.126  0.6073 -2.2025 -0.0194
   46CHL1   H1B 3376   3.862   0.925   7.141 -1.3218 -2.2934  2.7513
   46CHL1    C2 3377   3.913   0.845   6.955  0.1140 -0.6245 -0.3490
   46CHL1   H2A 3378   3.807   0.870   6.935  0.1560  0.0743  0.3007
   46CHL1   H2B 3379   3.940   0.746   6.911  0.9163 -1.3324  1.6638
   46CHL1   C20 3380   4.087   0.788   7.882 -0.8379  0.8159 -0.0151
   46CHL1   H20 3381   4.065   0.683   7.852  2.0354  0.0063  0.5163
   46CHL1   C21 3382   3.981   0.827   7.977 -0.1624 -0.0371  0.2223
   46CHL1  H21A 3383   3.967   0.754   8.059 -2.4053 -1.2839 -1.2231
   46CHL1  H21B 3384   3.882   0.829   7.925  0.7558  0.3734 -1.5659
   46CHL1  H21C 3385   4.012   0.922   8.024  1.6509 -0.2788 -0.4552
   46CHL1   C22 3386   4.231   0.770   7.948 -0.1251 -0.1955 -0.1491
   46CHL1  H22A 3387   4.303   0.734   7.871 -2.7453 -1.0856 -2.2763
   46CHL1  H22B 3388   4.267   0.861   8.001 -0.6095  1.2251 -2.1870
   46CHL1   C23 3389   4.223   0.663   8.055  0.1076 -0.6840  0.1349
   46CHL1  H23A 3390   4.159   0.688   8.142 -0.8305  2.7079 -1.4394
   46CHL1  H23B 3391   4.171   0.569   8.027 -0.8655 -0.0541 -0.1807
   46CHL1   C24 3392   4.360   0.621   8.121  0.0289 -0.0857 -0.3136
   46CHL1  H24A 3393   4.332   0.550   8.202  0.2127 -1.1544 -1.1763
   46CHL1  H24B 3394   4.424   0.566   8.049  1.0214 -0.4724  0.8396
   46CHL1   C25 3395   4.458   0.727   8.185 -0.0644  0.2111  1.1988
   46CHL1   H25 3396   4.499   0.789   8.103  1.8204 -0.9672  1.2230
   46CHL1   C26 3397   4.391   0.834   8.273 -0.7092 -0.1172 -0.5064
   46CHL1  H26A 3398   4.363   0.807   8.377 -0.4857  0.7814 -0.2000
   46CHL1  H26B 3399   4.456   0.925   8.277 -0.6923 -0.1902  1.6798
   46CHL1  H26C 3400   4.303   0.874   8.219 -0.7579 -1.2942 -1.3020
   46CHL1   C27 3401   4.588   0.661   8.245  0.4991  1.0657  0.0923
   46CHL1  H27A 3402   4.667   0.739   8.244  0.1722  1.4209  1.2943
   46CHL1  H27B 3403   4.568   0.610   8.342 -0.4549 -0.3610 -0.8270
   46CHL1  H27C 3404   4.630   0.579   8.183  0.8630  0.2307  1.4110
   47CHL1    C3 3405   3.035   1.049   6.765 -0.0902 -1.2404  0.0330
   47CHL1    H3 3406   2.974   0.956   6.766 -1.3749 -0.4450 -2.1579
   47CHL1    O3 3407   3.057   1.092   6.629 -0.2950 -0.5265  0.1164
   47CHL1   H3' 3408   2.973   1.128   6.598 -0.1078  0.2019  0.4328
   47CHL1    C4 3409   2.965   1.161   6.847  0.6044  0.5298  0.3817
   47CHL1   H4A 3410   3.014   1.260   6.835  1.9882 -0.2308 -0.3807
   47CHL1   H4B 3411   2.861   1.172   6.809  0.6170  1.6565  0.6850
   47CHL1    C5 3412   2.957   1.124   6.996  0.0843  0.2440  0.4084
   47CHL1    C6 3413   2.839   1.131   7.065 -0.6337  0.8488  0.2289
   47CHL1    H6 3414   2.756   1.175   7.008  0.1622  2.7505  0.5016
   47CHL1    C7 3415   2.831   1.107   7.210  0.1080 -0.6339  0.5800
   47CHL1   H7A 3416   2.775   1.192   7.256  0.6179  1.2701 -2.2000
   47CHL1   H7B 3417   2.787   1.007   7.229 -4.0317  0.6162 -1.7411
   47CHL1    C8 3418   2.966   1.104   7.288  0.8494 -0.6884  0.0936
   47CHL1    H8 3419   3.007   1.207   7.299  2.0348 -1.0637 -0.7232
   47CHL1   C14 3420   2.943   1.037   7.422 -0.1570  0.3272 -0.1735
   47CHL1   H14 3421   2.908   0.933   7.402  0.1233  0.1456  0.2897
   47CHL1   C15 3422   2.834   1.097   7.506  0.2712 -0.5451 -0.2287
   47CHL1  H15A 3423   2.835   1.208   7.501  0.3033 -0.4702  1.1706
   47CHL1  H15B 3424   2.732   1.063   7.480  0.3299 -0.7810 -0.1524
   47CHL1   C16 3425   2.861   1.059   7.653 -0.3700  0.1694 -0.9122
   47CHL1  H16A 3426   2.879   1.154   7.706 -0.7474  0.1985 -0.8378
   47CHL1  H16B 3427   2.773   1.002   7.689 -1.4443  0.4189 -3.0818
   47CHL1   C17 3428   2.990   0.973   7.643  0.4108 -1.1574 -0.2811
   47CHL1   H17 3429   2.955   0.867   7.635 -0.6897 -1.0619  2.8079
   47CHL1   C13 3430   3.071   1.028   7.513 -0.0155  0.3740 -0.0736
   47CHL1   C18 3431   3.141   1.166   7.536  0.3851  1.1731  0.1912
   47CHL1  H18A 3432   3.055   1.230   7.564 -1.1285 -1.2044  1.1541
   47CHL1  H18B 3433   3.221   1.175   7.613 -0.7336  1.8256  1.2906
   47CHL1  H18C 3434   3.191   1.207   7.446  3.6558 -2.0877  0.3736
   47CHL1   C12 3435   3.155   0.932   7.433  0.8556 -0.0949 -0.0161
   47CHL1  H12A 3436   3.248   0.916   7.492  0.8250 -1.5936 -0.3630
   47CHL1  H12B 3437   3.095   0.839   7.421  0.2287  0.5310 -1.8909
   47CHL1   C11 3438   3.193   0.986   7.294 -0.0929  0.4626 -0.1116
   47CHL1  H11A 3439   3.262   1.072   7.308  1.0612 -0.5449  0.4423
   47CHL1  H11B 3440   3.251   0.918   7.228  2.3451  2.6345 -0.2931
   47CHL1    C9 3441   3.068   1.025   7.210  0.4677 -0.2667  0.5920
   47CHL1    H9 3442   3.015   0.930   7.187  0.7437 -0.2035 -0.3282
   47CHL1   C10 3443   3.097   1.084   7.069  0.3978  0.2682  0.0690
   47CHL1   C19 3444   3.192   1.207   7.075  0.0965 -0.0091 -0.5486
   47CHL1  H19A 3445   3.205   1.265   7.169  1.0936 -1.0402 -0.0248
   47CHL1  H19B 3446   3.290   1.173   7.034  0.6006  0.3529  0.3369
   47CHL1  H19C 3447   3.155   1.279   7.000 -1.7861 -0.4645 -0.0782
   47CHL1    C1 3448   3.163   0.979   6.973 -0.2505  0.9154 -0.3454
   47CHL1   H1A 3449   3.261   0.946   7.013  0.3773 -0.9409 -3.2787
   47CHL1   H1B 3450   3.111   0.881   6.980  1.5861 -0.1414 -1.2398
   47CHL1    C2 3451   3.170   1.015   6.831 -0.3125 -0.8882  0.4598
   47CHL1   H2A 3452   3.208   0.925   6.778 -1.1355 -1.9480  1.6347
   47CHL1   H2B 3453   3.240   1.097   6.805  0.5461 -2.9783 -4.2799
   47CHL1   C20 3454   3.066   0.969   7.777  0.4711 -0.0912 -0.6037
   47CHL1   H20 3455   3.097   1.075   7.789 -1.4680  0.2511  1.5483
   47CHL1   C21 3456   3.178   0.869   7.771  0.2339 -0.3648  0.5417
   47CHL1  H21A 3457   3.242   0.871   7.862  1.3170 -0.7003 -0.2023
   47CHL1  H21B 3458   3.240   0.894   7.682 -0.6935 -0.5979 -0.1730
   47CHL1  H21C 3459   3.136   0.766   7.772 -0.8502  0.0460 -1.3043
   47CHL1   C22 3460   2.969   0.945   7.898 -0.4807 -1.1045 -0.4329
   47CHL1  H22A 3461   2.889   1.022   7.905  2.7494  2.4591 -1.1130
   47CHL1  H22B 3462   2.920   0.847   7.886 -1.1329 -0.6178 -1.8835
   47CHL1   C23 3463   3.044   0.930   8.030  0.5786 -0.4354 -0.3893
   47CHL1  H23A 3464   3.113   0.843   8.026 -0.7025 -1.4304 -1.1111
   47CHL1  H23B 3465   3.099   1.027   8.034  0.4282 -0.1996 -3.1289
   47CHL1   C24 3466   2.954   0.924   8.160  0.0338  0.1926 -0.5765
   47CHL1  H24A 3467   2.876   1.003   8.155  0.1962  0.4824  1.1857
   47CHL1  H24B 3468   2.899   0.827   8.167 -1.4873  0.9519 -1.6165
   47CHL1   C25 3469   3.028   0.929   8.293  0.0426  0.5251 -0.3576
   47CHL1   H25 3470   3.109   0.853   8.299  1.9556  2.5811  0.5812
   47CHL1   C26 3471   3.103   1.058   8.314 -0.3401 -0.6558  0.2455
   47CHL1  H26A 3472   3.023   1.133   8.336 -0.3311 -0.8064  0.7713
   47CHL1  H26B 3473   3.180   1.053   8.393 -1.2277  1.8903  1.3212
   47CHL1  H26C 3474   3.153   1.088   8.219 -3.0779 -1.5092 -1.5208
   47CHL1   C27 3475   2.940   0.888   8.416 -0.0911  0.1462  0.0557
   47CHL1  H27A 3476   2.918   0.782   8.394  1.1155  0.0738 -0.8610
   47CHL1  H27B 3477   3.002   0.901   8.507  1.6443 -2.3140 -0.7234
   47CHL1  H27C 3478   2.848   0.947   8.436 -0.2804  0.1847 -0.9070
   48CHL1    C3 3479   6.691   3.474   6.388 -0.3660 -0.2860  0.4686
   48CHL1    H3 3480   6.597   3.429   6.428 -0.6524  1.1821  1.5134
   48CHL1    O3 3481   6.703   3.465   6.251 -0.2992 -0.1106 -0.2661
   48CHL1   H3' 3482   6.616   3.440   6.217 -0.0595 -2.0920  0.5071
   48CHL1    C4 3483   6.684   3.623   6.420  0.2106  0.3168  0.1755
   48CHL1   H4A 3484   6.775   3.669   6.374 -1.5865  2.0762 -1.7586
   48CHL1   H4B 3485   6.591   3.664   6.375  0.1845  0.3860  0.2943
   48CHL1    C5 3486   6.699   3.650   6.571 -0.5373  0.6133 -0.5031
   48CHL1    C6 3487   6.596   3.719   6.632 -0.2105  0.6492  0.0661
   48CHL1    H6 3488   6.510   3.736   6.565 -0.8175 -0.2202  0.6261
   48CHL1    C7 3489   6.579   3.740   6.776 -0.2385 -0.4126  0.7058
   48CHL1   H7A 3490   6.532   3.837   6.804 -0.4675 -0.5018  0.6305
   48CHL1   H7B 3491   6.513   3.665   6.825 -0.2370  0.4284  2.0382
   48CHL1    C8 3492   6.715   3.731   6.845  0.3126 -0.3659 -0.7214
   48CHL1    H8 3493   6.774   3.824   6.827 -1.3589  1.2427  1.7881
   48CHL1   C14 3494   6.705   3.727   7.000  0.3104 -0.2879 -0.1211
   48CHL1   H14 3495   6.661   3.629   7.028 -0.0751  0.9970  4.0794
   48CHL1   C15 3496   6.601   3.819   7.068 -0.2249  0.0167  0.0751
   48CHL1  H15A 3497   6.596   3.921   7.024 -0.7097 -0.2643 -0.5125
   48CHL1  H15B 3498   6.500   3.774   7.069  0.2525 -1.0737  0.9961
   48CHL1   C16 3499   6.644   3.813   7.217  0.1849 -0.6324  0.0285
   48CHL1  H16A 3500   6.665   3.916   7.251  0.1121 -1.0562  1.3938
   48CHL1  H16B 3501   6.559   3.777   7.279 -0.8836 -1.3690 -1.8011
   48CHL1   C17 3502   6.774   3.727   7.220  0.2131  0.0206 -0.1792
   48CHL1   H17 3503   6.726   3.628   7.238 -0.1106  0.2615  0.3059
   48CHL1   C13 3504   6.837   3.729   7.076 -0.0322 -0.1961  0.1958
   48CHL1   C18 3505   6.910   3.864   7.052  0.2133 -0.6233 -0.4878
   48CHL1  H18A 3506   6.992   3.883   7.124 -0.9810  1.1930  0.4268
   48CHL1  H18B 3507   6.966   3.866   6.956  0.4673  0.5023 -0.3193
   48CHL1  H18C 3508   6.842   3.952   7.055  1.0907  0.0453 -0.0953
   48CHL1   C12 3509   6.920   3.612   7.032 -0.1163 -0.0964 -0.0246
   48CHL1  H12A 3510   7.021   3.631   7.073 -0.0404 -0.0903 -0.2165
   48CHL1  H12B 3511   6.888   3.515   7.075 -0.1740 -0.1925 -0.2867
   48CHL1   C11 3512   6.930   3.593   6.873  0.2827 -0.3377 -0.4498
   48CHL1  H11A 3513   7.002   3.670   6.838 -0.2138  0.8072  0.9900
   48CHL1  H11B 3514   6.973   3.491   6.859  0.5148 -0.2721 -0.2359
   48CHL1    C9 3515   6.796   3.606   6.799 -0.1681  0.1714  0.5986
   48CHL1    H9 3516   6.742   3.513   6.824  0.7121 -0.3031  0.7678
   48CHL1   C10 3517   6.821   3.592   6.641  0.0987 -0.0926  0.4440
   48CHL1   C19 3518   6.950   3.658   6.596 -0.1246 -0.6590  0.1161
   48CHL1  H19A 3519   7.041   3.607   6.635 -0.1139  0.8255  2.1114
   48CHL1  H19B 3520   6.964   3.652   6.486 -1.3228  0.0811 -0.0857
   48CHL1  H19C 3521   6.947   3.766   6.624 -0.5221 -0.2610 -1.4093
   48CHL1    C1 3522   6.823   3.438   6.598  0.5312 -0.1150  1.4539
   48CHL1   H1A 3523   6.917   3.389   6.631  2.3654  1.9116 -0.5973
   48CHL1   H1B 3524   6.738   3.377   6.636 -0.5305 -0.1297 -0.8628
   48CHL1    C2 3525   6.820   3.414   6.445 -0.2291 -0.0297  0.3191
   48CHL1   H2A 3526   6.823   3.305   6.423 -0.0598  0.0013  0.1838
   48CHL1   H2B 3527   6.913   3.458   6.403  0.9724 -1.1869  1.7234
   48CHL1   C20 3528   6.868   3.749   7.344 -0.1458 -0.5655 -0.3556
   48CHL1   H20 3529   6.932   3.835   7.314 -0.2710  0.0282  1.0451
   48CHL1   C21 3530   6.966   3.629   7.374  0.1042 -0.5611  0.1727
   48CHL1  H21A 3531   7.033   3.618   7.286  0.9081 -1.2152  0.8450
   48CHL1  H21B 3532   6.909   3.534   7.384  0.9837 -0.8286  3.3961
   48CHL1  H21C 3533   7.030   3.652   7.462 -0.5426  0.6477  0.3284
   48CHL1   C22 3534   6.784   3.787   7.470  0.2317 -0.6423 -0.3024
   48CHL1  H22A 3535   6.754   3.894   7.469 -0.7605 -0.8755  1.4629
   48CHL1  H22B 3536   6.699   3.716   7.479 -2.1246  2.1124 -0.0369
   48CHL1   C23 3537   6.859   3.776   7.609  0.4626 -1.1799  0.8796
   48CHL1  H23A 3538   6.882   3.670   7.633 -0.9232 -2.0774 -1.5527
   48CHL1  H23B 3539   6.956   3.829   7.598 -0.4134  0.3984  0.6122
   48CHL1   C24 3540   6.794   3.844   7.726  0.1049  1.2030  0.3826
   48CHL1  H24A 3541   6.764   3.949   7.707  0.5047  1.6539  2.0847
   48CHL1  H24B 3542   6.711   3.775   7.752  2.2718 -1.6509 -0.0603
   48CHL1   C25 3543   6.880   3.841   7.854 -0.5985 -1.1066  0.0599
   48CHL1   H25 3544   6.946   3.751   7.853 -0.0422 -0.6984 -1.1903
   48CHL1   C26 3545   6.978   3.960   7.864 -0.2307 -0.1684  0.1579
   48CHL1  H26A 3546   6.919   4.054   7.865 -0.3456 -0.2270 -0.7659
   48CHL1  H26B 3547   7.032   3.945   7.960 -0.5720  1.5886  0.6310
   48CHL1  H26C 3548   7.051   3.962   7.780 -0.3473  2.1972  0.0838
   48CHL1   C27 3549   6.797   3.844   7.979 -0.4293 -0.3244 -0.2773
   48CHL1  H27A 3550   6.742   3.940   7.990 -0.0483  0.1827 -2.5531
   48CHL1  H27B 3551   6.741   3.749   7.991  1.6573 -1.3747  1.4798
   48CHL1  H27C 3552   6.857   3.840   8.073 -2.8802 -0.1520  1.3379
   49CHL1    C3 3553   5.777   4.318   6.528  0.5694 -0.2146 -0.0632
   49CHL1    H3 3554   5.672   4.350   6.549  0.3590 -0.7271 -0.3398
   49CHL1    O3 3555   5.784   4.288   6.391 -0.2320 -0.1823 -0.6385
   49CHL1   H3' 3556   5.872   4.250   6.392 -0.1940 -0.0682  0.1594
   49CHL1    C4 3557   5.873   4.434   6.552  0.0338 -0.5198 -0.4700
   49CHL1   H4A 3558   5.964   4.403   6.497 -0.1261 -2.4963  0.3455
   49CHL1   H4B 3559   5.827   4.519   6.497 -2.0235 -0.1031  1.8240
   49CHL1    C5 3560   5.891   4.471   6.699 -0.1235  0.4323 -0.0184
   49CHL1    C6 3561   5.888   4.595   6.742 -0.1471 -0.5119 -0.3933
   49CHL1    H6 3562   5.861   4.669   6.666 -0.5952 -0.2033  0.0576
   49CHL1    C7 3563   5.903   4.639   6.886 -0.2502 -0.1097 -0.1892
   49CHL1   H7A 3564   5.953   4.738   6.890  0.6417 -0.5547 -0.0500
   49CHL1   H7B 3565   5.803   4.661   6.928  0.6021  2.3211  0.6400
   49CHL1    C8 3566   5.980   4.530   6.966 -0.8438  0.4561 -0.0701
   49CHL1    H8 3567   6.085   4.518   6.931 -0.7524 -1.0472  0.6601
   49CHL1   C14 3568   5.965   4.565   7.110  0.4797  0.5001  0.1590
   49CHL1   H14 3569   5.856   4.555   7.131  0.4339 -2.1679 -1.1706
   49CHL1   C15 3570   5.999   4.705   7.160 -0.9314  0.1559 -0.0499
   49CHL1  H15A 3571   6.096   4.741   7.120 -1.3544 -1.4637 -2.6207
   49CHL1  H15B 3572   5.922   4.781   7.133 -1.9366 -0.0769  2.0654
   49CHL1   C16 3573   5.990   4.694   7.315  0.0104 -0.0375 -0.0790
   49CHL1  H16A 3574   6.075   4.745   7.364 -0.3752 -0.1291  0.6967
   49CHL1  H16B 3575   5.899   4.742   7.357 -1.6341 -3.2458  0.1965
   49CHL1   C17 3576   5.985   4.542   7.341  0.5334  0.0058 -0.0305
   49CHL1   H17 3577   5.875   4.527   7.346  0.4751 -0.0014 -1.1464
   49CHL1   C13 3578   6.024   4.462   7.212 -0.0445 -0.4960 -0.3304
   49CHL1   C18 3579   6.178   4.467   7.197 -0.2292  0.4711  0.4213
   49CHL1  H18A 3580   6.221   4.413   7.285  1.1805 -0.7848 -1.0117
   49CHL1  H18B 3581   6.217   4.429   7.101 -2.6506 -0.1158 -0.3358
   49CHL1  H18C 3582   6.206   4.575   7.203 -1.2653  0.8020 -0.5317
   49CHL1   C12 3583   5.958   4.325   7.185 -0.6956 -0.3774 -0.4562
   49CHL1  H12A 3584   5.997   4.247   7.253  0.3600 -0.9559 -1.7075
   49CHL1  H12B 3585   5.848   4.333   7.198 -0.3643  0.9340  1.9793
   49CHL1   C11 3586   5.982   4.280   7.042 -0.1345 -0.4629  0.4709
   49CHL1  H11A 3587   6.091   4.264   7.025 -0.1363  0.8394 -0.8380
   49CHL1  H11B 3588   5.926   4.185   7.030  1.8030 -1.5568 -0.2010
   49CHL1    C9 3589   5.922   4.388   6.937  0.6212 -0.1623  0.0460
   49CHL1    H9 3590   5.814   4.387   6.961 -0.3236 -1.1224 -3.8754
   49CHL1   C10 3591   5.921   4.347   6.790  0.1329 -0.1989 -0.9662
   49CHL1   C19 3592   6.063   4.298   6.751 -0.1061 -0.4130 -1.0848
   49CHL1  H19A 3593   6.139   4.358   6.806  0.5492 -2.2616  0.0922
   49CHL1  H19B 3594   6.078   4.193   6.786  0.2232 -0.0863 -0.2369
   49CHL1  H19C 3595   6.084   4.300   6.642  1.6377 -1.5462 -0.8093
   49CHL1    C1 3596   5.821   4.226   6.766 -0.3631 -0.6024  0.0558
   49CHL1   H1A 3597   5.878   4.144   6.815  0.0421  0.1010  0.7766
   49CHL1   H1B 3598   5.724   4.234   6.819 -1.1792 -0.7941 -1.3801
   49CHL1    C2 3599   5.805   4.194   6.617 -0.1743 -0.7436 -0.4050
   49CHL1   H2A 3600   5.730   4.114   6.601  0.5418 -0.9618 -2.8019
   49CHL1   H2B 3601   5.907   4.162   6.588 -0.4698 -0.8704 -1.3087
   49CHL1   C20 3602   6.066   4.510   7.469  0.4284  0.5074  0.2822
   49CHL1   H20 3603   6.172   4.543   7.467  0.2780  0.9662 -0.0425
   49CHL1   C21 3604   6.058   4.357   7.494  1.0402  0.4061  0.0382
   49CHL1  H21A 3605   6.108   4.297   7.415 -1.7227  1.4020 -2.5583
   49CHL1  H21B 3606   5.952   4.331   7.474  0.0965  2.6814  1.8806
   49CHL1  H21C 3607   6.071   4.321   7.598  0.4967  0.2998  0.0684
   49CHL1   C22 3608   5.993   4.579   7.591  0.4089  0.0546 -0.2958
   49CHL1  H22A 3609   5.980   4.688   7.575 -0.6842  0.1215  0.9458
   49CHL1  H22B 3610   5.889   4.543   7.602  0.2667  0.1462 -1.3002
   49CHL1   C23 3611   6.061   4.551   7.721 -0.2180  0.1114  0.3440
   49CHL1  H23A 3612   6.037   4.448   7.757 -0.2373 -0.8346 -2.2830
   49CHL1  H23B 3613   6.168   4.532   7.699 -0.2002  0.9412 -0.3060
   49CHL1   C24 3614   6.048   4.666   7.826  0.3797  0.1016  0.5915
   49CHL1  H24A 3615   6.070   4.766   7.783  0.7245 -0.5574 -0.7865
   49CHL1  H24B 3616   5.945   4.671   7.868 -0.0271  2.1206 -0.6067
   49CHL1   C25 3617   6.152   4.653   7.944 -0.1238  0.0068  0.3296
   49CHL1   H25 3618   6.148   4.548   7.980  0.1235 -0.5441 -1.2278
   49CHL1   C26 3619   6.296   4.694   7.913  0.3427 -0.3664 -0.5538
   49CHL1  H26A 3620   6.367   4.616   7.880  2.1483  1.5388 -1.2885
   49CHL1  H26B 3621   6.296   4.777   7.839 -0.5017  0.0780 -0.0734
   49CHL1  H26C 3622   6.336   4.743   8.005 -2.1109 -0.1510  0.4422
   49CHL1   C27 3623   6.092   4.730   8.064 -0.5950 -0.1713  0.1586
   49CHL1  H27A 3624   6.080   4.837   8.037 -2.7502  0.0952  2.0401
   49CHL1  H27B 3625   5.993   4.690   8.095 -0.5142  1.3059  2.4814
   49CHL1  H27C 3626   6.157   4.724   8.154 -0.7354  2.3238  0.4742
   50CHL1    C3 3627   6.644   5.687   6.792 -0.6520 -0.8081 -0.0892
   50CHL1    H3 3628   6.550   5.746   6.783  0.5528  1.2690  0.6041
   50CHL1    O3 3629   6.680   5.618   6.673  0.4718 -0.2638 -0.3052
   50CHL1   H3' 3630   6.734   5.683   6.626  0.5647  0.9625  1.4311
   50CHL1    C4 3631   6.766   5.781   6.829 -0.5938 -0.0920 -0.0783
   50CHL1   H4A 3632   6.863   5.726   6.834 -2.6468 -3.8252 -0.1629
   50CHL1   H4B 3633   6.798   5.858   6.755  1.0730  0.2623  0.9808
   50CHL1    C5 3634   6.739   5.845   6.963  0.7553  0.2891  0.2023
   50CHL1    C6 3635   6.725   5.978   6.969  0.3727  0.0125 -0.2311
   50CHL1    H6 3636   6.736   6.039   6.879  0.0498  0.3360 -0.0545
   50CHL1    C7 3637   6.710   6.058   7.098  0.4482  0.1267  0.5655
   50CHL1   H7A 3638   6.779   6.145   7.094 -1.5448  1.7487  0.2613
   50CHL1   H7B 3639   6.603   6.088   7.105 -0.0611 -0.7893 -2.5874
   50CHL1    C8 3640   6.741   5.973   7.223 -0.2507 -0.3663  0.4588
   50CHL1    H8 3641   6.850   5.957   7.233  0.1282  2.1644  0.7049
   50CHL1   C14 3642   6.693   6.042   7.347  0.9464  0.3288 -0.6176
   50CHL1   H14 3643   6.583   6.044   7.330 -0.1810 -3.4507  4.6800
   50CHL1   C15 3644   6.736   6.186   7.379  0.1382 -0.6149 -0.8152
   50CHL1  H15A 3645   6.843   6.206   7.354  1.0484 -3.4201  0.6254
   50CHL1  H15B 3646   6.672   6.257   7.322  0.6700  0.2153 -0.3846
   50CHL1   C16 3647   6.705   6.198   7.532  0.6897 -0.0259 -0.1349
   50CHL1  H16A 3648   6.806   6.213   7.574  0.2222 -2.0715  1.8230
   50CHL1  H16B 3649   6.636   6.282   7.554 -0.1204 -0.8934  0.7029
   50CHL1   C17 3650   6.646   6.060   7.574 -0.1618 -0.6431 -0.4648
   50CHL1   H17 3651   6.537   6.072   7.552 -0.6793 -2.4632  0.9721
   50CHL1   C13 3652   6.704   5.954   7.472  0.3889 -0.4878 -0.1133
   50CHL1   C18 3653   6.848   5.916   7.512  0.2573 -0.9092  0.1606
   50CHL1  H18A 3654   6.856   5.863   7.609 -1.2843  0.4213  1.0475
   50CHL1  H18B 3655   6.889   5.846   7.436 -0.0395 -0.7480 -0.1527
   50CHL1  H18C 3656   6.913   6.007   7.511  1.7280 -1.9164  1.5936
   50CHL1   C12 3657   6.616   5.831   7.454  0.4209  0.1443  0.0801
   50CHL1  H12A 3658   6.631   5.772   7.547  0.2209 -0.3326 -0.1847
   50CHL1  H12B 3659   6.510   5.858   7.436  0.2033 -0.3341  0.6251
   50CHL1   C11 3660   6.672   5.750   7.332  0.1032 -0.9268  0.1830
   50CHL1  H11A 3661   6.774   5.711   7.352  0.6630  1.0926  1.4565
   50CHL1  H11B 3662   6.604   5.663   7.328 -0.8731 -0.1329 -0.6887
   50CHL1    C9 3663   6.675   5.830   7.202 -0.3791 -0.1780  0.5651
   50CHL1    H9 3664   6.565   5.843   7.187 -0.5192 -0.6931  1.0972
   50CHL1   C10 3665   6.724   5.755   7.078  0.0584  0.5979 -0.2363
   50CHL1   C19 3666   6.856   5.679   7.102  0.3066 -0.0871 -0.6039
   50CHL1  H19A 3667   6.884   5.618   7.013 -0.8550 -0.0221 -1.0103
   50CHL1  H19B 3668   6.935   5.756   7.119  2.7561 -2.2899 -1.6118
   50CHL1  H19C 3669   6.855   5.611   7.190  1.5341 -1.1271 -1.3568
   50CHL1    C1 3670   6.608   5.658   7.038  0.5197  0.4505  0.0336
   50CHL1   H1A 3671   6.599   5.589   7.125 -3.0096  1.3584  0.4692
   50CHL1   H1B 3672   6.508   5.707   7.043  0.4763  0.3574  0.0940
   50CHL1    C2 3673   6.620   5.583   6.909 -0.0952 -0.3501  0.0986
   50CHL1   H2A 3674   6.530   5.526   6.879 -0.5492  1.2648 -1.6875
   50CHL1   H2B 3675   6.702   5.509   6.922 -0.7779 -0.8852  1.5491
   50CHL1   C20 3676   6.662   6.022   7.721  0.0191  0.3996  0.8589
   50CHL1   H20 3677   6.653   5.911   7.726  2.1908  0.2480  1.9945
   50CHL1   C21 3678   6.533   6.079   7.785  0.2862  0.6297 -0.0699
   50CHL1  H21A 3679   6.529   6.061   7.894 -0.6630  1.2853 -0.0015
   50CHL1  H21B 3680   6.454   6.011   7.747  1.4590 -0.8217  0.0073
   50CHL1  H21C 3681   6.511   6.181   7.747  2.4788  0.5542 -1.6886
   50CHL1   C22 3682   6.786   6.070   7.792  0.2335  0.1809 -0.3196
   50CHL1  H22A 3683   6.880   6.032   7.748  0.5643 -0.9797  1.3542
   50CHL1  H22B 3684   6.778   6.181   7.788 -0.9473  0.2953  3.2177
   50CHL1   C23 3685   6.790   6.045   7.946  0.1757  0.1537  0.0764
   50CHL1  H23A 3686   6.884   6.092   7.982  0.9248 -2.5291  1.6578
   50CHL1  H23B 3687   6.713   6.095   8.008 -0.4651 -1.5341  0.6585
   50CHL1   C24 3688   6.813   5.898   7.975  0.1744 -0.1610  0.1524
   50CHL1  H24A 3689   6.714   5.855   7.946  0.1019  0.4167 -0.4514
   50CHL1  H24B 3690   6.879   5.854   7.897 -1.1218 -0.4466 -0.8093
   50CHL1   C25 3691   6.836   5.848   8.118 -0.6477 -0.4359  0.4209
   50CHL1   H25 3692   6.933   5.895   8.144 -1.4436  0.6791  1.4371
   50CHL1   C26 3693   6.732   5.879   8.232 -0.5644 -0.0498 -0.2035
   50CHL1  H26A 3694   6.765   5.838   8.329 -1.7382 -1.0732 -0.2147
   50CHL1  H26B 3695   6.729   5.989   8.244  0.5889 -0.0591  0.2089
   50CHL1  H26C 3696   6.632   5.836   8.206 -0.2965 -0.8822  0.1116
   50CHL1   C27 3697   6.850   5.699   8.105 -0.2489  0.6844  0.2238
   50CHL1  H27A 3698   6.865   5.652   8.205 -0.9130  0.4297  0.2088
   50CHL1  H27B 3699   6.760   5.661   8.053  0.3957  1.5230 -1.5318
   50CHL1  H27C 3700   6.939   5.671   8.045 -0.1138  0.4476  0.5303
   51CHL1    C3 3701   6.727   4.805   6.849  0.1311 -0.5220  0.1965
   51CHL1    H3 3702   6.649   4.856   6.789 -0.0958  0.9853  1.7467
   51CHL1    O3 3703   6.806   4.740   6.744 -0.5262  0.0435  0.9406
   51CHL1   H3' 3704   6.880   4.701   6.791  0.1249 -0.2024 -0.2646
   51CHL1    C4 3705   6.812   4.907   6.924  0.0780  0.2944 -0.4142
   51CHL1   H4A 3706   6.911   4.863   6.949  2.6333  3.9395 -3.5622
   51CHL1   H4B 3707   6.844   4.975   6.842  0.0630  0.9745  0.1427
   51CHL1    C5 3708   6.738   4.975   7.042 -0.1602  0.1408 -0.2097
   51CHL1    C6 3709   6.722   5.110   7.054  0.0974 -0.0296  0.4673
   51CHL1    H6 3710   6.769   5.179   6.982 -1.5027  1.4291  0.7953
   51CHL1    C7 3711   6.634   5.183   7.157 -0.3418 -0.4900  0.0141
   51CHL1   H7A 3712   6.684   5.271   7.202  1.1653 -1.0658 -0.5112
   51CHL1   H7B 3713   6.539   5.210   7.105 -0.6080 -0.8392  0.3175
   51CHL1    C8 3714   6.591   5.088   7.278  0.0324  0.1803 -0.1996
   51CHL1    H8 3715   6.672   5.080   7.353  2.1315 -0.8608 -2.5121
   51CHL1   C14 3716   6.468   5.145   7.357 -0.5007  0.4043  0.7287
   51CHL1   H14 3717   6.390   5.130   7.280  2.5988  1.2823 -2.7279
   51CHL1   C15 3718   6.465   5.300   7.398 -0.6465 -0.2371 -0.0493
   51CHL1  H15A 3719   6.567   5.336   7.423  0.0725 -0.1335 -2.9310
   51CHL1  H15B 3720   6.422   5.355   7.311  1.6993 -0.7918 -1.6223
   51CHL1   C16 3721   6.367   5.304   7.515  0.9710  0.5677  0.3252
   51CHL1  H16A 3722   6.423   5.337   7.605 -0.1689  1.0280  0.8647
   51CHL1  H16B 3723   6.284   5.376   7.508  0.1872 -0.3756 -0.2873
   51CHL1   C17 3724   6.312   5.157   7.531 -0.0617 -0.3965  0.8478
   51CHL1   H17 3725   6.239   5.158   7.447  0.4658 -1.0681  0.3733
   51CHL1   C13 3726   6.426   5.063   7.478 -0.1208 -0.4865 -0.0704
   51CHL1   C18 3727   6.534   5.044   7.591  0.4851  0.1288  1.2838
   51CHL1  H18A 3728   6.553   5.146   7.630 -1.2304  0.1503  2.0852
   51CHL1  H18B 3729   6.501   4.987   7.680 -0.5916 -2.5699 -0.7729
   51CHL1  H18C 3730   6.628   4.996   7.554 -1.0269  0.7367 -3.6901
   51CHL1   C12 3731   6.386   4.924   7.417 -0.6997 -0.0573 -0.4846
   51CHL1  H12A 3732   6.353   4.848   7.491  0.5503 -0.0756  0.0688
   51CHL1  H12B 3733   6.304   4.957   7.350 -1.0822  1.8731  0.8804
   51CHL1   C11 3734   6.497   4.855   7.336  0.0816  0.5566 -0.6311
   51CHL1  H11A 3735   6.576   4.827   7.409 -0.8879 -1.0665 -0.2006
   51CHL1  H11B 3736   6.465   4.756   7.297  0.6227  0.5796 -1.1442
   51CHL1    C9 3737   6.554   4.952   7.228 -0.6603  0.6394  0.0031
   51CHL1    H9 3738   6.476   4.984   7.155 -1.9236 -0.6673  0.7658
   51CHL1   C10 3739   6.659   4.878   7.133  0.2847  0.1944  0.3437
   51CHL1   C19 3740   6.756   4.802   7.227 -0.0314 -0.4613 -0.8544
   51CHL1  H19A 3741   6.852   4.774   7.179  1.1880  1.7471  0.2490
   51CHL1  H19B 3742   6.786   4.869   7.310 -1.8477  2.6041 -2.6210
   51CHL1  H19C 3743   6.710   4.709   7.268  2.6639 -1.1840  0.7040
   51CHL1    C1 3744   6.577   4.775   7.044  0.6263 -0.4517 -0.7090
   51CHL1   H1A 3745   6.522   4.706   7.110 -0.6043  0.5697 -0.6574
   51CHL1   H1B 3746   6.504   4.834   6.984  1.6788  1.0352 -0.5697
   51CHL1    C2 3747   6.670   4.699   6.947  0.0796  0.6208  0.3861
   51CHL1   H2A 3748   6.620   4.626   6.880  0.6989  0.0824  0.5066
   51CHL1   H2B 3749   6.745   4.643   7.006  1.1683  0.4028 -1.1688
   51CHL1   C20 3750   6.237   5.131   7.657  0.6661 -0.5941  0.9946
   51CHL1   H20 3751   6.307   5.165   7.736  1.9932  0.2241 -0.5195
   51CHL1   C21 3752   6.199   4.981   7.673 -0.0398 -0.0272  0.0191
   51CHL1  H21A 3753   6.294   4.924   7.661  0.8857  1.5387 -0.2315
   51CHL1  H21B 3754   6.136   4.938   7.592 -2.0842  2.6397  0.1064
   51CHL1  H21C 3755   6.159   4.956   7.774  0.0716  1.2447  0.3950
   51CHL1   C22 3756   6.112   5.209   7.690 -0.1204 -0.3490  1.0015
   51CHL1  H22A 3757   6.113   5.317   7.662 -0.1944  0.1137  2.7533
   51CHL1  H22B 3758   6.033   5.162   7.627  0.5463  0.3613 -0.3734
   51CHL1   C23 3759   6.075   5.209   7.836  0.0761 -0.0952  0.4604
   51CHL1  H23A 3760   5.971   5.248   7.836 -0.4822 -1.4772  2.2922
   51CHL1  H23B 3761   6.076   5.106   7.879  1.6375 -0.2582  0.0650
   51CHL1   C24 3762   6.170   5.291   7.916  0.3732  0.2486  0.6923
   51CHL1  H24A 3763   6.266   5.238   7.936 -0.9173 -2.3240  0.3911
   51CHL1  H24B 3764   6.190   5.378   7.851 -0.9426 -1.2216 -1.7488
   51CHL1   C25 3765   6.105   5.322   8.054 -0.4287 -0.4072  0.4774
   51CHL1   H25 3766   5.998   5.344   8.032 -0.4244 -1.0529 -0.2298
   51CHL1   C26 3767   6.108   5.205   8.149 -0.3250 -0.5401 -0.7652
   51CHL1  H26A 3768   6.036   5.219   8.232 -1.7370 -0.4965 -1.9726
   51CHL1  H26B 3769   6.077   5.104   8.114 -1.0503 -1.2006  1.7306
   51CHL1  H26C 3770   6.211   5.194   8.191 -0.4563 -1.9722 -0.7799
   51CHL1   C27 3771   6.166   5.451   8.106 -0.3850 -0.1335  0.2494
   51CHL1  H27A 3772   6.277   5.450   8.101 -0.4139 -0.3082 -0.4910
   51CHL1  H27B 3773   6.130   5.536   8.045  4.0155  2.2925  0.7874
   51CHL1  H27C 3774   6.145   5.475   8.212  2.6974 -3.1644  1.6813
   52CHL1    C3 3775   2.069   6.786   6.790  0.5773  0.1256 -0.2554
   52CHL1    H3 3776   2.126   6.691   6.793 -0.7047 -0.7708 -2.8613
   52CHL1    O3 3777   2.042   6.829   6.655  0.2472 -0.5086 -0.5836
   52CHL1   H3' 3778   2.102   6.770   6.608 -0.0174 -0.2189 -1.2920
   52CHL1    C4 3779   1.931   6.778   6.857  0.2781  0.2082  0.1297
   52CHL1   H4A 3780   1.884   6.878   6.862  0.4217  0.1559  2.9896
   52CHL1   H4B 3781   1.868   6.707   6.798 -0.5310  0.8275  0.2380
   52CHL1    C5 3782   1.950   6.737   7.001 -0.1187  0.1458  0.5807
   52CHL1    C6 3783   1.884   6.627   7.047 -0.2017  0.9836 -0.5268
   52CHL1    H6 3784   1.825   6.575   6.971  0.4511  0.5246 -0.7287
   52CHL1    C7 3785   1.892   6.584   7.192 -0.0795  0.5091  0.2125
   52CHL1   H7A 3786   1.787   6.564   7.223  0.2409 -0.5303  0.6492
   52CHL1   H7B 3787   1.944   6.489   7.216 -1.6011 -0.0798  1.2185
   52CHL1    C8 3788   1.956   6.690   7.291  0.0962 -0.2151 -0.2675
   52CHL1    H8 3789   1.879   6.767   7.315  2.7571  2.4514 -0.0006
   52CHL1   C14 3790   2.020   6.617   7.410  0.6396 -0.0003 -0.2795
   52CHL1   H14 3791   2.103   6.555   7.369  1.5611  0.2249  1.2132
   52CHL1   C15 3792   1.931   6.520   7.484 -0.0844 -0.2189  0.0021
   52CHL1  H15A 3793   1.828   6.560   7.497 -0.0440 -0.2032  0.2699
   52CHL1  H15B 3794   1.929   6.419   7.439  2.4744 -0.5516  0.5825
   52CHL1   C16 3795   1.995   6.502   7.620 -0.0040 -0.1576 -0.3253
   52CHL1  H16A 3796   1.927   6.530   7.703 -3.4242 -1.2277 -2.6595
   52CHL1  H16B 3797   2.018   6.398   7.648  1.8070  0.7319  1.6064
   52CHL1   C17 3798   2.114   6.601   7.615 -0.4984  0.7415  0.2241
   52CHL1   H17 3799   2.203   6.547   7.576 -1.3245  1.2926 -2.4901
   52CHL1   C13 3800   2.076   6.707   7.514 -0.1424 -0.2300 -0.1219
   52CHL1   C18 3801   1.973   6.801   7.576  0.3862  1.0253  0.5672
   52CHL1  H18A 3802   1.887   6.750   7.625  0.3460  1.1831  0.6619
   52CHL1  H18B 3803   2.020   6.864   7.655  1.1831  0.2293  0.7269
   52CHL1  H18C 3804   1.929   6.874   7.504 -0.8898 -1.1936 -0.9638
   52CHL1   C12 3805   2.195   6.782   7.443  0.4255  0.0652 -0.2290
   52CHL1  H12A 3806   2.238   6.864   7.504  0.1806 -0.3531  0.5149
   52CHL1  H12B 3807   2.271   6.706   7.415 -0.6151 -1.4834  1.0603
   52CHL1   C11 3808   2.145   6.859   7.313 -0.9685  0.1525  0.5273
   52CHL1  H11A 3809   2.075   6.938   7.347 -1.2862  0.8053 -1.5806
   52CHL1  H11B 3810   2.236   6.910   7.275 -1.1382  0.0935  0.0504
   52CHL1    C9 3811   2.079   6.758   7.220  0.0831 -1.0193 -0.2454
   52CHL1    H9 3812   2.155   6.678   7.206  2.2263  1.1441 -1.4185
   52CHL1   C10 3813   2.049   6.826   7.081 -0.6480  0.0223  0.1714
   52CHL1   C19 3814   1.983   6.963   7.108  0.2062  0.0052  0.1050
   52CHL1  H19A 3815   1.944   7.012   7.016  3.5016 -0.5976 -1.7038
   52CHL1  H19B 3816   1.903   6.958   7.185 -1.7289  0.1357 -1.8366
   52CHL1  H19C 3817   2.055   7.032   7.157 -0.4950  0.2174  0.8337
   52CHL1    C1 3818   2.178   6.841   7.004 -0.2694 -0.5613  0.7982
   52CHL1   H1A 3819   2.246   6.919   7.045  0.2653 -0.2734 -0.5874
   52CHL1   H1B 3820   2.238   6.749   7.020 -1.3145 -1.4883 -0.5647
   52CHL1    C2 3821   2.162   6.882   6.860 -0.1384  0.4497 -0.3945
   52CHL1   H2A 3822   2.255   6.895   6.801 -0.7466  0.1617 -1.4460
   52CHL1   H2B 3823   2.114   6.982   6.856  0.4738  0.7706  0.1921
   52CHL1   C20 3824   2.147   6.654   7.756 -0.1523 -0.4655  1.3975
   52CHL1   H20 3825   2.051   6.697   7.792 -0.7820  0.6512 -1.5183
   52CHL1   C21 3826   2.246   6.770   7.762  0.2356  0.4230  0.7904
   52CHL1  H21A 3827   2.223   6.872   7.725 -0.5217 -0.0032  0.0797
   52CHL1  H21B 3828   2.340   6.744   7.708 -0.0202 -1.8335  1.3627
   52CHL1  H21C 3829   2.279   6.785   7.867  2.4953 -2.7989  0.6212
   52CHL1   C22 3830   2.184   6.544   7.856 -0.3041  0.1602 -0.2667
   52CHL1  H22A 3831   2.141   6.444   7.833  0.1064 -0.1447  0.2770
   52CHL1  H22B 3832   2.295   6.534   7.854 -0.1578  0.1033  3.5943
   52CHL1   C23 3833   2.138   6.580   8.002 -0.1893 -0.3833  0.1159
   52CHL1  H23A 3834   2.226   6.628   8.048 -0.2833 -0.4603  0.3764
   52CHL1  H23B 3835   2.042   6.636   7.989 -0.5304 -1.6925 -3.8154
   52CHL1   C24 3836   2.105   6.459   8.103 -0.4966 -0.6097 -0.0938
   52CHL1  H24A 3837   2.007   6.417   8.072  0.0286 -1.8564 -0.1201
   52CHL1  H24B 3838   2.179   6.379   8.078 -0.1505 -0.1040 -0.7102
   52CHL1   C25 3839   2.105   6.486   8.250  0.6895  0.0724 -0.9676
   52CHL1   H25 3840   2.211   6.501   8.280  1.2628 -2.9256 -1.2771
   52CHL1   C26 3841   2.037   6.611   8.297 -0.8538 -0.4739  0.2061
   52CHL1  H26A 3842   1.930   6.619   8.267 -0.3587  0.9717 -1.2712
   52CHL1  H26B 3843   2.049   6.631   8.406 -1.5817  0.7656  0.0696
   52CHL1  H26C 3844   2.086   6.700   8.252 -0.4603 -0.8518 -0.1163
   52CHL1   C27 3845   2.059   6.354   8.319 -0.1651  0.2960 -0.2002
   52CHL1  H27A 3846   1.954   6.339   8.287 -0.4818 -0.3171  1.0980
   52CHL1  H27B 3847   2.105   6.265   8.270  0.3807  0.1627  0.5419
   52CHL1  H27C 3848   2.086   6.346   8.426  0.8448  1.8205 -0.3255
   53CHL1    C3 3849   4.242   2.460   7.010 -0.3080 -0.1165 -0.4366
   53CHL1    H3 3850   4.272   2.567   7.016 -0.7003  0.1049 -2.3989
   53CHL1    O3 3851   4.221   2.437   6.874 -0.0344 -0.2703 -0.1018
   53CHL1   H3' 3852   4.194   2.345   6.867 -2.1113  0.1727  1.3556
   53CHL1    C4 3853   4.347   2.368   7.068  0.2361 -0.0600  0.2545
   53CHL1   H4A 3854   4.314   2.262   7.061  2.5071 -0.6644 -2.2424
   53CHL1   H4B 3855   4.436   2.362   7.001 -2.4553 -0.7028 -3.3570
   53CHL1    C5 3856   4.361   2.407   7.216  0.2027  0.2805 -0.1155
   53CHL1    C6 3857   4.482   2.448   7.262 -0.0761  0.7818 -0.0725
   53CHL1    H6 3858   4.573   2.451   7.201 -0.7193  0.9250 -1.0211
   53CHL1    C7 3859   4.505   2.494   7.400 -0.0324  0.1872 -0.3460
   53CHL1   H7A 3860   4.606   2.465   7.436  0.0087 -0.8564 -1.2703
   53CHL1   H7B 3861   4.497   2.605   7.395 -1.6323  0.1013  0.0954
   53CHL1    C8 3862   4.397   2.438   7.496 -0.7076 -0.2450 -0.2220
   53CHL1    H8 3863   4.405   2.327   7.504  0.6554  0.0046  2.4115
   53CHL1   C14 3864   4.409   2.508   7.625 -0.6343 -0.0083  0.1912
   53CHL1   H14 3865   4.391   2.617   7.606 -1.9069 -0.5593 -1.9295
   53CHL1   C15 3866   4.544   2.500   7.697 -0.5298 -0.3225 -0.3450
   53CHL1  H15A 3867   4.590   2.399   7.703 -1.8929 -1.1243 -2.6712
   53CHL1  H15B 3868   4.609   2.567   7.637 -0.1573  0.2552  0.7053
   53CHL1   C16 3869   4.521   2.560   7.830 -0.4815 -1.2249 -0.0118
   53CHL1  H16A 3870   4.561   2.503   7.917 -0.4174 -1.2200 -0.0385
   53CHL1  H16B 3871   4.570   2.660   7.840  0.1038 -1.4973 -0.1234
   53CHL1   C17 3872   4.365   2.543   7.848 -0.2145 -0.2165  0.1516
   53CHL1   H17 3873   4.336   2.647   7.823 -3.4546 -0.9362  0.5728
   53CHL1   C13 3874   4.309   2.460   7.726  0.2583  0.1186  0.2741
   53CHL1   C18 3875   4.335   2.314   7.770 -0.0144 -0.2168  0.4854
   53CHL1  H18A 3876   4.432   2.292   7.818  0.1131 -1.6243 -0.3676
   53CHL1  H18B 3877   4.252   2.282   7.837 -1.1172 -2.9975 -2.0843
   53CHL1  H18C 3878   4.334   2.245   7.682  0.4703 -0.7680  0.9077
   53CHL1   C12 3879   4.163   2.486   7.683 -0.1897  0.1883 -0.2328
   53CHL1  H12A 3880   4.100   2.450   7.767  0.6696 -2.4474 -0.6727
   53CHL1  H12B 3881   4.137   2.593   7.664 -0.2489  0.2662  0.2726
   53CHL1   C11 3882   4.152   2.406   7.550  0.5399 -0.3796  0.6593
   53CHL1  H11A 3883   4.162   2.296   7.556  0.6518 -0.6103 -3.0041
   53CHL1  H11B 3884   4.050   2.421   7.508  1.3309 -1.3417 -1.6921
   53CHL1    C9 3885   4.254   2.463   7.444  0.7260  1.4956  0.0943
   53CHL1    H9 3886   4.250   2.574   7.440  0.5772  1.5210  0.9330
   53CHL1   C10 3887   4.235   2.407   7.303 -0.6097  0.7695  0.3855
   53CHL1   C19 3888   4.198   2.256   7.312  0.5568 -0.1169  0.4374
   53CHL1  H19A 3889   4.089   2.242   7.330  0.2762  0.9914 -0.3500
   53CHL1  H19B 3890   4.214   2.209   7.213  0.4059  3.6187 -1.4568
   53CHL1  H19C 3891   4.270   2.195   7.370  1.7571 -2.1927 -3.0758
   53CHL1    C1 3892   4.121   2.490   7.231 -0.2084  0.1974  1.1896
   53CHL1   H1A 3893   4.028   2.469   7.289  0.9639 -0.8171  2.7351
   53CHL1   H1B 3894   4.142   2.599   7.239 -2.4866  0.5046  3.5538
   53CHL1    C2 3895   4.110   2.449   7.085  0.2003 -0.6962 -0.1915
   53CHL1   H2A 3896   4.039   2.514   7.030  1.2430  0.1882 -0.4890
   53CHL1   H2B 3897   4.074   2.343   7.086 -0.9910 -0.3249 -1.6009
   53CHL1   C20 3898   4.294   2.508   7.981 -0.4602 -0.4963  0.2354
   53CHL1   H20 3899   4.187   2.485   7.960 -1.6212  2.4172  2.4361
   53CHL1   C21 3900   4.289   2.643   8.065  0.3394 -0.7542  0.0241
   53CHL1  H21A 3901   4.245   2.730   8.012 -2.6354 -2.2255 -0.0294
   53CHL1  H21B 3902   4.392   2.674   8.091  0.7434  0.5958 -2.9737
   53CHL1  H21C 3903   4.233   2.626   8.160 -1.4729  2.1379 -0.4702
   53CHL1   C22 3904   4.350   2.398   8.072 -0.7692 -0.4550  0.9631
   53CHL1  H22A 3905   4.363   2.304   8.014  2.2043  1.1156 -1.0762
   53CHL1  H22B 3906   4.453   2.425   8.104  0.3524 -1.7534 -1.4062
   53CHL1   C23 3907   4.264   2.369   8.202  0.0327 -0.1426  0.0446
   53CHL1  H23A 3908   4.319   2.289   8.256  0.1255  0.9095  1.5331
   53CHL1  H23B 3909   4.254   2.461   8.263 -0.9651  0.1492 -0.5429
   53CHL1   C24 3910   4.127   2.305   8.172  0.1359 -0.4558 -1.0461
   53CHL1  H24A 3911   4.059   2.361   8.105 -0.0163  1.5325  0.7236
   53CHL1  H24B 3912   4.147   2.206   8.124  2.9198 -0.4379 -0.0533
   53CHL1   C25 3913   4.042   2.278   8.300  0.2645 -0.0775  0.0350
   53CHL1   H25 3914   4.111   2.269   8.386 -0.5210  0.5397  0.7376
   53CHL1   C26 3915   3.945   2.388   8.324  0.0808 -0.2231  0.0969
   53CHL1  H26A 3916   3.987   2.490   8.313 -0.2953  0.0244  0.8934
   53CHL1  H26B 3917   3.865   2.386   8.246 -0.1417 -0.8910  0.3397
   53CHL1  H26C 3918   3.897   2.385   8.424 -2.1199  0.0381 -0.9108
   53CHL1   C27 3919   3.950   2.153   8.289 -0.8360  0.3585  0.4497
   53CHL1  H27A 3920   3.881   2.141   8.202 -0.3285  0.5392  0.0240
   53CHL1  H27B 3921   4.013   2.062   8.283 -0.8648  0.3061  0.9266
   53CHL1  H27C 3922   3.878   2.142   8.373 -0.0691 -1.5836  0.8755
   54CHL1    C3 3923   4.915   4.235   6.998 -0.2741 -0.0563  0.4172
   54CHL1    H3 3924   4.814   4.244   7.042  0.0459 -1.5058  1.4509
   54CHL1    O3 3925   4.910   4.254   6.858  0.1059  0.3526  0.1251
   54CHL1   H3' 3926   4.975   4.192   6.823 -1.3836 -1.3812  0.3975
   54CHL1    C4 3927   5.017   4.332   7.054  0.1226  0.3918 -0.6380
   54CHL1   H4A 3928   5.112   4.312   7.000 -0.9095 -1.5461 -1.8176
   54CHL1   H4B 3929   4.972   4.433   7.048  1.1585  0.9331  0.5886
   54CHL1    C5 3930   5.033   4.309   7.199 -0.2677  0.0172 -0.0365
   54CHL1    C6 3931   5.009   4.405   7.296  0.1193  0.5039  0.1056
   54CHL1    H6 3932   4.979   4.507   7.268 -2.6277 -0.1348  0.5133
   54CHL1    C7 3933   5.045   4.391   7.438 -0.1019  0.1080 -0.0283
   54CHL1   H7A 3934   5.085   4.482   7.487  0.7588 -0.0856 -0.3633
   54CHL1   H7B 3935   4.947   4.373   7.487  0.5719  1.3941  1.8285
   54CHL1    C8 3936   5.122   4.263   7.473 -0.1987 -0.0148  0.4646
   54CHL1    H8 3937   5.225   4.276   7.436 -0.6235  2.9954  0.2325
   54CHL1   C14 3938   5.116   4.230   7.626 -0.1317 -0.4373 -0.4286
   54CHL1   H14 3939   5.009   4.212   7.650 -0.4467  2.9496  0.8834
   54CHL1   C15 3940   5.158   4.347   7.720 -0.6798  0.5173 -0.1246
   54CHL1  H15A 3941   5.235   4.409   7.671  0.0856 -0.4443 -0.1686
   54CHL1  H15B 3942   5.067   4.410   7.731 -0.8326  0.0275  1.5458
   54CHL1   C16 3943   5.203   4.271   7.851  0.4243 -0.2676 -0.9391
   54CHL1  H16A 3944   5.311   4.294   7.858  0.7491 -1.2559 -2.4874
   54CHL1  H16B 3945   5.148   4.296   7.944 -1.1989 -0.9830 -1.6881
   54CHL1   C17 3946   5.185   4.121   7.828 -0.6016 -0.4751 -0.8805
   54CHL1   H17 3947   5.078   4.098   7.850 -1.1084  0.2106 -2.5638
   54CHL1   C13 3948   5.190   4.099   7.671 -0.4312 -0.2166  0.2580
   54CHL1   C18 3949   5.340   4.102   7.630  0.6837 -0.4730  0.4318
   54CHL1  H18A 3950   5.398   4.168   7.698 -1.7798  1.8322  0.3797
   54CHL1  H18B 3951   5.375   3.996   7.632 -0.9320 -1.0234  1.0484
   54CHL1  H18C 3952   5.357   4.142   7.528 -0.6862  0.6987  0.6507
   54CHL1   C12 3953   5.106   3.990   7.607 -1.2459 -0.1166  0.4430
   54CHL1  H12A 3954   5.143   3.887   7.626  1.1901  0.1756 -2.3848
   54CHL1  H12B 3955   5.005   4.006   7.650 -1.6073  1.1618 -0.8404
   54CHL1   C11 3956   5.118   4.014   7.455  0.2697 -0.1542  0.0947
   54CHL1  H11A 3957   5.225   3.987   7.440  0.7367  1.5759  0.2361
   54CHL1  H11B 3958   5.063   3.932   7.403 -1.0924  0.8310 -0.0523
   54CHL1    C9 3959   5.065   4.150   7.393  0.1729 -0.0589  1.3085
   54CHL1    H9 3960   4.957   4.151   7.419 -0.2423  0.3162 -0.3625
   54CHL1   C10 3961   5.068   4.161   7.244 -0.7283 -1.3088  0.2299
   54CHL1   C19 3962   5.212   4.122   7.194  0.1609  0.0613  0.2614
   54CHL1  H19A 3963   5.213   4.123   7.083 -1.2867 -0.2838  0.2323
   54CHL1  H19B 3964   5.284   4.193   7.241 -1.3070  1.4229  0.5066
   54CHL1  H19C 3965   5.249   4.026   7.234 -1.5315 -0.4618  0.6165
   54CHL1    C1 3966   4.967   4.062   7.175 -0.2238 -0.3753 -0.3391
   54CHL1   H1A 3967   4.995   3.956   7.192 -1.0023 -0.5119  0.1067
   54CHL1   H1B 3968   4.864   4.089   7.204 -0.4398  0.1780 -1.5895
   54CHL1    C2 3969   4.959   4.092   7.028  0.2969 -0.0296 -0.9621
   54CHL1   H2A 3970   4.886   4.026   6.978  1.0774 -1.9998  0.4011
   54CHL1   H2B 3971   5.052   4.062   6.974  0.8510 -0.1250  0.0144
   54CHL1   C20 3972   5.272   4.029   7.914 -0.2784 -0.2115 -0.0392
   54CHL1   H20 3973   5.379   4.038   7.886  0.6030 -2.1285  2.5133
   54CHL1   C21 3974   5.230   3.879   7.893  0.1845 -0.1163  0.0268
   54CHL1  H21A 3975   5.120   3.884   7.879  0.3247  0.8275 -0.8341
   54CHL1  H21B 3976   5.265   3.816   7.978 -0.9580  1.9803  2.1021
   54CHL1  H21C 3977   5.269   3.842   7.796 -0.4494  1.9409 -1.0457
   54CHL1   C22 3978   5.270   4.059   8.065 -0.0692 -0.0318  0.6861
   54CHL1  H22A 3979   5.270   4.167   8.090 -0.2858  0.4736 -1.4855
   54CHL1  H22B 3980   5.179   4.011   8.107 -0.6283  1.1964  0.8875
   54CHL1   C23 3981   5.400   3.989   8.140  0.1069  0.4423  0.9098
   54CHL1  H23A 3982   5.407   3.883   8.108  0.2771  0.4147  1.0375
   54CHL1  H23B 3983   5.491   4.048   8.114 -0.3947  1.1002  0.6352
   54CHL1   C24 3984   5.379   3.990   8.290 -0.4341 -0.1977  0.0852
   54CHL1  H24A 3985   5.393   4.093   8.329 -1.4603  0.1470 -0.4568
   54CHL1  H24B 3986   5.273   3.966   8.311  0.2261 -0.5628  3.2584
   54CHL1   C25 3987   5.480   3.902   8.362 -0.0399  0.3877  0.3362
   54CHL1   H25 3988   5.476   3.800   8.318  0.5228  1.4471 -2.2777
   54CHL1   C26 3989   5.618   3.956   8.341 -0.4562  0.0536  0.5562
   54CHL1  H26A 3990   5.640   4.056   8.385 -0.3077  0.0120  0.5752
   54CHL1  H26B 3991   5.696   3.886   8.376 -0.2899 -0.5330 -0.9548
   54CHL1  H26C 3992   5.643   3.969   8.234 -0.3023  1.4936  0.7583
   54CHL1   C27 3993   5.448   3.903   8.514 -0.2263  0.2557 -0.5718
   54CHL1  H27A 3994   5.529   3.858   8.575 -1.2068  0.2548  0.7686
   54CHL1  H27B 3995   5.431   4.007   8.551  0.5800 -0.3911  1.6553
   54CHL1  H27C 3996   5.353   3.846   8.525  0.4218 -0.6722  0.2480
   55CHL1    C3 3997   4.648   5.858   6.972  0.9849 -0.6911  0.2702
   55CHL1    H3 3998   4.752   5.829   6.997  0.9516 -0.2566  0.9094
   55CHL1    O3 3999   4.632   5.904   6.840 -0.1593  0.0997  0.2607
   55CHL1   H3' 4000   4.540   5.900   6.814 -0.2929 -6.1590  0.8835
   55CHL1    C4 4001   4.547   5.731   6.987  0.1366 -0.8966  0.0764
   55CHL1   H4A 4002   4.450   5.758   6.939  1.2044  2.5766 -0.2205
   55CHL1   H4B 4003   4.578   5.645   6.924 -0.1607 -1.3973  0.6047
   55CHL1    C5 4004   4.514   5.690   7.134  0.2821  0.2682 -0.9852
   55CHL1    C6 4005   4.536   5.572   7.181  0.7057 -0.2445  0.6683
   55CHL1    H6 4006   4.575   5.497   7.111  3.4610  3.0370 -1.4798
   55CHL1    C7 4007   4.504   5.525   7.314  0.9614  0.6794  0.3568
   55CHL1   H7A 4008   4.437   5.437   7.302  1.5213  0.3988 -0.8450
   55CHL1   H7B 4009   4.596   5.490   7.365  1.1177  0.9504  0.2627
   55CHL1    C8 4010   4.417   5.627   7.404 -0.4924  0.4189  0.1637
   55CHL1    H8 4011   4.312   5.609   7.373 -0.5503 -2.4110  1.7516
   55CHL1   C14 4012   4.431   5.602   7.555 -0.0262  0.3115 -0.7471
   55CHL1   H14 4013   4.539   5.626   7.568  0.4388 -1.5422 -1.0319
   55CHL1   C15 4014   4.412   5.458   7.609 -0.4987  0.3109  0.7739
   55CHL1  H15A 4015   4.318   5.415   7.569 -0.6818  2.2640 -0.9703
   55CHL1  H15B 4016   4.496   5.389   7.584 -3.0292 -1.9878 -1.7417
   55CHL1   C16 4017   4.411   5.474   7.763 -0.2944 -0.3662  0.2401
   55CHL1  H16A 4018   4.325   5.418   7.807  0.3917 -1.1215  0.6151
   55CHL1  H16B 4019   4.506   5.430   7.800 -1.0837 -0.6837  1.9458
   55CHL1   C17 4020   4.402   5.630   7.796 -0.0695  0.5948 -0.0646
   55CHL1   H17 4021   4.506   5.662   7.817  0.5038 -0.2396 -1.5517
   55CHL1   C13 4022   4.358   5.692   7.659 -0.2588  0.0329  0.4808
   55CHL1   C18 4023   4.206   5.680   7.626 -0.3028  0.5907 -0.2209
   55CHL1  H18A 4024   4.176   5.710   7.523  1.5199 -2.2516 -1.6716
   55CHL1  H18B 4025   4.174   5.574   7.634  0.1789  0.4942  0.5226
   55CHL1  H18C 4026   4.146   5.736   7.701  0.9151  1.6420 -0.0142
   55CHL1   C12 4027   4.411   5.835   7.626 -0.9950 -0.5300  0.2914
   55CHL1  H12A 4028   4.358   5.905   7.695  2.7185  0.7549  2.0000
   55CHL1  H12B 4029   4.520   5.842   7.649 -1.2619 -0.4621  1.5697
   55CHL1   C11 4030   4.396   5.876   7.474  0.3435  0.1808 -0.0796
   55CHL1  H11A 4031   4.287   5.875   7.452 -0.1619 -1.6431  2.3101
   55CHL1  H11B 4032   4.437   5.975   7.446 -0.3361 -0.1197 -2.1720
   55CHL1    C9 4033   4.464   5.769   7.376 -0.2736 -0.6074 -0.1277
   55CHL1    H9 4034   4.573   5.768   7.397 -0.2808  0.8318 -0.0020
   55CHL1   C10 4035   4.456   5.809   7.223 -0.6837 -0.8062 -0.5964
   55CHL1   C19 4036   4.316   5.842   7.189  0.2670  0.6346  0.5969
   55CHL1  H19A 4037   4.282   5.939   7.231  1.1032  0.7767  0.9482
   55CHL1  H19B 4038   4.294   5.855   7.081 -0.9880  0.3981  0.8152
   55CHL1  H19C 4039   4.247   5.768   7.236 -1.9273  1.0899 -1.7896
   55CHL1    C1 4040   4.553   5.931   7.202 -0.3589 -0.0248 -0.0868
   55CHL1   H1A 4041   4.528   6.022   7.260 -1.7371 -1.0251  0.9275
   55CHL1   H1B 4042   4.650   5.912   7.252 -0.5706 -0.6175  0.1000
   55CHL1    C2 4043   4.582   5.969   7.059  0.0525 -0.3917  0.7245
   55CHL1   H2A 4044   4.641   6.062   7.063 -0.6280  0.0530  0.4443
   55CHL1   H2B 4045   4.487   6.006   7.015  0.8414  1.3021  0.4356
   55CHL1   C20 4046   4.313   5.653   7.918  0.6686 -0.3424  0.0849
   55CHL1   H20 4047   4.210   5.620   7.894 -0.0355  0.2267  2.1451
   55CHL1   C21 4048   4.314   5.799   7.943  0.0073 -0.1575 -0.3211
   55CHL1  H21A 4049   4.268   5.831   8.039 -0.1036  1.8973 -1.0537
   55CHL1  H21B 4050   4.256   5.864   7.874 -0.5729 -2.1513 -1.7618
   55CHL1  H21C 4051   4.418   5.837   7.954 -0.9373  3.0560 -2.1004
   55CHL1   C22 4052   4.353   5.585   8.052 -0.6816  0.0213 -0.4125
   55CHL1  H22A 4053   4.365   5.474   8.044  1.2591  0.2172 -0.3924
   55CHL1  H22B 4054   4.445   5.632   8.092 -1.0496  0.3701  0.0293
   55CHL1   C23 4055   4.255   5.591   8.169  1.0334  0.5518 -1.1840
   55CHL1  H23A 4056   4.230   5.699   8.184 -0.2708 -0.0001  0.9517
   55CHL1  H23B 4057   4.159   5.540   8.145  1.1866 -0.0529 -0.5509
   55CHL1   C24 4058   4.313   5.513   8.287 -0.4370  0.6183 -0.2658
   55CHL1  H24A 4059   4.281   5.407   8.275 -1.9563  0.9995  0.1818
   55CHL1  H24B 4060   4.422   5.531   8.291 -0.5302  1.2228 -0.4447
   55CHL1   C25 4061   4.258   5.559   8.420 -0.4566 -0.4134 -0.1000
   55CHL1   H25 4062   4.297   5.484   8.492  1.9548 -0.8255 -1.7501
   55CHL1   C26 4063   4.302   5.697   8.476  0.4840 -0.2346 -0.8064
   55CHL1  H26A 4064   4.276   5.705   8.584 -1.7296 -0.8409 -1.2624
   55CHL1  H26B 4065   4.410   5.716   8.459  0.4719  1.1879  0.5715
   55CHL1  H26C 4066   4.251   5.774   8.414 -2.2189 -1.4713 -0.2212
   55CHL1   C27 4067   4.103   5.557   8.415 -0.2891  0.5326  0.1178
   55CHL1  H27A 4068   4.056   5.648   8.372  1.1818  0.6910 -1.2003
   55CHL1  H27B 4069   4.071   5.469   8.356  1.9030 -1.4571  1.7538
   55CHL1  H27C 4070   4.059   5.547   8.517  1.8590  1.0570  1.1411
   56CHL1    C3 4071   4.257   3.788   7.019  0.4811  0.2442 -0.4655
   56CHL1    H3 4072   4.337   3.857   7.055 -0.5104  0.3681  1.5932
   56CHL1    O3 4073   4.276   3.744   6.884 -0.4756  0.0901  0.1718
   56CHL1   H3' 4074   4.295   3.650   6.889  1.2374  0.2977 -2.1497
   56CHL1    C4 4075   4.257   3.680   7.134  0.3569 -0.6625 -0.2580
   56CHL1   H4A 4076   4.180   3.602   7.114 -0.2585 -0.3903  0.9677
   56CHL1   H4B 4077   4.356   3.631   7.133  0.8846  0.3904  0.0756
   56CHL1    C5 4078   4.238   3.734   7.275 -0.5618 -0.5975 -0.2478
   56CHL1    C6 4079   4.330   3.719   7.373  0.8096  0.4493 -0.5066
   56CHL1    H6 4080   4.408   3.644   7.353  0.5756 -0.0573  0.4596
   56CHL1    C7 4081   4.312   3.772   7.515  0.0082  0.1767 -1.0568
   56CHL1   H7A 4082   4.360   3.700   7.584  1.8103  1.1721 -1.2232
   56CHL1   H7B 4083   4.382   3.857   7.533  0.6599  0.1235 -3.1804
   56CHL1    C8 4084   4.173   3.818   7.549 -0.7004  0.0663 -0.1704
   56CHL1    H8 4085   4.113   3.727   7.573  0.7043 -0.4254  1.5982
   56CHL1   C14 4086   4.187   3.911   7.671 -0.4613  0.4122 -0.5172
   56CHL1   H14 4087   4.266   3.986   7.651 -1.0954  0.6685 -2.0756
   56CHL1   C15 4088   4.227   3.828   7.804 -0.1827  0.3407  0.3823
   56CHL1  H15A 4089   4.180   3.730   7.823  0.0756  0.0883 -0.2668
   56CHL1  H15B 4090   4.335   3.800   7.805 -0.8874 -2.4884  0.3142
   56CHL1   C16 4091   4.201   3.931   7.916 -0.0383  0.6431 -0.1820
   56CHL1  H16A 4092   4.138   3.882   7.993 -1.2960  0.6968 -1.1647
   56CHL1  H16B 4093   4.297   3.976   7.952 -0.6558 -0.1952  2.6132
   56CHL1   C17 4094   4.102   4.042   7.851  0.0803  0.7923  0.1317
   56CHL1   H17 4095   4.171   4.125   7.826  0.7485  0.8414  2.0961
   56CHL1   C13 4096   4.061   3.980   7.715 -0.0298  0.1600  0.0078
   56CHL1   C18 4097   3.949   3.877   7.744 -0.9529 -0.5350  0.0521
   56CHL1  H18A 4098   3.854   3.927   7.776 -0.3839  1.8135 -1.7511
   56CHL1  H18B 4099   3.925   3.817   7.654 -2.0060 -3.7188  2.3588
   56CHL1  H18C 4100   3.984   3.805   7.821  1.3490  2.4538  1.9095
   56CHL1   C12 4101   4.014   4.071   7.594 -0.1036  0.2665  0.6679
   56CHL1  H12A 4102   3.917   4.123   7.608 -0.4722 -0.3654  0.5170
   56CHL1  H12B 4103   4.095   4.141   7.568 -1.4665  2.0331  1.1018
   56CHL1   C11 4104   3.989   3.991   7.466  0.7601  0.3298 -0.3959
   56CHL1  H11A 4105   3.901   3.926   7.482  0.4798  0.9252  0.4801
   56CHL1  H11B 4106   3.969   4.051   7.375  1.9719 -0.9548 -1.5428
   56CHL1    C9 4107   4.118   3.902   7.431 -0.1463  0.5099 -0.2742
   56CHL1    H9 4108   4.191   3.985   7.423  0.5479 -0.0626  0.1240
   56CHL1   C10 4109   4.116   3.830   7.295 -0.3150 -0.9266  0.7443
   56CHL1   C19 4110   3.983   3.742   7.281 -0.8119 -0.0206  0.0421
   56CHL1  H19A 4111   3.964   3.686   7.375 -0.8208 -1.1472 -0.6075
   56CHL1  H19B 4112   3.900   3.812   7.257 -1.8323 -1.0937  0.3867
   56CHL1  H19C 4113   3.991   3.672   7.194  0.4596  1.2496 -0.8783
   56CHL1    C1 4114   4.106   3.932   7.174 -0.3363  0.8623  0.1698
   56CHL1   H1A 4115   4.021   4.003   7.180 -0.9669 -0.0511  2.3141
   56CHL1   H1B 4116   4.194   3.999   7.185  0.9158 -0.3433 -2.0089
   56CHL1    C2 4117   4.125   3.869   7.037  0.3033  0.3585 -0.0829
   56CHL1   H2A 4118   4.119   3.942   6.953 -1.5218  1.6911  1.1794
   56CHL1   H2B 4119   4.044   3.795   7.021 -0.1590  0.7325  0.5577
   56CHL1   C20 4120   3.992   4.091   7.945  0.1027 -1.2922 -0.6394
   56CHL1   H20 4121   3.919   4.010   7.964 -1.1532 -0.2758 -1.0482
   56CHL1   C21 4122   3.918   4.208   7.883  0.3124  0.1105  0.0200
   56CHL1  H21A 4123   3.985   4.292   7.852 -0.5296  0.2636 -1.4478
   56CHL1  H21B 4124   3.845   4.264   7.946  0.0686  2.2324 -2.0534
   56CHL1  H21C 4125   3.860   4.176   7.794  0.2788 -0.3151  0.1923
   56CHL1   C22 4126   4.036   4.132   8.091  0.3753 -0.7767  0.2876
   56CHL1  H22A 4127   3.942   4.179   8.126  1.8163  0.5263  2.5628
   56CHL1  H22B 4128   4.045   4.034   8.142 -0.3228 -1.1982 -0.3933
   56CHL1   C23 4129   4.153   4.236   8.096 -0.5743 -0.4618  0.3766
   56CHL1  H23A 4130   4.247   4.198   8.051 -0.5558 -0.8586  0.7402
   56CHL1  H23B 4131   4.104   4.324   8.050 -1.1837  0.4414  2.6643
   56CHL1   C24 4132   4.175   4.278   8.244  0.5912 -0.0254 -0.4952
   56CHL1  H24A 4133   4.249   4.361   8.250 -0.0699  0.3571  3.0543
   56CHL1  H24B 4134   4.085   4.318   8.296  0.7169  0.4405 -0.6278
   56CHL1   C25 4135   4.242   4.171   8.331  0.1403  0.7510  0.1815
   56CHL1   H25 4136   4.181   4.079   8.324 -1.2227  1.7550 -1.3314
   56CHL1   C26 4137   4.387   4.145   8.286  0.5974  0.6739  0.2103
   56CHL1  H26A 4138   4.449   4.085   8.355  2.2923  1.9031 -0.2273
   56CHL1  H26B 4139   4.432   4.242   8.257  0.1102  1.1334  0.9691
   56CHL1  H26C 4140   4.386   4.102   8.184 -2.5732 -0.0761  0.4769
   56CHL1   C27 4141   4.253   4.206   8.480  0.0415 -0.1499  0.1698
   56CHL1  H27A 4142   4.151   4.217   8.524 -0.4831  1.6200 -1.4210
   56CHL1  H27B 4143   4.314   4.129   8.532  3.7352  2.7592  0.3735
   56CHL1  H27C 4144   4.319   4.295   8.490  1.9307 -1.6296  1.2767
   57SAPC     N 4145   3.662   6.705  10.870  0.3475  0.4581  0.0758
   57SAPC   C12 4146   3.727   6.747  10.746 -0.3295 -0.4196  0.3849
   57SAPC  H12A 4147   3.750   6.652  10.700 -0.8001 -0.8886  1.1090
   57SAPC  H12B 4148   3.821   6.798  10.763 -0.3222 -0.5502  0.7466
   57SAPC   C13 4149   3.730   6.582  10.923 -0.3591 -0.1707 -0.1367
   57SAPC  H13A 4150   3.678   6.499  10.877 -0.1528 -0.3802  0.0102
   57SAPC  H13B 4151   3.835   6.580  10.898 -0.1692  1.9178  0.4108
   57SAPC  H13C 4152   3.701   6.585  11.027 -1.6364 -0.9161 -0.4601
   57SAPC   C14 4153   3.669   6.818  10.970 -0.1697 -0.2625 -0.6718
   57SAPC  H14A 4154   3.759   6.876  10.962 -1.0864  1.3506  0.2967
   57SAPC  H14B 4155   3.586   6.885  10.952 -2.8095 -3.5852 -1.5892
   57SAPC  H14C 4156   3.652   6.790  11.074 -0.2063  2.9510  0.2383
   57SAPC   C15 4157   3.519   6.673  10.847 -0.3850 -0.5385  0.3117
   57SAPC  H15A 4158   3.472   6.757  10.798 -0.9174 -0.9653  0.0903
   57SAPC  H15B 4159   3.498   6.588  10.784  1.0271  0.1398 -1.1158
   57SAPC  H15C 4160   3.464   6.661  10.939 -0.9717  2.7138  0.4338
   57SAPC   C11 4161   3.645   6.832  10.641  0.9550 -0.2337  0.1962
   57SAPC  H11A 4162   3.557   6.775  10.604  1.0964  0.6054 -1.5006
   57SAPC  H11B 4163   3.718   6.852  10.560  0.8755 -1.1224 -0.1017
   57SAPC     P 4164   3.471   7.024  10.703  0.1193 -0.1655 -0.0445
   57SAPC   O13 4165   3.368   6.931  10.741  0.2555  0.1204  0.0279
   57SAPC   O14 4166   3.474   7.153  10.773 -0.3088 -0.0978 -0.2323
   57SAPC   O12 4167   3.614   6.960  10.709 -0.0336 -0.0715  0.1546
   57SAPC   O11 4168   3.461   7.049  10.544 -0.0255  0.7289 -0.0843
   57SAPC    C1 4169   3.389   6.963  10.458  0.6308  0.0238 -0.4621
   57SAPC    HA 4170   3.414   6.857  10.483 -1.9580  0.2624  3.5172
   57SAPC    HB 4171   3.279   6.965  10.473  0.7613  2.3938  0.2683
   57SAPC    C2 4172   3.418   6.989  10.308 -0.1192  0.8490  0.3632
   57SAPC    HS 4173   3.354   6.914  10.256 -1.2597  0.0064  2.9466
   57SAPC   O21 4174   3.556   6.976  10.266  0.2700  0.1755  0.2416
   57SAPC   C21 4175   3.608   6.855  10.286  0.0214 -0.1584  0.4448
   57SAPC   O22 4176   3.541   6.754  10.304  0.2282  0.2478  0.1357
   57SAPC   C22 4177   3.760   6.858  10.255  1.1045  0.6651  0.5857
   57SAPC   H2R 4178   3.756   6.884  10.147  2.1381 -0.1807  0.3358
   57SAPC   H2S 4179   3.812   6.939  10.309  0.5893  2.1649 -1.1340
   57SAPC    C3 4180   3.376   7.136  10.277 -0.4126  0.2156  0.3669
   57SAPC    HX 4181   3.439   7.211  10.331 -2.7075 -0.1498  3.7184
   57SAPC    HY 4182   3.274   7.138  10.322 -0.0082 -0.4712  1.3432
   57SAPC   O31 4183   3.362   7.158  10.134 -0.7561  0.8047 -0.0391
   57SAPC   C31 4184   3.326   7.276  10.102 -0.1536 -0.0668  0.5701
   57SAPC   O32 4185   3.330   7.378  10.171  0.3419 -0.1501  0.0633
   57SAPC   C32 4186   3.280   7.271   9.956 -0.7633 -0.0547 -0.1232
   57SAPC   H2X 4187   3.183   7.218   9.968 -1.6500  1.7572  0.8581
   57SAPC   H2Y 4188   3.352   7.209   9.898 -0.5774 -0.7783  0.8747
   57SAPC   C23 4189   3.833   6.719  10.279  0.1977  0.0463 -0.5353
   57SAPC   H3R 4190   3.780   6.651  10.348  2.6344 -1.7051 -0.3625
   57SAPC   H3S 4191   3.927   6.739  10.335  0.5591 -1.7976 -0.4604
   57SAPC   C24 4192   3.863   6.647  10.150  0.4634  0.4308 -0.4006
   57SAPC   H4R 4193   3.912   6.552  10.182 -2.1096 -0.7789  0.1444
   57SAPC   H4S 4194   3.927   6.710  10.085  0.4631 -0.7051 -1.5262
   57SAPC   C25 4195   3.729   6.606  10.084 -0.0621  0.0657 -0.5999
   57SAPC   H5R 4196   3.668   6.542  10.149  1.7608  0.6271  1.7069
   57SAPC   C26 4197   3.699   6.627   9.957  0.0730 -0.7943 -1.6328
   57SAPC   H6R 4198   3.613   6.572   9.917  1.7465 -2.3369 -3.2300
   57SAPC   C27 4199   3.775   6.722   9.868 -0.2023  0.2268 -0.3532
   57SAPC   H7R 4200   3.810   6.805   9.934  0.6295 -0.3467 -0.0599
   57SAPC   H7S 4201   3.698   6.762   9.799  0.0005  0.4202 -0.4703
   57SAPC   C28 4202   3.891   6.659   9.797 -0.3224  0.3900  0.2208
   57SAPC   H8R 4203   3.954   6.603   9.867 -1.6083  3.4229  3.9281
   57SAPC   C29 4204   3.905   6.638   9.662 -0.4788 -0.3468  0.4478
   57SAPC   H9R 4205   3.993   6.581   9.630 -0.3320 -1.1297  2.1786
   57SAPC  C210 4206   3.810   6.690   9.558 -0.1146  0.2226  0.5694
   57SAPC  H10R 4207   3.847   6.787   9.518 -1.4164  0.5816  0.2404
   57SAPC  H10S 4208   3.708   6.702   9.599 -0.6539 -1.1805 -0.3404
   57SAPC  C211 4209   3.795   6.586   9.452 -0.8524 -0.7583 -0.2962
   57SAPC  H11R 4210   3.814   6.483   9.486  1.7639 -0.3471 -0.3722
   57SAPC  C212 4211   3.773   6.608   9.319 -0.4016 -0.1794 -0.7018
   57SAPC  H12R 4212   3.780   6.521   9.252  0.6629 -0.4069 -0.3012
   57SAPC  C213 4213   3.753   6.733   9.244  0.0658 -0.1839  0.1296
   57SAPC  H13R 4214   3.853   6.772   9.213 -0.9791  1.2191 -1.6252
   57SAPC  H13S 4215   3.708   6.804   9.316  3.0373  0.2015  1.6901
   57SAPC  C214 4216   3.656   6.716   9.133  0.1642  0.7545  0.1202
   57SAPC  H14R 4217   3.557   6.689   9.173  0.3720 -0.0067  0.1304
   57SAPC  C215 4218   3.672   6.725   8.999  0.3674  0.2756 -0.1403
   57SAPC  H15R 4219   3.585   6.718   8.933 -0.4595 -0.5524  1.0119
   57SAPC  C216 4220   3.800   6.766   8.931  0.1276 -0.3039  1.2138
   57SAPC  H16R 4221   3.791   6.741   8.823 -2.7454  4.1425  0.2420
   57SAPC  H16S 4222   3.890   6.706   8.955 -0.2442 -2.0286 -1.5221
   57SAPC  C217 4223   3.825   6.921   8.929  0.2063 -0.1389  0.6615
   57SAPC  H17R 4224   3.917   6.952   8.875 -0.7131  1.2981 -0.1284
   57SAPC  H17S 4225   3.829   6.941   9.038 -1.4424  2.1641  0.3413
   57SAPC  C218 4226   3.711   7.006   8.882 -0.9084 -0.7955 -1.1672
   57SAPC  H18R 4227   3.734   7.109   8.919 -1.7634 -1.2405  0.6524
   57SAPC  H18S 4228   3.616   6.968   8.926  0.9369 -1.5249  2.3887
   57SAPC  C219 4229   3.699   7.003   8.730  0.3658 -0.0092 -0.3608
   57SAPC  H19R 4230   3.606   7.059   8.706  1.7773  1.2984 -2.9928
   57SAPC  H19S 4231   3.686   6.899   8.692  0.2293 -0.8439  1.9004
   57SAPC  C220 4232   3.802   7.073   8.644  0.5584  0.6977 -0.2705
   57SAPC  H20R 4233   3.780   7.182   8.637 -3.0837  0.1078  0.8333
   57SAPC  H20S 4234   3.806   7.035   8.540  1.3565 -0.1513  0.0692
   57SAPC  H20T 4235   3.907   7.059   8.676  0.6493 -0.3699 -0.9986
   57SAPC   C33 4236   3.245   7.401   9.886  0.2829  0.6879 -0.5562
   57SAPC   H3X 4237   3.341   7.458   9.879 -0.5717  2.3115  0.4910
   57SAPC   H3Y 4238   3.174   7.460   9.947 -0.4775 -3.0339  2.3173
   57SAPC   C34 4239   3.180   7.380   9.752  0.4622  0.3617  0.5137
   57SAPC   H4X 4240   3.070   7.387   9.767  0.3957  1.5126 -0.4248
   57SAPC   H4Y 4241   3.210   7.276   9.727  3.9360  1.3574  0.2394
   57SAPC   C35 4242   3.234   7.470   9.634 -0.0771 -0.6408 -0.3848
   57SAPC   H5X 4243   3.329   7.429   9.593  0.7607  0.2360  0.6191
   57SAPC   H5Y 4244   3.258   7.572   9.672 -0.5816 -0.6267 -0.0981
   57SAPC   C36 4245   3.136   7.478   9.527  0.1118  0.1906 -0.1416
   57SAPC   H6X 4246   3.036   7.506   9.567 -0.4152  1.0050 -1.9552
   57SAPC   H6Y 4247   3.130   7.372   9.494 -0.0978  0.2063 -0.1512
   57SAPC   C37 4248   3.176   7.568   9.414  0.1894 -0.1542  0.9011
   57SAPC   H7X 4249   3.110   7.558   9.325  1.5661  1.6986 -0.3742
   57SAPC   H7Y 4250   3.280   7.548   9.379  0.4678 -0.7883  2.0677
   57SAPC   C38 4251   3.168   7.724   9.455  0.0867  0.6878 -0.3411
   57SAPC   H8X 4252   3.262   7.747   9.509 -0.0669 -1.9867  1.1738
   57SAPC   H8Y 4253   3.077   7.739   9.516 -0.6539  0.3113 -1.3293
   57SAPC   C39 4254   3.157   7.813   9.334  0.2681 -0.7874 -0.8736
   57SAPC   H9X 4255   3.164   7.918   9.369  0.1207 -1.1819  0.3613
   57SAPC   H9Y 4256   3.062   7.785   9.282  0.6839 -1.8741 -1.0748
   57SAPC  C310 4257   3.266   7.786   9.231 -0.4091  0.3817  0.5937
   57SAPC  H10X 4258   3.277   7.679   9.202  1.6321  0.3433  1.3841
   57SAPC  H10Y 4259   3.362   7.805   9.285  0.4337 -0.9236 -0.4095
   57SAPC  C311 4260   3.253   7.864   9.096  0.5772  0.4948  0.2471
   57SAPC  H11X 4261   3.237   7.963   9.145 -3.0252 -0.8882  1.9836
   57SAPC  H11Y 4262   3.162   7.817   9.054  1.6051 -0.5573 -0.8256
   57SAPC  C312 4263   3.373   7.850   9.004  0.3510  0.4391 -0.1764
   57SAPC  H12X 4264   3.356   7.909   8.911  1.6635 -1.0597 -1.4043
   57SAPC  H12Y 4265   3.383   7.743   8.976  1.4637  0.6589 -0.6641
   57SAPC  C313 4266   3.510   7.890   9.068  0.8870  0.9298  0.2645
   57SAPC  H13X 4267   3.528   7.820   9.152  0.6544  0.4519 -0.0803
   57SAPC  H13Y 4268   3.500   7.982   9.128 -1.2830  1.2696 -0.5756
   57SAPC  C314 4269   3.642   7.911   8.993 -0.0623 -0.0900  0.2763
   57SAPC  H14X 4270   3.640   7.998   8.923  1.5766 -0.8987 -0.8378
   57SAPC  H14Y 4271   3.661   7.833   8.915 -1.8994 -0.3441  0.0593
   57SAPC  C315 4272   3.763   7.933   9.092  0.3448  0.2720  0.1402
   57SAPC  H15X 4273   3.790   7.842   9.149  0.6153 -0.7194 -1.5393
   57SAPC  H15Y 4274   3.740   8.016   9.162  1.1649  0.0518  0.6760
   57SAPC  C316 4275   3.886   7.973   9.018  0.4131 -0.6818 -0.2263
   57SAPC  H16X 4276   3.961   8.003   9.094  0.5912  1.3195 -1.1629
   57SAPC  H16Y 4277   3.862   8.070   8.969  1.5872 -0.7385 -0.9220
   57SAPC  C317 4278   3.946   7.874   8.916  0.0898 -0.5389 -0.5760
   57SAPC  H17X 4279   3.879   7.873   8.827 -0.8412 -1.6823  0.1350
   57SAPC  H17Y 4280   3.946   7.777   8.970  0.9826 -0.2065  0.0368
   57SAPC  C318 4281   4.087   7.907   8.865  0.4309  0.3210  0.2200
   57SAPC  H18X 4282   4.074   8.012   8.829 -1.2523  0.6259  1.6923
   57SAPC  H18Y 4283   4.123   7.843   8.782  2.6174 -0.6329  1.8692
   57SAPC  H18Z 4284   4.162   7.909   8.946 -0.7669  0.5081  1.3351
   58SAPC     N 4285   5.552   4.703  10.553 -0.4239 -0.4262  0.0799
   58SAPC   C12 4286   5.625   4.575  10.530 -0.2043  0.1918  0.4869
   58SAPC  H12A 4287   5.715   4.590  10.472  0.9339 -0.9072  1.9516
   58SAPC  H12B 4288   5.565   4.513  10.464 -0.1357  1.4473 -0.7726
   58SAPC   C13 4289   5.424   4.680  10.623 -0.0809 -0.4189 -0.0878
   58SAPC  H13A 4290   5.446   4.656  10.726  2.0210 -1.7423 -0.8044
   58SAPC  H13B 4291   5.357   4.764  10.619 -0.0344 -0.3768  0.0170
   58SAPC  H13C 4292   5.362   4.600  10.583  0.5891 -0.2198 -1.5690
   58SAPC   C14 4293   5.639   4.791  10.641 -0.3287  0.2724  0.1376
   58SAPC  H14A 4294   5.671   4.733  10.726 -0.0816 -2.9797 -2.1166
   58SAPC  H14B 4295   5.728   4.819  10.586 -0.4463  0.5092  0.0624
   58SAPC  H14C 4296   5.581   4.878  10.669 -0.4171  0.8896 -1.9053
   58SAPC   C15 4297   5.529   4.782  10.424  0.0240  0.0010 -0.0693
   58SAPC  H15A 4298   5.484   4.878  10.441  1.2169  0.1618  2.3794
   58SAPC  H15B 4299   5.627   4.805  10.385  0.0390 -1.3430 -0.8686
   58SAPC  H15C 4300   5.484   4.713  10.354  1.3942 -0.2018 -0.7652
   58SAPC   C11 4301   5.678   4.492  10.649 -0.3551 -0.4027 -0.0080
   58SAPC  H11A 4302   5.709   4.392  10.613 -0.1756  0.1498 -1.4086
   58SAPC  H11B 4303   5.586   4.477  10.709 -0.8069 -1.2319 -0.8931
   58SAPC     P 4304   5.918   4.585  10.653  0.2109  0.0911 -0.1316
   58SAPC   O13 4305   5.939   4.730  10.641  0.7533  0.2361  0.6134
   58SAPC   O14 4306   6.027   4.509  10.718 -0.1691 -0.2208 -0.4277
   58SAPC   O12 4307   5.780   4.555  10.727  0.0916 -0.4833  0.0197
   58SAPC   O11 4308   5.908   4.527  10.502 -0.2982 -0.0151  0.1471
   58SAPC    C1 4309   5.968   4.582  10.385 -0.1236  0.2386  0.3973
   58SAPC    HA 4310   5.932   4.684  10.363  1.9822  0.7489 -0.9074
   58SAPC    HB 4311   6.077   4.590  10.406  0.0120 -0.0211 -0.1981
   58SAPC    C2 4312   5.964   4.487  10.261  0.7975 -0.6645 -0.2326
   58SAPC    HS 4313   6.043   4.520  10.191  0.7929 -0.2388 -0.0366
   58SAPC   O21 4314   5.836   4.493  10.202 -0.1153  0.3122 -0.9564
   58SAPC   C21 4315   5.804   4.610  10.143 -0.0018 -0.0504  0.2905
   58SAPC   O22 4316   5.885   4.694  10.109  0.0213  0.3450  0.2087
   58SAPC   C22 4317   5.656   4.608  10.095 -0.1552  0.4917 -0.5102
   58SAPC   H2R 4318   5.650   4.525  10.022  1.5408 -1.5996  1.6296
   58SAPC   H2S 4319   5.592   4.591  10.185  0.3551 -1.6579 -0.5255
   58SAPC    C3 4320   5.999   4.342  10.309  0.2541 -0.2794  0.0135
   58SAPC    HX 4321   5.921   4.310  10.382 -1.1717 -0.0776 -1.3947
   58SAPC    HY 4322   6.096   4.328  10.363 -0.7169 -2.1159  1.3475
   58SAPC   O31 4323   5.986   4.240  10.205 -0.3565  0.4253 -0.5750
   58SAPC   C31 4324   6.099   4.212  10.137  0.4617  0.9689 -0.4129
   58SAPC   O32 4325   6.204   4.267  10.156  0.2910  0.0758  0.0661
   58SAPC   C32 4326   6.078   4.096  10.044 -0.1325  0.1685 -0.6506
   58SAPC   H2X 4327   5.979   4.049  10.063  0.6131 -0.8502  0.7897
   58SAPC   H2Y 4328   6.149   4.019  10.080 -0.8814  0.2923  1.1271
   58SAPC   C23 4329   5.599   4.727  10.015  0.4941  0.2401  0.0697
   58SAPC   H3R 4330   5.622   4.826  10.060 -1.2382  1.2167 -1.1119
   58SAPC   H3S 4331   5.489   4.719  10.020  0.6349 -1.8995  0.0504
   58SAPC   C24 4332   5.647   4.740   9.868  0.6250  0.7435  0.1088
   58SAPC   H4R 4333   5.758   4.748   9.877  0.9241  2.3350 -3.8145
   58SAPC   H4S 4334   5.620   4.840   9.827 -2.4435 -0.8559 -1.9417
   58SAPC   C25 4335   5.600   4.632   9.769  0.3336 -0.3044 -0.1587
   58SAPC   H5R 4336   5.612   4.527   9.800 -2.0313 -0.0319  1.8455
   58SAPC   C26 4337   5.555   4.651   9.647  0.5260 -0.4836 -0.2614
   58SAPC   H6R 4338   5.513   4.564   9.595 -0.1825  0.4497 -1.2807
   58SAPC   C27 4339   5.523   4.785   9.586 -0.2848  0.2214 -0.2602
   58SAPC   H7R 4340   5.523   4.866   9.661 -0.2799  0.9053 -0.9981
   58SAPC   H7S 4341   5.419   4.791   9.548  0.0111 -4.6536 -2.2343
   58SAPC   C28 4342   5.620   4.817   9.469  0.6235 -0.6045  0.5006
   58SAPC   H8R 4343   5.720   4.857   9.492  0.1117  2.2153 -1.8968
   58SAPC   C29 4344   5.587   4.803   9.337  0.3723  0.7988  0.2797
   58SAPC   H9R 4345   5.671   4.825   9.270  1.5395 -0.9174  1.1373
   58SAPC  C210 4346   5.462   4.762   9.269  0.0659 -0.5406 -0.1399
   58SAPC  H10R 4347   5.406   4.691   9.333 -1.6468  3.3650  2.8731
   58SAPC  H10S 4348   5.479   4.715   9.170 -3.0000 -3.1030  0.4607
   58SAPC  C211 4349   5.381   4.885   9.245  0.0136 -0.4986 -0.0144
   58SAPC  H11R 4350   5.345   4.939   9.334 -0.8127 -1.4781  0.2576
   58SAPC  C212 4351   5.344   4.935   9.123 -0.0475  1.0249 -0.0259
   58SAPC  H12R 4352   5.320   5.042   9.126 -1.6339  0.6885  0.0381
   58SAPC  C213 4353   5.362   4.871   8.987 -0.7434 -0.9899 -0.1788
   58SAPC  H13R 4354   5.261   4.853   8.944 -0.9567  0.2257 -0.2102
   58SAPC  H13S 4355   5.407   4.769   8.991  0.0396 -0.7012 -1.4664
   58SAPC  C214 4356   5.449   4.956   8.892  0.2285  0.4090 -0.1446
   58SAPC  H14R 4357   5.543   4.906   8.868  0.8988 -0.1505  3.3427
   58SAPC  C215 4358   5.418   5.078   8.836 -0.2660  0.1004 -0.3362
   58SAPC  H15R 4359   5.489   5.133   8.773  2.2518 -1.7515  0.7925
   58SAPC  C216 4360   5.295   5.158   8.872 -0.4758  0.0774 -0.1051
   58SAPC  H16R 4361   5.314   5.237   8.948  0.4587 -0.1727 -0.0762
   58SAPC  H16S 4362   5.220   5.087   8.913  0.6131 -0.7818  0.4073
   58SAPC  C217 4363   5.220   5.214   8.744 -0.4628  0.2043  0.3716
   58SAPC  H17R 4364   5.119   5.242   8.782 -0.7915  0.8426 -0.9576
   58SAPC  H17S 4365   5.220   5.129   8.673 -0.6485 -0.0212  0.6386
   58SAPC  C218 4366   5.311   5.328   8.689  0.2561 -0.3053 -0.6272
   58SAPC  H18R 4367   5.391   5.275   8.631  1.0474  2.0055 -1.6880
   58SAPC  H18S 4368   5.353   5.385   8.774 -2.7280  0.5296  0.3124
   58SAPC  C219 4369   5.246   5.416   8.583  0.0227 -0.2950  0.2390
   58SAPC  H19R 4370   5.274   5.517   8.618  2.5131 -1.0796  0.5924
   58SAPC  H19S 4371   5.136   5.400   8.591  0.0450 -0.0505  1.0234
   58SAPC  C220 4372   5.302   5.400   8.438 -0.5891  0.3528  0.4003
   58SAPC  H20R 4373   5.258   5.312   8.387  0.9475 -0.4065  0.3373
   58SAPC  H20S 4374   5.413   5.393   8.436 -0.6358 -0.2099 -0.3819
   58SAPC  H20T 4375   5.273   5.492   8.382 -1.9548  0.4203  1.1990
   58SAPC   C33 4376   6.103   4.125   9.893 -0.7975  0.3971 -0.1876
   58SAPC   H3X 4377   6.121   4.027   9.843  0.4240  0.4229  0.1778
   58SAPC   H3Y 4378   6.189   4.192   9.872 -0.5685  0.2548  0.2967
   58SAPC   C34 4379   5.994   4.206   9.819  0.3357  0.0708 -0.2406
   58SAPC   H4X 4380   5.895   4.157   9.830  1.3683 -2.1760 -0.5462
   58SAPC   H4Y 4381   6.007   4.202   9.708  1.5497 -1.3744 -0.0643
   58SAPC   C35 4382   5.998   4.356   9.863 -0.3597 -0.2822  0.3883
   58SAPC   H5X 4383   6.099   4.390   9.833 -0.3700 -1.9727 -1.6695
   58SAPC   H5Y 4384   5.992   4.379   9.971 -1.3096  1.7461 -0.0641
   58SAPC   C36 4385   5.897   4.450   9.799 -0.3895 -0.5858 -0.2637
   58SAPC   H6X 4386   5.931   4.555   9.816  2.5162 -1.4285 -0.6731
   58SAPC   H6Y 4387   5.803   4.438   9.857 -0.5107  0.7072 -0.1586
   58SAPC   C37 4388   5.867   4.415   9.649 -0.1411  0.3226 -1.0966
   58SAPC   H7X 4389   5.774   4.468   9.621  0.1248  0.6647 -1.3386
   58SAPC   H7Y 4390   5.838   4.308   9.639 -0.1610  0.3071 -0.8490
   58SAPC   C38 4391   5.974   4.454   9.553 -0.0654 -0.3171  0.5533
   58SAPC   H8X 4392   6.067   4.400   9.581  0.3276 -0.0866 -0.2770
   58SAPC   H8Y 4393   5.996   4.560   9.577  1.2345 -0.9621  2.3652
   58SAPC   C39 4394   5.944   4.412   9.408  0.0259 -0.4908  0.0740
   58SAPC   H9X 4395   5.957   4.303   9.392 -0.4592 -0.3921 -1.0185
   58SAPC   H9Y 4396   6.005   4.470   9.336  1.2566 -1.3653  0.3977
   58SAPC  C310 4397   5.801   4.442   9.354  0.0289 -0.3388 -0.4517
   58SAPC  H10X 4398   5.774   4.547   9.377  1.0139  0.0290 -0.9475
   58SAPC  H10Y 4399   5.727   4.388   9.417 -0.3293 -1.3120 -1.7052
   58SAPC  C311 4400   5.782   4.411   9.205 -0.4500  0.0706  0.1492
   58SAPC  H11X 4401   5.743   4.308   9.190 -0.6342  0.2084 -0.3222
   58SAPC  H11Y 4402   5.881   4.416   9.155 -1.2881  1.4480 -1.4110
   58SAPC  C312 4403   5.682   4.506   9.129  0.2678 -0.1846  0.4256
   58SAPC  H12X 4404   5.711   4.608   9.161 -0.3556 -0.3558  1.5289
   58SAPC  H12Y 4405   5.576   4.487   9.155 -0.3561  0.5434 -1.4941
   58SAPC  C313 4406   5.704   4.486   8.978  0.1288  0.0318  0.3203
   58SAPC  H13X 4407   5.678   4.382   8.949  0.7183  0.3137 -1.2633
   58SAPC  H13Y 4408   5.812   4.498   8.956 -0.1728  0.7530 -0.8007
   58SAPC  C314 4409   5.609   4.564   8.884 -0.1411 -0.2289  0.2293
   58SAPC  H14X 4410   5.631   4.673   8.883  0.0951 -0.2718  1.0767
   58SAPC  H14Y 4411   5.506   4.550   8.923  0.1959  0.3912  1.3704
   58SAPC  C315 4412   5.597   4.531   8.735 -0.2226 -0.2254  0.4123
   58SAPC  H15X 4413   5.560   4.427   8.723  0.7622 -0.5098 -0.2632
   58SAPC  H15Y 4414   5.698   4.530   8.689 -1.2337  0.4032 -1.8785
   58SAPC  C316 4415   5.499   4.626   8.662  0.0567 -0.0191 -0.1537
   58SAPC  H16X 4416   5.533   4.728   8.689 -3.0200  0.8078  0.8779
   58SAPC  H16Y 4417   5.394   4.607   8.695  0.5765 -1.1394  0.8947
   58SAPC  C317 4418   5.501   4.588   8.512 -0.6341  0.0822 -0.5970
   58SAPC  H17X 4419   5.485   4.478   8.507  1.2571 -0.3135  1.3934
   58SAPC  H17Y 4420   5.602   4.598   8.466 -0.3396 -2.2352 -0.5326
   58SAPC  C318 4421   5.403   4.664   8.423  0.3106 -0.6495  0.5631
   58SAPC  H18X 4422   5.400   4.616   8.323 -0.6582 -1.5039  0.9944
   58SAPC  H18Y 4423   5.438   4.769   8.423  1.7280 -1.0947 -1.5507
   58SAPC  H18Z 4424   5.301   4.671   8.466 -0.1419  0.3108 -0.6507
   59SAPC     N 4425   0.719   6.466  11.206  0.0421  0.3337  0.1237
   59SAPC   C12 4426   0.793   6.578  11.142 -0.5708  0.4238  0.0890
   59SAPC  H12A 4427   0.894   6.549  11.117 -0.8372 -0.4036 -0.0296
   59SAPC  H12B 4428   0.797   6.660  11.214  0.6653 -1.1097  1.8250
   59SAPC   C13 4429   0.789   6.405  11.327  0.0882 -0.1065  0.2857
   59SAPC  H13A 4430   0.718   6.338  11.371 -1.1508  1.0834  0.1346
   59SAPC  H13B 4431   0.878   6.347  11.306 -1.0930 -1.2698 -1.6365
   59SAPC  H13C 4432   0.812   6.478  11.403  2.0975 -0.1490 -0.2367
   59SAPC   C14 4433   0.585   6.514  11.255  0.5589  0.2277 -0.3336
   59SAPC  H14A 4434   0.533   6.551  11.168  1.7466 -0.1433 -1.2252
   59SAPC  H14B 4435   0.538   6.432  11.306  1.1636 -0.1552 -0.3881
   59SAPC  H14C 4436   0.594   6.599  11.322  1.8593 -0.5870  0.5643
   59SAPC   C15 4437   0.685   6.356  11.110 -0.2949 -0.6239  0.1598
   59SAPC  H15A 4438   0.625   6.397  11.030 -0.2650  0.4253  0.6583
   59SAPC  H15B 4439   0.774   6.311  11.069  0.8257  2.5670 -1.0874
   59SAPC  H15C 4440   0.630   6.278  11.161  2.0519 -1.9446  0.7484
   59SAPC   C11 4441   0.739   6.644  11.009  1.0972 -0.9940  0.1538
   59SAPC  H11A 4442   0.758   6.571  10.927 -2.4101 -0.7881 -0.8975
   59SAPC  H11B 4443   0.811   6.721  10.974 -0.6610  1.3002  1.5356
   59SAPC     P 4444   0.566   6.827  11.077  0.3063 -0.0558  0.5073
   59SAPC   O13 4445   0.413   6.844  11.080  0.3482 -0.1151  0.0264
   59SAPC   O14 4446   0.647   6.830  11.207 -0.2119 -0.2281 -0.7044
   59SAPC   O12 4447   0.602   6.686  11.010 -0.0730 -0.1200 -0.6717
   59SAPC   O11 4448   0.627   6.933  10.972 -0.2380 -0.3922  0.1487
   59SAPC    C1 4449   0.541   6.983  10.869 -0.4724  0.5957 -0.3418
   59SAPC    HA 4450   0.440   7.010  10.906 -0.7301  0.1372 -0.7014
   59SAPC    HB 4451   0.587   7.066  10.811  1.0932 -0.8510 -1.2101
   59SAPC    C2 4452   0.513   6.878  10.759  0.2536 -0.3427 -0.8916
   59SAPC    HS 4453   0.456   6.791  10.798  1.8925 -1.3893 -0.7927
   59SAPC   O21 4454   0.640   6.828  10.713 -0.4053  0.0737  0.0385
   59SAPC   C21 4455   0.639   6.718  10.647 -0.7172 -0.1052 -0.2724
   59SAPC   O22 4456   0.544   6.648  10.621 -0.1974  0.3338  0.3148
   59SAPC   C22 4457   0.781   6.701  10.589  0.5911  0.0116 -0.2938
   59SAPC   H2R 4458   0.789   6.784  10.515 -0.1055  1.5646  1.3211
   59SAPC   H2S 4459   0.851   6.707  10.676 -0.8677 -0.6029  0.9301
   59SAPC    C3 4460   0.434   6.939  10.645 -0.0704 -0.0129 -0.0858
   59SAPC    HX 4461   0.469   7.044  10.635  3.5824 -1.2307 -0.8483
   59SAPC    HY 4462   0.324   6.943  10.664 -0.2659 -0.0370 -1.1814
   59SAPC   O31 4463   0.468   6.890  10.522  0.3836 -0.3670  0.1910
   59SAPC   C31 4464   0.376   6.842  10.437  0.2929 -0.6400  0.5589
   59SAPC   O32 4465   0.254   6.819  10.461 -0.0452 -0.1361  0.1808
   59SAPC   C32 4466   0.446   6.789  10.315 -0.6748 -0.8439  0.7521
   59SAPC   H2X 4467   0.441   6.679  10.319  0.8554 -0.9433  0.2954
   59SAPC   H2Y 4468   0.554   6.815  10.309 -1.0536  0.7555  0.3539
   59SAPC   C23 4469   0.794   6.572  10.513 -0.1503 -0.1512  0.0982
   59SAPC   H3R 4470   0.705   6.555  10.448  0.6314 -0.8346 -0.8075
   59SAPC   H3S 4471   0.793   6.482  10.578  1.8270  1.2763  2.1537
   59SAPC   C24 4472   0.915   6.575  10.414 -0.4311  0.2088  0.0215
   59SAPC   H4R 4473   0.899   6.664  10.349 -0.1288 -1.1371 -1.9661
   59SAPC   H4S 4474   0.915   6.483  10.351  1.6140 -0.2069  0.5728
   59SAPC   C25 4475   1.035   6.587  10.515  0.4394 -0.1241 -0.0716
   59SAPC   H5R 4476   1.020   6.525  10.605 -2.4278  0.9472  0.2411
   59SAPC   C26 4477   1.139   6.672  10.497 -0.2472 -0.2342  0.6760
   59SAPC   H6R 4478   1.219   6.682  10.572 -0.8430 -0.4408  1.3480
   59SAPC   C27 4479   1.163   6.754  10.376 -0.8388 -0.3286  0.0064
   59SAPC   H7R 4480   1.214   6.850  10.401  1.0704 -0.4711 -3.1186
   59SAPC   H7S 4481   1.070   6.793  10.329 -1.5283 -0.6630  1.0809
   59SAPC   C28 4482   1.250   6.689  10.271 -0.2767 -0.2981  0.0639
   59SAPC   H8R 4483   1.345   6.651  10.312 -0.3412 -0.9010 -0.3331
   59SAPC   C29 4484   1.210   6.647  10.149  0.4668 -0.1219 -0.9181
   59SAPC   H9R 4485   1.282   6.595  10.084  2.5400 -0.6431  1.6826
   59SAPC  C210 4486   1.074   6.674  10.096  0.2087  0.1820 -0.0287
   59SAPC  H10R 4487   1.088   6.764  10.033 -1.1672  0.5429  0.1628
   59SAPC  H10S 4488   1.000   6.716  10.168  0.1683  0.8479 -0.4524
   59SAPC  C211 4489   1.017   6.569  10.008  0.7418 -0.1004  0.2135
   59SAPC  H11R 4490   0.951   6.505  10.069  2.1158 -2.8410 -1.0838
   59SAPC  C212 4491   1.026   6.555   9.878  0.5668  0.1222  0.5029
   59SAPC  H12R 4492   0.974   6.468   9.834 -0.0035 -0.1253  1.6639
   59SAPC  C213 4493   1.104   6.639   9.788 -0.7383  0.6561 -0.1851
   59SAPC  H13R 4494   1.166   6.712   9.844 -1.4208  0.1922  1.1776
   59SAPC  H13S 4495   1.026   6.694   9.730 -2.1529 -1.0877  0.0369
   59SAPC  C214 4496   1.193   6.557   9.702 -0.1931  0.2308  0.1091
   59SAPC  H14R 4497   1.273   6.501   9.753 -3.0584 -2.9857  1.2193
   59SAPC  C215 4498   1.168   6.535   9.567 -0.2417 -0.3919 -0.2019
   59SAPC  H15R 4499   1.238   6.463   9.522  0.1727 -1.1918  1.6848
   59SAPC  C216 4500   1.062   6.609   9.484 -1.4453 -0.1799  0.6054
   59SAPC  H16R 4501   1.059   6.719   9.499  1.4025  0.0783 -0.4071
   59SAPC  H16S 4502   0.960   6.585   9.521 -1.6465  0.7698  0.6907
   59SAPC  C217 4503   1.069   6.569   9.333  0.1091  0.1006 -0.4949
   59SAPC  H17R 4504   1.175   6.592   9.308  1.0166 -0.7063  2.4073
   59SAPC  H17S 4505   1.004   6.640   9.277  0.6807 -0.3489 -1.7467
   59SAPC  C218 4506   1.047   6.418   9.304 -0.4498  0.3206  0.0462
   59SAPC  H18R 4507   0.948   6.382   9.339 -0.1003  0.9291  1.6987
   59SAPC  H18S 4508   1.120   6.358   9.362  0.9517  0.9287 -1.0493
   59SAPC  C219 4509   1.070   6.395   9.149 -0.0556 -0.5344  0.7243
   59SAPC  H19R 4510   1.069   6.284   9.157 -1.1923 -0.5235  0.8179
   59SAPC  H19S 4511   1.169   6.436   9.121  0.0568 -0.7574  0.7935
   59SAPC  C220 4512   0.950   6.430   9.054 -0.1738  0.2974 -0.3061
   59SAPC  H20R 4513   0.979   6.391   8.954 -2.1319 -2.6711  0.2160
   59SAPC  H20S 4514   0.947   6.540   9.044  1.2700  0.6785  2.7788
   59SAPC  H20T 4515   0.857   6.389   9.098  0.6452 -1.8939 -0.5378
   59SAPC   C33 4516   0.375   6.826  10.178  0.3887  0.1177 -0.7072
   59SAPC   H3X 4517   0.426   6.922  10.155  1.6931 -0.3119  0.3260
   59SAPC   H3Y 4518   0.267   6.845  10.196  0.5253  1.4919 -1.3237
   59SAPC   C34 4519   0.394   6.734  10.061  0.2883 -0.6348  0.1473
   59SAPC   H4X 4520   0.362   6.631  10.088  1.5672 -1.1486 -0.2783
   59SAPC   H4Y 4521   0.503   6.721  10.046  0.4197 -2.7929  2.4843
   59SAPC   C35 4522   0.339   6.794   9.925 -0.0338  0.1623 -0.3970
   59SAPC   H5X 4523   0.386   6.889   9.892 -2.1770  0.7581 -1.8170
   59SAPC   H5Y 4524   0.228   6.807   9.930  0.2810  2.3500  2.5376
   59SAPC   C36 4525   0.353   6.697   9.799  0.5051 -1.1797 -0.7044
   59SAPC   H6X 4526   0.306   6.598   9.819  2.7376 -2.1371 -0.1366
   59SAPC   H6Y 4527   0.462   6.684   9.782  0.7846 -1.3867  1.1619
   59SAPC   C37 4528   0.295   6.764   9.676 -0.3174 -0.4089  0.4698
   59SAPC   H7X 4529   0.351   6.860   9.665 -1.4177  0.3995  1.7301
   59SAPC   H7Y 4530   0.188   6.784   9.701 -0.7714  0.3327 -1.9343
   59SAPC   C38 4531   0.288   6.690   9.539 -0.0517 -0.1155 -0.2243
   59SAPC   H8X 4532   0.228   6.597   9.546  0.0131 -0.3055 -2.0574
   59SAPC   H8Y 4533   0.394   6.669   9.513 -0.2092 -1.0342 -0.1167
   59SAPC   C39 4534   0.215   6.779   9.432 -0.0435  0.0663  0.4101
   59SAPC   H9X 4535   0.258   6.882   9.429  1.6211 -0.6129 -0.3110
   59SAPC   H9Y 4536   0.107   6.782   9.457 -0.2511 -0.4130 -0.3978
   59SAPC  C310 4537   0.230   6.722   9.292  0.3298  0.1094 -0.2190
   59SAPC  H10X 4538   0.335   6.689   9.282 -0.0760 -1.6884  1.3175
   59SAPC  H10Y 4539   0.220   6.797   9.210 -1.7134  0.2581  0.1269
   59SAPC  C311 4540   0.150   6.594   9.256  0.5599  0.3680  0.1543
   59SAPC  H11X 4541   0.042   6.618   9.248  0.2210 -1.8988 -2.6434
   59SAPC  H11Y 4542   0.156   6.520   9.339  0.0469  1.5814  1.2887
   59SAPC  C312 4543   0.202   6.519   9.130  0.2276  0.4275  0.5457
   59SAPC  H12X 4544   0.292   6.459   9.157  0.9008  0.5030 -1.4127
   59SAPC  H12Y 4545   0.229   6.597   9.056 -0.1948 -0.8518 -0.9961
   59SAPC  C313 4546   0.096   6.420   9.068 -0.1065 -0.4327 -0.1267
   59SAPC  H13X 4547   0.054   6.355   9.147 -0.6569 -1.8756 -1.5824
   59SAPC  H13Y 4548   0.145   6.358   8.990 -0.7964  0.5257 -1.3573
   59SAPC  C314 4549  -0.010   6.501   8.986 -0.1641 -0.1172 -0.0460
   59SAPC  H14X 4550   0.037   6.581   8.925 -2.7830  1.5485  0.0567
   59SAPC  H14Y 4551  -0.077   6.541   9.065 -0.4950 -0.0408 -0.3652
   59SAPC  C315 4552  -0.099   6.416   8.893  0.5143  0.1345 -0.3824
   59SAPC  H15X 4553  -0.191   6.477   8.883  1.2774  1.4936  0.5802
   59SAPC  H15Y 4554  -0.132   6.325   8.946 -3.1726  1.6697  0.0858
   59SAPC  C316 4555  -0.028   6.377   8.757  0.5692 -0.1050 -0.5646
   59SAPC  H16X 4556   0.062   6.316   8.778  0.7791  0.8687  1.4484
   59SAPC  H16Y 4557   0.015   6.468   8.710 -0.8881  1.4525  1.0262
   59SAPC  C317 4558  -0.121   6.313   8.647 -0.6098 -0.4692  0.6703
   59SAPC  H17X 4559  -0.207   6.383   8.642  0.3911  0.6684 -1.2721
   59SAPC  H17Y 4560  -0.169   6.219   8.682 -0.8739 -0.0854  1.3358
   59SAPC  C318 4561  -0.062   6.304   8.502  0.3972  0.3860  0.5882
   59SAPC  H18X 4562   0.026   6.239   8.492  0.6193  1.1155 -2.4891
   59SAPC  H18Y 4563  -0.038   6.409   8.473 -0.9055  0.6871  0.5602
   59SAPC  H18Z 4564  -0.146   6.262   8.442  1.1260  0.8363 -0.7608
   60SAPC     N 4565   1.749   4.464  10.963  0.2680  0.4328 -0.2009
   60SAPC   C12 4566   1.850   4.409  10.859  0.0883 -0.1382  0.2599
   60SAPC  H12A 4567   1.804   4.329  10.802 -0.8436  0.6392 -0.0985
   60SAPC  H12B 4568   1.935   4.368  10.912  0.1362  1.0775  1.1513
   60SAPC   C13 4569   1.806   4.575  11.045 -0.0039  0.4581 -0.2464
   60SAPC  H13A 4570   1.736   4.643  11.091  2.7443  1.5886  2.4115
   60SAPC  H13B 4571   1.861   4.532  11.127  0.4549  1.1444 -0.1864
   60SAPC  H13C 4572   1.885   4.621  10.987 -0.6316  0.8517 -0.7902
   60SAPC   C14 4573   1.623   4.502  10.898 -0.0294  0.0340  0.7311
   60SAPC  H14A 4574   1.558   4.541  10.974 -0.1490  2.8543 -0.7537
   60SAPC  H14B 4575   1.645   4.582  10.829  1.7556 -0.4028  0.7454
   60SAPC  H14C 4576   1.574   4.412  10.863 -0.8131  1.3203 -1.5479
   60SAPC   C15 4577   1.726   4.348  11.057  0.2545 -0.0209 -0.0159
   60SAPC  H15A 4578   1.722   4.256  11.001  0.7969 -0.4592  0.6405
   60SAPC  H15B 4579   1.815   4.327  11.115  1.5523  1.1689 -1.5213
   60SAPC  H15C 4580   1.635   4.353  11.114  0.0983  0.0454 -0.2738
   60SAPC   C11 4581   1.902   4.504  10.761  0.1388 -0.9033 -0.4351
   60SAPC  H11A 4582   1.823   4.552  10.699  0.0816 -0.6060 -0.1333
   60SAPC  H11B 4583   1.972   4.437  10.707  1.9338 -1.2915  2.2614
   60SAPC     P 4584   2.090   4.673  10.766  0.0117  0.5918 -0.1898
   60SAPC   O13 4585   2.092   4.790  10.861 -0.5418  0.0753  0.1300
   60SAPC   O14 4586   2.209   4.592  10.752  0.4877 -0.1517  0.2192
   60SAPC   O12 4587   1.980   4.595  10.828 -0.3133 -0.1502 -0.1893
   60SAPC   O11 4588   2.037   4.712  10.622 -0.2626  0.0986 -0.1252
   60SAPC    C1 4589   1.959   4.829  10.602 -0.9218 -0.8595  0.3385
   60SAPC    HA 4590   1.865   4.828  10.660 -2.1848 -0.2896 -1.6610
   60SAPC    HB 4591   2.016   4.919  10.632 -0.9273 -1.1562  1.2666
   60SAPC    C2 4592   1.925   4.859  10.454  0.6039 -0.2592  0.7587
   60SAPC    HS 4593   1.853   4.941  10.437  1.2267  0.8287  3.1012
   60SAPC   O21 4594   1.878   4.734  10.395 -0.0333 -0.0637  0.3355
   60SAPC   C21 4595   1.755   4.694  10.430 -0.4074 -0.2607  0.3451
   60SAPC   O22 4596   1.687   4.747  10.512 -0.8329 -0.1931 -0.3682
   60SAPC   C22 4597   1.712   4.570  10.358 -0.1358 -0.3357  0.2470
   60SAPC   H2R 4598   1.774   4.481  10.383  0.9268  0.2789 -0.1367
   60SAPC   H2S 4599   1.604   4.560  10.381 -0.3733 -0.0829 -0.7105
   60SAPC    C3 4600   2.056   4.909  10.380  0.3860 -0.4450  0.1614
   60SAPC    HX 4601   2.130   4.827  10.383 -0.4726 -1.3140 -1.9072
   60SAPC    HY 4602   2.099   4.989  10.444 -0.2326  0.1658 -0.1811
   60SAPC   O31 4603   2.036   4.958  10.246  0.0786 -0.3209  0.1640
   60SAPC   C31 4604   2.038   4.868  10.145 -0.7873 -0.3120 -0.0361
   60SAPC   O32 4605   2.079   4.754  10.161 -0.2224  0.1309  0.8587
   60SAPC   C32 4606   1.984   4.922  10.008  0.0957  0.6273  0.3988
   60SAPC   H2X 4607   2.046   5.006   9.971  0.9225  0.9360  2.4109
   60SAPC   H2Y 4608   1.885   4.970  10.023 -1.5094 -2.3701 -0.1854
   60SAPC   C23 4609   1.720   4.598  10.201 -0.2923 -0.1738  0.1268
   60SAPC   H3R 4610   1.824   4.588  10.163 -0.5385 -0.2466 -0.5390
   60SAPC   H3S 4611   1.686   4.700  10.173 -0.5960 -0.7011 -1.5114
   60SAPC   C24 4612   1.652   4.497  10.112 -0.0993 -0.1660  0.5540
   60SAPC   H4R 4613   1.651   4.525  10.005 -0.1620  1.6616  1.0020
   60SAPC   H4S 4614   1.542   4.497  10.130 -0.3539 -0.7529 -1.0006
   60SAPC   C25 4615   1.719   4.366  10.127 -0.1132  0.3881 -0.3136
   60SAPC   H5R 4616   1.715   4.323  10.228 -0.6930 -1.1303 -0.9654
   60SAPC   C26 4617   1.786   4.299  10.034 -0.2594  0.0456  0.3830
   60SAPC   H6R 4618   1.830   4.200  10.054  0.0516  0.2909  0.9074
   60SAPC   C27 4619   1.824   4.347   9.893  0.2232 -0.4256 -0.6586
   60SAPC   H7R 4620   1.932   4.372   9.900  0.2143 -1.2234  3.5747
   60SAPC   H7S 4621   1.768   4.437   9.859 -0.3270 -1.3523 -2.2597
   60SAPC   C28 4622   1.798   4.239   9.791  0.1667  0.6233  0.8467
   60SAPC   H8R 4623   1.837   4.143   9.828  1.3658  0.5798 -0.4761
   60SAPC   C29 4624   1.738   4.246   9.669 -0.4318 -0.1547 -0.0481
   60SAPC   H9R 4625   1.724   4.153   9.612 -1.2676  1.9048 -3.3454
   60SAPC  C210 4626   1.678   4.372   9.616  0.3503  0.2115 -0.6563
   60SAPC  H10R 4627   1.695   4.385   9.507 -0.5697  1.1061 -0.7042
   60SAPC  H10S 4628   1.708   4.463   9.673 -0.5754  0.0345  0.1323
   60SAPC  C211 4629   1.531   4.379   9.643 -0.7612  0.3003 -0.5267
   60SAPC  H11R 4630   1.495   4.414   9.741 -1.7868  0.7553 -1.0570
   60SAPC  C212 4631   1.430   4.356   9.552 -0.7278 -0.2443 -0.2255
   60SAPC  H12R 4632   1.324   4.360   9.581 -1.5214  1.2855 -3.0822
   60SAPC  C213 4633   1.435   4.318   9.406  0.1220 -0.1698  0.0671
   60SAPC  H13R 4634   1.335   4.275   9.384  1.7459 -3.3490 -1.5044
   60SAPC  H13S 4635   1.501   4.229   9.395  0.0212 -0.1131 -1.0683
   60SAPC  C214 4636   1.473   4.440   9.316  0.3102 -0.1263 -0.7669
   60SAPC  H14R 4637   1.554   4.500   9.361 -1.5630  0.0687  2.5418
   60SAPC  C215 4638   1.402   4.487   9.214  0.3983  0.5935  0.0497
   60SAPC  H15R 4639   1.453   4.559   9.148  0.7799 -2.2950 -2.9167
   60SAPC  C216 4640   1.272   4.438   9.156  0.3370  0.2174  0.7293
   60SAPC  H16R 4641   1.220   4.515   9.095 -0.5986 -0.0705  1.1520
   60SAPC  H16S 4642   1.195   4.416   9.233  0.9324  1.4640  1.7099
   60SAPC  C217 4643   1.288   4.301   9.074  0.1820  0.6876 -0.0249
   60SAPC  H17R 4644   1.189   4.257   9.050  0.0496  0.4826  0.8911
   60SAPC  H17S 4645   1.336   4.224   9.138 -1.7511 -1.6027 -1.2472
   60SAPC  C218 4646   1.373   4.326   8.944  0.8846 -0.3780  0.1409
   60SAPC  H18R 4647   1.479   4.329   8.978  0.8619  0.3981  0.1550
   60SAPC  H18S 4648   1.347   4.421   8.893 -0.3996  0.1737  1.7463
   60SAPC  C219 4649   1.369   4.221   8.837  0.3119 -0.2290  0.8966
   60SAPC  H19R 4650   1.396   4.120   8.875 -1.5524 -0.9380  0.3746
   60SAPC  H19S 4651   1.442   4.245   8.756  1.3506 -0.9630  1.5985
   60SAPC  C220 4652   1.233   4.210   8.762  0.1856  0.4080 -0.2111
   60SAPC  H20R 4653   1.148   4.175   8.824 -0.6059 -0.5520 -1.8008
   60SAPC  H20S 4654   1.241   4.150   8.669  0.1854  0.0200  0.0337
   60SAPC  H20T 4655   1.190   4.301   8.715 -1.8785 -0.7125 -0.5264
   60SAPC   C33 4656   1.980   4.828   9.882  0.0554 -0.9753 -0.2130
   60SAPC   H3X 4657   1.953   4.727   9.921  0.7253 -1.5939 -1.3343
   60SAPC   H3Y 4658   2.080   4.835   9.835 -0.5398  1.1139 -1.2085
   60SAPC   C34 4659   1.884   4.878   9.776  0.1741 -0.4838  0.0516
   60SAPC   H4X 4660   1.921   4.977   9.740 -1.3345  0.1315  0.1707
   60SAPC   H4Y 4661   1.778   4.882   9.810 -0.2230 -0.3183 -1.1685
   60SAPC   C35 4662   1.874   4.771   9.663 -0.2452  0.5409  0.0905
   60SAPC   H5X 4663   1.829   4.676   9.699 -0.0140  1.3654  2.6899
   60SAPC   H5Y 4664   1.972   4.746   9.617 -1.6974 -1.2963 -2.0695
   60SAPC   C36 4665   1.793   4.822   9.543  0.8566 -0.0024  0.3479
   60SAPC   H6X 4666   1.840   4.909   9.493 -2.2025  0.9478 -1.0027
   60SAPC   H6Y 4667   1.687   4.853   9.553  0.4991 -0.4158 -1.8482
   60SAPC   C37 4668   1.800   4.709   9.438  0.6236  1.1592 -0.1631
   60SAPC   H7X 4669   1.733   4.624   9.465  1.9989 -0.1872 -0.9110
   60SAPC   H7Y 4670   1.905   4.674   9.442  1.2013  2.5563 -2.5814
   60SAPC   C38 4671   1.767   4.744   9.296 -0.2271 -0.2101  0.0755
   60SAPC   H8X 4672   1.829   4.829   9.261  0.6750 -0.6422  0.6324
   60SAPC   H8Y 4673   1.659   4.769   9.308 -0.7345 -1.5121 -1.4915
   60SAPC   C39 4674   1.791   4.632   9.193  0.1968  0.0419  0.2979
   60SAPC   H9X 4675   1.749   4.538   9.234 -1.5415  0.3607 -0.6939
   60SAPC   H9Y 4676   1.901   4.620   9.194  0.1378 -0.4539  0.8652
   60SAPC  C310 4677   1.730   4.653   9.055 -0.1775 -0.2514 -0.2347
   60SAPC  H10X 4678   1.767   4.741   8.997  0.5372  0.1258  0.7768
   60SAPC  H10Y 4679   1.620   4.669   9.063  0.0180  1.7062 -0.9373
   60SAPC  C311 4680   1.753   4.525   8.971  0.3640 -0.2718  0.5097
   60SAPC  H11X 4681   1.691   4.441   9.009 -2.3943  1.2040 -0.6079
   60SAPC  H11Y 4682   1.858   4.488   8.978  0.7843  0.7698 -0.0253
   60SAPC  C312 4683   1.734   4.556   8.820 -0.2606  0.4992 -0.7435
   60SAPC  H12X 4684   1.777   4.656   8.802 -1.3804  1.3853  1.3643
   60SAPC  H12Y 4685   1.629   4.564   8.785 -0.4993  0.8123  0.0434
   60SAPC  C313 4686   1.788   4.437   8.723  0.2116  0.0229 -0.4471
   60SAPC  H13X 4687   1.733   4.344   8.750 -0.7977  1.0910  1.2468
   60SAPC  H13Y 4688   1.897   4.425   8.739  0.5069  1.7432 -1.0744
   60SAPC  C314 4689   1.760   4.463   8.574 -0.4696  0.2011 -0.1345
   60SAPC  H14X 4690   1.827   4.543   8.536 -0.0439  1.5886  3.2840
   60SAPC  H14Y 4691   1.656   4.494   8.550 -0.5638  0.1758  0.2286
   60SAPC  C315 4692   1.807   4.347   8.481  0.7732 -0.2518 -0.2994
   60SAPC  H15X 4693   1.794   4.389   8.379  0.7263 -0.8507 -0.5417
   60SAPC  H15Y 4694   1.734   4.264   8.493  1.8778 -1.1384  0.4552
   60SAPC  C316 4695   1.950   4.293   8.502 -0.3178  0.5574  0.0075
   60SAPC  H16X 4696   1.950   4.237   8.598  1.0366  0.6291  0.0510
   60SAPC  H16Y 4697   2.028   4.372   8.509 -1.6533  1.8494  0.5203
   60SAPC  C317 4698   1.987   4.193   8.389  0.2402  0.5384  0.5907
   60SAPC  H17X 4699   1.978   4.247   8.292  1.3299 -0.3536 -0.0240
   60SAPC  H17Y 4700   1.916   4.108   8.381 -0.5795  1.5374 -4.1734
   60SAPC  C318 4701   2.130   4.138   8.393  0.2258  0.6865 -0.1600
   60SAPC  H18X 4702   2.197   4.227   8.393 -0.3102  1.0938 -0.6696
   60SAPC  H18Y 4703   2.149   4.073   8.305  0.7484  1.4140 -0.5824
   60SAPC  H18Z 4704   2.155   4.068   8.475  1.0185  3.0150  1.6224
   61SAPC     N 4705   2.836   3.826  10.976 -0.5039  0.0204 -0.0252
   61SAPC   C12 4706   2.836   3.686  10.905 -0.8887 -0.0791  0.1601
   61SAPC  H12A 4707   2.741   3.674  10.855 -1.0846  0.8292  0.2996
   61SAPC  H12B 4708   2.846   3.617  10.988 -2.9783 -0.4542  0.1255
   61SAPC   C13 4709   2.948   3.845  11.060 -0.5161  0.3788  0.9276
   61SAPC  H13A 4710   2.973   3.949  11.071 -1.2396  0.6795 -0.2785
   61SAPC  H13B 4711   2.952   3.799  11.158  0.9146  1.1062  1.2308
   61SAPC  H13C 4712   3.037   3.800  11.019  0.4716  2.0869  1.1833
   61SAPC   C14 4713   2.833   3.929  10.868 -0.3091  0.0588  0.0481
   61SAPC  H14A 4714   2.920   3.912  10.807  1.0494  1.6331  1.5097
   61SAPC  H14B 4715   2.742   3.938  10.810  0.5624  1.3914 -1.1488
   61SAPC  H14C 4716   2.845   4.030  10.904  0.7020  0.1558 -0.5478
   61SAPC   C15 4717   2.701   3.838  11.054 -0.2931  0.7133 -0.3225
   61SAPC  H15A 4718   2.624   3.831  10.979 -1.1748 -2.0022  0.7885
   61SAPC  H15B 4719   2.681   3.764  11.131 -0.0695  1.1921  0.2022
   61SAPC  H15C 4720   2.702   3.939  11.094  0.9357  0.7188 -0.3734
   61SAPC   C11 4721   2.962   3.657  10.812 -0.3411  0.1045  0.1575
   61SAPC  H11A 4722   2.960   3.728  10.727 -2.7780 -0.3962 -0.2403
   61SAPC  H11B 4723   2.949   3.556  10.767  0.7020  0.4719 -0.9814
   61SAPC     P 4724   3.159   3.540  10.923 -0.2665  0.1527  0.2994
   61SAPC   O13 4725   3.298   3.570  10.976  0.1700  0.1167 -0.2558
   61SAPC   O14 4726   3.072   3.449  11.013 -0.1046 -0.3810 -0.7177
   61SAPC   O12 4727   3.087   3.671  10.882 -0.0361 -0.1959  0.4901
   61SAPC   O11 4728   3.184   3.467  10.792  0.2238  0.2555 -0.0890
   61SAPC    C1 4729   3.270   3.517  10.687  0.4946  0.2108  0.6146
   61SAPC    HA 4730   3.350   3.583  10.726  1.2467 -0.1393 -0.3063
   61SAPC    HB 4731   3.324   3.430  10.642  0.6301  0.6615 -0.1056
   61SAPC    C2 4732   3.202   3.591  10.575  0.2131  0.9717  1.1591
   61SAPC    HS 4733   3.158   3.687  10.611 -3.0712 -0.0307 -0.0532
   61SAPC   O21 4734   3.097   3.512  10.518 -0.0659  0.4145 -0.1011
   61SAPC   C21 4735   2.988   3.569  10.478  0.0289 -0.6376  0.5476
   61SAPC   O22 4736   2.961   3.690  10.472 -0.3368 -0.5038 -0.0940
   61SAPC   C22 4737   2.897   3.459  10.427 -0.3640  0.1509  0.4779
   61SAPC   H2R 4738   2.951   3.371  10.386 -0.1684  0.7838 -0.6292
   61SAPC   H2S 4739   2.829   3.428  10.510 -4.1255  0.3756 -2.3911
   61SAPC    C3 4740   3.298   3.631  10.454  0.4379 -0.9039 -0.2531
   61SAPC    HX 4741   3.334   3.534  10.412 -0.4362 -1.3226 -0.0523
   61SAPC    HY 4742   3.386   3.670  10.508  0.6050 -4.0974  1.9464
   61SAPC   O31 4743   3.239   3.713  10.353 -0.1417  0.4421 -0.0419
   61SAPC   C31 4744   3.248   3.846  10.362 -0.3869  0.4130 -0.4439
   61SAPC   O32 4745   3.302   3.906  10.453 -0.0202  0.1656 -0.0160
   61SAPC   C32 4746   3.187   3.907  10.238  0.5343 -0.3944  0.3301
   61SAPC   H2X 4747   3.193   4.017  10.250  0.3526 -0.4947  1.3555
   61SAPC   H2Y 4748   3.079   3.882  10.248  0.2067  1.6902  2.5505
   61SAPC   C23 4749   2.808   3.518  10.309 -0.7577 -0.3325  0.5117
   61SAPC   H3R 4750   2.881   3.568  10.242 -0.6273  1.0583  1.6719
   61SAPC   H3S 4751   2.732   3.594  10.335 -3.1382 -1.6145 -2.4603
   61SAPC   C24 4752   2.734   3.408  10.223  0.1366 -0.2901 -0.3465
   61SAPC   H4R 4753   2.664   3.452  10.149 -2.2923  0.0317  2.0476
   61SAPC   H4S 4754   2.666   3.347  10.286 -1.2050  2.3831  0.8968
   61SAPC   C25 4755   2.825   3.314  10.149  0.5310 -0.1940  0.6994
   61SAPC   H5R 4756   2.903   3.271  10.214 -1.3072  1.5772  4.1895
   61SAPC   C26 4757   2.847   3.322  10.017  0.4437  0.4227  0.1051
   61SAPC   H6R 4758   2.915   3.250   9.970  1.0972  0.0874  1.5418
   61SAPC   C27 4759   2.778   3.405   9.922  0.0221  0.3710 -0.2306
   61SAPC   H7R 4760   2.739   3.500   9.966 -0.3964 -0.0643  0.3502
   61SAPC   H7S 4761   2.685   3.346   9.908  1.1504 -1.3574 -0.5354
   61SAPC   C28 4762   2.863   3.433   9.800  0.5666  0.3492 -0.5822
   61SAPC   H8R 4763   2.922   3.526   9.802  1.2954 -0.0864 -1.2365
   61SAPC   C29 4764   2.863   3.367   9.683 -0.0802 -0.5089 -0.0926
   61SAPC   H9R 4765   2.932   3.403   9.605 -1.6759  0.3860 -1.0967
   61SAPC  C210 4766   2.780   3.246   9.645 -0.0836  0.0743 -0.0685
   61SAPC  H10R 4767   2.785   3.175   9.730 -0.7366  0.8710  0.6335
   61SAPC  H10S 4768   2.820   3.193   9.556 -0.2556  1.3678 -0.9288
   61SAPC  C211 4769   2.636   3.280   9.601 -0.3421  0.3238  0.2271
   61SAPC  H11R 4770   2.551   3.272   9.670 -0.5115 -0.5251 -0.0754
   61SAPC  C212 4771   2.601   3.322   9.476 -0.0382 -0.2120 -0.2851
   61SAPC  H12R 4772   2.496   3.350   9.462  0.0532  0.4210  0.2543
   61SAPC  C213 4773   2.679   3.364   9.350  0.4725  0.3481  0.0346
   61SAPC  H13R 4774   2.774   3.307   9.345  0.0337 -0.1868 -3.7651
   61SAPC  H13S 4775   2.721   3.467   9.359 -0.1580  0.8706 -2.4551
   61SAPC  C214 4776   2.593   3.359   9.228  0.3296  0.2090 -0.5043
   61SAPC  H14R 4777   2.484   3.353   9.245  0.5304 -1.1141  0.4405
   61SAPC  C215 4778   2.633   3.353   9.103  0.0334  1.3460 -0.1903
   61SAPC  H15R 4779   2.557   3.351   9.024  0.0884 -3.1709 -0.2833
   61SAPC  C216 4780   2.776   3.353   9.059  0.1305 -0.0791  0.0815
   61SAPC  H16R 4781   2.841   3.281   9.113  0.7723  1.9292  2.0581
   61SAPC  H16S 4782   2.827   3.446   9.093  1.2272 -0.8234  0.5140
   61SAPC  C217 4783   2.788   3.337   8.905  0.0501  0.8492 -0.1416
   61SAPC  H17R 4784   2.740   3.241   8.876  1.0466 -0.0092  1.0388
   61SAPC  H17S 4785   2.893   3.328   8.869 -0.0540  0.6001 -0.3760
   61SAPC  C218 4786   2.718   3.445   8.819 -0.3924 -0.3394 -0.0842
   61SAPC  H18R 4787   2.753   3.541   8.864 -0.6014 -0.1385 -0.3470
   61SAPC  H18S 4788   2.609   3.447   8.835 -0.5583  2.0659 -1.2537
   61SAPC  C219 4789   2.756   3.420   8.665  0.0174  0.4052  0.0189
   61SAPC  H19R 4790   2.692   3.339   8.627 -0.2845  0.7690 -0.2539
   61SAPC  H19S 4791   2.859   3.380   8.653 -0.2387 -0.4979  0.8081
   61SAPC  C220 4792   2.718   3.538   8.580 -0.7192 -0.1586  0.1210
   61SAPC  H20R 4793   2.788   3.553   8.495  0.1754 -2.3404  0.4359
   61SAPC  H20S 4794   2.718   3.631   8.642  1.1103  0.1353 -0.2773
   61SAPC  H20T 4795   2.614   3.521   8.547 -2.1563  1.4683  3.5308
   61SAPC   C33 4796   3.227   3.841  10.105 -0.7422 -0.4421  0.1412
   61SAPC   H3X 4797   3.213   3.731  10.096 -2.1396 -0.3274  0.7758
   61SAPC   H3Y 4798   3.335   3.860  10.088 -0.6313 -1.6925 -0.6829
   61SAPC   C34 4799   3.156   3.893   9.978  0.0724 -0.0597 -0.5288
   61SAPC   H4X 4800   3.198   3.993   9.952  2.2520 -1.0317 -0.8771
   61SAPC   H4Y 4801   3.048   3.898  10.004  0.2721 -1.2330  0.5706
   61SAPC   C35 4802   3.167   3.793   9.865 -0.0455  0.4381 -0.0026
   61SAPC   H5X 4803   3.094   3.715   9.895  0.3341 -0.8914 -2.4643
   61SAPC   H5Y 4804   3.273   3.759   9.859  0.5176  1.8986  1.1730
   61SAPC   C36 4805   3.138   3.856   9.731 -0.2358  0.6708 -0.6210
   61SAPC   H6X 4806   3.222   3.925   9.709  1.0311 -0.5969  0.1761
   61SAPC   H6Y 4807   3.036   3.901   9.728 -1.2957 -1.5613  0.4730
   61SAPC   C37 4808   3.133   3.749   9.618 -0.3884 -0.0447  0.2477
   61SAPC   H7X 4809   3.054   3.674   9.634  0.5135 -1.0003  0.2846
   61SAPC   H7Y 4810   3.228   3.691   9.610 -1.2059 -1.2709 -0.6482
   61SAPC   C38 4811   3.102   3.807   9.480  0.7533  0.6162 -0.8263
   61SAPC   H8X 4812   3.197   3.850   9.441  1.6943 -0.2420  0.4435
   61SAPC   H8Y 4813   3.036   3.895   9.485 -0.3786 -0.2958  0.6039
   61SAPC   C39 4814   3.052   3.706   9.376  0.1527  0.0018 -0.0794
   61SAPC   H9X 4815   2.954   3.663   9.407  0.6250  0.0348  1.5363
   61SAPC   H9Y 4816   3.124   3.621   9.378  0.8082  0.5677  0.4429
   61SAPC  C310 4817   3.047   3.756   9.227 -1.0715  0.5233 -0.5220
   61SAPC  H10X 4818   3.035   3.668   9.160 -2.6843 -0.2091  0.6805
   61SAPC  H10Y 4819   3.150   3.792   9.210 -0.6289  0.9710  2.7276
   61SAPC  C311 4820   2.933   3.853   9.192 -0.0779 -0.0718 -0.0903
   61SAPC  H11X 4821   2.944   3.949   9.248  0.2577 -1.1021  1.6459
   61SAPC  H11Y 4822   2.832   3.808   9.205 -0.0448 -0.6354 -1.7377
   61SAPC  C312 4823   2.922   3.882   9.040 -0.4399 -0.8533 -0.4144
   61SAPC  H12X 4824   2.949   3.786   8.991  0.6092 -0.9690  0.3720
   61SAPC  H12Y 4825   2.989   3.968   9.020 -1.3820  0.2300  0.9526
   61SAPC  C313 4826   2.781   3.922   9.003  0.5122  0.3148  0.1552
   61SAPC  H13X 4827   2.741   3.981   9.088 -1.7695 -0.0237 -0.6460
   61SAPC  H13Y 4828   2.712   3.837   8.984 -0.4851  1.3773 -1.1039
   61SAPC  C314 4829   2.777   4.005   8.879  0.0544 -0.2768  0.4916
   61SAPC  H14X 4830   2.825   4.105   8.880 -1.6207  0.6174 -2.4491
   61SAPC  H14Y 4831   2.669   4.031   8.885  0.1637  0.1123  0.7976
   61SAPC  C315 4832   2.830   3.929   8.752  0.5451  0.1597 -0.2590
   61SAPC  H15X 4833   2.760   3.842   8.757 -1.8671  1.9711 -1.2146
   61SAPC  H15Y 4834   2.934   3.900   8.779  0.7859  0.1266 -1.2100
   61SAPC  C316 4835   2.818   4.018   8.628  0.2672  0.0621 -0.6027
   61SAPC  H16X 4836   2.861   3.955   8.547 -0.3984 -0.8100 -0.2796
   61SAPC  H16Y 4837   2.881   4.109   8.642  0.9581 -0.4445 -0.3870
   61SAPC  C317 4838   2.676   4.053   8.589  0.8126  0.0745  0.8078
   61SAPC  H17X 4839   2.629   4.090   8.682 -1.3311 -3.0735  1.0389
   61SAPC  H17Y 4840   2.627   3.960   8.555  2.3656 -0.7500  0.7653
   61SAPC  C318 4841   2.662   4.148   8.470 -0.5748  0.3473  0.3934
   61SAPC  H18X 4842   2.554   4.167   8.448 -0.5698  0.1734  0.2105
   61SAPC  H18Y 4843   2.711   4.102   8.382 -1.1919  0.8250 -0.2094
   61SAPC  H18Z 4844   2.708   4.245   8.497 -3.2780  1.5125  0.9876
   62SAPC     N 4845   1.991   3.167  11.130  0.6102  0.3947 -0.1427
   62SAPC   C12 4846   1.849   3.161  11.068  0.0345  0.2362 -0.1413
   62SAPC  H12A 4847   1.782   3.186  11.149  0.9659 -1.0544  1.0541
   62SAPC  H12B 4848   1.827   3.057  11.050 -0.4332  0.7123 -2.4718
   62SAPC   C13 4849   1.976   3.092  11.264  0.0935 -0.2455 -0.0123
   62SAPC  H13A 4850   1.919   3.153  11.333 -3.0265 -1.6476 -1.2781
   62SAPC  H13B 4851   1.906   3.012  11.244 -1.1288  0.5748  0.8787
   62SAPC  H13C 4852   2.071   3.057  11.301  1.5375 -0.9699 -4.2148
   62SAPC   C14 4853   2.088   3.101  11.048  0.3490 -0.0228  0.4225
   62SAPC  H14A 4854   2.067   2.995  11.051 -0.3784  0.0505 -1.7459
   62SAPC  H14B 4855   2.084   3.137  10.947 -0.4766 -0.6619  0.2218
   62SAPC  H14C 4856   2.188   3.116  11.085  0.9820  0.2560 -1.3610
   62SAPC   C15 4857   2.025   3.303  11.164 -0.2491 -0.3664 -0.2953
   62SAPC  H15A 4858   2.118   3.299  11.219 -0.9455 -0.2832  0.9084
   62SAPC  H15B 4859   2.041   3.357  11.072  2.1877  0.3159  0.4813
   62SAPC  H15C 4860   1.949   3.354  11.221 -1.1037 -2.4511  0.4806
   62SAPC   C11 4861   1.798   3.249  10.955 -0.0548  0.3311  0.4805
   62SAPC  H11A 4862   1.790   3.351  10.998 -1.1796  0.7141 -0.6154
   62SAPC  H11B 4863   1.690   3.227  10.938  0.1621 -0.6950  0.3905
   62SAPC     P 4864   1.846   3.129  10.734 -0.2102 -0.3599 -0.3563
   62SAPC   O13 4865   1.811   3.001  10.804  0.0989  0.2629 -0.3492
   62SAPC   O14 4866   1.731   3.176  10.657 -0.4202  0.2333  0.5992
   62SAPC   O12 4867   1.887   3.244  10.834 -0.1274 -0.1328 -0.1797
   62SAPC   O11 4868   1.973   3.111  10.643  0.0865 -0.1175  0.3081
   62SAPC    C1 4869   2.104   3.071  10.672  0.6996 -0.0177  0.1393
   62SAPC    HA 4870   2.166   3.162  10.662 -1.3756  1.2957 -1.1374
   62SAPC    HB 4871   2.116   3.031  10.775  1.8812 -0.6549 -0.2405
   62SAPC    C2 4872   2.155   2.967  10.572 -0.0039 -0.9784 -0.2175
   62SAPC    HS 4873   2.266   2.961  10.568  0.0419 -1.0662  0.9252
   62SAPC   O21 4874   2.104   2.993  10.439  0.4085 -0.2344  0.1292
   62SAPC   C21 4875   2.150   3.098  10.384  0.0734 -0.1019 -0.5471
   62SAPC   O22 4876   2.246   3.162  10.423 -0.1917  0.3340 -0.4437
   62SAPC   C22 4877   2.065   3.144  10.277 -0.6246  0.5793 -0.1052
   62SAPC   H2R 4878   2.029   3.057  10.217 -0.5241  0.3970  0.0946
   62SAPC   H2S 4879   1.975   3.179  10.332 -1.0671  0.3966 -0.7131
   62SAPC    C3 4880   2.110   2.825  10.611  0.1924  0.2875 -0.0959
   62SAPC    HX 4881   2.002   2.843  10.628  0.5528  0.8763  1.8185
   62SAPC    HY 4882   2.153   2.782  10.704  0.4692 -1.1341 -0.8742
   62SAPC   O31 4883   2.124   2.738  10.502 -0.2718 -0.2010 -0.3443
   62SAPC   C31 4884   2.247   2.685  10.478 -0.3841 -0.0986 -0.4447
   62SAPC   O32 4885   2.346   2.715  10.548 -0.3190  0.1581 -0.2618
   62SAPC   C32 4886   2.232   2.591  10.359 -0.3282  0.4719  0.8750
   62SAPC   H2X 4887   2.146   2.524  10.376 -0.8409  0.7684 -0.5026
   62SAPC   H2Y 4888   2.314   2.517  10.366 -0.7662 -0.0731  0.3018
   62SAPC   C23 4889   2.106   3.252  10.178 -0.0999  0.8907 -0.2491
   62SAPC   H3R 4890   2.149   3.340  10.231  0.4546  0.2997  0.2779
   62SAPC   H3S 4891   2.026   3.282  10.107  0.5755 -0.0199 -1.4083
   62SAPC   C24 4892   2.227   3.198  10.083 -0.1258  0.0159 -0.2379
   62SAPC   H4R 4893   2.306   3.170  10.156  0.2798  0.4105 -0.5290
   62SAPC   H4S 4894   2.264   3.282  10.021 -0.1674  0.9880  1.0230
   62SAPC   C25 4895   2.183   3.075  10.006 -0.4052  0.4562  0.2558
   62SAPC   H5R 4896   2.200   2.974  10.047 -2.3241 -0.7573 -1.7793
   62SAPC   C26 4897   2.128   3.076   9.881  0.2081  0.2481  0.5856
   62SAPC   H6R 4898   2.097   2.987   9.824  1.8435  0.0221  0.0057
   62SAPC   C27 4899   2.107   3.196   9.793 -0.2373 -0.3403 -0.2709
   62SAPC   H7R 4900   2.095   3.284   9.860 -1.4372 -1.1743  0.6332
   62SAPC   H7S 4901   2.012   3.198   9.737  0.1939 -0.6702 -1.0185
   62SAPC   C28 4902   2.215   3.225   9.692  0.1668  0.6198 -0.6543
   62SAPC   H8R 4903   2.279   3.308   9.729  3.0176 -0.9710 -1.8262
   62SAPC   C29 4904   2.230   3.177   9.566 -0.6510 -0.2437 -0.7006
   62SAPC   H9R 4905   2.327   3.201   9.519  0.3906 -0.6369  1.2029
   62SAPC  C210 4906   2.125   3.088   9.501  0.1820  0.1622  0.1963
   62SAPC  H10R 4907   2.039   3.066   9.569 -1.5340  1.2672 -1.5619
   62SAPC  H10S 4908   2.188   3.001   9.475 -0.2711  0.5816 -2.4086
   62SAPC  C211 4909   2.073   3.156   9.373  0.3353  0.1945 -0.3479
   62SAPC  H11R 4910   2.012   3.247   9.381  0.9818  0.9271 -2.9760
   62SAPC  C212 4911   2.077   3.102   9.249  0.1953 -0.3443  0.1835
   62SAPC  H12R 4912   2.026   3.148   9.163  0.0268 -1.5282 -0.3575
   62SAPC  C213 4913   2.132   2.964   9.210 -0.0681 -0.8899  0.2836
   62SAPC  H13R 4914   2.046   2.907   9.169  0.1219 -0.6993 -0.3973
   62SAPC  H13S 4915   2.166   2.893   9.288 -0.7352 -4.4218 -2.5385
   62SAPC  C214 4916   2.246   2.983   9.117 -0.7203  0.3577  0.3492
   62SAPC  H14R 4917   2.333   3.047   9.139 -0.5478  0.3481 -0.2904
   62SAPC  C215 4918   2.263   2.920   8.997 -0.0922  0.4071  0.2146
   62SAPC  H15R 4919   2.342   2.963   8.934  0.4521 -1.1117 -0.1642
   62SAPC  C216 4920   2.179   2.825   8.928 -0.3502 -0.1034  0.1549
   62SAPC  H16R 4921   2.096   2.789   8.992 -0.0724  0.2482  0.7264
   62SAPC  H16S 4922   2.241   2.740   8.893  1.7850  1.2864  0.4619
   62SAPC  C217 4923   2.130   2.895   8.803  0.6311 -0.5409  0.1010
   62SAPC  H17R 4924   2.221   2.918   8.745  0.0585 -0.9295 -0.9566
   62SAPC  H17S 4925   2.083   2.993   8.825 -2.3161 -1.8837  0.0674
   62SAPC  C218 4926   2.023   2.814   8.731  0.1047  0.3218 -0.4938
   62SAPC  H18R 4927   1.979   2.882   8.654 -1.1163  0.4268  0.2905
   62SAPC  H18S 4928   1.940   2.798   8.804 -0.1511 -1.5986 -1.1757
   62SAPC  C219 4929   2.053   2.683   8.658  0.5352 -0.7141  0.2115
   62SAPC  H19R 4930   1.956   2.651   8.615 -0.0948 -0.1157  1.1740
   62SAPC  H19S 4931   2.081   2.608   8.735  0.4752 -0.9916 -0.0384
   62SAPC  C220 4932   2.150   2.704   8.542  0.4989  0.0005  0.1116
   62SAPC  H20R 4933   2.203   2.609   8.518 -1.9937 -0.8783 -2.2326
   62SAPC  H20S 4934   2.233   2.773   8.567 -1.3825  1.7134  1.8247
   62SAPC  H20T 4935   2.094   2.736   8.452  5.1261  3.8275 -1.5691
   62SAPC   C33 4936   2.227   2.663  10.223 -0.1070  0.3549  0.4407
   62SAPC   H3X 4937   2.317   2.722  10.195 -0.7499 -0.0012 -2.6322
   62SAPC   H3Y 4938   2.135   2.726  10.226 -0.1396  0.2448  1.8975
   62SAPC   C34 4939   2.222   2.562  10.098  0.0274  0.1652  1.3763
   62SAPC   H4X 4940   2.143   2.486  10.116 -1.7671  1.1415 -1.9012
   62SAPC   H4Y 4941   2.320   2.513  10.090 -0.2337  0.0142 -1.1877
   62SAPC   C35 4942   2.185   2.642   9.963 -0.2404  0.3463 -0.5729
   62SAPC   H5X 4943   2.219   2.747   9.951  1.5252 -0.3051 -1.4460
   62SAPC   H5Y 4944   2.075   2.643   9.969 -0.2174  0.5907 -0.1432
   62SAPC   C36 4945   2.213   2.561   9.832 -0.1933 -0.0247  0.2609
   62SAPC   H6X 4946   2.139   2.479   9.844 -0.8809  0.5833  0.1877
   62SAPC   H6Y 4947   2.321   2.537   9.842  0.2138  1.3897 -0.7142
   62SAPC   C37 4948   2.195   2.647   9.714 -0.4989 -0.7252  0.4497
   62SAPC   H7X 4949   2.275   2.724   9.708  0.3799 -1.6294  0.4475
   62SAPC   H7Y 4950   2.100   2.701   9.734 -0.5963 -0.7844  0.1503
   62SAPC   C38 4951   2.179   2.568   9.588 -0.2303 -0.6512  0.1709
   62SAPC   H8X 4952   2.072   2.551   9.563 -0.0536 -3.7496  1.3314
   62SAPC   H8Y 4953   2.230   2.470   9.601  0.2062 -0.3521  0.7261
   62SAPC   C39 4954   2.243   2.635   9.464 -0.1323  0.2573 -0.0972
   62SAPC   H9X 4955   2.352   2.653   9.478 -0.0219  0.6623 -1.4105
   62SAPC   H9Y 4956   2.182   2.726   9.447  0.5961  0.8059  0.1907
   62SAPC  C310 4957   2.207   2.552   9.344  0.3969 -0.1032 -0.0137
   62SAPC  H10X 4958   2.221   2.624   9.260  3.3781 -0.8517 -0.2484
   62SAPC  H10Y 4959   2.097   2.545   9.350  0.4200  1.2724  2.3905
   62SAPC  C311 4960   2.276   2.409   9.331 -0.2225  0.1118 -0.0482
   62SAPC  H11X 4961   2.286   2.376   9.437  0.3498 -2.9008 -0.9733
   62SAPC  H11Y 4962   2.379   2.429   9.295 -0.4712  1.3381 -0.0959
   62SAPC  C312 4963   2.191   2.321   9.246 -0.2260 -0.8137  0.5380
   62SAPC  H12X 4964   2.087   2.356   9.234  0.2738  0.7758  0.6997
   62SAPC  H12Y 4965   2.171   2.233   9.312 -1.5280 -0.3738  0.7400
   62SAPC  C313 4966   2.257   2.278   9.117  0.3297  0.2166  0.0740
   62SAPC  H13X 4967   2.180   2.216   9.065  3.2226 -1.9725 -1.7526
   62SAPC  H13Y 4968   2.350   2.217   9.126 -1.1171 -1.8202  1.8050
   62SAPC  C314 4969   2.299   2.397   9.023 -0.5873  0.2733  0.0689
   62SAPC  H14X 4970   2.363   2.472   9.074 -2.1073  1.9604 -0.4430
   62SAPC  H14Y 4971   2.208   2.449   8.985  0.2271  2.2724  0.7883
   62SAPC  C315 4972   2.380   2.354   8.892 -0.3522  0.3284  0.2554
   62SAPC  H15X 4973   2.304   2.307   8.826 -1.7092 -0.6855  2.4622
   62SAPC  H15Y 4974   2.463   2.283   8.914 -1.0566 -0.3913  0.6622
   62SAPC  C316 4975   2.448   2.472   8.813  0.1692 -0.1919 -0.3609
   62SAPC  H16X 4976   2.535   2.510   8.871  0.3966 -2.1691  0.6252
   62SAPC  H16Y 4977   2.381   2.556   8.784  1.5227  1.0123 -0.0635
   62SAPC  C317 4978   2.517   2.416   8.690  0.0213  0.2318 -0.4930
   62SAPC  H17X 4979   2.436   2.365   8.633 -0.6468  1.3272 -0.5313
   62SAPC  H17Y 4980   2.576   2.327   8.720 -0.9678 -1.7453 -4.0461
   62SAPC  C318 4981   2.588   2.515   8.595 -0.1827  0.1338 -0.0686
   62SAPC  H18X 4982   2.521   2.571   8.526  0.5003  1.7235  0.5412
   62SAPC  H18Y 4983   2.649   2.457   8.523  0.5938 -1.4175  1.7950
   62SAPC  H18Z 4984   2.656   2.585   8.648  0.5442 -0.2272 -0.5145
   63SAPC     N 4985   0.091   1.683   6.377 -0.3721 -0.2371  0.6752
   63SAPC   C12 4986   0.005   1.670   6.505 -0.6443 -0.4447 -0.6645
   63SAPC  H12A 4987   0.071   1.622   6.576  1.2271  1.7817 -0.8457
   63SAPC  H12B 4988  -0.072   1.598   6.482 -0.8363 -0.3883 -0.2073
   63SAPC   C13 4989   0.003   1.744   6.274 -0.6548 -0.6360  0.4765
   63SAPC  H13A 4990  -0.041   1.839   6.301 -3.5869 -1.7246 -0.3756
   63SAPC  H13B 4991   0.060   1.767   6.185  1.1293 -1.0032  1.5047
   63SAPC  H13C 4992  -0.079   1.684   6.238  0.8433 -2.0956 -0.6063
   63SAPC   C14 4993   0.199   1.784   6.400 -0.0052  0.4728  0.6397
   63SAPC  H14A 4994   0.139   1.873   6.410 -1.4392 -0.6398  2.1192
   63SAPC  H14B 4995   0.251   1.760   6.491 -3.8943  0.5439  2.9675
   63SAPC  H14C 4996   0.259   1.796   6.311 -0.6478 -0.7163  0.0392
   63SAPC   C15 4997   0.159   1.563   6.324  0.1877 -0.4776 -0.2889
   63SAPC  H15A 4998   0.219   1.511   6.397 -0.1834 -1.5837 -0.7531
   63SAPC  H15B 4999   0.088   1.493   6.283 -0.7726  0.0158  0.5035
   63SAPC  H15C 5000   0.225   1.603   6.249  0.7536 -0.9986 -0.0659
   63SAPC   C11 5001  -0.059   1.792   6.581 -0.1892  0.0464  0.0719
   63SAPC  H11A 5002   0.027   1.845   6.627 -0.3742 -0.1369  0.6288
   63SAPC  H11B 5003  -0.113   1.751   6.668 -0.6315 -1.3582 -0.8370
   63SAPC     P 5004  -0.293   1.859   6.472 -0.4198 -0.3409  0.1246
   63SAPC   O13 5005  -0.322   1.899   6.331  0.0523 -0.0948  0.3647
   63SAPC   O14 5006  -0.333   1.722   6.514  0.1155  0.0151 -0.6279
   63SAPC   O12 5007  -0.141   1.876   6.499  0.2163  0.8596 -0.8357
   63SAPC   O11 5008  -0.356   1.968   6.561  0.4451 -0.3815 -0.0010
   63SAPC    C1 5009  -0.299   2.098   6.580 -0.4700  0.2243 -0.6633
   63SAPC    HA 5010  -0.262   2.150   6.489  1.9430  1.7652  1.1594
   63SAPC    HB 5011  -0.387   2.161   6.605 -2.3364 -2.2534 -0.8058
   63SAPC    C2 5012  -0.191   2.112   6.700  0.7604  0.5025 -0.8074
   63SAPC    HS 5013  -0.121   2.027   6.685  2.5128  2.0064 -1.3648
   63SAPC   O21 5014  -0.274   2.098   6.819 -0.2083  0.2101 -0.2213
   63SAPC   C21 5015  -0.241   2.004   6.903 -0.8705 -0.6328 -0.0851
   63SAPC   O22 5016  -0.134   1.942   6.905 -0.5101 -0.0558 -0.6296
   63SAPC   C22 5017  -0.353   1.988   6.994  0.1626  0.2798 -0.2709
   63SAPC   H2R 5018  -0.399   2.085   7.021  1.2600  0.2223  1.9480
   63SAPC   H2S 5019  -0.432   1.927   6.945  0.5329 -1.5810  1.3462
   63SAPC    C3 5020  -0.104   2.240   6.701  0.0029 -0.8637 -0.3007
   63SAPC    HX 5021  -0.178   2.322   6.712 -1.6197 -2.1155 -1.5519
   63SAPC    HY 5022  -0.058   2.261   6.602  0.1383  3.0911  0.5297
   63SAPC   O31 5023  -0.016   2.244   6.816  0.7104  0.2582 -0.1056
   63SAPC   C31 5024   0.096   2.174   6.784  0.4294  0.2535  0.2591
   63SAPC   O32 5025   0.107   2.109   6.682 -0.4171  0.2834 -0.1010
   63SAPC   C32 5026   0.203   2.177   6.896 -0.6161 -0.2309  0.0535
   63SAPC   H2X 5027   0.173   2.096   6.966  0.4434 -1.2529 -0.6552
   63SAPC   H2Y 5028   0.207   2.276   6.947 -0.6972 -0.4538  0.4969
   63SAPC   C23 5029  -0.313   1.921   7.126  0.8348  0.1417  0.0884
   63SAPC   H3R 5030  -0.274   1.823   7.093  0.8082 -0.4293  1.7039
   63SAPC   H3S 5031  -0.411   1.915   7.179  0.4062  1.4342 -0.5132
   63SAPC   C24 5032  -0.229   2.021   7.208 -0.1145  0.6760 -0.5736
   63SAPC   H4R 5033  -0.292   2.107   7.237 -0.5282  0.0364  0.4253
   63SAPC   H4S 5034  -0.142   2.052   7.146  2.5186 -2.5133  1.3585
   63SAPC   C25 5035  -0.175   1.940   7.323  0.3091  0.3735 -0.0388
   63SAPC   H5R 5036  -0.098   1.867   7.294  0.4172  0.2651  0.5338
   63SAPC   C26 5037  -0.201   1.953   7.455 -0.0167  0.7415  0.4747
   63SAPC   H6R 5038  -0.145   1.889   7.526 -0.8613 -0.0192  0.4546
   63SAPC   C27 5039  -0.289   2.054   7.517 -0.8077  0.4654  0.1320
   63SAPC   H7R 5040  -0.390   2.036   7.475 -0.0518  0.6914 -1.8343
   63SAPC   H7S 5041  -0.253   2.154   7.487  1.2044  0.7030  3.2117
   63SAPC   C28 5042  -0.300   2.049   7.667  0.4472  0.5718  0.0618
   63SAPC   H8R 5043  -0.343   1.958   7.711 -0.0674  0.0089 -1.6016
   63SAPC   C29 5044  -0.264   2.146   7.757  0.5882  0.2736  0.4349
   63SAPC   H9R 5045  -0.280   2.119   7.862  1.9258 -1.4322  0.2188
   63SAPC  C210 5046  -0.201   2.273   7.714 -0.0748 -0.4317  0.6626
   63SAPC  H10R 5047  -0.267   2.303   7.629  0.7746  0.3274  0.2722
   63SAPC  H10S 5048  -0.096   2.256   7.683  0.2661 -2.3073  2.7347
   63SAPC  C211 5049  -0.198   2.390   7.810 -0.1140 -0.3665  0.0035
   63SAPC  H11R 5050  -0.294   2.444   7.805  0.2648  0.2739 -0.3994
   63SAPC  C212 5051  -0.101   2.445   7.886  0.8763 -0.1947 -0.1075
   63SAPC  H12R 5052  -0.121   2.533   7.949 -3.2722 -0.7568 -0.4920
   63SAPC  C213 5053   0.039   2.384   7.895 -0.6111  0.1863 -0.2953
   63SAPC  H13R 5054   0.050   2.301   7.822 -0.0663 -1.0120  1.1294
   63SAPC  H13S 5055   0.049   2.329   7.992 -1.6520  2.8437  1.3570
   63SAPC  C214 5056   0.158   2.479   7.869  0.2780 -0.1861 -0.0410
   63SAPC  H14R 5057   0.198   2.470   7.767 -0.4454  0.6424 -0.4056
   63SAPC  C215 5058   0.224   2.557   7.955 -0.6408  0.3816 -0.0098
   63SAPC  H15R 5059   0.306   2.625   7.924  0.4495 -0.2526  1.4271
   63SAPC  C216 5060   0.195   2.580   8.100  0.0613  0.7463  0.1459
   63SAPC  H16R 5061   0.284   2.587   8.165 -0.9053  0.7959  1.4792
   63SAPC  H16S 5062   0.128   2.499   8.137 -0.4452  1.1721  0.1737
   63SAPC  C217 5063   0.118   2.710   8.108 -0.8507 -0.3787 -0.6536
   63SAPC  H17R 5064   0.020   2.708   8.057 -1.8484 -1.0258  1.2546
   63SAPC  H17S 5065   0.185   2.789   8.067 -1.5484  0.1559 -0.7702
   63SAPC  C218 5066   0.070   2.735   8.252  0.3512  0.1845  0.4984
   63SAPC  H18R 5067   0.012   2.644   8.278  2.1817 -0.6494  1.8268
   63SAPC  H18S 5068  -0.004   2.818   8.244  1.1576  0.6810 -2.0639
   63SAPC  C219 5069   0.167   2.769   8.361  0.2325  0.1740 -0.1266
   63SAPC  H19R 5070   0.241   2.686   8.367 -1.4735 -1.2146  2.6017
   63SAPC  H19S 5071   0.114   2.758   8.458  2.0078  0.8391  0.9532
   63SAPC  C220 5072   0.215   2.919   8.369 -0.2755  0.3500 -0.5530
   63SAPC  H20R 5073   0.128   2.983   8.394  1.0021  2.0168 -0.3138
   63SAPC  H20S 5074   0.257   2.948   8.270 -2.7601 -1.6323 -2.2496
   63SAPC  H20T 5075   0.295   2.934   8.445 -1.3082  0.0088  0.6066
   63SAPC   C33 5076   0.343   2.143   6.833  0.1872  0.5115  0.0201
   63SAPC   H3X 5077   0.374   2.235   6.779  0.7686  1.1942  1.4820
   63SAPC   H3Y 5078   0.337   2.051   6.771  0.6680  0.7848 -0.4339
   63SAPC   C34 5079   0.451   2.109   6.936  0.0199  0.1877  0.3399
   63SAPC   H4X 5080   0.546   2.069   6.894  0.9241  0.3329  2.2231
   63SAPC   H4Y 5081   0.415   2.025   6.999  2.9475 -0.2573  1.4964
   63SAPC   C35 5082   0.499   2.231   7.024  0.3959  0.2763  0.2407
   63SAPC   H5X 5083   0.552   2.194   7.115  0.9265 -3.1330 -1.3716
   63SAPC   H5Y 5084   0.410   2.291   7.054  1.7536  2.1215  0.6996
   63SAPC   C36 5085   0.614   2.321   6.964 -0.2410  0.3636  0.3677
   63SAPC   H6X 5086   0.599   2.311   6.854 -0.4293  1.2213  0.3114
   63SAPC   H6Y 5087   0.710   2.267   6.980 -1.0896 -1.4476 -0.4526
   63SAPC   C37 5088   0.611   2.467   7.010 -0.2902  0.0302 -0.5040
   63SAPC   H7X 5089   0.505   2.500   7.013 -0.0184  0.9428 -0.5956
   63SAPC   H7Y 5090   0.676   2.534   6.950 -1.8694  1.9348 -0.1451
   63SAPC   C38 5091   0.674   2.479   7.154 -0.5376  0.8821  0.4436
   63SAPC   H8X 5092   0.775   2.435   7.136 -0.2016  2.3189 -1.3707
   63SAPC   H8Y 5093   0.610   2.418   7.220 -2.1066  0.7942 -1.1249
   63SAPC   C39 5094   0.687   2.614   7.214 -0.4338 -0.2092  0.6718
   63SAPC   H9X 5095   0.654   2.696   7.147  0.5494  0.9087  1.5313
   63SAPC   H9Y 5096   0.791   2.646   7.237 -1.2076  2.3529  0.7219
   63SAPC  C310 5097   0.611   2.633   7.346  0.2878 -0.1104  0.6744
   63SAPC  H10X 5098   0.513   2.584   7.329 -0.0301  1.1508 -1.2582
   63SAPC  H10Y 5099   0.597   2.741   7.368 -2.9158 -0.2642 -0.3539
   63SAPC  C311 5100   0.663   2.560   7.473 -0.6600 -0.7190  0.1475
   63SAPC  H11X 5101   0.767   2.598   7.480 -0.7703 -0.6852  1.9442
   63SAPC  H11Y 5102   0.668   2.449   7.468  0.1138 -0.6027 -1.9522
   63SAPC  C312 5103   0.581   2.612   7.590 -0.2016  0.9456 -0.1930
   63SAPC  H12X 5104   0.479   2.573   7.569  1.3094 -2.1450 -2.1386
   63SAPC  H12Y 5105   0.579   2.723   7.595  4.2352  1.0929  0.6155
   63SAPC  C313 5106   0.620   2.557   7.731 -0.0141 -1.1055 -0.4662
   63SAPC  H13X 5107   0.729   2.537   7.726  0.3181  0.7231 -0.8887
   63SAPC  H13Y 5108   0.569   2.459   7.746 -0.0430 -1.2195 -1.3251
   63SAPC  C314 5109   0.610   2.674   7.830 -0.0907 -0.2706 -0.5806
   63SAPC  H14X 5110   0.507   2.710   7.809 -0.5398  0.0838  2.1242
   63SAPC  H14Y 5111   0.676   2.760   7.807 -2.4865  2.4510  2.3487
   63SAPC  C315 5112   0.614   2.627   7.975  0.2141 -0.7535 -0.0877
   63SAPC  H15X 5113   0.718   2.592   7.990  0.2942 -2.0568 -3.2263
   63SAPC  H15Y 5114   0.551   2.537   7.992  0.4515 -1.3476 -2.1538
   63SAPC  C316 5115   0.596   2.743   8.074 -0.7027 -1.0989  0.7209
   63SAPC  H16X 5116   0.498   2.787   8.046  0.2461 -0.6389 -2.0939
   63SAPC  H16Y 5117   0.666   2.826   8.051 -0.7440 -1.2815 -0.1021
   63SAPC  C317 5118   0.602   2.712   8.226 -0.5134 -0.3236  0.2346
   63SAPC  H17X 5119   0.533   2.628   8.251 -1.7155  0.9879  1.4086
   63SAPC  H17Y 5120   0.579   2.804   8.285  3.2608  0.2605  0.9128
   63SAPC  C318 5121   0.738   2.672   8.278 -0.4562 -0.1761  0.0462
   63SAPC  H18X 5122   0.806   2.751   8.239  1.6945 -1.9845  0.0490
   63SAPC  H18Y 5123   0.785   2.578   8.243  2.4756  1.6501 -1.1054
   63SAPC  H18Z 5124   0.731   2.677   8.389  0.0728  1.3412  0.0309
   64SAPC     N 5125   3.001   3.033   5.906  0.8273 -0.1689  0.0047
   64SAPC   C12 5126   2.964   2.954   6.034  0.0166  0.2622 -0.5668
   64SAPC  H12A 5127   3.051   2.944   6.097  0.0968  0.8706 -0.5775
   64SAPC  H12B 5128   2.922   2.857   6.012  0.8230 -0.0412 -0.7885
   64SAPC   C13 5129   3.106   2.971   5.821  0.1956 -0.5257  0.2454
   64SAPC  H13A 5130   3.116   3.021   5.726 -1.1926 -0.4333  0.1361
   64SAPC  H13B 5131   3.205   2.979   5.863 -0.0579  0.5968  0.6622
   64SAPC  H13C 5132   3.086   2.872   5.784 -3.4432  0.1656  0.1610
   64SAPC   C14 5133   2.882   3.037   5.815  0.8286  0.5321 -0.2105
   64SAPC  H14A 5134   2.895   3.090   5.722 -0.0293 -0.0910 -0.6899
   64SAPC  H14B 5135   2.870   2.936   5.778  1.9356 -0.0134  0.8936
   64SAPC  H14C 5136   2.790   3.078   5.852  1.0957  2.9241 -2.0563
   64SAPC   C15 5137   3.030   3.175   5.941 -0.0756  0.4918 -0.7203
   64SAPC  H15A 5138   3.003   3.243   5.862 -2.4822  1.0573  0.5470
   64SAPC  H15B 5139   2.980   3.216   6.028 -0.2236 -0.5233 -0.3169
   64SAPC  H15C 5140   3.135   3.193   5.960 -0.2835 -0.3103  1.3577
   64SAPC   C11 5141   2.855   3.018   6.120  0.2250 -0.2644  0.2369
   64SAPC  H11A 5142   2.889   3.117   6.158 -1.4644  0.6533 -0.6312
   64SAPC  H11B 5143   2.857   2.956   6.212 -2.4411 -0.5102  0.1672
   64SAPC     P 5144   2.649   2.881   6.042 -0.1721  0.3324  0.1402
   64SAPC   O13 5145   2.641   2.851   5.895  0.1388 -0.4119 -0.8417
   64SAPC   O14 5146   2.705   2.777   6.131 -0.1175 -0.3130 -0.5824
   64SAPC   O12 5147   2.724   3.015   6.062  0.0545  0.5850  0.1494
   64SAPC   O11 5148   2.502   2.918   6.089  0.2091  0.1253  0.4809
   64SAPC    C1 5149   2.471   3.036   6.166 -0.6186  0.4727 -0.7217
   64SAPC    HA 5150   2.508   3.128   6.115  0.2333  0.0408 -0.8763
   64SAPC    HB 5151   2.362   3.054   6.180 -0.2204  1.2743  1.5082
   64SAPC    C2 5152   2.534   3.035   6.309  0.1649  0.5776  0.0716
   64SAPC    HS 5153   2.644   3.038   6.295  0.0125 -0.6156 -1.4566
   64SAPC   O21 5154   2.491   2.915   6.371 -0.3004  0.5618  0.2444
   64SAPC   C21 5155   2.580   2.867   6.455 -0.1978 -0.7879 -1.3134
   64SAPC   O22 5156   2.700   2.902   6.466 -0.0167  0.0507  0.4845
   64SAPC   C22 5157   2.516   2.759   6.532 -0.1663 -0.3885 -0.9078
   64SAPC   H2R 5158   2.412   2.789   6.558  0.6503  1.4485  0.2885
   64SAPC   H2S 5159   2.513   2.671   6.463 -0.5297 -0.1648 -1.1796
   64SAPC    C3 5160   2.488   3.169   6.389 -0.4414  0.8011 -0.8009
   64SAPC    HX 5161   2.507   3.256   6.322 -1.0528  0.1779 -1.7882
   64SAPC    HY 5162   2.556   3.191   6.474 -0.5898  2.3302 -1.0676
   64SAPC   O31 5163   2.352   3.177   6.429  0.1990 -0.3545 -0.3849
   64SAPC   C31 5164   2.328   3.118   6.538  0.3246  0.0029 -0.5373
   64SAPC   O32 5165   2.412   3.066   6.612 -0.2723  0.4799 -0.6835
   64SAPC   C32 5166   2.173   3.124   6.561  0.2213 -0.8034 -0.9643
   64SAPC   H2X 5167   2.109   3.058   6.499 -1.2101 -0.8759  0.5780
   64SAPC   H2Y 5168   2.143   3.226   6.529  2.8029  0.7486  1.3483
   64SAPC   C23 5169   2.594   2.726   6.657 -0.0512 -0.6019  0.4298
   64SAPC   H3R 5170   2.634   2.821   6.698 -2.2839  0.5002  0.1467
   64SAPC   H3S 5171   2.676   2.656   6.631 -0.0045 -1.0123  1.6875
   64SAPC   C24 5172   2.500   2.669   6.770  0.2323  0.1214  0.3208
   64SAPC   H4R 5173   2.552   2.583   6.818 -1.8355  0.5660  3.5149
   64SAPC   H4S 5174   2.411   2.642   6.709  2.3560 -1.3482 -2.2621
   64SAPC   C25 5175   2.460   2.773   6.875 -0.2228 -0.0670  0.4034
   64SAPC   H5R 5176   2.462   2.876   6.838 -1.9677 -0.1771 -0.0436
   64SAPC   C26 5177   2.435   2.742   7.003 -0.0614 -0.2854 -0.0575
   64SAPC   H6R 5178   2.421   2.828   7.070 -0.3929 -1.9111  2.0245
   64SAPC   C27 5179   2.429   2.612   7.071  0.1409  0.2071  0.7874
   64SAPC   H7R 5180   2.438   2.529   6.996 -1.2490  0.9902 -0.2564
   64SAPC   H7S 5181   2.330   2.589   7.115 -1.5554  0.4802 -2.7127
   64SAPC   C28 5182   2.534   2.595   7.175 -0.5745 -0.3334  0.2171
   64SAPC   H8R 5183   2.640   2.598   7.143 -1.2793 -2.0419 -2.4147
   64SAPC   C29 5184   2.532   2.604   7.313  1.8362  0.4063 -0.3968
   64SAPC   H9R 5185   2.618   2.589   7.380  0.3543 -2.1834  0.9664
   64SAPC  C210 5186   2.401   2.623   7.395 -0.8196 -0.3205  0.6842
   64SAPC  H10R 5187   2.343   2.528   7.401 -3.0247  0.8566 -1.3296
   64SAPC  H10S 5188   2.332   2.684   7.333  0.8938  1.6714  0.7088
   64SAPC  C211 5189   2.438   2.693   7.524  0.0030 -0.0881 -0.7835
   64SAPC  H11R 5190   2.456   2.800   7.508 -0.3979  0.0537 -0.2779
   64SAPC  C212 5191   2.456   2.645   7.649 -0.2016 -0.3521  0.0068
   64SAPC  H12R 5192   2.477   2.713   7.733 -1.3421 -0.3604  0.3071
   64SAPC  C213 5193   2.436   2.495   7.680  0.3821 -0.6447 -0.2895
   64SAPC  H13R 5194   2.517   2.469   7.752  0.7767 -0.0471 -0.5102
   64SAPC  H13S 5195   2.452   2.424   7.597 -0.6781  0.9045 -1.8596
   64SAPC  C214 5196   2.301   2.461   7.746 -0.5841  0.0151 -0.0006
   64SAPC  H14R 5197   2.215   2.490   7.684  0.1101  0.4155 -0.7858
   64SAPC  C215 5198   2.277   2.384   7.859 -0.1095 -0.2912  0.3197
   64SAPC  H15R 5199   2.175   2.377   7.899 -0.5020 -1.7401 -0.8738
   64SAPC  C216 5200   2.388   2.341   7.957 -0.6203 -0.2320  0.6410
   64SAPC  H16R 5201   2.491   2.339   7.914  0.0017 -0.7243  2.1209
   64SAPC  H16S 5202   2.378   2.234   7.983 -0.1728  0.9056  5.9869
   64SAPC  C217 5203   2.398   2.439   8.073  1.3783  0.1946 -0.1199
   64SAPC  H17R 5204   2.383   2.543   8.038  0.2622  0.3792  0.8819
   64SAPC  H17S 5205   2.494   2.420   8.126  1.0402  1.0135  0.7770
   64SAPC  C218 5206   2.297   2.409   8.187 -0.4352  0.2827  0.1037
   64SAPC  H18R 5207   2.197   2.406   8.139 -0.1106 -0.9155 -0.4956
   64SAPC  H18S 5208   2.301   2.482   8.271  0.7149  0.0679  0.2471
   64SAPC  C219 5209   2.325   2.273   8.253 -0.0435  0.2158  0.2849
   64SAPC  H19R 5210   2.431   2.271   8.286  0.4629  3.7114 -0.9116
   64SAPC  H19S 5211   2.311   2.186   8.185 -0.9332 -1.8748  3.0174
   64SAPC  C220 5212   2.229   2.248   8.374  1.0464  0.0031 -0.0286
   64SAPC  H20R 5213   2.123   2.266   8.343  0.5437  0.7309  2.0556
   64SAPC  H20S 5214   2.252   2.315   8.460 -1.1660 -2.0816  2.2625
   64SAPC  H20T 5215   2.248   2.148   8.418  1.7457  0.6400  1.1479
   64SAPC   C33 5216   2.130   3.100   6.702  0.3800  0.1687 -0.7180
   64SAPC   H3X 5217   2.209   3.119   6.779 -1.3234  2.9835  0.4280
   64SAPC   H3Y 5218   2.108   2.992   6.702 -0.7971  0.4013 -1.1627
   64SAPC   C34 5219   2.007   3.186   6.745 -0.4089 -0.3676 -0.0334
   64SAPC   H4X 5220   1.930   3.177   6.665  0.8285 -0.5685 -1.2148
   64SAPC   H4Y 5221   2.039   3.292   6.748  0.7368 -0.7284  0.6112
   64SAPC   C35 5222   1.928   3.148   6.876 -0.4449 -0.5444  0.0075
   64SAPC   H5X 5223   1.931   3.037   6.884  0.6101 -0.6333 -1.4013
   64SAPC   H5Y 5224   1.821   3.176   6.863 -0.8056 -0.3536  3.0654
   64SAPC   C36 5225   1.999   3.207   6.992  0.1135  0.2734  0.1274
   64SAPC   H6X 5226   2.108   3.192   6.976  0.4649  1.3843  1.3611
   64SAPC   H6Y 5227   1.966   3.145   7.078 -1.6093 -0.5663 -1.1182
   64SAPC   C37 5228   1.967   3.356   7.027  0.2678  0.0851  0.5642
   64SAPC   H7X 5229   1.858   3.367   7.046 -0.1048  0.2324 -1.4906
   64SAPC   H7Y 5230   1.979   3.399   6.925 -2.0486 -0.9005 -0.1574
   64SAPC   C38 5231   2.057   3.417   7.141  0.1018  0.0158  0.6718
   64SAPC   H8X 5232   2.059   3.528   7.137  0.2281 -0.0700 -2.6664
   64SAPC   H8Y 5233   2.159   3.374   7.136  0.3686  0.6933  0.1870
   64SAPC   C39 5234   2.018   3.381   7.284 -0.4168 -0.4846 -0.4207
   64SAPC   H9X 5235   2.101   3.385   7.357 -0.4192 -0.2850 -0.4292
   64SAPC   H9Y 5236   1.973   3.280   7.274 -0.2395 -0.4588 -1.5257
   64SAPC  C310 5237   1.905   3.467   7.338 -0.1638  0.6309 -0.2602
   64SAPC  H10X 5238   1.831   3.494   7.260 -1.1136  1.0358  0.7569
   64SAPC  H10Y 5239   1.947   3.563   7.375  1.1517  0.2430 -0.7025
   64SAPC  C311 5240   1.829   3.411   7.462  0.0971 -0.2739  0.2237
   64SAPC  H11X 5241   1.789   3.310   7.438  0.8179 -0.3756 -0.5589
   64SAPC  H11Y 5242   1.744   3.480   7.479  0.7934  0.2069  1.9314
   64SAPC  C312 5243   1.918   3.399   7.586 -0.5716 -0.1205 -0.4506
   64SAPC  H12X 5244   1.959   3.500   7.609 -1.9811  0.1113  1.1641
   64SAPC  H12Y 5245   2.008   3.338   7.562 -1.9910 -2.2856 -0.4066
   64SAPC  C313 5246   1.851   3.360   7.719 -0.1028 -0.3846 -0.6911
   64SAPC  H13X 5247   1.808   3.265   7.681  1.3456 -0.6594 -1.6834
   64SAPC  H13Y 5248   1.776   3.436   7.751 -0.2858 -0.4884 -0.8692
   64SAPC  C314 5249   1.946   3.341   7.835 -0.5715 -0.2480 -0.1847
   64SAPC  H14X 5250   1.991   3.439   7.863 -2.0564 -0.5635  3.6008
   64SAPC  H14Y 5251   2.031   3.272   7.814 -0.1239  0.1575  0.2613
   64SAPC  C315 5252   1.864   3.310   7.963 -0.0559 -0.2608  0.4177
   64SAPC  H15X 5253   1.785   3.238   7.934  0.1003 -0.3726  0.2725
   64SAPC  H15Y 5254   1.821   3.407   7.998 -0.7986 -0.3428 -0.2443
   64SAPC  C316 5255   1.953   3.238   8.072  0.4941 -0.0318 -0.4914
   64SAPC  H16X 5256   2.047   3.293   8.091 -0.4208  0.7870  1.7409
   64SAPC  H16Y 5257   1.993   3.144   8.027  1.8603 -0.3002  1.2579
   64SAPC  C317 5258   1.886   3.195   8.205  0.2682  0.1852  0.0530
   64SAPC  H17X 5259   1.777   3.183   8.188  0.4202 -0.4727 -0.4606
   64SAPC  H17Y 5260   1.899   3.288   8.265 -1.7308  1.2013 -1.0417
   64SAPC  C318 5261   1.952   3.067   8.263  0.1096 -0.0513  0.3240
   64SAPC  H18X 5262   1.938   2.982   8.192  2.1509 -2.1723  2.3589
   64SAPC  H18Y 5263   1.912   3.028   8.359  0.8482 -2.2164 -0.2169
   64SAPC  H18Z 5264   2.062   3.069   8.277  0.1219 -0.9188  0.3849
   65SAPC     N 5265   2.221   4.305   5.705  0.0680 -0.0695  0.3019
   65SAPC   C12 5266   2.256   4.175   5.776 -0.1722  0.0623 -0.6399
   65SAPC  H12A 5267   2.363   4.171   5.787 -0.4008 -0.7667  1.4545
   65SAPC  H12B 5268   2.224   4.095   5.710 -0.1151  1.7715 -2.8364
   65SAPC   C13 5269   2.301   4.324   5.575 -0.1422 -0.5988  0.1217
   65SAPC  H13A 5270   2.267   4.415   5.528  2.4137  0.0162 -0.5718
   65SAPC  H13B 5271   2.407   4.331   5.593 -0.0303  0.0131 -0.7307
   65SAPC  H13C 5272   2.267   4.249   5.505 -2.7786 -0.3841  1.1106
   65SAPC   C14 5273   2.075   4.332   5.678 -0.3962  0.0413  0.6467
   65SAPC  H14A 5274   2.041   4.255   5.610 -0.1291  0.4672  0.0286
   65SAPC  H14B 5275   2.041   4.317   5.779  2.3696  0.3865  1.6636
   65SAPC  H14C 5276   2.047   4.434   5.658 -2.4196 -0.4826  0.6907
   65SAPC   C15 5277   2.266   4.418   5.796  0.0183  0.0552  0.5896
   65SAPC  H15A 5278   2.373   4.413   5.808  0.0870 -0.2875 -0.1488
   65SAPC  H15B 5279   2.253   4.513   5.747  0.0187 -0.8000 -1.0870
   65SAPC  H15C 5280   2.214   4.408   5.890 -0.9248  2.5374  0.3494
   65SAPC   C11 5281   2.181   4.142   5.908 -1.1550  1.4345 -0.3801
   65SAPC  H11A 5282   2.195   4.223   5.982  0.9401 -0.5646  1.4803
   65SAPC  H11B 5283   2.230   4.046   5.938 -1.5440  0.8400 -1.6120
   65SAPC     P 5284   1.943   4.038   5.970  0.0041  0.1426  0.0320
   65SAPC   O13 5285   1.815   4.024   5.906 -0.8857  0.2156  0.0815
   65SAPC   O14 5286   2.013   3.910   6.012 -0.2587  0.4761 -0.0668
   65SAPC   O12 5287   2.040   4.119   5.885  0.4968 -0.8561 -0.0917
   65SAPC   O11 5288   1.930   4.120   6.097 -0.5548  0.1385 -0.1641
   65SAPC    C1 5289   1.896   4.258   6.086  0.7540 -1.2267  0.8919
   65SAPC    HA 5290   1.980   4.309   6.033 -0.8028  1.0445  0.5161
   65SAPC    HB 5291   1.797   4.271   6.038  1.6591 -1.3381 -1.0688
   65SAPC    C2 5292   1.875   4.308   6.229  0.7027  0.5012  0.2952
   65SAPC    HS 5293   1.838   4.412   6.235 -0.7480 -0.1015  2.7639
   65SAPC   O21 5294   1.991   4.292   6.303 -0.5808  0.1498 -0.2829
   65SAPC   C21 5295   2.087   4.382   6.275  0.0257 -0.5593 -0.3945
   65SAPC   O22 5296   2.078   4.477   6.199  0.5687 -0.0902  0.3345
   65SAPC   C22 5297   2.205   4.347   6.372  0.0109  0.5785  0.3297
   65SAPC   H2R 5298   2.155   4.335   6.471  0.6206  1.9909  0.8143
   65SAPC   H2S 5299   2.235   4.249   6.329  2.0550  0.6248  1.6006
   65SAPC    C3 5300   1.753   4.235   6.288 -0.2739 -0.2333  0.6357
   65SAPC    HX 5301   1.765   4.125   6.271  3.2048  0.1876  0.0954
   65SAPC    HY 5302   1.668   4.270   6.226  0.3904  0.4027  0.0793
   65SAPC   O31 5303   1.730   4.271   6.426  0.6529  0.0443 -0.1122
   65SAPC   C31 5304   1.788   4.197   6.519  0.6257 -0.0086  0.1158
   65SAPC   O32 5305   1.855   4.091   6.505  0.3650  0.3659  0.2108
   65SAPC   C32 5306   1.749   4.266   6.663 -0.2413 -0.2849 -0.4724
   65SAPC   H2X 5307   1.639   4.264   6.682 -0.2166  0.6556 -0.2319
   65SAPC   H2Y 5308   1.778   4.373   6.662  0.9246 -0.5810  0.6181
   65SAPC   C23 5309   2.315   4.461   6.371 -0.2823 -0.3637 -0.0387
   65SAPC   H3R 5310   2.270   4.552   6.416 -1.2934  0.4952 -2.6865
   65SAPC   H3S 5311   2.329   4.499   6.267  3.7919  0.6084  0.7594
   65SAPC   C24 5312   2.450   4.425   6.440 -0.1125 -0.0058  0.1808
   65SAPC   H4R 5313   2.505   4.349   6.380 -0.1416 -0.3922  0.6479
   65SAPC   H4S 5314   2.439   4.397   6.547 -0.7220 -0.9964 -0.1336
   65SAPC   C25 5315   2.531   4.554   6.427  0.7191  0.0482  0.2276
   65SAPC   H5R 5316   2.550   4.594   6.326  0.1309  0.0128  0.0970
   65SAPC   C26 5317   2.567   4.633   6.532  0.0247  0.1047  0.3979
   65SAPC   H6R 5318   2.612   4.732   6.515  0.4113  0.1928  1.8615
   65SAPC   C27 5319   2.545   4.605   6.675  0.6566 -0.3899  0.1938
   65SAPC   H7R 5320   2.440   4.577   6.698  0.6597 -0.5607 -0.0035
   65SAPC   H7S 5321   2.556   4.695   6.739 -1.5595  1.4522 -1.9489
   65SAPC   C28 5322   2.641   4.499   6.731 -0.3232 -0.4806 -0.6522
   65SAPC   H8R 5323   2.688   4.429   6.661 -0.9159  0.7458 -2.3038
   65SAPC   C29 5324   2.679   4.484   6.858 -0.0201  0.4693  0.1278
   65SAPC   H9R 5325   2.751   4.405   6.885 -1.5804 -0.9852  0.1022
   65SAPC  C210 5326   2.640   4.558   6.983 -0.0675 -0.1779 -0.1694
   65SAPC  H10R 5327   2.575   4.644   6.956  0.1100 -0.6131 -2.0560
   65SAPC  H10S 5328   2.732   4.580   7.041  1.3333  1.0080 -2.7081
   65SAPC  C211 5329   2.559   4.456   7.063  0.2220 -0.3462  0.1248
   65SAPC  H11R 5330   2.451   4.464   7.044 -0.0575  1.0022  2.1205
   65SAPC  C212 5331   2.597   4.376   7.159  0.2130  0.5121 -0.3912
   65SAPC  H12R 5332   2.522   4.315   7.212 -0.1833 -0.2173 -1.7621
   65SAPC  C213 5333   2.733   4.366   7.223  0.2635 -0.0156  0.5318
   65SAPC  H13R 5334   2.823   4.387   7.162  0.7594 -1.6261  0.6907
   65SAPC  H13S 5335   2.759   4.261   7.248  1.8445  0.3131  0.3489
   65SAPC  C214 5336   2.747   4.438   7.357  0.5189  0.2964  0.4703
   65SAPC  H14R 5337   2.812   4.526   7.354 -1.7081  2.0133  0.6505
   65SAPC  C215 5338   2.695   4.407   7.474 -0.6365 -0.2161 -0.0066
   65SAPC  H15R 5339   2.720   4.471   7.561  1.7950 -0.7716 -0.2641
   65SAPC  C216 5340   2.614   4.289   7.509  0.2168  0.3513  0.2637
   65SAPC  H16R 5341   2.664   4.234   7.591  1.1713 -0.1813 -0.6458
   65SAPC  H16S 5342   2.593   4.220   7.424  0.2534 -0.0349  0.5724
   65SAPC  C217 5343   2.486   4.344   7.567  0.7326  0.0267  0.2712
   65SAPC  H17R 5344   2.501   4.432   7.633  2.8066 -0.9547  1.1473
   65SAPC  H17S 5345   2.450   4.266   7.639  0.2802 -1.9023 -1.9919
   65SAPC  C218 5346   2.378   4.372   7.467 -1.0902  0.0052 -0.8162
   65SAPC  H18R 5347   2.343   4.277   7.422 -0.1497 -0.2889 -0.9221
   65SAPC  H18S 5348   2.403   4.449   7.390 -0.2780  1.8914  1.2842
   65SAPC  C219 5349   2.260   4.446   7.532  0.2869 -0.6668 -0.1568
   65SAPC  H19R 5350   2.226   4.387   7.621 -1.1185 -0.0043 -0.2369
   65SAPC  H19S 5351   2.181   4.445   7.454  0.2223  3.3164 -0.2350
   65SAPC  C220 5352   2.291   4.591   7.572  0.0365  0.4259  0.7937
   65SAPC  H20R 5353   2.339   4.596   7.672  0.2057  1.3168  0.6686
   65SAPC  H20S 5354   2.197   4.650   7.571 -1.6757 -2.2270 -0.9154
   65SAPC  H20T 5355   2.352   4.634   7.490 -0.1676  2.1354  1.4998
   65SAPC   C33 5356   1.827   4.207   6.783  0.4663 -0.0009 -0.2462
   65SAPC   H3X 5357   1.936   4.214   6.763  0.8350 -1.1147  1.3191
   65SAPC   H3Y 5358   1.807   4.098   6.788  0.7091 -0.1973 -2.8420
   65SAPC   C34 5359   1.811   4.292   6.908  0.4527 -0.0488 -1.0834
   65SAPC   H4X 5360   1.813   4.399   6.877  0.6452  0.3508  0.2600
   65SAPC   H4Y 5361   1.900   4.274   6.973 -0.2272  1.6865  0.3680
   65SAPC   C35 5362   1.676   4.265   6.977  0.1219 -0.4132 -0.4126
   65SAPC   H5X 5363   1.660   4.163   7.018 -0.4750  0.0102  0.4233
   65SAPC   H5Y 5364   1.592   4.293   6.909 -0.0305  0.1756  0.0174
   65SAPC   C36 5365   1.660   4.358   7.096  0.5321  0.5248 -0.1783
   65SAPC   H6X 5366   1.556   4.337   7.128  1.0147  0.2004  1.2128
   65SAPC   H6Y 5367   1.676   4.463   7.062  0.0794  1.2099  1.6943
   65SAPC   C37 5368   1.744   4.326   7.222 -0.2457 -0.5823 -0.1332
   65SAPC   H7X 5369   1.799   4.420   7.245 -0.2510 -0.4227 -0.7566
   65SAPC   H7Y 5370   1.823   4.253   7.196 -0.1290 -0.4948 -0.0252
   65SAPC   C38 5371   1.661   4.285   7.343 -0.2528  0.4954  0.0170
   65SAPC   H8X 5372   1.618   4.185   7.322 -2.4609  1.6919 -1.4067
   65SAPC   H8Y 5373   1.570   4.346   7.365 -1.4230 -0.7155 -1.3624
   65SAPC   C39 5374   1.743   4.268   7.465  0.6146  0.3658  0.1329
   65SAPC   H9X 5375   1.844   4.242   7.428 -0.4770 -0.1116 -2.6330
   65SAPC   H9Y 5376   1.694   4.188   7.524  2.4609 -1.2534 -0.4939
   65SAPC  C310 5377   1.760   4.399   7.540  0.1072 -0.0410 -0.4551
   65SAPC  H10X 5378   1.658   4.439   7.558  1.3041  2.2930  1.4426
   65SAPC  H10Y 5379   1.810   4.469   7.469 -0.5083  0.1269 -0.7194
   65SAPC  C311 5380   1.847   4.397   7.670  0.4268  0.3780  0.0959
   65SAPC  H11X 5381   1.945   4.358   7.633 -2.0260 -2.0630 -4.3207
   65SAPC  H11Y 5382   1.815   4.321   7.743  0.1738  0.1677 -0.2334
   65SAPC  C312 5383   1.860   4.538   7.737 -0.5099 -0.5877  0.3751
   65SAPC  H12X 5384   1.929   4.602   7.679 -0.2215 -1.9375 -0.8169
   65SAPC  H12Y 5385   1.921   4.525   7.829  1.8196 -1.5709 -1.2624
   65SAPC  C313 5386   1.722   4.590   7.791 -0.3084  0.5060 -0.4251
   65SAPC  H13X 5387   1.691   4.502   7.852  0.7249  0.7974  0.5355
   65SAPC  H13Y 5388   1.643   4.611   7.715 -0.0247 -1.2462 -1.2157
   65SAPC  C314 5389   1.732   4.707   7.891  0.0086  0.0437  0.3092
   65SAPC  H14X 5390   1.741   4.797   7.827 -1.1546  0.8322  1.2376
   65SAPC  H14Y 5391   1.833   4.698   7.937  0.3954 -1.6105 -0.8180
   65SAPC  C315 5392   1.610   4.724   7.987 -0.0300  0.5210 -0.5291
   65SAPC  H15X 5393   1.594   4.638   8.055  0.6009  0.3199 -0.6303
   65SAPC  H15Y 5394   1.520   4.736   7.924 -1.0008 -0.9501  0.5385
   65SAPC  C316 5395   1.640   4.849   8.073  0.6696 -0.0890 -0.3846
   65SAPC  H16X 5396   1.645   4.942   8.012  1.1900 -1.0037 -1.7490
   65SAPC  H16Y 5397   1.745   4.848   8.111  0.7475  2.2537 -0.4482
   65SAPC  C317 5398   1.539   4.865   8.184 -0.9312 -0.1682 -0.3237
   65SAPC  H17X 5399   1.540   4.777   8.252 -0.6273  0.8234  0.9823
   65SAPC  H17Y 5400   1.438   4.877   8.139 -1.2204 -1.0673  0.0692
   65SAPC  C318 5401   1.571   4.984   8.269 -0.0742  0.4574 -0.6688
   65SAPC  H18X 5402   1.484   5.010   8.333  0.6925  0.7180  0.2775
   65SAPC  H18Y 5403   1.579   5.073   8.203 -0.3366  1.8719  1.1588
   65SAPC  H18Z 5404   1.664   4.974   8.328  0.7761  2.0249 -1.7137
   66SAPC     N 5405   5.682   3.084   6.253  0.2378  0.5086  1.2739
   66SAPC   C12 5406   5.692   2.945   6.196  0.4085 -0.1481  0.4643
   66SAPC  H12A 5407   5.595   2.923   6.152  0.8594  0.8596 -1.0845
   66SAPC  H12B 5408   5.713   2.868   6.269  0.3429 -0.7724 -0.1640
   66SAPC   C13 5409   5.806   3.117   6.320 -0.0282  0.0294  0.5493
   66SAPC  H13A 5410   5.895   3.107   6.259 -0.7570  0.5216 -0.6270
   66SAPC  H13B 5411   5.798   3.217   6.360 -1.6079  0.0889  0.1351
   66SAPC  H13C 5412   5.831   3.051   6.401  1.5446  1.1090  0.9725
   66SAPC   C14 5413   5.651   3.180   6.137 -0.4063  0.4513  0.0132
   66SAPC  H14A 5414   5.574   3.134   6.077  0.5503  1.0949 -1.7600
   66SAPC  H14B 5415   5.620   3.277   6.174  1.5136  0.1832  2.4411
   66SAPC  H14C 5416   5.738   3.192   6.074 -0.4497  1.9617  0.2035
   66SAPC   C15 5417   5.570   3.092   6.348  0.0824 -0.2296  0.0161
   66SAPC  H15A 5418   5.557   3.186   6.399 -1.9553  0.7246 -2.1597
   66SAPC  H15B 5419   5.476   3.061   6.306  0.7025  1.5480 -2.8127
   66SAPC  H15C 5420   5.579   3.019   6.427 -0.7065  0.3820  0.6700
   66SAPC   C11 5421   5.793   2.920   6.087  0.5535 -0.0825 -0.3834
   66SAPC  H11A 5422   5.793   3.002   6.011  0.9891 -0.2397 -0.5557
   66SAPC  H11B 5423   5.771   2.826   6.032 -1.0526  0.2766 -0.3788
   66SAPC     P 5424   6.044   2.825   6.123  0.3847  0.0756  0.2519
   66SAPC   O13 5425   6.024   2.767   5.990 -0.0278 -0.2558  0.3158
   66SAPC   O14 5426   6.167   2.898   6.151  0.5299  0.0438 -0.4414
   66SAPC   O12 5427   5.921   2.920   6.161 -0.6921  0.3006 -0.1724
   66SAPC   O11 5428   6.041   2.700   6.226 -0.0403  0.0173 -0.1475
   66SAPC    C1 5429   5.992   2.712   6.360 -0.0295 -0.2770  0.4572
   66SAPC    HA 5430   5.903   2.778   6.367 -0.5675 -1.2646  3.3383
   66SAPC    HB 5431   5.952   2.614   6.396  0.6749 -0.7329  0.0118
   66SAPC    C2 5432   6.105   2.743   6.459  0.1801  0.6281 -0.1682
   66SAPC    HS 5433   6.070   2.741   6.564 -0.1106  1.3572 -0.2469
   66SAPC   O21 5434   6.162   2.870   6.437  0.2327  0.6472  0.0655
   66SAPC   C21 5435   6.075   2.966   6.478 -0.6089 -0.4787 -0.4674
   66SAPC   O22 5436   5.965   2.953   6.532 -0.3250  0.1326  0.2342
   66SAPC   C22 5437   6.149   3.095   6.452  0.2096 -0.0467  0.2287
   66SAPC   H2R 5438   6.255   3.075   6.479  0.4050  1.4886  0.6659
   66SAPC   H2S 5439   6.145   3.128   6.346 -0.4539 -2.2625 -0.4618
   66SAPC    C3 5440   6.216   2.635   6.449 -0.5730 -0.3478 -0.5848
   66SAPC    HX 5441   6.256   2.647   6.346 -0.8269  1.7237 -0.4604
   66SAPC    HY 5442   6.178   2.532   6.465 -1.3550  0.1250  0.6425
   66SAPC   O31 5443   6.312   2.636   6.558 -0.1450  0.0030  0.3637
   66SAPC   C31 5444   6.420   2.703   6.534  0.2432 -0.1754  0.3625
   66SAPC   O32 5445   6.446   2.753   6.424 -0.5210 -0.2220 -0.2106
   66SAPC   C32 5446   6.511   2.725   6.655 -0.3288  0.2622 -0.2970
   66SAPC   H2X 5447   6.611   2.695   6.617 -0.5478 -0.0624 -0.6195
   66SAPC   H2Y 5448   6.480   2.652   6.733  3.1322 -3.1405 -1.9279
   66SAPC   C23 5449   6.110   3.218   6.537  0.3520 -0.1407 -0.6366
   66SAPC   H3R 5450   6.004   3.208   6.567  1.3422 -0.8508  2.8772
   66SAPC   H3S 5451   6.120   3.311   6.478  1.3669 -0.2159 -0.5927
   66SAPC   C24 5452   6.198   3.242   6.663 -0.1003  0.3342  0.3539
   66SAPC   H4R 5453   6.186   3.145   6.717 -0.7556 -1.4305 -2.8376
   66SAPC   H4S 5454   6.154   3.321   6.726 -3.3578 -0.9215 -0.2618
   66SAPC   C25 5455   6.344   3.278   6.637 -0.5639  0.2007 -0.1747
   66SAPC   H5R 5456   6.387   3.274   6.536  0.2246  0.0603  0.1624
   66SAPC   C26 5457   6.428   3.335   6.723 -0.0681  0.4402 -0.6951
   66SAPC   H6R 5458   6.528   3.366   6.690  0.7920 -1.2484  0.2742
   66SAPC   C27 5459   6.378   3.367   6.861 -0.5083 -0.0248 -0.1016
   66SAPC   H7R 5460   6.334   3.275   6.905  1.3100 -0.3847  1.0639
   66SAPC   H7S 5461   6.310   3.454   6.857  2.4664  2.5013  2.1055
   66SAPC   C28 5462   6.495   3.401   6.951  0.6257  0.1890 -0.1487
   66SAPC   H8R 5463   6.594   3.402   6.902  0.6828  0.6095 -0.0214
   66SAPC   C29 5464   6.484   3.412   7.081 -0.8391  0.0460  0.0770
   66SAPC   H9R 5465   6.578   3.435   7.133  0.8902 -1.5847 -2.2358
   66SAPC  C210 5466   6.359   3.397   7.168 -0.8634 -0.2308 -0.2130
   66SAPC  H10R 5467   6.357   3.298   7.220 -2.8090  0.8664  1.8978
   66SAPC  H10S 5468   6.266   3.396   7.109 -0.2430 -0.9871 -1.1995
   66SAPC  C211 5469   6.339   3.513   7.265  0.3741  0.2327 -0.2961
   66SAPC  H11R 5470   6.269   3.592   7.234 -2.2923 -2.2360 -0.7555
   66SAPC  C212 5471   6.405   3.533   7.381  0.4225  0.0259  0.0115
   66SAPC  H12R 5472   6.376   3.620   7.441  0.8578  0.0033  0.2584
   66SAPC  C213 5473   6.507   3.443   7.441  0.1093 -0.2973 -0.1114
   66SAPC  H13R 5474   6.593   3.503   7.478  0.1183 -2.3886  3.4579
   66SAPC  H13S 5475   6.556   3.385   7.361 -0.9134 -0.5180 -0.5903
   66SAPC  C214 5476   6.445   3.335   7.533 -0.5584  0.6446  0.1486
   66SAPC  H14R 5477   6.336   3.321   7.540 -0.6038  1.0756  0.3281
   66SAPC  C215 5478   6.506   3.249   7.612 -0.7559  0.3817  0.3098
   66SAPC  H15R 5479   6.448   3.178   7.673  0.1595 -0.1172  0.6099
   66SAPC  C216 5480   6.658   3.246   7.620  0.0583 -0.3432 -0.4341
   66SAPC  H16R 5481   6.711   3.258   7.522 -2.1627  1.2877 -1.4811
   66SAPC  H16S 5482   6.673   3.139   7.646 -1.6446 -0.3043  0.7383
   66SAPC  C217 5483   6.733   3.346   7.714 -0.2349  0.5083  0.4022
   66SAPC  H17R 5484   6.700   3.450   7.694  1.7846  0.9969 -0.4081
   66SAPC  H17S 5485   6.840   3.332   7.691 -0.1906  1.1967  0.1906
   66SAPC  C218 5486   6.715   3.308   7.864 -0.2774 -0.1593  0.9861
   66SAPC  H18R 5487   6.747   3.204   7.883 -1.1725 -0.3348  1.5576
   66SAPC  H18S 5488   6.606   3.302   7.882 -0.6668  1.4517 -0.6397
   66SAPC  C219 5489   6.779   3.399   7.966 -0.2743  0.4733 -0.5940
   66SAPC  H19R 5490   6.747   3.503   7.945  2.4612  1.0974 -1.8411
   66SAPC  H19S 5491   6.890   3.393   7.966 -0.3376 -1.0529 -1.3213
   66SAPC  C220 5492   6.723   3.377   8.109 -0.4365  0.3319  0.2669
   66SAPC  H20R 5493   6.764   3.452   8.179 -1.2660  1.4785 -0.4687
   66SAPC  H20S 5494   6.767   3.285   8.153 -0.0888  1.2457  1.8641
   66SAPC  H20T 5495   6.613   3.366   8.109 -0.4672  0.6527  1.0389
   66SAPC   C33 5496   6.516   2.873   6.704  0.3558  0.6073  0.1239
   66SAPC   H3X 5497   6.546   2.934   6.616  1.2407 -0.4463 -0.3195
   66SAPC   H3Y 5498   6.602   2.861   6.773  0.6282 -2.4767 -0.6682
   66SAPC   C34 5499   6.394   2.919   6.773  0.5157 -0.2805 -0.0438
   66SAPC   H4X 5500   6.312   2.941   6.702  0.8866 -0.9256 -0.6710
   66SAPC   H4Y 5501   6.424   3.013   6.824 -1.6798  0.1733  0.4457
   66SAPC   C35 5502   6.341   2.840   6.887  0.2100 -0.0725 -0.3726
   66SAPC   H5X 5503   6.420   2.821   6.962 -0.9782  0.2833  1.0042
   66SAPC   H5Y 5504   6.306   2.744   6.845 -0.3907 -0.3472  0.7199
   66SAPC   C36 5505   6.227   2.912   6.956 -0.1567 -0.2000 -0.2542
   66SAPC   H6X 5506   6.142   2.920   6.885 -1.2191 -4.9668  0.2772
   66SAPC   H6Y 5507   6.258   3.016   6.980 -0.1509 -0.1289 -0.5612
   66SAPC   C37 5508   6.185   2.848   7.094 -0.0735 -0.2280 -0.5664
   66SAPC   H7X 5509   6.191   2.737   7.099 -2.8281 -0.3671  0.2747
   66SAPC   H7Y 5510   6.078   2.872   7.116 -0.8257  0.3393 -4.4418
   66SAPC   C38 5511   6.267   2.888   7.221 -0.1218  0.3670  0.2167
   66SAPC   H8X 5512   6.277   2.995   7.246 -1.2568  0.7215 -0.7737
   66SAPC   H8Y 5513   6.365   2.837   7.212 -0.1111  0.4708 -0.2281
   66SAPC   C39 5514   6.202   2.823   7.345 -0.0779  0.1156  0.5696
   66SAPC   H9X 5515   6.243   2.720   7.357  2.1317  0.7311 -1.2688
   66SAPC   H9Y 5516   6.093   2.809   7.332 -0.2325  0.7882  1.1275
   66SAPC  C310 5517   6.224   2.906   7.473  0.5081  0.3711  0.3819
   66SAPC  H10X 5518   6.174   3.005   7.484  0.4871  0.1354  2.6676
   66SAPC  H10Y 5519   6.333   2.926   7.467  0.2331  1.2601 -2.3769
   66SAPC  C311 5520   6.183   2.825   7.602 -0.1416 -0.0703 -0.6662
   66SAPC  H11X 5521   6.272   2.761   7.625  1.0095  1.0764 -1.8374
   66SAPC  H11Y 5522   6.096   2.759   7.586 -0.1679 -0.6009  1.4626
   66SAPC  C312 5523   6.130   2.917   7.716  0.2276 -0.2158 -0.0352
   66SAPC  H12X 5524   6.073   2.853   7.787  1.7186 -3.5579 -1.7464
   66SAPC  H12Y 5525   6.071   3.000   7.671  0.9406  0.0265 -0.5244
   66SAPC  C313 5526   6.245   2.995   7.788 -0.9243  0.1588  0.3911
   66SAPC  H13X 5527   6.287   3.069   7.717  1.3125  0.4367  1.9829
   66SAPC  H13Y 5528   6.327   2.931   7.825 -1.7639 -1.2615 -0.1580
   66SAPC  C314 5529   6.179   3.076   7.899  0.7857  0.6058 -0.8312
   66SAPC  H14X 5530   6.110   3.021   7.967 -0.4773 -1.5752 -3.7513
   66SAPC  H14Y 5531   6.106   3.145   7.851 -0.2077  0.0187 -0.1941
   66SAPC  C315 5532   6.279   3.148   7.994 -0.0820  0.1258  1.0152
   66SAPC  H15X 5533   6.218   3.218   8.055  1.0093  2.3346 -0.3892
   66SAPC  H15Y 5534   6.351   3.203   7.930 -0.0699  0.8991  1.6952
   66SAPC  C316 5535   6.341   3.046   8.080  0.4070  0.4481 -0.1034
   66SAPC  H16X 5536   6.419   2.993   8.021 -0.7671 -1.0597 -0.3007
   66SAPC  H16Y 5537   6.277   2.959   8.104  2.1917 -0.9198 -0.1197
   66SAPC  C317 5538   6.399   3.107   8.204 -0.3306 -0.7841 -0.1829
   66SAPC  H17X 5539   6.316   3.162   8.253 -0.0044 -0.5743  0.1429
   66SAPC  H17Y 5540   6.477   3.183   8.182 -0.4437 -1.1286 -1.8288
   66SAPC  C318 5541   6.464   3.010   8.301  0.3709 -0.1004 -0.0279
   66SAPC  H18X 5542   6.481   3.074   8.390 -2.0254 -0.8373  1.0021
   66SAPC  H18Y 5543   6.567   2.979   8.273  1.0903  0.9597  1.4021
   66SAPC  H18Z 5544   6.400   2.928   8.341 -0.0497  0.7086  0.9746
   67SAPC     N 5545   3.229   5.522   6.498 -0.3001 -0.3036 -0.1471
   67SAPC   C12 5546   3.190   5.491   6.352 -0.3012  0.6889  0.7246
   67SAPC  H12A 5547   3.263   5.429   6.302  0.3765  2.4713 -0.5210
   67SAPC  H12B 5548   3.191   5.587   6.304  2.8659  0.2034 -0.2553
   67SAPC   C13 5549   3.123   5.600   6.573 -0.1458  0.2156 -0.2283
   67SAPC  H13A 5550   3.026   5.554   6.559 -1.0567  1.8325  0.5843
   67SAPC  H13B 5551   3.150   5.621   6.675 -0.5904 -1.5051  0.2648
   67SAPC  H13C 5552   3.122   5.701   6.535 -0.9860  1.0604  1.9900
   67SAPC   C14 5553   3.256   5.394   6.570 -1.0313  0.3726 -0.3604
   67SAPC  H14A 5554   3.267   5.415   6.676 -1.2612 -2.2473  0.2176
   67SAPC  H14B 5555   3.176   5.324   6.552 -0.7843 -0.6332  2.1583
   67SAPC  H14C 5556   3.346   5.346   6.534 -0.5720  1.1979 -0.3103
   67SAPC   C15 5557   3.355   5.595   6.508  0.7246  0.1137 -0.3776
   67SAPC  H15A 5558   3.357   5.684   6.447 -2.5142  0.9575  0.6928
   67SAPC  H15B 5559   3.377   5.622   6.610  0.4012 -0.8032 -0.0527
   67SAPC  H15C 5560   3.437   5.533   6.474  0.2515  0.1426 -1.5922
   67SAPC   C11 5561   3.046   5.426   6.340 -0.3542  0.3185 -0.6106
   67SAPC  H11A 5562   3.023   5.430   6.231 -2.8895  1.0441 -0.0854
   67SAPC  H11B 5563   2.965   5.490   6.381 -0.9451 -0.8905  0.1542
   67SAPC     P 5564   2.907   5.220   6.410 -0.2216  0.2709 -0.3170
   67SAPC   O13 5565   2.859   5.180   6.278  0.3025  0.5320 -0.1565
   67SAPC   O14 5566   2.934   5.119   6.515 -0.6915  0.0569  0.9131
   67SAPC   O12 5567   3.041   5.292   6.387 -0.3612  0.3188  0.0299
   67SAPC   O11 5568   2.809   5.337   6.453  0.3308 -0.1283  0.9381
   67SAPC    C1 5569   2.807   5.391   6.585  0.3272 -0.6822 -0.0708
   67SAPC    HA 5570   2.901   5.383   6.644  1.2164  0.4157 -1.3210
   67SAPC    HB 5571   2.799   5.502   6.586 -0.1785 -0.6521 -3.3201
   67SAPC    C2 5572   2.687   5.331   6.662  0.9523 -0.1782 -0.3180
   67SAPC    HS 5573   2.686   5.388   6.758  0.4162  0.4247 -0.6767
   67SAPC   O21 5574   2.701   5.195   6.689  0.3782 -0.1569 -0.1698
   67SAPC   C21 5575   2.783   5.163   6.788 -0.4428  0.1409 -0.3194
   67SAPC   O22 5576   2.845   5.244   6.863 -0.0501 -0.0522 -0.0357
   67SAPC   C22 5577   2.784   5.020   6.817  0.9150  0.1195  0.2220
   67SAPC   H2R 5578   2.681   4.979   6.811  1.6735 -1.7810 -0.1607
   67SAPC   H2S 5579   2.838   4.970   6.733 -1.6459 -0.4381 -1.1494
   67SAPC    C3 5580   2.558   5.357   6.582  0.6114  0.1295 -0.9986
   67SAPC    HX 5581   2.534   5.277   6.509 -0.7523  1.1617 -1.7132
   67SAPC    HY 5582   2.573   5.443   6.513 -1.0590  1.4839  0.2518
   67SAPC   O31 5583   2.444   5.364   6.669  0.0008  0.9028 -0.5892
   67SAPC   C31 5584   2.426   5.473   6.743 -0.9122  0.5186  0.0913
   67SAPC   O32 5585   2.508   5.560   6.754  0.2995 -0.2267 -0.3046
   67SAPC   C32 5586   2.291   5.462   6.811 -0.9888  0.4938  0.2248
   67SAPC   H2X 5587   2.263   5.360   6.844 -1.8082  1.2163  1.8017
   67SAPC   H2Y 5588   2.212   5.492   6.739 -1.9530 -1.1954  0.5662
   67SAPC   C23 5589   2.862   4.977   6.945  0.0922  0.1965 -0.1443
   67SAPC   H3R 5590   2.960   5.029   6.957  0.3158  0.3594 -2.4750
   67SAPC   H3S 5591   2.876   4.870   6.922 -1.0109  0.1226 -0.5095
   67SAPC   C24 5592   2.769   4.990   7.072 -0.2194  0.9095 -0.3020
   67SAPC   H4R 5593   2.709   5.084   7.061 -0.3579  0.7559 -0.8821
   67SAPC   H4S 5594   2.847   5.001   7.149 -0.5389  1.1488 -0.0110
   67SAPC   C25 5595   2.668   4.880   7.086 -0.2303  0.5049 -1.2454
   67SAPC   H5R 5596   2.625   4.835   6.995 -0.7889  0.0737 -0.7799
   67SAPC   C26 5597   2.630   4.832   7.206  0.1174  0.1050  0.2591
   67SAPC   H6R 5598   2.543   4.766   7.198 -0.1113  0.5930 -1.5109
   67SAPC   C27 5599   2.678   4.870   7.342  0.2778 -0.0563  0.6384
   67SAPC   H7R 5600   2.776   4.921   7.331  1.2189 -2.0922 -0.7925
   67SAPC   H7S 5601   2.677   4.769   7.388  0.8928 -0.2786  0.1695
   67SAPC   C28 5602   2.572   4.960   7.398 -0.0405  0.2736 -0.0216
   67SAPC   H8R 5603   2.527   5.024   7.320  2.7904 -0.5374 -2.4297
   67SAPC   C29 5604   2.534   4.957   7.529  0.2598 -0.0165 -0.1902
   67SAPC   H9R 5605   2.459   5.028   7.568 -0.3606 -0.2701 -0.9003
   67SAPC  C210 5606   2.588   4.870   7.642 -0.2407 -0.3707 -0.1259
   67SAPC  H10R 5607   2.667   4.936   7.685 -1.9436  1.1027  0.7804
   67SAPC  H10S 5608   2.631   4.773   7.609 -1.1617 -1.4686  1.8237
   67SAPC  C211 5609   2.482   4.841   7.745 -0.4515  0.0472  0.0741
   67SAPC  H11R 5610   2.382   4.878   7.717 -0.5587  1.7493  2.5856
   67SAPC  C212 5611   2.491   4.788   7.871 -0.5120  0.0601 -0.3911
   67SAPC  H12R 5612   2.398   4.767   7.926 -0.7886  1.7757 -0.1688
   67SAPC  C213 5613   2.627   4.759   7.934  0.2968 -0.9510 -0.3972
   67SAPC  H13R 5614   2.711   4.777   7.863 -0.6440 -0.2034 -1.3339
   67SAPC  H13S 5615   2.631   4.650   7.957 -0.0832 -0.9291 -0.2283
   67SAPC  C214 5616   2.656   4.839   8.055  0.1444  0.2088  0.0037
   67SAPC  H14R 5617   2.660   4.947   8.037 -2.5438  0.5057  0.9443
   67SAPC  C215 5618   2.676   4.794   8.184 -0.7044 -0.2007  0.5116
   67SAPC  H15R 5619   2.711   4.866   8.260 -1.7717  2.1455 -1.1624
   67SAPC  C216 5620   2.665   4.656   8.244  0.5949 -0.0451 -0.3507
   67SAPC  H16R 5621   2.758   4.621   8.293  0.4658  2.4358  1.8244
   67SAPC  H16S 5622   2.620   4.586   8.170 -0.7784 -1.0122  1.3433
   67SAPC  C217 5623   2.567   4.653   8.368  0.5003 -0.2148 -0.1047
   67SAPC  H17R 5624   2.463   4.675   8.335 -0.2109  0.7691  2.6255
   67SAPC  H17S 5625   2.599   4.734   8.436 -1.5817 -0.2935  1.0247
   67SAPC  C218 5626   2.569   4.524   8.442 -0.5795  0.3789 -0.2672
   67SAPC  H18R 5627   2.675   4.502   8.464 -1.1228 -1.4822  0.6412
   67SAPC  H18S 5628   2.534   4.442   8.375 -0.8646  0.4911 -0.2564
   67SAPC  C219 5629   2.484   4.515   8.572  0.3892 -0.4895 -0.3995
   67SAPC  H19R 5630   2.528   4.566   8.661 -2.4918  1.3186  0.0562
   67SAPC  H19S 5631   2.489   4.413   8.617  0.1487 -0.4185 -0.2117
   67SAPC  C220 5632   2.341   4.565   8.557 -0.3755  0.1666 -0.1031
   67SAPC  H20R 5633   2.337   4.676   8.555  0.0001  0.1658 -1.1058
   67SAPC  H20S 5634   2.290   4.536   8.652 -0.3509  0.1780 -0.0871
   67SAPC  H20T 5635   2.295   4.517   8.467 -0.5336  0.3944 -0.1432
   67SAPC   C33 5636   2.299   5.542   6.939 -0.1537 -0.2758 -0.4024
   67SAPC   H3X 5637   2.337   5.643   6.913 -1.6913  0.2928 -0.5522
   67SAPC   H3Y 5638   2.360   5.496   7.019 -0.7742 -1.6241 -0.6826
   67SAPC   C34 5639   2.156   5.564   6.988 -0.4344  0.1915 -0.2662
   67SAPC   H4X 5640   2.104   5.471   7.020 -1.1972  0.7469  0.1314
   67SAPC   H4Y 5641   2.087   5.606   6.911  1.2867  0.7791 -1.5061
   67SAPC   C35 5642   2.158   5.662   7.105 -0.1345 -0.1350 -0.4497
   67SAPC   H5X 5643   2.053   5.682   7.134 -0.4414  0.3742 -1.9026
   67SAPC   H5Y 5644   2.207   5.758   7.079 -0.7458 -0.3140 -2.3458
   67SAPC   C36 5645   2.238   5.609   7.229 -0.2922  0.7844  0.0925
   67SAPC   H6X 5646   2.348   5.624   7.215 -0.0359 -1.0378 -0.0215
   67SAPC   H6Y 5647   2.219   5.499   7.227  1.3429  0.5047 -1.3004
   67SAPC   C37 5648   2.196   5.669   7.365 -0.5340  0.3605  0.1602
   67SAPC   H7X 5649   2.089   5.640   7.366 -1.1358  2.4645 -0.0537
   67SAPC   H7Y 5650   2.192   5.780   7.365 -0.1093  0.3962  2.2749
   67SAPC   C38 5651   2.286   5.626   7.480  1.0408  0.3794 -0.4011
   67SAPC   H8X 5652   2.256   5.686   7.569 -2.7689 -2.4452  0.3569
   67SAPC   H8Y 5653   2.392   5.644   7.454  1.4349  1.8145  2.0094
   67SAPC   C39 5654   2.252   5.480   7.522 -0.3158 -0.2275  0.6302
   67SAPC   H9X 5655   2.284   5.415   7.438 -2.3448 -0.0845 -0.2936
   67SAPC   H9Y 5656   2.144   5.454   7.526 -0.1893 -1.1293 -1.2515
   67SAPC  C310 5657   2.321   5.432   7.660 -0.4717 -0.8660 -0.2084
   67SAPC  H10X 5658   2.286   5.503   7.737 -0.7372 -0.0298 -1.0854
   67SAPC  H10Y 5659   2.430   5.435   7.635  0.1841  1.6006  2.6782
   67SAPC  C311 5660   2.283   5.290   7.707  0.3601  0.1886  0.2281
   67SAPC  H11X 5661   2.280   5.227   7.615  0.8652 -0.1014  0.4124
   67SAPC  H11Y 5662   2.180   5.293   7.749  0.1445 -1.6555 -0.1249
   67SAPC  C312 5663   2.377   5.209   7.800  0.7254 -0.2700 -0.1140
   67SAPC  H12X 5664   2.485   5.204   7.775  0.6251 -1.0333 -0.4038
   67SAPC  H12Y 5665   2.340   5.105   7.789  1.3693 -0.6022  0.7650
   67SAPC  C313 5666   2.361   5.254   7.953 -0.5803 -0.2509 -0.0391
   67SAPC  H13X 5667   2.254   5.247   7.980 -0.1664 -0.0130  1.7083
   67SAPC  H13Y 5668   2.404   5.356   7.951  1.1142 -0.9509 -1.7286
   67SAPC  C314 5669   2.446   5.165   8.048 -0.5656  0.1664 -0.0777
   67SAPC  H14X 5670   2.551   5.186   8.020 -0.1442 -1.3806  0.3169
   67SAPC  H14Y 5671   2.418   5.058   8.039  2.7586 -0.7470 -0.0812
   67SAPC  C315 5672   2.431   5.203   8.194 -0.2783 -0.4157 -0.6116
   67SAPC  H15X 5673   2.326   5.229   8.218 -0.1469  0.2372 -0.7498
   67SAPC  H15Y 5674   2.491   5.295   8.206  1.8874 -2.0405  1.7572
   67SAPC  C316 5675   2.493   5.100   8.279  0.0325 -0.3423 -0.0203
   67SAPC  H16X 5676   2.603   5.094   8.261  0.3727  0.2623  1.8174
   67SAPC  H16Y 5677   2.449   5.000   8.262  0.9924 -1.0759  1.7152
   67SAPC  C317 5678   2.489   5.135   8.430 -0.1637  0.8367  0.0800
   67SAPC  H17X 5679   2.540   5.231   8.454  0.3310  0.3410  1.0421
   67SAPC  H17Y 5680   2.563   5.066   8.477 -0.1049 -0.0014 -1.2271
   67SAPC  C318 5681   2.358   5.121   8.504 -0.2766 -0.7161  0.1460
   67SAPC  H18X 5682   2.309   5.027   8.470 -2.3830 -0.1798  1.5764
   67SAPC  H18Y 5683   2.286   5.200   8.476 -0.3125  0.6894  3.8372
   67SAPC  H18Z 5684   2.369   5.133   8.614 -1.8793  1.8021  0.0654
   68SAPC     N 5685   6.717   4.738   6.389 -0.1500  0.2020 -0.5384
   68SAPC   C12 5686   6.793   4.625   6.457 -0.5550  0.6370  0.5963
   68SAPC  H12A 5687   6.774   4.632   6.563 -0.5520  1.2884  0.5567
   68SAPC  H12B 5688   6.897   4.649   6.442 -0.5448  0.7592  0.8634
   68SAPC   C13 5689   6.572   4.713   6.405  0.6896  0.6128 -0.4830
   68SAPC  H13A 5690   6.516   4.805   6.395  3.3240  2.2807 -0.4642
   68SAPC  H13B 5691   6.532   4.638   6.339 -1.4045 -1.2432  2.7589
   68SAPC  H13C 5692   6.544   4.672   6.501  0.3065 -1.2019 -1.3463
   68SAPC   C14 5693   6.759   4.865   6.464 -0.6614 -0.2190 -0.1290
   68SAPC  H14A 5694   6.699   4.946   6.424 -0.5758  0.1908  0.5651
   68SAPC  H14B 5695   6.744   4.850   6.569 -0.2146  0.1178 -0.0137
   68SAPC  H14C 5696   6.860   4.900   6.449 -0.4523 -1.1650 -0.9828
   68SAPC   C15 5697   6.736   4.752   6.247  0.4225  0.4444  0.2863
   68SAPC  H15A 5698   6.647   4.803   6.213 -2.4134 -4.8870 -0.8525
   68SAPC  H15B 5699   6.825   4.802   6.212 -1.2161  1.9020 -1.8984
   68SAPC  H15C 5700   6.725   4.656   6.198 -2.1043  1.1960 -0.6763
   68SAPC   C11 5701   6.741   4.484   6.411 -0.2106 -0.2004 -0.4154
   68SAPC  H11A 5702   6.631   4.469   6.413 -0.3935  0.8506 -1.9204
   68SAPC  H11B 5703   6.784   4.416   6.488  0.4673 -0.4280 -0.9891
   68SAPC     P 5704   6.947   4.441   6.260 -0.3083 -0.1795 -0.2527
   68SAPC   O13 5705   6.980   4.307   6.198  0.1262  0.0438  0.4338
   68SAPC   O14 5706   6.975   4.558   6.170  0.4510 -0.2025  0.6354
   68SAPC   O12 5707   6.787   4.448   6.281 -0.3360  0.5271  0.2648
   68SAPC   O11 5708   7.019   4.460   6.396  0.0369 -0.3414  0.7300
   68SAPC    C1 5709   7.157   4.487   6.394 -0.4155 -0.3784  0.5512
   68SAPC    HA 5710   7.208   4.397   6.353 -2.7676 -0.7587 -1.6459
   68SAPC    HB 5711   7.191   4.580   6.346  1.6003 -1.0408  0.6467
   68SAPC    C2 5712   7.219   4.505   6.542 -0.1785 -0.5090 -0.0743
   68SAPC    HS 5713   7.328   4.499   6.523 -0.3744  0.1589 -1.4289
   68SAPC   O21 5714   7.175   4.406   6.634 -0.4210 -0.2669  0.4379
   68SAPC   C21 5715   7.160   4.280   6.605  0.0859 -0.7352  0.2643
   68SAPC   O22 5716   7.190   4.231   6.499  0.3425 -0.4485 -0.8378
   68SAPC   C22 5717   7.125   4.202   6.726  0.5586 -0.9966 -0.0312
   68SAPC   H2R 5718   7.057   4.120   6.694 -2.0160  0.3527  1.7776
   68SAPC   H2S 5719   7.218   4.153   6.763  0.0565 -2.6206 -0.8562
   68SAPC    C3 5720   7.187   4.649   6.595 -0.5270  0.3859  0.2839
   68SAPC    HX 5721   7.077   4.666   6.595 -0.3695  1.4948  1.0495
   68SAPC    HY 5722   7.235   4.724   6.527 -2.6732  1.9281  0.4134
   68SAPC   O31 5723   7.259   4.675   6.727  0.4501  0.2909  0.3785
   68SAPC   C31 5724   7.177   4.665   6.833  0.0789 -0.3368  0.1406
   68SAPC   O32 5725   7.059   4.638   6.830 -0.6030  0.0606  0.6125
   68SAPC   C32 5726   7.250   4.678   6.962 -0.7843 -0.7854  0.4725
   68SAPC   H2X 5727   7.320   4.764   6.952 -2.0790  0.0137 -2.0076
   68SAPC   H2Y 5728   7.321   4.592   6.966  1.3284  0.9748  2.0408
   68SAPC   C23 5729   7.061   4.291   6.838 -0.2196  0.0976 -0.2312
   68SAPC   H3R 5730   6.968   4.331   6.794 -0.9017  0.1927  1.2726
   68SAPC   H3S 5731   7.117   4.380   6.873  2.4521 -0.7766 -2.1057
   68SAPC   C24 5732   7.021   4.209   6.964 -0.1258 -0.8485 -0.6910
   68SAPC   H4R 5733   6.962   4.119   6.934 -1.9996 -0.4675  1.7558
   68SAPC   H4S 5734   6.953   4.264   7.032 -0.8012  1.6931 -3.3494
   68SAPC   C25 5735   7.129   4.161   7.046  0.1041  0.0989 -0.0781
   68SAPC   H5R 5736   7.184   4.084   6.989 -0.0800 -0.0269 -0.0833
   68SAPC   C26 5737   7.157   4.195   7.170  0.1134  0.9171  0.4310
   68SAPC   H6R 5738   7.245   4.149   7.217 -1.1042 -1.0834  0.7828
   68SAPC   C27 5739   7.090   4.306   7.251 -0.6120  0.2201 -0.6555
   68SAPC   H7R 5740   7.012   4.359   7.192  0.6676  0.1790 -2.4428
   68SAPC   H7S 5741   7.166   4.380   7.282  0.1587 -0.7143 -0.2791
   68SAPC   C28 5742   7.029   4.242   7.377 -0.0722 -0.8470 -0.0164
   68SAPC   H8R 5743   6.937   4.185   7.360 -0.0638 -0.8143 -0.1704
   68SAPC   C29 5744   7.079   4.250   7.504  0.0238 -0.7360 -0.1748
   68SAPC   H9R 5745   7.026   4.214   7.593  0.0522  3.1472  1.5207
   68SAPC  C210 5746   7.191   4.339   7.544 -0.3021 -0.1709  0.1883
   68SAPC  H10R 5747   7.267   4.351   7.464  0.2987 -1.6114  0.5257
   68SAPC  H10S 5748   7.248   4.284   7.621  0.0257 -0.4947 -0.2841
   68SAPC  C211 5749   7.140   4.477   7.590 -0.0714 -0.4065 -0.1473
   68SAPC  H11R 5750   7.157   4.552   7.511  0.6330 -0.0773  0.3061
   68SAPC  C212 5751   7.085   4.518   7.708 -0.0876 -0.4076 -0.3461
   68SAPC  H12R 5752   7.066   4.625   7.729  0.6947 -0.5674  1.2959
   68SAPC  C213 5753   7.066   4.428   7.830 -0.4253 -0.2658  1.0065
   68SAPC  H13R 5754   7.152   4.463   7.891 -0.9467  0.0348  1.5802
   68SAPC  H13S 5755   7.107   4.331   7.795  0.5164  1.1299 -1.9205
   68SAPC  C214 5756   6.927   4.421   7.889 -0.3395 -0.3274 -0.2062
   68SAPC  H14R 5757   6.845   4.387   7.824 -2.6671  1.3829  1.7606
   68SAPC  C215 5758   6.880   4.476   8.003 -0.5694  0.8892 -0.1299
   68SAPC  H15R 5759   6.783   4.440   8.040  0.2708 -1.2660  0.0778
   68SAPC  C216 5760   6.972   4.552   8.106  0.0492  0.4516 -0.2164
   68SAPC  H16R 5761   6.946   4.660   8.107 -2.6710 -0.1858 -0.0746
   68SAPC  H16S 5762   7.078   4.559   8.072 -0.4675 -2.3319 -2.6354
   68SAPC  C217 5763   6.961   4.479   8.243  0.6282 -0.2190 -0.2605
   68SAPC  H17R 5764   6.948   4.368   8.240 -0.9506 -0.1088  1.6520
   68SAPC  H17S 5765   6.856   4.510   8.264  0.4997  0.8454 -2.3115
   68SAPC  C218 5766   7.057   4.512   8.359  0.3658  1.1742 -0.2410
   68SAPC  H18R 5767   7.013   4.461   8.447 -2.3543  1.2397 -1.5338
   68SAPC  H18S 5768   7.065   4.619   8.390  0.9637  0.6651  1.4271
   68SAPC  C219 5769   7.192   4.442   8.344 -0.8580  0.0273  0.7571
   68SAPC  H19R 5770   7.260   4.494   8.273 -1.8328  0.1755 -0.0752
   68SAPC  H19S 5771   7.184   4.338   8.303 -0.5142  1.0581 -2.0852
   68SAPC  C220 5772   7.260   4.438   8.483 -0.6052 -0.5927 -0.1570
   68SAPC  H20R 5773   7.187   4.397   8.557 -0.2617  2.3563  1.8913
   68SAPC  H20S 5774   7.277   4.538   8.528 -1.9897 -0.4249  0.0262
   68SAPC  H20T 5775   7.360   4.391   8.492 -0.0916  0.4554 -0.3891
   68SAPC   C33 5776   7.170   4.673   7.089  0.2665 -0.4683 -0.3589
   68SAPC   H3X 5777   7.216   4.609   7.167 -1.1786 -1.6138 -0.4321
   68SAPC   H3Y 5778   7.073   4.623   7.072  0.9566 -1.8280 -0.3534
   68SAPC   C34 5779   7.150   4.814   7.151  0.3109 -0.4055 -0.3204
   68SAPC   H4X 5780   7.084   4.878   7.090  0.1787 -0.8751 -0.6729
   68SAPC   H4Y 5781   7.247   4.869   7.153  0.3225 -0.4400  1.2609
   68SAPC   C35 5782   7.100   4.809   7.293 -0.3214 -0.2215  0.0595
   68SAPC   H5X 5783   7.184   4.766   7.352 -1.4998 -0.4454  1.6365
   68SAPC   H5Y 5784   7.018   4.734   7.297 -0.5029 -0.0737 -0.8428
   68SAPC   C36 5785   7.068   4.945   7.358  0.0342  0.1258 -0.7254
   68SAPC   H6X 5786   6.976   4.977   7.305 -0.5980 -0.2269  0.1430
   68SAPC   H6Y 5787   7.153   5.011   7.332  0.0644 -0.4236 -2.0464
   68SAPC   C37 5788   7.035   4.927   7.507  0.2332 -0.0244  0.5321
   68SAPC   H7X 5789   7.134   4.908   7.554 -0.3391  0.4671  1.9468
   68SAPC   H7Y 5790   6.977   4.832   7.508  0.5728 -0.3535 -3.0922
   68SAPC   C38 5791   6.977   5.052   7.573 -1.0598  0.1913 -0.3752
   68SAPC   H8X 5792   6.892   5.098   7.518 -0.3179  0.1021 -1.6252
   68SAPC   H8Y 5793   7.054   5.133   7.572  1.2806 -1.8823  2.9473
   68SAPC   C39 5794   6.923   5.026   7.716  0.6328 -0.9190  0.2341
   68SAPC   H9X 5795   6.827   4.973   7.704  0.7141 -0.8674 -0.6967
   68SAPC   H9Y 5796   6.905   5.128   7.757 -2.8360 -1.5226  0.3139
   68SAPC  C310 5797   7.012   4.935   7.806 -0.6848  0.2061 -0.0583
   68SAPC  H10X 5798   7.109   4.989   7.799 -0.2410 -0.2487  2.1288
   68SAPC  H10Y 5799   7.020   4.829   7.771  1.4738  1.4790 -3.6768
   68SAPC  C311 5800   6.974   4.939   7.957 -1.1269  0.2141 -0.2779
   68SAPC  H11X 5801   6.896   4.862   7.977  1.4852 -2.7686 -1.2767
   68SAPC  H11Y 5802   6.931   5.038   7.985 -2.8298 -0.8838  1.1070
   68SAPC  C312 5803   7.105   4.908   8.034 -0.2754 -0.4228 -0.6454
   68SAPC  H12X 5804   7.177   4.845   7.977  2.3831  0.8699  1.1194
   68SAPC  H12Y 5805   7.080   4.848   8.124  1.2826  2.2533  1.6707
   68SAPC  C313 5806   7.185   5.031   8.093 -0.1584  0.4735 -0.2026
   68SAPC  H13X 5807   7.116   5.087   8.160 -0.8678  0.5292 -0.9836
   68SAPC  H13Y 5808   7.224   5.087   8.005 -0.5765  0.8731 -0.1381
   68SAPC  C314 5809   7.314   4.985   8.166  0.0394  0.4494 -0.1465
   68SAPC  H14X 5810   7.362   5.082   8.190  0.7764  0.3999 -1.3898
   68SAPC  H14Y 5811   7.384   4.925   8.104  1.4850  0.7387  1.1726
   68SAPC  C315 5812   7.302   4.901   8.295 -0.0547 -0.6506 -1.0126
   68SAPC  H15X 5813   7.255   4.803   8.273 -0.0750 -0.9836  0.4303
   68SAPC  H15Y 5814   7.235   4.954   8.366 -0.1848  0.4791 -1.9501
   68SAPC  C316 5815   7.444   4.885   8.353  0.4460  0.4716  0.1695
   68SAPC  H16X 5816   7.497   4.983   8.354  0.3147  0.5422  0.1123
   68SAPC  H16Y 5817   7.494   4.820   8.277 -0.2754  0.6262 -0.4371
   68SAPC  C317 5818   7.451   4.814   8.490 -0.2902 -0.4461  0.1093
   68SAPC  H17X 5819   7.560   4.797   8.498 -0.2814 -0.3671  0.1667
   68SAPC  H17Y 5820   7.399   4.716   8.481  0.8116 -1.1061  0.8823
   68SAPC  C318 5821   7.414   4.901   8.613 -0.0633  0.2434 -0.0124
   68SAPC  H18X 5822   7.428   4.841   8.706  0.0864  1.1792  0.5841
   68SAPC  H18Y 5823   7.307   4.927   8.605  0.2514  1.8088  0.5593
   68SAPC  H18Z 5824   7.470   4.997   8.609  0.4440  0.0948  2.6044
   69SLPC     N 5825   3.691   2.124  11.317  0.4233  0.0110  0.0831
   69SLPC   C13 5826   3.634   2.019  11.230  0.1906 -0.0329  0.2447
   69SLPC  H13A 5827   3.672   1.922  11.254  0.9421 -0.1378 -1.3055
   69SLPC  H13B 5828   3.526   2.025  11.230  0.1261 -0.6879  2.7006
   69SLPC  H13C 5829   3.658   2.047  11.128  1.3703 -1.9038 -0.0194
   69SLPC   C14 5830   3.839   2.106  11.356 -0.1083  0.4099 -0.0166
   69SLPC  H14A 5831   3.880   2.187  11.414  0.4523  0.0624  0.0790
   69SLPC  H14B 5832   3.860   2.017  11.415  2.7858 -0.3171 -2.0462
   69SLPC  H14C 5833   3.906   2.089  11.273  0.7923  0.7216  0.6329
   69SLPC   C15 5834   3.621   2.118  11.451  0.7483 -0.5842  0.1393
   69SLPC  H15A 5835   3.628   2.208  11.511 -0.0111 -0.6738  0.3673
   69SLPC  H15B 5836   3.517   2.096  11.433  0.5849  0.4979 -0.2707
   69SLPC  H15C 5837   3.664   2.045  11.518  0.6594 -1.1387 -0.4132
   69SLPC   C12 5838   3.677   2.265  11.260 -0.2270 -1.3393 -0.1365
   69SLPC  H12A 5839   3.715   2.344  11.324 -3.7155  1.4702 -1.3910
   69SLPC  H12B 5840   3.573   2.292  11.255  0.1811  0.7888  1.9375
   69SLPC   C11 5841   3.738   2.289  11.114 -0.3805 -0.5061 -0.3142
   69SLPC  H11A 5842   3.717   2.395  11.088  0.5093 -0.3642 -0.4501
   69SLPC  H11B 5843   3.688   2.228  11.035  1.3724  0.1983 -2.0081
   69SLPC     P 5844   3.979   2.391  11.127 -0.0839 -0.2515 -0.1412
   69SLPC   O13 5845   3.923   2.505  11.210 -0.0220  0.1855  0.1611
   69SLPC   O14 5846   4.118   2.350  11.143  0.2932 -0.1478 -0.1280
   69SLPC   O12 5847   3.878   2.270  11.118 -0.3272 -0.1675 -0.0449
   69SLPC   O11 5848   3.965   2.447  10.978 -0.0188  0.2346  0.2194
   69SLPC    C1 5849   3.995   2.363  10.870  0.4245 -0.1858  0.6263
   69SLPC    HA 5850   4.015   2.257  10.897 -1.5194 -0.9925 -0.9922
   69SLPC    HB 5851   3.915   2.372  10.794  2.6371  3.3913 -1.4561
   69SLPC    C2 5852   4.125   2.410  10.806  0.4757  0.2280  0.1220
   69SLPC    HS 5853   4.166   2.478  10.883 -3.7901  1.2377  1.6702
   69SLPC   O21 5854   4.094   2.481  10.692  0.0628 -1.1168 -0.6472
   69SLPC   C21 5855   4.184   2.555  10.637 -0.4503  0.3811 -0.0609
   69SLPC   O22 5856   4.303   2.559  10.675  0.6566 -0.4501 -0.1325
   69SLPC   C22 5857   4.124   2.611  10.511 -0.7833  0.1854 -0.3882
   69SLPC   H2R 5858   4.065   2.531  10.461  1.3557  0.6574 -3.8304
   69SLPC   H2S 5859   4.055   2.689  10.550 -0.3543 -0.4181  1.6744
   69SLPC    C3 5860   4.216   2.286  10.768 -0.4372  0.3673 -0.5742
   69SLPC    HX 5861   4.235   2.224  10.858 -1.3263  0.3307 -0.3999
   69SLPC    HY 5862   4.317   2.318  10.735 -1.1369  0.3787 -2.7435
   69SLPC   O31 5863   4.149   2.202  10.664 -0.3169 -0.4181  0.0231
   69SLPC   C31 5864   4.210   2.191  10.549 -0.3374  0.2334 -0.1398
   69SLPC   O32 5865   4.305   2.256  10.507  0.1298 -0.3415 -0.0555
   69SLPC   C32 5866   4.138   2.084  10.470 -0.4761  0.7267  0.1359
   69SLPC   H2X 5867   4.042   2.131  10.440 -1.6590 -0.7055  1.5807
   69SLPC   H2Y 5868   4.098   2.004  10.535  0.0141  0.4227  0.0666
   69SLPC   C23 5869   4.228   2.656  10.410  0.0694 -0.2140  0.1366
   69SLPC   H3R 5870   4.258   2.566  10.351 -2.2803 -1.4760  0.7801
   69SLPC   H3S 5871   4.311   2.717  10.452  0.4475  0.4330 -1.5197
   69SLPC   C24 5872   4.149   2.741  10.306 -0.9000  0.3309  0.4151
   69SLPC   H4R 5873   4.128   2.844  10.342  1.1166  0.5534  1.0132
   69SLPC   H4S 5874   4.053   2.687  10.290  0.4825 -2.2901  0.7030
   69SLPC   C25 5875   4.226   2.751  10.173  0.8859 -0.4536  1.1808
   69SLPC   H5R 5876   4.242   2.644  10.147  1.3394 -0.2266  0.5119
   69SLPC   H5S 5877   4.327   2.796  10.164  0.9827 -1.2711 -3.7335
   69SLPC   C26 5878   4.142   2.826  10.072  0.3796  0.3507  0.4927
   69SLPC   H6R 5879   4.141   2.932  10.105  2.1792  0.7073 -0.5499
   69SLPC   H6S 5880   4.051   2.765  10.055  1.5906 -1.3948  0.1533
   69SLPC   C27 5881   4.200   2.829   9.928 -0.3687 -0.0717 -0.0425
   69SLPC   H7R 5882   4.309   2.844   9.944 -0.5998  1.3100  0.3640
   69SLPC   H7S 5883   4.165   2.918   9.871  0.2786  0.8100  0.9119
   69SLPC   C28 5884   4.183   2.705   9.838 -0.2676 -0.3934  0.3361
   69SLPC   H8R 5885   4.075   2.691   9.815 -0.7275  0.7369  1.7613
   69SLPC   H8S 5886   4.206   2.616   9.901 -0.7231 -0.9109 -0.2164
   69SLPC   C29 5887   4.266   2.707   9.706 -0.1982  0.3432  0.1844
   69SLPC   H9R 5888   4.369   2.666   9.709  0.2269  1.1651 -1.9019
   69SLPC  C210 5889   4.218   2.731   9.585 -1.1079  0.1403  0.1409
   69SLPC  H10R 5890   4.279   2.725   9.494  1.0339 -2.6246  1.6736
   69SLPC  C211 5891   4.068   2.765   9.561 -0.5641 -0.0039  0.1269
   69SLPC  H11R 5892   4.025   2.795   9.659 -2.1876 -1.3020 -0.1543
   69SLPC  H11S 5893   4.016   2.672   9.529 -0.0535  0.3246 -1.7200
   69SLPC  C212 5894   4.053   2.888   9.475 -0.4206  0.4124  0.1817
   69SLPC  H12R 5895   4.067   2.988   9.519 -1.7933 -0.1810  2.0113
   69SLPC  C213 5896   4.029   2.891   9.340 -0.8560 -0.5135  0.4034
   69SLPC  H13R 5897   4.025   2.991   9.293 -0.3933 -0.0228  1.4082
   69SLPC  C214 5898   4.013   2.775   9.246 -0.5795 -0.0018  0.0082
   69SLPC  H14R 5899   4.021   2.680   9.302 -1.0774 -1.0577 -1.6729
   69SLPC  H14S 5900   4.090   2.760   9.167 -0.6241 -1.8293  0.3051
   69SLPC  C215 5901   3.885   2.794   9.161 -0.1135  0.1971  0.5255
   69SLPC  H15R 5902   3.805   2.838   9.224 -0.3451 -1.3821  1.3574
   69SLPC  H15S 5903   3.848   2.698   9.121 -3.3734  2.0301 -1.1073
   69SLPC  C216 5904   3.917   2.880   9.034  0.4488  0.2079  0.0629
   69SLPC  H16R 5905   3.973   2.808   8.971 -1.4434 -2.7086  1.6286
   69SLPC  H16S 5906   3.971   2.975   9.053  0.8250  0.2189 -1.0010
   69SLPC  C217 5907   3.776   2.910   8.976  0.2308  0.9249 -0.5896
   69SLPC  H17R 5908   3.718   2.971   9.049  1.5638  1.3583  0.1265
   69SLPC  H17S 5909   3.731   2.809   8.965  0.2158  1.1438 -2.6071
   69SLPC  C218 5910   3.771   2.977   8.841 -0.3596  0.0342 -0.2253
   69SLPC  H18R 5911   3.815   2.903   8.771  1.9964 -0.0910  1.3150
   69SLPC  H18S 5912   3.831   3.070   8.836 -0.5896  0.2143  0.3630
   69SLPC  H18T 5913   3.666   3.005   8.820 -0.6667 -1.4648 -0.7362
   69SLPC   C33 5914   4.209   2.014  10.346 -0.5223 -0.1074 -0.0240
   69SLPC   H3X 5915   4.173   1.909  10.341 -0.3865 -0.1676  0.2477
   69SLPC   H3Y 5916   4.317   2.006  10.370 -0.7967  0.4584  1.4794
   69SLPC   C34 5917   4.195   2.075  10.203 -0.1162  0.3849 -0.1820
   69SLPC   H4X 5918   4.088   2.092  10.179 -0.0060  0.9657 -0.2549
   69SLPC   H4Y 5919   4.248   2.016  10.125  1.1363  0.7408  0.3990
   69SLPC   C35 5920   4.252   2.215  10.195  0.4725 -0.1267  0.1405
   69SLPC   H5X 5921   4.361   2.229  10.213  0.5261  0.5543 -0.6657
   69SLPC   H5Y 5922   4.210   2.272  10.280 -1.2548 -1.7288  0.3876
   69SLPC   C36 5923   4.227   2.281  10.055  0.6937  0.5497 -0.3709
   69SLPC   H6X 5924   4.244   2.391  10.064 -3.0924  1.3021 -1.4583
   69SLPC   H6Y 5925   4.119   2.261  10.039  0.7629 -1.7747  1.7796
   69SLPC   C37 5926   4.305   2.221   9.931 -0.4114 -0.1120 -0.2318
   69SLPC   H7X 5927   4.305   2.114   9.960 -0.0180 -0.6449 -2.1509
   69SLPC   H7Y 5928   4.407   2.264   9.926  0.1941 -1.5887 -0.7186
   69SLPC   C38 5929   4.241   2.262   9.793  0.0845 -0.2465 -0.2018
   69SLPC   H8X 5930   4.240   2.374   9.790 -0.7023 -0.1812  1.8036
   69SLPC   H8Y 5931   4.133   2.239   9.783  0.0272  0.1239 -0.4934
   69SLPC   C39 5932   4.322   2.219   9.668 -0.0979 -1.0623  0.6009
   69SLPC   H9X 5933   4.337   2.109   9.668 -0.9240 -1.1932 -1.6079
   69SLPC   H9Y 5934   4.424   2.262   9.664 -1.2014  1.5502 -0.4153
   69SLPC  C310 5935   4.248   2.270   9.541  0.3910 -0.1676 -0.2686
   69SLPC  H10X 5936   4.239   2.380   9.555 -0.5947 -0.3074  0.2044
   69SLPC  H10Y 5937   4.149   2.220   9.532  0.5392 -0.4548 -0.3133
   69SLPC  C311 5938   4.339   2.252   9.423  0.3386  0.1405 -0.1025
   69SLPC  H11X 5939   4.387   2.152   9.423  2.7043  1.1441  3.9113
   69SLPC  H11Y 5940   4.429   2.316   9.438  0.2890  0.0663  0.5343
   69SLPC  C312 5941   4.277   2.287   9.282  0.5062  0.0332 -0.1003
   69SLPC  H12X 5942   4.361   2.310   9.213  0.3522  3.8586  0.8668
   69SLPC  H12Y 5943   4.221   2.382   9.292 -0.4614 -0.7610  2.3120
   69SLPC  C313 5944   4.193   2.171   9.228 -0.3326 -0.6020  0.2903
   69SLPC  H13X 5945   4.122   2.127   9.302 -1.3130 -1.3030 -1.0452
   69SLPC  H13Y 5946   4.263   2.092   9.193  0.3913  0.2507 -0.1972
   69SLPC  C314 5947   4.113   2.213   9.105  0.1615  0.4277 -0.6235
   69SLPC  H14X 5948   4.080   2.316   9.130 -2.1779 -0.8566  1.9322
   69SLPC  H14Y 5949   4.024   2.150   9.082  0.9780 -0.6537 -0.8435
   69SLPC  C315 5950   4.199   2.214   8.981 -0.1695  0.3540  0.1149
   69SLPC  H15X 5951   4.240   2.112   8.965  0.6808  0.3673  2.1569
   69SLPC  H15Y 5952   4.283   2.287   8.987 -1.3411  1.6750  0.8212
   69SLPC  C316 5953   4.108   2.240   8.856 -0.2028  0.0307 -0.0477
   69SLPC  H16X 5954   4.065   2.342   8.868 -0.2306 -0.2865  2.8448
   69SLPC  H16Y 5955   4.029   2.162   8.850  0.1836 -0.3766  0.1615
   69SLPC  C317 5956   4.182   2.253   8.722 -0.0909 -0.5515  1.0530
   69SLPC  H17X 5957   4.107   2.277   8.643 -0.3508 -2.4032  0.7185
   69SLPC  H17Y 5958   4.224   2.154   8.696  1.4325 -0.0402  1.5072
   69SLPC  C318 5959   4.302   2.351   8.729  0.4010  0.3855  0.2750
   69SLPC  H18X 5960   4.278   2.436   8.797 -0.7957  0.3139 -0.0443
   69SLPC  H18Y 5961   4.339   2.385   8.630  1.7515  0.1857  0.7012
   69SLPC  H18Z 5962   4.387   2.293   8.770 -0.2679 -0.8431 -0.0407
   70SLPC     N 5963   4.965   0.034  11.416  0.1989  0.5276  0.4076
   70SLPC   C13 5964   4.938   0.100  11.548  0.0012  0.7798 -0.2678
   70SLPC  H13A 5965   4.943   0.205  11.524  2.1876  0.4831 -1.1759
   70SLPC  H13B 5966   4.842   0.071  11.588  0.6772 -0.4581  0.4781
   70SLPC  H13C 5967   5.019   0.079  11.616  0.7131 -1.1884 -1.6799
   70SLPC   C14 5968   4.943  -0.116  11.424 -0.7277 -0.8312 -0.6747
   70SLPC  H14A 5969   4.842  -0.136  11.457 -0.7244 -4.1570 -2.5497
   70SLPC  H14B 5970   4.964  -0.155  11.326  0.4922  0.5525 -0.9864
   70SLPC  H14C 5971   5.017  -0.155  11.493  2.6056  0.6875 -3.2613
   70SLPC   C15 5972   5.105   0.054  11.372  0.3100  0.4908  0.3753
   70SLPC  H15A 5973   5.140   0.156  11.364 -0.2683  0.5188 -2.5466
   70SLPC  H15B 5974   5.181   0.001  11.426 -0.0174  0.0331  0.3897
   70SLPC  H15C 5975   5.118   0.014  11.272  2.0372 -0.5230  1.0014
   70SLPC   C12 5976   4.867   0.089  11.308 -0.9272 -0.5094 -0.1090
   70SLPC  H12A 5977   4.895   0.193  11.312  2.3364 -1.3039 -1.0902
   70SLPC  H12B 5978   4.763   0.083  11.340 -0.8590  1.6082  0.5787
   70SLPC   C11 5979   4.880   0.034  11.160 -0.1145  0.3532 -1.0335
   70SLPC  H11A 5980   4.803   0.072  11.089 -2.8706 -2.2527  0.4749
   70SLPC  H11B 5981   4.856  -0.075  11.162  0.8921  0.1471  0.0070
   70SLPC     P 5982   5.041   0.198  11.027  0.2215  0.1362  0.2082
   70SLPC   O13 5983   4.961   0.319  11.075 -0.0026 -0.0811  0.2260
   70SLPC   O14 5984   5.186   0.222  11.021 -0.0676 -0.2231  0.2393
   70SLPC   O12 5985   5.013   0.060  11.103  0.5644  0.3478 -0.1700
   70SLPC   O11 5986   4.993   0.165  10.888 -0.2301  0.4590  0.9997
   70SLPC    C1 5987   5.017   0.036  10.821  0.4444  0.4436  0.0435
   70SLPC    HA 5988   5.005  -0.050  10.892 -0.9268 -0.4348 -1.2254
   70SLPC    HB 5989   4.933   0.010  10.752 -2.2872 -1.1908  3.7607
   70SLPC    C2 5990   5.155   0.031  10.752  0.4591 -0.4133 -0.7757
   70SLPC    HS 5991   5.229   0.075  10.822  0.0533 -1.5189  0.3731
   70SLPC   O21 5992   5.140   0.110  10.637  1.1639 -0.6550 -0.2760
   70SLPC   C21 5993   5.248   0.154  10.572  0.5309 -0.0437 -0.8135
   70SLPC   O22 5994   5.363   0.130  10.603  0.3101  0.3282  0.1703
   70SLPC   C22 5995   5.215   0.248  10.451  0.7190  0.3706 -0.6347
   70SLPC   H2R 5996   5.116   0.214  10.414 -0.2206 -0.6039  2.5964
   70SLPC   H2S 5997   5.213   0.353  10.486 -0.5988  0.6342 -1.4855
   70SLPC    C3 5998   5.214  -0.111  10.718  0.1170 -0.5487 -0.0909
   70SLPC    HX 5999   5.241  -0.151  10.818  1.8979  1.7888  0.4124
   70SLPC    HY 6000   5.313  -0.118  10.669  0.4414 -0.8833  0.6035
   70SLPC   O31 6001   5.115  -0.198  10.653  0.2833  0.3780  0.1934
   70SLPC   C31 6002   5.103  -0.204  10.523 -0.4644 -0.7381  0.3995
   70SLPC   O32 6003   5.162  -0.134  10.440 -0.2316  0.1452 -0.1580
   70SLPC   C32 6004   5.002  -0.311  10.477 -0.0104 -0.0475 -0.3185
   70SLPC   H2X 6005   4.907  -0.296  10.532 -1.0617 -0.7286 -1.9304
   70SLPC   H2Y 6006   5.049  -0.406  10.511 -1.0025 -1.0691 -1.7425
   70SLPC   C23 6007   5.313   0.228  10.333 -0.9070 -0.0116  1.0899
   70SLPC   H3R 6008   5.327   0.126  10.293  0.9949  0.0684  1.5085
   70SLPC   H3S 6009   5.418   0.236  10.369  0.2855 -1.6801 -1.8899
   70SLPC   C24 6010   5.280   0.323  10.213  0.0518  0.2344 -0.5734
   70SLPC   H4R 6011   5.375   0.350  10.161  0.7513  2.3428  1.7259
   70SLPC   H4S 6012   5.246   0.420  10.254  0.2742 -0.3710  1.1092
   70SLPC   C25 6013   5.180   0.254  10.120  0.0584  0.2465 -0.1903
   70SLPC   H5R 6014   5.075   0.249  10.156  0.2095  0.2631  0.2515
   70SLPC   H5S 6015   5.217   0.151  10.104  0.8978  0.8148 -2.0954
   70SLPC   C26 6016   5.181   0.318   9.976 -0.0099  0.1990 -0.0570
   70SLPC   H6R 6017   5.284   0.325   9.935  1.7438 -2.6467  3.5481
   70SLPC   H6S 6018   5.152   0.425   9.985  1.8274  0.6306  1.1337
   70SLPC   C27 6019   5.085   0.243   9.885 -0.1695  0.1878 -0.1949
   70SLPC   H7R 6020   4.991   0.216   9.939 -1.1192  2.4559 -0.6303
   70SLPC   H7S 6021   5.127   0.143   9.867 -2.4540 -0.6709 -0.9751
   70SLPC   C28 6022   5.058   0.307   9.750  0.5969 -0.3457  1.1036
   70SLPC   H8R 6023   5.020   0.410   9.765  0.1190 -0.4977  0.9472
   70SLPC   H8S 6024   4.969   0.251   9.713 -0.4498  1.9579  0.0760
   70SLPC   C29 6025   5.183   0.319   9.664  0.6084  1.0295  0.0620
   70SLPC   H9R 6026   5.281   0.308   9.713 -0.8042 -3.3932  2.0765
   70SLPC  C210 6027   5.184   0.351   9.527 -1.1039  0.0959 -0.7740
   70SLPC  H10R 6028   5.281   0.347   9.476 -1.2924  2.9462 -1.3964
   70SLPC  C211 6029   5.066   0.360   9.442 -0.6217 -0.0691  0.7652
   70SLPC  H11R 6030   5.088   0.405   9.343 -1.2351  0.2920  0.7919
   70SLPC  H11S 6031   5.004   0.443   9.482  0.8713  0.4435  2.0719
   70SLPC  C212 6032   4.984   0.233   9.427 -0.0322  0.4262 -0.2538
   70SLPC  H12R 6033   4.901   0.216   9.497 -2.0837  2.8682 -2.0392
   70SLPC  C213 6034   5.012   0.139   9.330  0.0250  0.2955  0.5479
   70SLPC  H13R 6035   4.960   0.044   9.312  1.5098  0.1744 -3.6666
   70SLPC  C214 6036   5.125   0.145   9.224 -0.7261  0.2754 -0.1457
   70SLPC  H14R 6037   5.205   0.073   9.253 -1.4311  0.0098  1.2072
   70SLPC  H14S 6038   5.183   0.238   9.208  3.9351 -2.7163 -1.7399
   70SLPC  C215 6039   5.063   0.111   9.090  0.4693  0.4722 -0.4521
   70SLPC  H15R 6040   4.991   0.189   9.058 -1.8270 -1.0821  0.7304
   70SLPC  H15S 6041   5.003   0.018   9.104 -0.5197  0.9139 -1.6577
   70SLPC  C216 6042   5.168   0.100   8.982  0.8301 -0.0642  0.3982
   70SLPC  H16R 6043   5.239   0.015   8.997 -0.7631 -1.7153 -1.1377
   70SLPC  H16S 6044   5.228   0.193   8.985  0.3134  0.2280  2.4521
   70SLPC  C217 6045   5.113   0.078   8.840 -0.1365  0.7083 -0.8172
   70SLPC  H17R 6046   5.194   0.073   8.764  0.8956  4.2990 -0.0123
   70SLPC  H17S 6047   5.063   0.174   8.817 -1.7808  0.4595  1.6349
   70SLPC  C218 6048   5.008  -0.036   8.818 -0.5183 -0.1605 -0.0400
   70SLPC  H18R 6049   4.914  -0.005   8.868 -0.6726  2.1745 -1.6862
   70SLPC  H18S 6050   5.049  -0.137   8.838  2.0857  1.0922  1.2029
   70SLPC  H18T 6051   4.997  -0.036   8.707 -2.9309  0.5846  0.1733
   70SLPC   C33 6052   4.990  -0.317  10.324 -0.4150 -0.3553  0.2401
   70SLPC   H3X 6053   5.084  -0.364  10.289  1.4043  2.6196  0.9419
   70SLPC   H3Y 6054   4.973  -0.212  10.290  0.4970 -0.4966 -0.6637
   70SLPC   C34 6055   4.873  -0.393  10.258  0.7448 -0.4661  0.7107
   70SLPC   H4X 6056   4.866  -0.492  10.310 -1.1106 -0.8135 -0.1674
   70SLPC   H4Y 6057   4.887  -0.421  10.151 -0.1151  1.9934 -0.0633
   70SLPC   C35 6058   4.727  -0.341  10.279 -0.2563 -0.7565  0.8706
   70SLPC   H5X 6059   4.709  -0.335  10.388  1.0330 -1.0274  1.1088
   70SLPC   H5Y 6060   4.656  -0.420  10.246 -0.5658  0.3153 -1.1567
   70SLPC   C36 6061   4.700  -0.212  10.204  0.3466 -0.4679  0.1668
   70SLPC   H6X 6062   4.767  -0.137  10.250  0.0260  0.9264 -1.6059
   70SLPC   H6Y 6063   4.596  -0.177  10.223 -0.1417 -2.5590  1.6343
   70SLPC   C37 6064   4.734  -0.212  10.056 -0.1413  0.1833 -0.1659
   70SLPC   H7X 6065   4.666  -0.282  10.004 -0.4595 -0.2677  0.8564
   70SLPC   H7Y 6066   4.831  -0.259  10.025 -1.6591 -3.3564  0.2165
   70SLPC   C38 6067   4.728  -0.067   9.997  1.0877  0.8953  0.0049
   70SLPC   H8X 6068   4.797  -0.000  10.052  2.2481  0.3272 -0.7393
   70SLPC   H8Y 6069   4.629  -0.017   9.991  1.4332  1.4642 -1.1339
   70SLPC   C39 6070   4.784  -0.072   9.852  0.1541 -0.3367 -0.6299
   70SLPC   H9X 6071   4.886  -0.116   9.848  0.3308 -0.1978  1.7159
   70SLPC   H9Y 6072   4.793   0.037   9.831 -0.5654 -0.4219 -1.4070
   70SLPC  C310 6073   4.700  -0.148   9.758  0.3406  0.0548  0.7465
   70SLPC  H10X 6074   4.660  -0.242   9.801 -0.6080  0.1205  0.0328
   70SLPC  H10Y 6075   4.754  -0.174   9.665  0.6085  0.0479  0.9030
   70SLPC  C311 6076   4.572  -0.061   9.718 -0.1233  0.6881 -0.0044
   70SLPC  H11X 6077   4.602   0.031   9.663  1.6734 -0.5565 -1.1458
   70SLPC  H11Y 6078   4.519  -0.034   9.812  1.3958  0.0216  1.0695
   70SLPC  C312 6079   4.474  -0.151   9.653 -0.1519 -0.4759  0.0519
   70SLPC  H12X 6080   4.374  -0.102   9.657 -1.4342 -3.1099  1.4624
   70SLPC  H12Y 6081   4.450  -0.241   9.713 -0.7503 -0.1738  0.2788
   70SLPC  C313 6082   4.517  -0.164   9.504  0.7778 -0.1710 -0.5106
   70SLPC  H13X 6083   4.625  -0.190   9.503  0.5935 -1.0042  0.2204
   70SLPC  H13Y 6084   4.501  -0.066   9.456  0.8747  0.5417  0.8833
   70SLPC  C314 6085   4.430  -0.268   9.420  0.5351 -0.1612  0.1039
   70SLPC  H14X 6086   4.333  -0.288   9.472  0.7792  2.3254  1.5980
   70SLPC  H14Y 6087   4.467  -0.372   9.430 -0.7231 -0.6934 -0.6216
   70SLPC  C315 6088   4.420  -0.222   9.278  0.0513  0.0910  0.4865
   70SLPC  H15X 6089   4.516  -0.182   9.238  0.4901 -0.1199  1.3212
   70SLPC  H15Y 6090   4.365  -0.125   9.284  0.5508  0.4491 -0.5227
   70SLPC  C316 6091   4.352  -0.313   9.174  0.5795 -0.1540  0.1139
   70SLPC  H16X 6092   4.422  -0.399   9.175 -0.2362 -0.8530 -1.2857
   70SLPC  H16Y 6093   4.331  -0.264   9.077  0.9645  0.1835  0.1985
   70SLPC  C317 6094   4.224  -0.391   9.221  0.2496  0.3243  0.2086
   70SLPC  H17X 6095   4.224  -0.427   9.326 -0.7616  0.0561  0.1283
   70SLPC  H17Y 6096   4.208  -0.484   9.163  1.3086 -0.1769  0.7043
   70SLPC  C318 6097   4.095  -0.301   9.219 -0.6592 -0.0863 -0.3602
   70SLPC  H18X 6098   4.109  -0.206   9.275 -1.2893  0.5935 -1.3108
   70SLPC  H18Y 6099   3.997  -0.346   9.246 -0.2826 -0.1364  0.9427
   70SLPC  H18Z 6100   4.078  -0.266   9.114 -2.2287  0.5459  0.0882
   71SLPC     N 6101   4.704   5.468  10.946  0.0530  0.5494  0.0305
   71SLPC   C13 6102   4.752   5.331  10.971  0.6646  0.3217  0.0188
   71SLPC  H13A 6103   4.672   5.264  10.946  0.8384 -0.0253  0.3940
   71SLPC  H13B 6104   4.830   5.297  10.904 -1.3005 -2.6603 -0.8487
   71SLPC  H13C 6105   4.779   5.316  11.075  1.5687  0.3022 -0.2168
   71SLPC   C14 6106   4.833   5.545  10.927  0.6361  1.0367 -0.1244
   71SLPC  H14A 6107   4.814   5.652  10.931 -1.5279  0.7986 -2.2312
   71SLPC  H14B 6108   4.909   5.515  10.996  0.7181  2.4942  0.4367
   71SLPC  H14C 6109   4.879   5.523  10.832 -0.1916  1.4193 -0.6268
   71SLPC   C15 6110   4.624   5.517  11.059 -0.6111 -0.1502 -0.0310
   71SLPC  H15A 6111   4.672   5.496  11.153 -0.1321 -0.9548 -0.4533
   71SLPC  H15B 6112   4.624   5.625  11.054 -0.4999  0.0123  2.9795
   71SLPC  H15C 6113   4.524   5.479  11.063 -0.9396  0.7786  0.7058
   71SLPC   C12 6114   4.619   5.468  10.819 -0.2980 -0.3796 -0.0310
   71SLPC  H12A 6115   4.686   5.445  10.738 -0.8020 -2.1493  0.0441
   71SLPC  H12B 6116   4.591   5.571  10.805  0.6877  0.2162  2.0676
   71SLPC   C11 6117   4.498   5.378  10.825  0.2397  0.1174 -0.1364
   71SLPC  H11A 6118   4.441   5.403  10.733  0.1822 -1.4739 -0.5390
   71SLPC  H11B 6119   4.443   5.408  10.917  0.2422 -2.6406  0.7972
   71SLPC     P 6120   4.444   5.117  10.784 -0.6217 -0.1362  0.2351
   71SLPC   O13 6121   4.524   4.992  10.757  0.1065  0.1372  0.4270
   71SLPC   O14 6122   4.339   5.107  10.884  0.0413  0.0139  0.2182
   71SLPC   O12 6123   4.534   5.239  10.819 -0.4917 -0.2580  0.5411
   71SLPC   O11 6124   4.375   5.158  10.649 -0.0286  0.1999  0.3247
   71SLPC    C1 6125   4.445   5.194  10.532  0.3408  0.2258 -0.8946
   71SLPC    HA 6126   4.470   5.301  10.543 -1.1003  0.6071 -1.3089
   71SLPC    HB 6127   4.537   5.134  10.516 -0.0527 -1.1733  1.8218
   71SLPC    C2 6128   4.354   5.177  10.407 -0.2132  0.0531  0.4438
   71SLPC    HS 6129   4.276   5.249  10.438  0.1901  0.1037  1.3443
   71SLPC   O21 6130   4.307   5.041  10.392  0.7442 -0.2822 -0.1305
   71SLPC   C21 6131   4.196   5.039  10.314  0.0863 -0.0421 -0.5825
   71SLPC   O22 6132   4.136   5.137  10.278  0.5212 -0.7797  0.6333
   71SLPC   C22 6133   4.164   4.902  10.277 -0.1116 -0.2458  0.4435
   71SLPC   H2R 6134   4.231   4.836  10.336 -0.9970 -1.6942 -0.1403
   71SLPC   H2S 6135   4.059   4.880  10.303  0.1045  0.6480  2.1021
   71SLPC    C3 6136   4.420   5.237  10.270  0.1262 -0.2756  0.4567
   71SLPC    HX 6137   4.433   5.340  10.312 -1.8559 -0.2682  1.0989
   71SLPC    HY 6138   4.351   5.240  10.183  0.4860  2.1400  0.2150
   71SLPC   O31 6139   4.544   5.178  10.233  0.5508 -0.2296 -0.5922
   71SLPC   C31 6140   4.621   5.270  10.168 -0.4366 -0.2954 -0.1679
   71SLPC   O32 6141   4.576   5.380  10.133  0.0403  0.4910  0.0395
   71SLPC   C32 6142   4.756   5.212  10.137 -0.5171 -0.4635 -0.2104
   71SLPC   H2X 6143   4.755   5.101  10.143 -0.5627 -0.4558 -0.0799
   71SLPC   H2Y 6144   4.829   5.248  10.212 -0.1432  0.2141 -0.8886
   71SLPC   C23 6145   4.171   4.885  10.124  0.2971  0.0025 -0.5744
   71SLPC   H3R 6146   4.096   4.940  10.063  1.4164  0.8047 -1.2427
   71SLPC   H3S 6147   4.144   4.781  10.098 -2.0547  0.5624 -0.5137
   71SLPC   C24 6148   4.312   4.906  10.069  0.2745 -1.2330  0.0517
   71SLPC   H4R 6149   4.357   4.821  10.014  0.4104 -0.7466 -0.6052
   71SLPC   H4S 6150   4.379   4.930  10.155  2.4243 -2.7826 -1.1335
   71SLPC   C25 6151   4.313   5.024   9.974  0.3706 -0.1446 -0.0704
   71SLPC   H5R 6152   4.416   5.064   9.983  0.3391 -0.4345  1.8862
   71SLPC   H5S 6153   4.239   5.102  10.001  0.5932 -0.0687  0.3117
   71SLPC   C26 6154   4.298   4.980   9.827 -0.9915  0.7126 -0.8391
   71SLPC   H6R 6155   4.201   4.928   9.809 -1.4622  0.6888  1.6331
   71SLPC   H6S 6156   4.374   4.908   9.789 -0.6041  0.3691  0.5619
   71SLPC   C27 6157   4.304   5.106   9.733  0.1348 -0.4289 -0.4744
   71SLPC   H7R 6158   4.398   5.164   9.738 -0.6969  0.9065 -0.1670
   71SLPC   H7S 6159   4.221   5.168   9.775  1.1944  1.5765 -1.2906
   71SLPC   C28 6160   4.270   5.057   9.592 -0.2624 -0.5054 -1.1004
   71SLPC   H8R 6161   4.182   4.988   9.598  0.5530 -1.5979 -1.4594
   71SLPC   H8S 6162   4.357   4.996   9.559 -0.8834 -0.8556 -2.1208
   71SLPC   C29 6163   4.266   5.164   9.487 -0.2583 -0.4949  0.4553
   71SLPC   H9R 6164   4.337   5.246   9.504  2.8022 -3.1903  1.1354
   71SLPC  C210 6165   4.198   5.167   9.373  0.0272 -0.3515 -0.0460
   71SLPC  H10R 6166   4.218   5.245   9.298 -0.4433 -0.6941 -0.5383
   71SLPC  C211 6167   4.109   5.061   9.314  0.4710 -0.2533 -0.4108
   71SLPC  H11R 6168   4.015   5.116   9.291  1.2231 -0.1673 -3.5202
   71SLPC  H11S 6169   4.079   4.985   9.389  0.9044  0.7900  0.8346
   71SLPC  C212 6170   4.173   4.998   9.195 -0.2276 -0.5187  0.1396
   71SLPC  H12R 6171   4.268   4.947   9.214  0.3241  1.0621  1.6736
   71SLPC  C213 6172   4.131   4.994   9.068 -1.0877  0.3229 -0.3269
   71SLPC  H13R 6173   4.195   4.943   8.994 -0.4035 -0.8477  1.0536
   71SLPC  C214 6174   4.007   5.054   9.009  0.3383 -0.5738  0.4595
   71SLPC  H14R 6175   3.953   5.112   9.086  1.2599  1.8766 -0.6720
   71SLPC  H14S 6176   3.944   4.972   8.969  1.2443 -2.1953  2.2758
   71SLPC  C215 6177   4.014   5.154   8.889 -0.1953  0.3408 -0.3366
   71SLPC  H15R 6178   3.910   5.178   8.857 -1.3792 -2.7469  1.0725
   71SLPC  H15S 6179   4.055   5.102   8.800  0.5847 -0.9800  0.7854
   71SLPC  C216 6180   4.096   5.282   8.913 -0.7262 -0.1475  0.0451
   71SLPC  H16R 6181   4.203   5.253   8.914 -0.9660 -1.0386  0.3079
   71SLPC  H16S 6182   4.076   5.323   9.014  1.9134 -0.3198  0.6779
   71SLPC  C217 6183   4.071   5.382   8.801 -0.6880  0.0397  0.3867
   71SLPC  H17R 6184   4.071   5.331   8.702 -1.0988  1.4332 -0.3433
   71SLPC  H17S 6185   4.146   5.464   8.797  0.1668 -0.8319 -4.1796
   71SLPC  C218 6186   3.932   5.441   8.806 -0.5826  1.0324  0.4683
   71SLPC  H18R 6187   3.921   5.505   8.896 -0.5502  0.6588  0.7366
   71SLPC  H18S 6188   3.849   5.367   8.814  1.7579 -1.5593  1.3341
   71SLPC  H18T 6189   3.916   5.504   8.716  2.3355 -0.1050 -0.9049
   71SLPC   C33 6190   4.802   5.258   9.997 -0.1655  0.2029  0.2446
   71SLPC   H3X 6191   4.906   5.226   9.973  0.2757  1.6237  0.2201
   71SLPC   H3Y 6192   4.784   5.366   9.977 -1.4591 -0.4895 -2.6139
   71SLPC   C34 6193   4.721   5.180   9.882 -0.5103  0.8209  0.4008
   71SLPC   H4X 6194   4.622   5.225   9.906 -0.0169  0.8684  2.4973
   71SLPC   H4Y 6195   4.724   5.073   9.914 -1.2425  0.9207  0.8179
   71SLPC   C35 6196   4.787   5.195   9.751 -1.2588 -0.5083  0.0785
   71SLPC   H5X 6197   4.879   5.133   9.751 -0.6575  0.3600  2.3161
   71SLPC   H5Y 6198   4.809   5.304   9.742  0.8269 -0.9148  0.0443
   71SLPC   C36 6199   4.693   5.153   9.632 -0.1090  0.0920 -0.0548
   71SLPC   H6X 6200   4.587   5.174   9.655 -0.1018  0.8371 -0.6654
   71SLPC   H6Y 6201   4.712   5.045   9.615 -0.3455 -0.0816  0.7707
   71SLPC   C37 6202   4.720   5.226   9.502 -0.3470  0.5529  0.4485
   71SLPC   H7X 6203   4.829   5.212   9.485  0.1497  2.6435  1.6193
   71SLPC   H7Y 6204   4.705   5.337   9.504  1.1711  0.7709  0.5347
   71SLPC   C38 6205   4.645   5.159   9.388  0.0939 -0.5487  0.4353
   71SLPC   H8X 6206   4.548   5.212   9.380  1.4690  1.7348 -1.5127
   71SLPC   H8Y 6207   4.639   5.048   9.400 -1.7813 -0.7189 -1.6162
   71SLPC   C39 6208   4.714   5.187   9.253 -0.0588  0.4267 -0.3450
   71SLPC   H9X 6209   4.820   5.155   9.240 -0.2966 -0.7164  0.4434
   71SLPC   H9Y 6210   4.714   5.296   9.229  1.8547  0.4934 -0.0902
   71SLPC  C310 6211   4.630   5.111   9.143  0.1884  1.0820  0.1036
   71SLPC  H10X 6212   4.525   5.139   9.164 -0.8140 -0.6134 -2.3826
   71SLPC  H10Y 6213   4.643   5.002   9.159 -0.8827  1.0664  0.8893
   71SLPC  C311 6214   4.655   5.186   9.006  0.4108 -0.0701 -1.0764
   71SLPC  H11X 6215   4.766   5.198   9.001  0.4030 -0.5990 -3.2634
   71SLPC  H11Y 6216   4.607   5.284   9.022 -0.0326 -0.5571  0.6424
   71SLPC  C312 6217   4.596   5.118   8.882 -0.0530  0.4226 -0.1167
   71SLPC  H12X 6218   4.488   5.103   8.902 -0.4878  0.4255 -2.3782
   71SLPC  H12Y 6219   4.648   5.020   8.867  0.6101  0.3336  2.4847
   71SLPC  C313 6220   4.618   5.202   8.762 -0.3588 -1.1161 -0.5944
   71SLPC  H13X 6221   4.726   5.227   8.758 -0.2549 -1.2603  0.8215
   71SLPC  H13Y 6222   4.568   5.300   8.775 -0.7531 -1.2667 -0.9931
   71SLPC  C314 6223   4.568   5.147   8.628 -0.6608 -0.7746 -0.0904
   71SLPC  H14X 6224   4.613   5.046   8.620 -0.5411 -0.5250 -3.3517
   71SLPC  H14Y 6225   4.616   5.205   8.546 -0.5145  1.5205  1.5593
   71SLPC  C315 6226   4.416   5.157   8.611  0.0548 -0.2770 -0.1574
   71SLPC  H15X 6227   4.388   5.264   8.623  0.5226 -0.2838  0.9794
   71SLPC  H15Y 6228   4.358   5.093   8.681 -0.6564 -1.2893 -1.6311
   71SLPC  C316 6229   4.369   5.127   8.463 -0.7379 -0.5299 -0.1101
   71SLPC  H16X 6230   4.371   5.018   8.439  1.5686 -0.3251 -0.9379
   71SLPC  H16Y 6231   4.434   5.184   8.393  0.6917 -1.6434  0.2938
   71SLPC  C317 6232   4.229   5.174   8.421 -0.1283  0.1785  0.4434
   71SLPC  H17X 6233   4.202   5.275   8.458 -1.1038  1.0123 -2.4195
   71SLPC  H17Y 6234   4.156   5.110   8.475  0.8464  1.4966  3.4411
   71SLPC  C318 6235   4.204   5.156   8.273  0.1261  0.1454  0.4875
   71SLPC  H18X 6236   4.109   5.193   8.229  0.9217 -1.0163 -2.3484
   71SLPC  H18Y 6237   4.227   5.051   8.244  2.9261  1.4537 -2.1835
   71SLPC  H18Z 6238   4.279   5.210   8.213  2.3473 -1.5122  1.6990
   72SLPC     N 6239   6.377   3.945  10.690  0.0187 -0.5748  0.5706
   72SLPC   C13 6240   6.470   3.867  10.780 -0.3390 -0.0522  0.1541
   72SLPC  H13A 6241   6.498   3.776  10.727 -1.2819 -0.5684  0.5245
   72SLPC  H13B 6242   6.561   3.920  10.803 -0.0339  0.2647 -1.7416
   72SLPC  H13C 6243   6.408   3.832  10.861  1.9476 -0.7696  1.6606
   72SLPC   C14 6244   6.463   3.971  10.565 -0.6657 -0.1780  0.1309
   72SLPC  H14A 6245   6.561   4.012  10.587 -0.6830  0.0893 -0.2865
   72SLPC  H14B 6246   6.465   3.881  10.506  1.0635 -1.9540  2.7492
   72SLPC  H14C 6247   6.424   4.060  10.518 -0.3815 -0.0411  0.1481
   72SLPC   C15 6248   6.344   4.076  10.745 -0.3410  0.0178 -0.6400
   72SLPC  H15A 6249   6.432   4.121  10.789 -0.7126 -1.0372  1.2549
   72SLPC  H15B 6250   6.293   4.142  10.676  0.6464  0.5058 -0.9071
   72SLPC  H15C 6251   6.271   4.075  10.824  0.5603  1.2460  0.2277
   72SLPC   C12 6252   6.250   3.877  10.644  0.3641  0.4154 -0.2446
   72SLPC  H12A 6253   6.274   3.779  10.606 -0.5952 -0.8420  2.2529
   72SLPC  H12B 6254   6.200   3.941  10.574  1.0592 -0.0136 -1.1334
   72SLPC   C11 6255   6.148   3.837  10.763  0.1245 -0.3963  0.2368
   72SLPC  H11A 6256   6.048   3.810  10.723  0.2676 -1.5440  0.6399
   72SLPC  H11B 6257   6.132   3.920  10.836 -1.0584  0.6056 -1.1397
   72SLPC     P 6258   6.168   3.580  10.787 -0.3161 -0.2836  0.0007
   72SLPC   O13 6259   6.291   3.504  10.764 -0.5019  0.3734 -0.0357
   72SLPC   O14 6260   6.066   3.519  10.873  0.9776  0.3966 -0.0868
   72SLPC   O12 6261   6.198   3.724  10.836 -0.3312  0.1383 -0.5478
   72SLPC   O11 6262   6.101   3.606  10.651  0.1362 -1.1891  0.0103
   72SLPC    C1 6263   5.973   3.578  10.596 -0.3196  0.6619  0.4814
   72SLPC    HA 6264   5.898   3.563  10.676 -0.2412  0.6730  0.5576
   72SLPC    HB 6265   5.942   3.664  10.533 -1.4253 -1.0990 -1.4118
   72SLPC    C2 6266   5.969   3.450  10.509 -0.0490  0.2971 -0.2495
   72SLPC    HS 6267   5.968   3.365  10.580 -1.5041  1.9317  1.7572
   72SLPC   O21 6268   6.087   3.448  10.432 -0.3483  0.5582  0.0499
   72SLPC   C21 6269   6.105   3.325  10.375  0.0839  0.0568 -0.1134
   72SLPC   O22 6270   6.041   3.226  10.397 -0.1021  1.0090 -0.6331
   72SLPC   C22 6271   6.221   3.339  10.278 -0.1594 -0.3153  0.1434
   72SLPC   H2R 6272   6.179   3.364  10.178  2.5940  1.7080 -0.5712
   72SLPC   H2S 6273   6.286   3.422  10.315 -1.8660  0.6786  0.9695
   72SLPC    C3 6274   5.841   3.454  10.417  0.3143 -0.3503  0.3504
   72SLPC    HX 6275   5.764   3.489  10.489  0.8784 -0.2904  0.9276
   72SLPC    HY 6276   5.813   3.353  10.379 -3.6527  0.4217  1.0434
   72SLPC   O31 6277   5.836   3.558  10.317 -0.7394  0.2143  0.3603
   72SLPC   C31 6278   5.851   3.524  10.195 -0.2198 -0.2026 -0.2979
   72SLPC   O32 6279   5.873   3.406  10.155  0.0732  0.1558 -0.2655
   72SLPC   C32 6280   5.847   3.657  10.116 -0.0015  0.1490  0.1287
   72SLPC   H2X 6281   5.931   3.724  10.145  0.3835 -0.2362 -0.0970
   72SLPC   H2Y 6282   5.756   3.714  10.143  1.0973  2.6264 -1.2075
   72SLPC   C23 6283   6.316   3.214  10.277  0.0921  0.0760 -0.8953
   72SLPC   H3R 6284   6.255   3.122  10.286  0.3116  0.1337  1.6203
   72SLPC   H3S 6285   6.373   3.240  10.368 -1.5466  0.7361 -0.0323
   72SLPC   C24 6286   6.410   3.193  10.159  0.0095 -0.1301 -0.4826
   72SLPC   H4R 6287   6.465   3.097  10.173 -1.1372 -1.1276 -2.5884
   72SLPC   H4S 6288   6.480   3.279  10.170  1.0308 -1.0380  0.2599
   72SLPC   C25 6289   6.350   3.194  10.021 -0.9612 -0.3127 -0.0687
   72SLPC   H5R 6290   6.273   3.273  10.010  2.1914  2.6349 -1.8998
   72SLPC   H5S 6291   6.311   3.092  10.001  1.8551 -1.9203  2.1257
   72SLPC   C26 6292   6.460   3.218   9.918 -0.1939 -0.4509  0.3002
   72SLPC   H6R 6293   6.538   3.139   9.924 -1.4335 -1.8771 -1.6742
   72SLPC   H6S 6294   6.518   3.307   9.948 -0.2366 -0.5489  0.6765
   72SLPC   C27 6295   6.412   3.220   9.775  0.1455 -0.7618 -0.5622
   72SLPC   H7R 6296   6.512   3.233   9.728 -0.1797 -0.0560 -1.0631
   72SLPC   H7S 6297   6.354   3.314   9.767  0.3212 -0.4600  1.3969
   72SLPC   C28 6298   6.324   3.112   9.720 -0.0822  0.3511  0.3543
   72SLPC   H8R 6299   6.226   3.152   9.754 -0.4532 -0.6457  0.4708
   72SLPC   H8S 6300   6.344   3.016   9.772 -0.6319  0.4522  0.7587
   72SLPC   C29 6301   6.339   3.085   9.574 -0.2106  0.7990 -0.5427
   72SLPC   H9R 6302   6.425   3.018   9.559 -1.5476 -0.3319 -3.4645
   72SLPC  C210 6303   6.257   3.127   9.472  0.0398  0.3271  0.1597
   72SLPC  H10R 6304   6.294   3.093   9.374  2.3689  1.0862  0.7293
   72SLPC  C211 6305   6.142   3.216   9.478  0.1284 -0.4210 -0.5995
   72SLPC  H11R 6306   6.144   3.286   9.392 -1.9870  1.3719  0.7455
   72SLPC  H11S 6307   6.167   3.293   9.555 -1.4110 -0.0706 -0.4357
   72SLPC  C212 6308   6.005   3.162   9.495  0.0367  0.0841 -0.2256
   72SLPC  H12R 6309   5.963   3.177   9.596  1.5012  1.2735  0.2403
   72SLPC  C213 6310   5.929   3.098   9.404  0.1860  0.0315  0.6931
   72SLPC  H13R 6311   5.826   3.077   9.437 -0.1808 -1.3946 -1.2500
   72SLPC  C214 6312   5.961   3.081   9.253 -0.3299  0.0987  0.0360
   72SLPC  H14R 6313   5.979   2.977   9.216 -1.3623 -0.5736  1.3881
   72SLPC  H14S 6314   6.052   3.140   9.228  0.4334 -0.3389  1.7161
   72SLPC  C215 6315   5.847   3.145   9.167  0.3024  0.4229 -1.1930
   72SLPC  H15R 6316   5.751   3.104   9.204  1.0843  1.3368  1.9760
   72SLPC  H15S 6317   5.864   3.113   9.062  0.1097  0.3009 -1.1880
   72SLPC  C216 6318   5.834   3.298   9.175 -0.0304  0.5616 -0.2273
   72SLPC  H16R 6319   5.936   3.325   9.138 -0.2271  1.8550  0.1297
   72SLPC  H16S 6320   5.822   3.334   9.279  1.8981  0.8371 -0.0807
   72SLPC  C217 6321   5.723   3.354   9.076  0.2245  0.1902  0.0668
   72SLPC  H17R 6322   5.739   3.464   9.067  1.6612  0.0023  0.2931
   72SLPC  H17S 6323   5.620   3.329   9.110  0.0006  0.4992 -0.3744
   72SLPC  C218 6324   5.734   3.316   8.927 -0.1401 -0.7435 -0.0016
   72SLPC  H18R 6325   5.839   3.337   8.895 -0.3402  0.0146 -0.1596
   72SLPC  H18S 6326   5.655   3.375   8.877 -0.4638 -1.5204 -0.4128
   72SLPC  H18T 6327   5.715   3.207   8.916 -1.2957 -0.6622  1.2334
   72SLPC   C33 6328   5.865   3.642   9.962  0.3308 -1.3298  1.0480
   72SLPC   H3X 6329   5.780   3.581   9.924  0.7129 -1.7373  0.8434
   72SLPC   H3Y 6330   5.961   3.596   9.932  0.7693  0.4746 -0.3469
   72SLPC   C34 6331   5.863   3.780   9.900 -0.2374 -0.4882  0.5148
   72SLPC   H4X 6332   5.965   3.817   9.925 -1.7945  3.9379  0.6876
   72SLPC   H4Y 6333   5.795   3.846   9.958  0.5832  1.5256 -0.7848
   72SLPC   C35 6334   5.825   3.777   9.752 -0.0728  0.3940 -0.8155
   72SLPC   H5X 6335   5.718   3.752   9.736  0.3320 -0.0298 -3.0351
   72SLPC   H5Y 6336   5.883   3.693   9.709  0.0286 -0.6655  1.3288
   72SLPC   C36 6337   5.860   3.907   9.674  0.3142 -0.1098  0.2184
   72SLPC   H6X 6338   5.961   3.941   9.707  0.2449  1.1239 -0.7647
   72SLPC   H6Y 6339   5.795   3.994   9.695  1.8045  0.6088  1.9283
   72SLPC   C37 6340   5.855   3.884   9.527  0.2210 -0.0206  0.0889
   72SLPC   H7X 6341   5.753   3.855   9.492  0.0109  0.6372  0.1552
   72SLPC   H7Y 6342   5.926   3.808   9.487  0.8209  0.8285 -0.4634
   72SLPC   C38 6343   5.883   4.018   9.455 -0.5074 -0.4753 -0.2417
   72SLPC   H8X 6344   5.982   4.051   9.493  0.3354 -1.6433 -1.3649
   72SLPC   H8Y 6345   5.803   4.094   9.467 -0.9829 -0.8058 -1.2202
   72SLPC   C39 6346   5.907   4.017   9.308 -0.2732 -0.2722 -0.2482
   72SLPC   H9X 6347   5.997   3.954   9.290  0.1805  0.5894 -0.9993
   72SLPC   H9Y 6348   5.935   4.121   9.279 -1.1939  0.2583  0.7357
   72SLPC  C310 6349   5.789   3.959   9.232  0.6023  0.3547 -0.0118
   72SLPC  H10X 6350   5.709   4.035   9.231 -1.0496 -1.3603 -1.2565
   72SLPC  H10Y 6351   5.753   3.861   9.271  0.3098 -1.0449 -3.6498
   72SLPC  C311 6352   5.807   3.921   9.083 -0.6970 -0.6803  0.3424
   72SLPC  H11X 6353   5.881   3.840   9.067 -2.4131 -1.7728 -2.4687
   72SLPC  H11Y 6354   5.856   4.008   9.034  1.8574 -0.9022  2.3752
   72SLPC  C312 6355   5.677   3.883   9.012  0.6663 -0.4031  0.8933
   72SLPC  H12X 6356   5.601   3.960   9.036 -0.1669 -1.3945  1.4853
   72SLPC  H12Y 6357   5.635   3.793   9.062 -3.4510  0.4809 -0.8057
   72SLPC  C313 6358   5.691   3.852   8.860  0.4302  0.1004 -0.2411
   72SLPC  H13X 6359   5.589   3.836   8.817  0.0751 -0.1294  0.6682
   72SLPC  H13Y 6360   5.741   3.755   8.842  0.4934  0.6957 -3.5222
   72SLPC  C314 6361   5.761   3.952   8.769 -0.9133 -0.3987  0.0354
   72SLPC  H14X 6362   5.749   3.917   8.664  0.2029  0.5352 -0.4075
   72SLPC  H14Y 6363   5.868   3.940   8.795 -0.8197 -0.9464 -0.5957
   72SLPC  C315 6364   5.707   4.090   8.766  0.1803 -0.1849 -0.4204
   72SLPC  H15X 6365   5.717   4.145   8.862 -0.0728  0.3223 -0.6844
   72SLPC  H15Y 6366   5.598   4.075   8.751  0.3628 -1.4550 -0.5245
   72SLPC  C316 6367   5.762   4.190   8.667  0.4790 -0.3336  0.9171
   72SLPC  H16X 6368   5.691   4.276   8.659 -1.2696 -1.9862 -2.1066
   72SLPC  H16Y 6369   5.767   4.155   8.562 -1.3967 -1.1580  1.0967
   72SLPC  C317 6370   5.897   4.255   8.725 -0.6762 -0.1476  0.7800
   72SLPC  H17X 6371   5.970   4.178   8.760 -0.1249  0.6393  1.3846
   72SLPC  H17Y 6372   5.881   4.317   8.816 -0.6880 -2.1913  2.2159
   72SLPC  C318 6373   5.978   4.345   8.622 -0.3956 -0.0921  0.1662
   72SLPC  H18X 6374   5.927   4.443   8.618 -0.8945 -0.4126 -2.5168
   72SLPC  H18Y 6375   5.997   4.299   8.522  0.3859 -1.1568  0.7959
   72SLPC  H18Z 6376   6.080   4.367   8.658 -1.1986  2.7157  0.8572
   73SLPC     N 6377   6.205   2.141  11.216 -0.1303  0.5860  0.1639
   73SLPC   C13 6378   6.291   2.190  11.328 -0.4105 -0.0264  0.1392
   73SLPC  H13A 6379   6.391   2.211  11.293 -0.6064 -0.6021 -0.7672
   73SLPC  H13B 6380   6.239   2.265  11.386  1.0891  0.8158  0.4211
   73SLPC  H13C 6381   6.303   2.115  11.404  1.9137  1.1892  1.0196
   73SLPC   C14 6382   6.072   2.120  11.274 -0.5333  0.4399  0.6020
   73SLPC  H14A 6383   6.005   2.069  11.206 -0.6688  1.1890  0.1646
   73SLPC  H14B 6384   6.073   2.055  11.359  0.6567 -1.0294 -0.5145
   73SLPC  H14C 6385   6.022   2.212  11.300 -3.0408 -0.3737 -1.1132
   73SLPC   C15 6386   6.267   2.013  11.165  1.3430 -0.5202  0.1184
   73SLPC  H15A 6387   6.369   2.037  11.138  0.7722  0.6710 -1.0666
   73SLPC  H15B 6388   6.283   1.927  11.228 -0.0088  0.2316  1.5021
   73SLPC  H15C 6389   6.208   1.978  11.082 -0.8207  1.1404  0.9263
   73SLPC   C12 6390   6.193   2.238  11.098 -0.4270  0.3358 -0.3265
   73SLPC  H12A 6391   6.146   2.331  11.128  0.8379  1.5457 -1.9735
   73SLPC  H12B 6392   6.127   2.193  11.026 -1.3630 -0.1196  0.8020
   73SLPC   C11 6393   6.323   2.286  11.023 -0.0149 -0.1001  0.1614
   73SLPC  H11A 6394   6.368   2.361  11.092  0.0761 -0.7848  0.8468
   73SLPC  H11B 6395   6.292   2.338  10.929  0.6053 -0.6810 -0.3698
   73SLPC     P 6396   6.548   2.205  10.919 -0.2045  0.2014 -0.3283
   73SLPC   O13 6397   6.596   2.348  10.940 -0.4158 -0.7592  0.5139
   73SLPC   O14 6398   6.634   2.092  10.958  0.0391 -0.5025 -0.1233
   73SLPC   O12 6399   6.410   2.183  10.983  0.8572 -0.3905 -0.4231
   73SLPC   O11 6400   6.517   2.188  10.766 -0.2078 -0.2666 -0.2159
   73SLPC    C1 6401   6.413   2.096  10.724  0.1957  0.1274 -0.8051
   73SLPC    HA 6402   6.438   1.993  10.755  0.3287 -0.4840 -2.8812
   73SLPC    HB 6403   6.311   2.117  10.763  0.8652 -0.4190  1.3044
   73SLPC    C2 6404   6.415   2.101  10.567  0.2617 -0.2328 -0.0441
   73SLPC    HS 6405   6.520   2.091  10.532  0.1748 -2.0495  0.1676
   73SLPC   O21 6406   6.356   2.230  10.525 -0.1687  0.5322  0.0038
   73SLPC   C21 6407   6.393   2.252  10.393  0.4896  0.8093  0.6968
   73SLPC   O22 6408   6.459   2.177  10.325  0.5102  0.3397 -1.0337
   73SLPC   C22 6409   6.335   2.386  10.342  0.0228 -0.1526  0.2518
   73SLPC   H2R 6410   6.297   2.439  10.432 -0.8302 -0.9428  0.3626
   73SLPC   H2S 6411   6.409   2.458  10.301 -0.8453  0.5825 -0.0335
   73SLPC    C3 6412   6.340   1.983  10.513 -0.3393  0.9908  0.2418
   73SLPC    HX 6413   6.381   1.894  10.564  2.2112  2.7002  1.2862
   73SLPC    HY 6414   6.358   1.971  10.404  2.3253  0.1151  0.7516
   73SLPC   O31 6415   6.200   2.001  10.536  0.2647 -0.1360 -0.3184
   73SLPC   C31 6416   6.127   1.895  10.527 -0.2591 -0.1285 -0.1713
   73SLPC   O32 6417   6.178   1.791  10.493  0.3779  0.3410  0.1480
   73SLPC   C32 6418   5.979   1.939  10.557  0.2510  0.0561  0.9216
   73SLPC   H2X 6419   5.967   1.976  10.662  1.5326 -0.1800  1.1578
   73SLPC   H2Y 6420   5.923   1.844  10.546  0.0957  0.1040  1.2959
   73SLPC   C23 6421   6.224   2.370  10.241  0.5918  0.6622 -0.5743
   73SLPC   H3R 6422   6.181   2.473  10.246 -2.3927 -0.5204 -0.8139
   73SLPC   H3S 6423   6.149   2.303  10.289  0.1742  1.3186 -0.3049
   73SLPC   C24 6424   6.253   2.326  10.101  0.3289  0.3519 -0.3493
   73SLPC   H4R 6425   6.301   2.226  10.103 -1.1133 -0.3283  1.5112
   73SLPC   H4S 6426   6.329   2.391  10.052 -1.0702  1.8519 -0.5792
   73SLPC   C25 6427   6.132   2.325  10.008 -0.3280  0.5390  0.3329
   73SLPC   H5R 6428   6.088   2.426   9.997 -0.1229  0.9437  3.0953
   73SLPC   H5S 6429   6.055   2.268  10.064 -1.6287  0.4853 -1.4379
   73SLPC   C26 6430   6.139   2.264   9.866 -0.3426 -0.1860  0.0097
   73SLPC   H6R 6431   6.144   2.153   9.868  2.0088 -0.1111  0.3087
   73SLPC   H6S 6432   6.234   2.289   9.814  0.6731 -0.5137  1.6618
   73SLPC   C27 6433   6.024   2.306   9.778 -0.1655 -0.2497  0.2936
   73SLPC   H7R 6434   6.062   2.402   9.739  4.5070 -1.9736  0.2517
   73SLPC   H7S 6435   5.929   2.323   9.833 -0.2562 -2.2396  0.8072
   73SLPC   C28 6436   6.003   2.206   9.662  0.2132 -0.7180 -0.0602
   73SLPC   H8R 6437   5.921   2.237   9.593 -2.8902 -1.4126  3.1943
   73SLPC   H8S 6438   5.970   2.114   9.715  1.7304 -1.3868 -0.2522
   73SLPC   C29 6439   6.127   2.165   9.579  0.5585 -0.5313  0.1035
   73SLPC   H9R 6440   6.209   2.120   9.636 -1.3019 -2.0639  1.6499
   73SLPC  C210 6441   6.133   2.186   9.450  0.0782 -0.1023 -0.7403
   73SLPC  H10R 6442   6.225   2.150   9.402 -0.1453  1.1775 -2.1458
   73SLPC  C211 6443   6.031   2.242   9.357  0.2879  0.0180 -0.3073
   73SLPC  H11R 6444   6.044   2.352   9.360 -1.0033  0.1563  0.8336
   73SLPC  H11S 6445   5.927   2.219   9.388 -0.3720  1.4932 -1.3898
   73SLPC  C212 6446   6.041   2.190   9.220 -0.3879  0.4768 -0.6804
   73SLPC  H12R 6447   6.076   2.086   9.211 -0.4968  0.1740  1.8916
   73SLPC  C213 6448   6.025   2.262   9.112 -0.8249 -0.4143  0.6134
   73SLPC  H13R 6449   6.045   2.218   9.013  1.1151  0.2785  0.6743
   73SLPC  C214 6450   5.988   2.405   9.107  0.3033 -0.0696 -0.7391
   73SLPC  H14R 6451   6.069   2.464   9.156  0.2591  0.6566 -1.5377
   73SLPC  H14S 6452   5.897   2.413   9.170 -0.1093  1.0030 -1.4456
   73SLPC  C215 6453   5.968   2.462   8.967  0.5954  0.4246  0.1449
   73SLPC  H15R 6454   6.051   2.434   8.897  0.9119  3.4143 -0.7573
   73SLPC  H15S 6455   5.981   2.572   8.968 -0.9774  0.6116  0.7185
   73SLPC  C216 6456   5.831   2.438   8.911 -0.0421 -0.3449 -0.0447
   73SLPC  H16R 6457   5.765   2.467   8.995 -0.6482 -1.6212 -0.0586
   73SLPC  H16S 6458   5.825   2.327   8.898 -0.0286 -0.6188  2.1389
   73SLPC  C217 6459   5.782   2.506   8.776 -0.1327  0.0415  0.3712
   73SLPC  H17R 6460   5.764   2.615   8.787  1.0227  0.3210 -0.4094
   73SLPC  H17S 6461   5.675   2.482   8.763  0.5128 -1.8939 -1.6866
   73SLPC  C218 6462   5.860   2.497   8.642 -0.1972  0.0298 -0.6227
   73SLPC  H18R 6463   5.812   2.562   8.566 -1.7434 -1.3757 -0.8728
   73SLPC  H18S 6464   5.841   2.393   8.605  4.1640 -0.8350 -0.7503
   73SLPC  H18T 6465   5.970   2.510   8.652 -0.4565  0.8100  1.1623
   73SLPC   C33 6466   5.911   2.043  10.469 -0.0449 -0.3712  0.0990
   73SLPC   H3X 6467   5.948   2.146  10.490 -0.6293  0.2594 -1.8389
   73SLPC   H3Y 6468   5.804   2.035  10.498 -0.4453 -2.0787 -1.7690
   73SLPC   C34 6469   5.912   2.021  10.316 -0.1975 -0.0286 -0.6099
   73SLPC   H4X 6470   6.013   2.027  10.270 -0.3139 -1.5249 -1.0645
   73SLPC   H4Y 6471   5.860   2.112  10.280  0.3533  1.5761  2.4515
   73SLPC   C35 6472   5.825   1.902  10.281 -0.2384 -0.2979  0.3618
   73SLPC   H5X 6473   5.724   1.910  10.327 -0.3536  1.7123 -0.1867
   73SLPC   H5Y 6474   5.869   1.813  10.330  0.7886  0.7297  1.3470
   73SLPC   C36 6475   5.804   1.872  10.130 -0.3946 -0.2297 -0.5290
   73SLPC   H6X 6476   5.752   1.775  10.109 -0.3387 -0.3968  0.0970
   73SLPC   H6Y 6477   5.899   1.876  10.073 -0.1229 -2.3500 -0.2775
   73SLPC   C37 6478   5.712   1.974  10.056 -0.2258  0.2570  0.0610
   73SLPC   H7X 6479   5.751   2.077  10.069 -2.2240  1.2051 -1.2042
   73SLPC   H7Y 6480   5.611   1.990  10.100 -1.1097 -0.0961 -1.7968
   73SLPC   C38 6481   5.699   1.932   9.903 -0.1340  0.5442 -0.1942
   73SLPC   H8X 6482   5.606   1.872   9.890  1.2298 -1.3177 -1.5417
   73SLPC   H8Y 6483   5.776   1.856   9.880 -1.7283 -1.2326  0.2224
   73SLPC   C39 6484   5.699   2.059   9.811  0.1208 -0.1699 -0.7008
   73SLPC   H9X 6485   5.800   2.104   9.819  0.1060 -0.1173 -0.8202
   73SLPC   H9Y 6486   5.629   2.135   9.853 -0.0759 -0.5054 -0.4138
   73SLPC  C310 6487   5.669   2.030   9.661  0.4225  0.0047  0.3650
   73SLPC  H10X 6488   5.574   1.973   9.666 -0.1936  0.9037 -0.9391
   73SLPC  H10Y 6489   5.753   1.964   9.631 -0.6966 -1.1977 -0.1512
   73SLPC  C311 6490   5.646   2.154   9.574 -0.2487  0.1697 -0.2029
   73SLPC  H11X 6491   5.742   2.210   9.569  0.3157 -0.9378 -2.5372
   73SLPC  H11Y 6492   5.573   2.219   9.626  0.1540 -1.2737  2.2611
   73SLPC  C312 6493   5.597   2.128   9.433 -0.8646 -0.6893  0.2957
   73SLPC  H12X 6494   5.492   2.091   9.428 -0.0953 -2.6451 -2.4654
   73SLPC  H12Y 6495   5.647   2.045   9.379 -0.1822 -0.9282  1.2753
   73SLPC  C313 6496   5.598   2.255   9.346 -0.2646  0.6255  0.1450
   73SLPC  H13X 6497   5.704   2.289   9.340 -0.3707  1.2019  1.5547
   73SLPC  H13Y 6498   5.533   2.329   9.396 -1.7173 -0.7777  0.3724
   73SLPC  C314 6499   5.546   2.236   9.201 -0.1944  0.6442  0.0642
   73SLPC  H14X 6500   5.543   2.338   9.157 -2.1424  0.1392 -1.0287
   73SLPC  H14Y 6501   5.441   2.200   9.213  0.2284 -0.4367  0.6231
   73SLPC  C315 6502   5.635   2.143   9.117  0.1749 -0.4071  0.1317
   73SLPC  H15X 6503   5.657   2.051   9.175 -0.5415 -1.8380 -1.8344
   73SLPC  H15Y 6504   5.734   2.180   9.085 -0.2438  0.9604  0.3497
   73SLPC  C316 6505   5.554   2.086   8.999  0.8398 -0.3820 -0.1598
   73SLPC  H16X 6506   5.448   2.082   9.033  0.9649 -1.6061  0.0912
   73SLPC  H16Y 6507   5.591   1.986   8.970  2.6635 -0.3415  1.9081
   73SLPC  C317 6508   5.549   2.183   8.873  0.2932  0.8070 -0.2424
   73SLPC  H17X 6509   5.653   2.167   8.837 -0.4673  1.0552 -2.6470
   73SLPC  H17Y 6510   5.541   2.287   8.911 -0.7847  1.0637 -1.1467
   73SLPC  C318 6511   5.450   2.156   8.761  0.4704 -0.4314  0.3463
   73SLPC  H18X 6512   5.466   2.054   8.720  0.1116  0.7966 -2.9364
   73SLPC  H18Y 6513   5.476   2.228   8.681  1.6773 -2.1352 -0.8467
   73SLPC  H18Z 6514   5.342   2.171   8.785 -0.1883 -0.4392 -2.4567
   74SLPC     N 6515   6.656   4.752  10.850  0.3193  0.3641  0.0005
   74SLPC   C13 6516   6.617   4.606  10.887 -0.0538  0.2249  0.7046
   74SLPC  H13A 6517   6.646   4.585  10.989 -1.8138  0.8026  1.3345
   74SLPC  H13B 6518   6.517   4.584  10.851 -0.5073  3.1257  0.1354
   74SLPC  H13C 6519   6.682   4.544  10.827 -0.5025 -0.2081  0.6590
   74SLPC   C14 6520   6.757   4.807  10.942 -0.5206 -0.5715 -0.1969
   74SLPC  H14A 6521   6.719   4.807  11.044 -0.5669  2.7189 -0.1625
   74SLPC  H14B 6522   6.844   4.744  10.929  0.6460  1.3378 -1.6787
   74SLPC  H14C 6523   6.782   4.905  10.905 -2.0926 -0.2559 -0.4706
   74SLPC   C15 6524   6.531   4.828  10.871  0.6955 -0.5175 -0.0167
   74SLPC  H15A 6525   6.555   4.933  10.868 -1.2408 -0.0777 -0.4027
   74SLPC  H15B 6526   6.463   4.799  10.792 -2.0585  0.8303  1.8201
   74SLPC  H15C 6527   6.493   4.819  10.971 -0.1226  0.2605 -0.2591
   74SLPC   C12 6528   6.696   4.753  10.703 -0.9240  0.1577  0.4013
   74SLPC  H12A 6529   6.683   4.854  10.668 -1.7525  0.8026  2.4856
   74SLPC  H12B 6530   6.621   4.698  10.647 -2.1727  2.3687 -0.1425
   74SLPC   C11 6531   6.834   4.699  10.677  0.3712  0.3778 -0.3792
   74SLPC  H11A 6532   6.910   4.745  10.744  0.5234 -1.5135  0.7773
   74SLPC  H11B 6533   6.869   4.720  10.574  1.2765  0.8097  0.0145
   74SLPC     P 6534   6.783   4.467  10.578 -0.0110 -0.4102 -0.2132
   74SLPC   O13 6535   6.828   4.328  10.612 -0.4255 -0.2696 -0.2687
   74SLPC   O14 6536   6.641   4.493  10.565 -0.8856 -0.3432 -0.1068
   74SLPC   O12 6537   6.843   4.558  10.697 -0.1215 -0.8776 -0.3041
   74SLPC   O11 6538   6.843   4.511  10.446 -0.1264 -0.0219  0.4167
   74SLPC    C1 6539   6.982   4.540  10.420 -0.0631 -0.1926  0.1468
   74SLPC    HA 6540   6.995   4.650  10.432  0.2185 -0.0685 -1.1580
   74SLPC    HB 6541   7.048   4.490  10.495 -0.0281 -1.7650 -0.8965
   74SLPC    C2 6542   7.032   4.489  10.279  0.0561  0.3315  0.4580
   74SLPC    HS 6543   6.978   4.540  10.196  0.7102  0.0931 -0.1191
   74SLPC   O21 6544   7.022   4.348  10.258  0.0117  0.3557  0.3367
   74SLPC   C21 6545   6.901   4.306  10.226  0.6890 -0.5069  0.1390
   74SLPC   O22 6546   6.809   4.360  10.166  0.1844  0.1477 -0.3219
   74SLPC   C22 6547   6.886   4.169  10.287  0.2647  0.3182 -0.2268
   74SLPC   H2R 6548   6.933   4.163  10.387 -0.0177 -0.3321 -0.1327
   74SLPC   H2S 6549   6.780   4.134  10.287  0.7372 -1.1992 -2.4129
   74SLPC    C3 6550   7.179   4.534  10.269 -0.4970 -0.1035  0.1414
   74SLPC    HX 6551   7.216   4.478  10.358 -3.7517 -0.1187  1.5423
   74SLPC    HY 6552   7.192   4.644  10.268 -0.5948 -0.0917  0.1326
   74SLPC   O31 6553   7.243   4.497  10.142  0.2440  0.0908 -0.1108
   74SLPC   C31 6554   7.363   4.452  10.150  0.5322  0.5022  0.0521
   74SLPC   O32 6555   7.421   4.430  10.257 -0.5091  0.1437  0.5388
   74SLPC   C32 6556   7.421   4.443  10.012 -1.1801 -0.5153  0.6211
   74SLPC   H2X 6557   7.530   4.433  10.028 -1.4938 -2.6691  1.6371
   74SLPC   H2Y 6558   7.392   4.527   9.946  1.5873  0.7607  0.9766
   74SLPC   C23 6559   6.960   4.063  10.202 -0.0314 -0.1606  0.7033
   74SLPC   H3R 6560   6.956   3.973  10.267 -0.6137  1.2367  2.6406
   74SLPC   H3S 6561   7.068   4.087  10.188  0.1861 -0.6989  1.4425
   74SLPC   C24 6562   6.894   4.032  10.060 -0.0223  0.1640  0.0876
   74SLPC   H4R 6563   6.898   4.125   9.999 -2.7453  0.3784  0.1472
   74SLPC   H4S 6564   6.789   3.996  10.069  0.9098 -2.7721 -0.2028
   74SLPC   C25 6565   6.967   3.926   9.985 -0.4084  0.1917 -0.5049
   74SLPC   H5R 6566   6.965   3.824  10.027 -0.2443  0.4251  0.0697
   74SLPC   H5S 6567   7.073   3.959   9.986  0.5339 -2.6561 -2.0114
   74SLPC   C26 6568   6.929   3.912   9.838 -0.3814  0.1494  1.0426
   74SLPC   H6R 6569   7.011   3.847   9.800 -1.3553 -1.2728  1.3393
   74SLPC   H6S 6570   6.932   4.008   9.781  0.9076 -0.0699  0.7231
   74SLPC   C27 6571   6.797   3.837   9.818 -0.4371 -0.2877 -0.5353
   74SLPC   H7R 6572   6.714   3.893   9.866 -0.1601  0.4531 -0.9219
   74SLPC   H7S 6573   6.811   3.752   9.888 -0.8264 -0.0085 -0.1141
   74SLPC   C28 6574   6.784   3.795   9.669  0.0524 -0.2566 -0.2033
   74SLPC   H8R 6575   6.714   3.709   9.663 -0.2486  0.0118 -0.5742
   74SLPC   H8S 6576   6.881   3.755   9.633  1.2300  2.9993 -0.8420
   74SLPC   C29 6577   6.736   3.906   9.578  0.1605 -0.5508  0.4581
   74SLPC   H9R 6578   6.758   4.006   9.618 -0.0289 -0.1400 -0.4543
   74SLPC  C210 6579   6.681   3.892   9.456  0.1272  0.6705 -0.3104
   74SLPC  H10R 6580   6.647   3.987   9.411 -1.8215  0.4672  0.7074
   74SLPC  C211 6581   6.658   3.755   9.388 -0.0113 -0.1125 -0.0642
   74SLPC  H11R 6582   6.649   3.668   9.457  0.2806  0.7476  1.0739
   74SLPC  H11S 6583   6.745   3.728   9.323 -1.2737 -3.8603 -0.3251
   74SLPC  C212 6584   6.536   3.745   9.301 -0.3039  0.1349  0.1626
   74SLPC  H12R 6585   6.437   3.739   9.350 -0.4963  0.3676 -0.1950
   74SLPC  C213 6586   6.531   3.756   9.162 -0.7211 -0.5162  0.5593
   74SLPC  H13R 6587   6.435   3.736   9.111 -1.0483 -1.8990  1.6984
   74SLPC  C214 6588   6.646   3.783   9.069 -0.0564  0.2764  0.8821
   74SLPC  H14R 6589   6.701   3.687   9.055  1.8519  1.5639 -0.7199
   74SLPC  H14S 6590   6.725   3.852   9.104 -0.8400  1.3229  0.6108
   74SLPC  C215 6591   6.601   3.829   8.932  0.0027  0.3583  0.5233
   74SLPC  H15R 6592   6.528   3.770   8.872  1.7632  0.7464 -2.0659
   74SLPC  H15S 6593   6.689   3.822   8.865  0.0464  1.8960  0.3931
   74SLPC  C216 6594   6.543   3.974   8.940 -0.9208 -0.1081  0.8743
   74SLPC  H16R 6595   6.623   4.038   8.985 -0.8900 -0.4606  1.3334
   74SLPC  H16S 6596   6.456   3.974   9.009 -1.8859 -1.1268 -0.3292
   74SLPC  C217 6597   6.508   4.046   8.806  0.2451 -0.4780 -0.6758
   74SLPC  H17R 6598   6.600   4.051   8.743  0.4480 -0.4696 -0.3827
   74SLPC  H17S 6599   6.494   4.155   8.822 -3.0386 -1.2358  2.2517
   74SLPC  C218 6600   6.395   3.995   8.733 -0.5400  0.0741  0.2700
   74SLPC  H18R 6601   6.420   3.891   8.706 -1.2355 -0.4321  1.5402
   74SLPC  H18S 6602   6.378   4.071   8.654  3.5169 -0.3709 -1.1465
   74SLPC  H18T 6603   6.309   3.985   8.803 -1.1138 -2.6543 -0.7419
   74SLPC   C33 6604   7.348   4.313   9.957  0.3189 -0.0218  0.1818
   74SLPC   H3X 6605   7.241   4.319   9.986  0.4821  2.0370  0.4323
   74SLPC   H3Y 6606   7.390   4.218   9.996 -0.3960  0.2543  1.6658
   74SLPC   C34 6607   7.350   4.318   9.802  0.0668 -0.5863 -0.4097
   74SLPC   H4X 6608   7.458   4.319   9.777  0.4795 -1.4873  1.2315
   74SLPC   H4Y 6609   7.315   4.419   9.771 -0.2173 -0.0193  1.6960
   74SLPC   C35 6610   7.257   4.212   9.737  0.1632  0.4673  0.4047
   74SLPC   H5X 6611   7.155   4.250   9.757  0.2160  1.4008 -1.0688
   74SLPC   H5Y 6612   7.271   4.110   9.780 -0.0510 -0.1547 -0.9607
   74SLPC   C36 6613   7.284   4.208   9.582 -0.3717  0.0764  0.2180
   74SLPC   H6X 6614   7.393   4.200   9.564 -0.2848  1.3506  0.1547
   74SLPC   H6Y 6615   7.250   4.308   9.547  0.9645  0.1119 -0.9827
   74SLPC   C37 6616   7.211   4.097   9.506  0.4305  0.0674 -0.1420
   74SLPC   H7X 6617   7.101   4.108   9.521  0.5915 -3.1246  4.3616
   74SLPC   H7Y 6618   7.236   4.000   9.554 -1.0265 -1.0054 -1.5006
   74SLPC   C38 6619   7.242   4.094   9.356 -0.0265  0.0588 -0.0902
   74SLPC   H8X 6620   7.348   4.065   9.338  1.0608  2.5405  2.0673
   74SLPC   H8Y 6621   7.226   4.196   9.316  0.4569 -0.3274 -1.3178
   74SLPC   C39 6622   7.150   4.004   9.276  0.3231  0.2513 -0.2143
   74SLPC   H9X 6623   7.042   4.023   9.292 -0.5988 -2.1666 -3.0267
   74SLPC   H9Y 6624   7.165   3.899   9.310  0.2210 -0.0131 -0.9630
   74SLPC  C310 6625   7.170   4.002   9.124  0.2255 -0.2967  0.2781
   74SLPC  H10X 6626   7.278   3.984   9.104 -0.0165 -1.2508 -0.2157
   74SLPC  H10Y 6627   7.144   4.107   9.100  1.6597  0.2753  1.1608
   74SLPC  C311 6628   7.081   3.900   9.053 -0.3204  0.0567 -0.8010
   74SLPC  H11X 6629   6.976   3.928   9.074 -0.6429 -0.7809 -1.3289
   74SLPC  H11Y 6630   7.086   3.793   9.081  0.7124  0.2795 -0.0994
   74SLPC  C312 6631   7.096   3.916   8.902 -0.4769  0.3106 -0.1372
   74SLPC  H12X 6632   7.201   3.886   8.880 -0.0722  1.2428  0.4885
   74SLPC  H12Y 6633   7.068   4.018   8.869  1.6662  0.6793 -0.9236
   74SLPC  C313 6634   7.005   3.814   8.824  0.2423  0.6830 -0.0001
   74SLPC  H13X 6635   6.934   3.872   8.760  0.9001  0.2345 -1.1523
   74SLPC  H13Y 6636   6.942   3.754   8.893  2.5566 -0.7573  0.8944
   74SLPC  C314 6637   7.090   3.713   8.740  0.2438  0.2503  0.3570
   74SLPC  H14X 6638   7.029   3.628   8.704  0.4594 -1.0759  2.9995
   74SLPC  H14Y 6639   7.157   3.669   8.817  0.2311 -0.2833  0.0627
   74SLPC  C315 6640   7.172   3.770   8.624  0.4043  0.1398 -0.2231
   74SLPC  H15X 6641   7.251   3.694   8.606  2.4477  2.1777 -0.1845
   74SLPC  H15Y 6642   7.232   3.863   8.638  0.5530 -0.0287  0.2497
   74SLPC  C316 6643   7.073   3.782   8.503 -0.0862 -0.3134  0.5444
   74SLPC  H16X 6644   6.997   3.860   8.521  1.1277  1.1832 -0.6235
   74SLPC  H16Y 6645   7.023   3.685   8.483 -1.3312  0.2307  0.9827
   74SLPC  C317 6646   7.139   3.827   8.369 -0.5961 -0.2550  0.5532
   74SLPC  H17X 6647   7.227   3.760   8.361 -1.5627 -1.7004  1.9230
   74SLPC  H17Y 6648   7.172   3.933   8.373 -1.5660  0.1830 -1.9122
   74SLPC  C318 6649   7.042   3.818   8.245 -0.1875  0.7203 -0.4461
   74SLPC  H18X 6650   6.945   3.776   8.278  1.1236 -1.2323  0.9692
   74SLPC  H18Y 6651   7.090   3.758   8.165 -2.9555  0.5818 -2.0486
   74SLPC  H18Z 6652   7.022   3.921   8.208  1.6102  0.6788 -1.5843
   75SLPC     N 6653   4.799   0.241   6.274  0.0538  0.1909  0.4546
   75SLPC   C13 6654   4.739   0.331   6.177 -0.2446  0.6436 -0.1055
   75SLPC  H13A 6655   4.703   0.425   6.216 -0.5188  1.2889 -1.8671
   75SLPC  H13B 6656   4.802   0.343   6.090 -1.5108  1.8192 -0.8791
   75SLPC  H13C 6657   4.650   0.286   6.136 -0.3484  0.4446  0.3400
   75SLPC   C14 6658   4.769   0.100   6.236 -0.3090  0.1418 -0.2656
   75SLPC  H14A 6659   4.804   0.030   6.311  2.1833 -1.6403 -2.9699
   75SLPC  H14B 6660   4.664   0.079   6.223 -0.2441  0.4257 -1.2613
   75SLPC  H14C 6661   4.814   0.079   6.140 -1.0329 -1.2547 -0.3068
   75SLPC   C15 6662   4.733   0.279   6.406  0.1733 -1.0850  0.0232
   75SLPC  H15A 6663   4.775   0.226   6.491 -1.0529 -1.3270  0.4836
   75SLPC  H15B 6664   4.764   0.379   6.433 -2.1516  0.1865 -1.8750
   75SLPC  H15C 6665   4.626   0.274   6.410  0.1481  0.2922  2.1107
   75SLPC   C12 6666   4.942   0.279   6.282  0.0155 -0.3503  0.4356
   75SLPC  H12A 6667   4.956   0.385   6.267  0.5144 -0.8546 -2.9158
   75SLPC  H12B 6668   4.993   0.235   6.198  1.1787 -1.9789  1.9430
   75SLPC   C11 6669   5.019   0.251   6.411 -0.2022  0.1464  0.2747
   75SLPC  H11A 6670   5.125   0.277   6.389 -0.6310  2.5908  1.0018
   75SLPC  H11B 6671   5.003   0.147   6.446  1.4362 -0.5447 -0.9637
   75SLPC     P 6672   5.044   0.332   6.663  0.1091 -0.3541 -0.3539
   75SLPC   O13 6673   5.187   0.308   6.668  0.3045 -0.1404  0.4605
   75SLPC   O14 6674   4.996   0.457   6.723  0.4676 -0.1311  0.0816
   75SLPC   O12 6675   4.983   0.339   6.514  0.0592 -0.0468  0.0142
   75SLPC   O11 6676   4.976   0.204   6.720 -0.4880  0.2392  0.1368
   75SLPC    C1 6677   4.838   0.205   6.759  0.0252 -0.7719 -0.1702
   75SLPC    HA 6678   4.790   0.303   6.738 -0.0629 -0.8243 -0.2169
   75SLPC    HB 6679   4.785   0.135   6.691 -1.1287 -0.9738  0.9174
   75SLPC    C2 6680   4.816   0.148   6.902 -0.0221 -0.7394 -0.9193
   75SLPC    HS 6681   4.705   0.145   6.911  0.1332 -0.6772  1.0764
   75SLPC   O21 6682   4.880   0.239   6.994 -0.4156  0.2711 -0.0778
   75SLPC   C21 6683   4.816   0.354   7.011 -0.9332 -0.7213  0.0897
   75SLPC   O22 6684   4.713   0.380   6.964  0.1681  0.1555 -0.6132
   75SLPC   C22 6685   4.894   0.438   7.120 -0.1037  0.3278  0.8649
   75SLPC   H2R 6686   5.001   0.436   7.089 -0.7863  3.4430 -1.9631
   75SLPC   H2S 6687   4.864   0.543   7.099 -0.9223 -0.0655  0.0209
   75SLPC    C3 6688   4.880   0.007   6.897  0.0707  0.1089 -0.3353
   75SLPC    HX 6689   4.988   0.020   6.879  0.7056 -0.4680  2.6848
   75SLPC    HY 6690   4.841  -0.035   6.802  0.7905  0.6246 -0.8606
   75SLPC   O31 6691   4.862  -0.074   7.013  0.2936 -0.3994  0.4365
   75SLPC   C31 6692   4.743  -0.134   7.008  1.2790 -0.2254  0.8224
   75SLPC   O32 6693   4.659  -0.120   6.920 -0.6947  0.2937 -0.3782
   75SLPC   C32 6694   4.723  -0.221   7.132 -0.1452 -0.4514  0.5087
   75SLPC   H2X 6695   4.813  -0.203   7.194 -1.6875 -0.9018  2.9490
   75SLPC   H2Y 6696   4.732  -0.328   7.103  0.1279 -0.1810 -0.4263
   75SLPC   C23 6697   4.881   0.390   7.265  0.3883 -0.5800  0.0806
   75SLPC   H3R 6698   4.775   0.375   7.293  0.6495 -1.9143  0.3814
   75SLPC   H3S 6699   4.922   0.476   7.324  1.7675 -1.9411  1.1516
   75SLPC   C24 6700   4.958   0.262   7.300  0.5354 -0.3455 -0.0816
   75SLPC   H4R 6701   5.055   0.291   7.347 -0.5980  1.2554  1.3237
   75SLPC   H4S 6702   4.972   0.190   7.216  0.3064  1.8201 -2.0245
   75SLPC   C25 6703   4.880   0.175   7.409 -0.4127 -0.2129  0.0337
   75SLPC   H5R 6704   4.927   0.075   7.418 -1.0031 -0.3658  1.5495
   75SLPC   H5S 6705   4.775   0.168   7.374 -1.1245  2.3464  1.5089
   75SLPC   C26 6706   4.881   0.236   7.552 -0.7805  0.1464  0.3953
   75SLPC   H6R 6707   4.858   0.343   7.532 -1.9901 -0.4100 -1.3680
   75SLPC   H6S 6708   4.985   0.228   7.592 -0.8070 -1.2040  0.2080
   75SLPC   C27 6709   4.785   0.187   7.661  0.0550 -0.3971 -0.1824
   75SLPC   H7R 6710   4.786   0.076   7.672 -0.4036 -0.3087  0.8125
   75SLPC   H7S 6711   4.686   0.219   7.621 -1.6462 -3.8508  1.0667
   75SLPC   C28 6712   4.804   0.258   7.791 -1.1739 -0.8982  0.0326
   75SLPC   H8R 6713   4.811   0.367   7.769  1.3801 -1.2900 -1.3263
   75SLPC   H8S 6714   4.903   0.236   7.838 -1.4812  0.9187  1.5772
   75SLPC   C29 6715   4.698   0.230   7.896 -0.2060  0.0865  0.2939
   75SLPC   H9R 6716   4.612   0.298   7.897 -1.2327 -1.2068  1.4161
   75SLPC  C210 6717   4.709   0.140   7.989 -0.9497 -0.1253  0.0942
   75SLPC  H10R 6718   4.627   0.144   8.062 -0.5462  1.7294  0.4619
   75SLPC  C211 6719   4.815   0.033   8.006  0.1399 -0.0373  0.3546
   75SLPC  H11R 6720   4.899   0.058   7.938  0.6653  2.3487  1.8245
   75SLPC  H11S 6721   4.770  -0.061   7.967 -2.3689  1.7858 -1.3307
   75SLPC  C212 6722   4.862   0.003   8.145  0.6053 -0.1369 -0.1002
   75SLPC  H12R 6723   4.824  -0.093   8.184 -2.0555  0.8673 -0.1170
   75SLPC  C213 6724   4.951   0.078   8.206 -0.1101  0.0632  0.0956
   75SLPC  H13R 6725   4.996   0.029   8.294 -0.2878 -0.9747 -0.3792
   75SLPC  C214 6726   5.021   0.204   8.155  0.1617 -0.5135 -0.0100
   75SLPC  H14R 6727   4.982   0.236   8.056  2.0986  0.2651 -0.5645
   75SLPC  H14S 6728   5.130   0.202   8.134  0.6826 -0.0220  2.5258
   75SLPC  C215 6729   4.992   0.325   8.240 -0.7372  0.0212  0.3469
   75SLPC  H15R 6730   4.882   0.338   8.245 -0.8766 -1.8283  3.2640
   75SLPC  H15S 6731   5.030   0.419   8.194  0.3394  0.3557  1.8823
   75SLPC  C216 6732   5.035   0.324   8.394  0.2716 -1.2682  0.2904
   75SLPC  H16R 6733   5.002   0.229   8.440  1.6137 -2.7573 -1.7208
   75SLPC  H16S 6734   4.984   0.409   8.444 -0.5627 -2.4116  1.3950
   75SLPC  C217 6735   5.185   0.344   8.412 -1.0540 -0.1502  0.3571
   75SLPC  H17R 6736   5.197   0.417   8.495 -1.8292  3.1517 -2.3387
   75SLPC  H17S 6737   5.220   0.394   8.319  0.1512  1.5383  1.6818
   75SLPC  C218 6738   5.259   0.218   8.444  0.5693  0.0040 -0.5415
   75SLPC  H18R 6739   5.261   0.146   8.360  2.7613  0.0113 -0.5437
   75SLPC  H18S 6740   5.200   0.168   8.524 -0.4762  1.8353 -0.1395
   75SLPC  H18T 6741   5.361   0.230   8.487 -0.5658  3.2311  1.3853
   75SLPC   C33 6742   4.586  -0.195   7.198 -0.1183 -0.0940 -0.0514
   75SLPC   H3X 6743   4.530  -0.116   7.143  0.0059  0.2236  0.2733
   75SLPC   H3Y 6744   4.548  -0.298   7.187  3.6279 -1.2982 -2.8276
   75SLPC   C34 6745   4.592  -0.143   7.341  0.1134  0.2503  0.0901
   75SLPC   H4X 6746   4.505  -0.086   7.379  0.3625  1.5534 -1.2409
   75SLPC   H4Y 6747   4.669  -0.063   7.348  0.1921  0.0478  1.6656
   75SLPC   C35 6748   4.623  -0.251   7.450  0.1732  0.3608  0.1492
   75SLPC   H5X 6749   4.725  -0.289   7.429 -0.2365 -0.7476  0.1325
   75SLPC   H5Y 6750   4.550  -0.334   7.442  0.2414  0.3064  0.0969
   75SLPC   C36 6751   4.613  -0.198   7.593  0.4465  0.5617  0.0529
   75SLPC   H6X 6752   4.520  -0.137   7.603 -0.7462 -1.1986 -0.1981
   75SLPC   H6Y 6753   4.698  -0.129   7.613  0.2697  0.5167  0.9959
   75SLPC   C37 6754   4.616  -0.305   7.700  0.3590  0.6465 -0.8494
   75SLPC   H7X 6755   4.715  -0.356   7.705 -0.4599 -0.7759  2.3857
   75SLPC   H7Y 6756   4.539  -0.373   7.659  0.7783 -1.1505  1.1960
   75SLPC   C38 6757   4.571  -0.248   7.836  0.2015 -0.4107 -0.2172
   75SLPC   H8X 6758   4.466  -0.214   7.833 -0.1894 -1.6631 -1.3377
   75SLPC   H8Y 6759   4.625  -0.151   7.841  0.1543 -0.3313 -1.1733
   75SLPC   C39 6760   4.622  -0.324   7.965  0.8941 -0.0852 -0.2651
   75SLPC   H9X 6761   4.732  -0.328   7.961  0.9148 -0.3834  0.4129
   75SLPC   H9Y 6762   4.584  -0.426   7.942  3.7789 -0.9815 -1.2220
   75SLPC  C310 6763   4.569  -0.273   8.097 -0.1094  0.0467 -0.3952
   75SLPC  H10X 6764   4.459  -0.283   8.108 -0.0622 -2.2695 -1.9259
   75SLPC  H10Y 6765   4.599  -0.167   8.112  0.9516 -0.4398  1.0190
   75SLPC  C311 6766   4.642  -0.341   8.215 -0.3309  0.0189  0.2096
   75SLPC  H11X 6767   4.750  -0.315   8.219 -0.9459  3.0315 -1.8348
   75SLPC  H11Y 6768   4.629  -0.452   8.217 -1.4818  0.1750  1.6209
   75SLPC  C312 6769   4.593  -0.290   8.349 -0.6562  0.9098  0.1573
   75SLPC  H12X 6770   4.621  -0.357   8.433 -0.7807 -0.1470 -0.6301
   75SLPC  H12Y 6771   4.482  -0.289   8.351 -0.6606  1.6584 -0.1495
   75SLPC  C313 6772   4.640  -0.149   8.387  0.1182 -0.5935  0.6521
   75SLPC  H13X 6773   4.615  -0.069   8.314 -0.6049 -1.6003 -0.2368
   75SLPC  H13Y 6774   4.751  -0.149   8.397  0.4795  1.4313 -2.5205
   75SLPC  C314 6775   4.577  -0.099   8.516 -0.2565  0.5677 -0.3625
   75SLPC  H14X 6776   4.600   0.008   8.536  0.7467  0.0281  1.5436
   75SLPC  H14Y 6777   4.633  -0.150   8.598  1.2389  0.8130 -1.2053
   75SLPC  C315 6778   4.424  -0.119   8.536  0.2075 -0.0621  0.2193
   75SLPC  H15X 6779   4.367  -0.212   8.517  1.8890 -1.0290 -0.2211
   75SLPC  H15Y 6780   4.380  -0.037   8.476  1.2473  0.7252  0.5103
   75SLPC  C316 6781   4.392  -0.068   8.682  0.1297 -0.3479  0.2707
   75SLPC  H16X 6782   4.436   0.034   8.688  0.7283 -0.6800  1.7149
   75SLPC  H16Y 6783   4.441  -0.125   8.764 -0.8138 -1.3152  0.1648
   75SLPC  C317 6784   4.243  -0.051   8.715  0.0207  0.3394 -0.2190
   75SLPC  H17X 6785   4.196  -0.152   8.719 -0.6429  0.6263 -0.7709
   75SLPC  H17Y 6786   4.196   0.010   8.635 -2.5467  1.0962  1.8186
   75SLPC  C318 6787   4.218   0.012   8.859 -0.1140 -0.8929  0.1095
   75SLPC  H18X 6788   4.110   0.017   8.886  0.2226 -1.6719  1.6834
   75SLPC  H18Y 6789   4.268   0.111   8.858 -2.6413  0.4165 -0.4869
   75SLPC  H18Z 6790   4.272  -0.053   8.932  1.6089 -1.9720 -2.0944
   76SLPC     N 6791   0.727   5.383   6.077  0.6874  0.3378  0.2934
   76SLPC   C13 6792   0.669   5.476   6.178  0.1842 -0.1050  0.1121
   76SLPC  H13A 6793   0.735   5.505   6.259  1.2436 -3.0273  0.3658
   76SLPC  H13B 6794   0.630   5.561   6.124 -2.1999  0.8184  3.0923
   76SLPC  H13C 6795   0.586   5.421   6.221  0.3869 -0.3442  0.1995
   76SLPC   C14 6796   0.865   5.424   6.033  0.3845 -0.5377 -0.4048
   76SLPC  H14A 6797   0.930   5.426   6.120 -0.8540 -0.4274  0.5442
   76SLPC  H14B 6798   0.899   5.343   5.971  0.9082 -0.8283  0.2536
   76SLPC  H14C 6799   0.872   5.519   5.983  0.6143 -0.8652 -0.9880
   76SLPC   C15 6800   0.641   5.375   5.956  0.5799 -0.0258 -0.8356
   76SLPC  H15A 6801   0.548   5.329   5.986  0.7910 -0.6470 -1.1215
   76SLPC  H15B 6802   0.625   5.472   5.911  0.3787 -0.9121 -2.7240
   76SLPC  H15C 6803   0.686   5.324   5.872  0.7760 -0.5630 -0.4119
   76SLPC   C12 6804   0.752   5.246   6.141  0.2852  0.6756  0.1358
   76SLPC  H12A 6805   0.803   5.267   6.234 -0.5793 -0.8911  0.9748
   76SLPC  H12B 6806   0.832   5.193   6.091  0.5732 -0.8109  2.1206
   76SLPC   C11 6807   0.634   5.149   6.161  0.1982 -0.0112  0.1096
   76SLPC  H11A 6808   0.658   5.051   6.207  1.6366  0.1290 -0.3213
   76SLPC  H11B 6809   0.595   5.131   6.059 -4.9968 -1.3248  2.1484
   76SLPC     P 6810   0.492   5.217   6.376 -0.1394 -0.2060  0.2838
   76SLPC   O13 6811   0.523   5.350   6.436  0.4640 -0.0625 -0.5173
   76SLPC   O14 6812   0.353   5.156   6.394  0.0055 -0.6570 -0.0598
   76SLPC   O12 6813   0.524   5.225   6.224  0.4906 -0.4551 -0.3794
   76SLPC   O11 6814   0.599   5.114   6.427 -0.1166 -0.1881 -0.1387
   76SLPC    C1 6815   0.567   5.019   6.523  0.0401  0.6564 -0.0787
   76SLPC    HA 6816   0.463   4.981   6.516  0.4542 -0.4130 -0.5344
   76SLPC    HB 6817   0.636   4.934   6.503  0.3096  0.0286  3.2224
   76SLPC    C2 6818   0.583   5.083   6.663 -0.7613  0.2955 -0.2378
   76SLPC    HS 6819   0.524   5.177   6.660  0.2114  0.8637 -1.9621
   76SLPC   O21 6820   0.718   5.114   6.680 -0.2986 -0.1266  0.6264
   76SLPC   C21 6821   0.751   5.216   6.752  0.1553  0.7560 -1.1053
   76SLPC   O22 6822   0.669   5.295   6.799  0.4761 -0.2211 -0.3020
   76SLPC   C22 6823   0.903   5.212   6.776 -0.5633 -0.2227  0.7172
   76SLPC   H2R 6824   0.939   5.111   6.745  0.5765  0.1381  0.8512
   76SLPC   H2S 6825   0.958   5.282   6.710 -0.9113  0.4090  1.0977
   76SLPC    C3 6826   0.539   4.993   6.779  0.2002  0.5333  0.0114
   76SLPC    HX 6827   0.621   4.919   6.779  0.8519  1.2426 -0.6285
   76SLPC    HY 6828   0.440   4.948   6.758 -0.2026  1.7295 -0.7355
   76SLPC   O31 6829   0.529   5.063   6.901  0.4840 -0.6111 -0.2352
   76SLPC   C31 6830   0.420   5.129   6.925  0.7007 -0.3209  0.3055
   76SLPC   O32 6831   0.325   5.128   6.848  0.9222 -0.0156  0.0715
   76SLPC   C32 6832   0.437   5.198   7.065  0.2521  0.7466 -0.1857
   76SLPC   H2X 6833   0.498   5.288   7.046  1.5215  0.3300  1.7955
   76SLPC   H2Y 6834   0.495   5.125   7.126 -0.3039  0.5626  0.1260
   76SLPC   C23 6835   0.936   5.241   6.927  0.5237  0.6264  0.0376
   76SLPC   H3R 6836   0.878   5.329   6.963 -2.6932 -1.0103 -0.9254
   76SLPC   H3S 6837   1.042   5.269   6.941 -0.0603  2.1361  1.6900
   76SLPC   C24 6838   0.919   5.118   7.024 -0.6566  0.4783  0.4542
   76SLPC   H4R 6839   0.969   5.031   6.976  2.5502  2.2881  0.3883
   76SLPC   H4S 6840   0.809   5.099   7.031 -0.5391 -0.6696 -0.6102
   76SLPC   C25 6841   0.964   5.152   7.168  0.1274  0.3166 -0.0903
   76SLPC   H5R 6842   1.073   5.171   7.162  0.0774  0.1464 -1.7916
   76SLPC   H5S 6843   0.952   5.057   7.224 -1.2321  0.3063 -0.3817
   76SLPC   C26 6844   0.890   5.267   7.236 -0.5368 -0.0979  1.0428
   76SLPC   H6R 6845   0.896   5.350   7.163 -2.2480 -0.7415  0.1608
   76SLPC   H6S 6846   0.952   5.305   7.320 -1.2669  1.2593  0.9784
   76SLPC   C27 6847   0.753   5.223   7.285 -0.1996  0.4809  0.0104
   76SLPC   H7R 6848   0.776   5.131   7.342  0.5866  1.6432  1.5781
   76SLPC   H7S 6849   0.697   5.193   7.193  0.2959  0.8345 -0.4128
   76SLPC   C28 6850   0.667   5.327   7.362  0.1785  0.0718 -0.0818
   76SLPC   H8R 6851   0.639   5.412   7.297  0.4854 -0.2942 -0.6986
   76SLPC   H8S 6852   0.578   5.265   7.384  0.8627 -0.3751  1.4528
   76SLPC   C29 6853   0.742   5.383   7.484  0.3364  0.3871 -0.2293
   76SLPC   H9R 6854   0.844   5.405   7.449  0.8086  0.6137  1.2781
   76SLPC  C210 6855   0.713   5.410   7.606 -0.3710  0.5001 -0.3613
   76SLPC  H10R 6856   0.796   5.442   7.670  1.4843 -2.8662 -0.9694
   76SLPC  C211 6857   0.577   5.394   7.667 -0.6439 -0.6515  0.4934
   76SLPC  H11R 6858   0.502   5.363   7.591 -1.2102  1.8979 -0.0496
   76SLPC  H11S 6859   0.553   5.500   7.690  0.8473 -0.2473  0.2939
   76SLPC  C212 6860   0.549   5.314   7.787 -0.1053  1.1026 -0.4377
   76SLPC  H12R 6861   0.528   5.207   7.772 -2.0194  1.6589 -1.8372
   76SLPC  C213 6862   0.543   5.359   7.913 -0.2372 -0.2624  0.3134
   76SLPC  H13R 6863   0.512   5.298   7.999 -0.4525  2.8606  2.5593
   76SLPC  C214 6864   0.568   5.499   7.962  0.6327 -0.4989  0.0300
   76SLPC  H14R 6865   0.479   5.562   7.940  0.7100 -0.2337  0.4654
   76SLPC  H14S 6866   0.662   5.535   7.916  0.6125  0.7012  0.8989
   76SLPC  C215 6867   0.592   5.510   8.117  0.0791  0.8377  0.1500
   76SLPC  H15R 6868   0.493   5.499   8.167 -0.4735 -1.2947 -1.3053
   76SLPC  H15S 6869   0.624   5.613   8.141  0.5718  0.3049  1.8709
   76SLPC  C216 6870   0.700   5.421   8.174 -0.6771 -0.3180  0.0092
   76SLPC  H16R 6871   0.796   5.439   8.122 -0.3373  1.2531  1.1376
   76SLPC  H16S 6872   0.691   5.311   8.160 -2.3697 -0.2374  0.3248
   76SLPC  C217 6873   0.730   5.445   8.326 -0.1409  0.4875 -0.3977
   76SLPC  H17R 6874   0.638   5.413   8.380 -0.6237  0.4875 -1.2213
   76SLPC  H17S 6875   0.750   5.554   8.335 -0.5328  0.4994  0.4155
   76SLPC  C218 6876   0.849   5.364   8.379 -0.6591 -0.0083 -0.0827
   76SLPC  H18R 6877   0.830   5.255   8.371 -0.3737 -0.0042 -0.8914
   76SLPC  H18S 6878   0.870   5.381   8.487  2.8848  0.1339 -0.7287
   76SLPC  H18T 6879   0.941   5.390   8.322 -0.3110  2.4476  1.5071
   76SLPC   C33 6880   0.305   5.236   7.131  0.1783 -0.2295 -0.0516
   76SLPC   H3X 6881   0.248   5.149   7.168  0.6627 -1.1777 -1.4828
   76SLPC   H3Y 6882   0.245   5.288   7.053  0.5981 -0.4413 -0.5211
   76SLPC   C34 6883   0.313   5.340   7.244 -0.0225 -0.1748  0.8540
   76SLPC   H4X 6884   0.338   5.435   7.192  1.2817 -0.5765  0.7322
   76SLPC   H4Y 6885   0.400   5.321   7.310  0.7846  0.0846 -0.1380
   76SLPC   C35 6886   0.189   5.345   7.328  0.2292 -0.6086 -0.4098
   76SLPC   H5X 6887   0.177   5.246   7.378 -1.1280  1.3831  3.4881
   76SLPC   H5Y 6888   0.097   5.349   7.265 -1.3115  2.5132  1.9077
   76SLPC   C36 6889   0.165   5.455   7.432  0.6914  0.6057 -0.2236
   76SLPC   H6X 6890   0.140   5.553   7.386  0.4823  1.3207  1.3786
   76SLPC   H6Y 6891   0.261   5.466   7.487  0.5398  0.0618  0.1537
   76SLPC   C37 6892   0.062   5.419   7.541 -0.0592  0.1821  0.0811
   76SLPC   H7X 6893   0.079   5.313   7.571 -0.3888 -0.4153 -1.7981
   76SLPC   H7Y 6894  -0.041   5.430   7.499  0.0808 -1.1465 -0.6456
   76SLPC   C38 6895   0.092   5.501   7.661 -0.1771 -0.6541 -0.3889
   76SLPC   H8X 6896   0.113   5.605   7.628  1.2457 -1.0581 -0.7947
   76SLPC   H8Y 6897   0.174   5.457   7.721 -1.3650 -2.1669  0.1576
   76SLPC   C39 6898  -0.037   5.519   7.750  0.1311 -0.3836 -0.1382
   76SLPC   H9X 6899  -0.123   5.551   7.688  0.6018 -0.7445 -0.9831
   76SLPC   H9Y 6900  -0.024   5.601   7.825 -2.5298 -0.4845  0.4941
   76SLPC  C310 6901  -0.077   5.386   7.814 -0.2682  0.2226 -0.4952
   76SLPC  H10X 6902   0.008   5.349   7.876 -1.4680  1.2050  1.8074
   76SLPC  H10Y 6903  -0.091   5.313   7.731  2.3621 -1.3275  0.3906
   76SLPC  C311 6904  -0.199   5.386   7.904 -0.6090  0.0702  0.2866
   76SLPC  H11X 6905  -0.291   5.387   7.841 -0.9858 -0.5091  0.8117
   76SLPC  H11Y 6906  -0.190   5.476   7.969 -0.0555 -0.1758  0.5545
   76SLPC  C312 6907  -0.219   5.267   8.004 -0.1800  0.2895  0.1080
   76SLPC  H12X 6908  -0.314   5.277   8.060 -1.0998  2.0668 -1.7051
   76SLPC  H12Y 6909  -0.140   5.256   8.082  1.2563  0.2857 -1.3125
   76SLPC  C313 6910  -0.226   5.136   7.933 -0.3963 -0.3513 -0.0061
   76SLPC  H13X 6911  -0.123   5.112   7.901 -0.0106  0.4414  0.5923
   76SLPC  H13Y 6912  -0.293   5.167   7.850 -1.4155 -0.2287  0.8398
   76SLPC  C314 6913  -0.307   5.031   8.015 -0.5977 -0.4041 -0.3051
   76SLPC  H14X 6914  -0.304   4.933   7.963  2.0569 -0.3834 -0.2813
   76SLPC  H14Y 6915  -0.413   5.063   8.020 -1.1536 -1.7511 -2.7403
   76SLPC  C315 6916  -0.253   4.993   8.151  0.7277  0.0173 -0.2807
   76SLPC  H15X 6917  -0.320   4.916   8.194 -0.1274  0.7995 -0.2058
   76SLPC  H15Y 6918  -0.257   5.085   8.214  1.1989  0.0226 -0.2534
   76SLPC  C316 6919  -0.109   4.953   8.164  0.2619 -0.6845  0.1525
   76SLPC  H16X 6920  -0.042   5.026   8.116 -0.2667 -1.5025 -1.8861
   76SLPC  H16Y 6921  -0.103   4.853   8.116 -2.2165 -0.6559 -0.2944
   76SLPC  C317 6922  -0.059   4.942   8.310  0.0815  0.3822 -0.4605
   76SLPC  H17X 6923  -0.139   4.889   8.365  0.9755 -0.8185 -0.2943
   76SLPC  H17Y 6924  -0.037   5.036   8.364  0.5995 -1.1017  1.9559
   76SLPC  C318 6925   0.069   4.861   8.314 -0.2477 -0.1837 -0.2524
   76SLPC  H18X 6926   0.050   4.758   8.280 -1.2172 -0.5882  1.4787
   76SLPC  H18Y 6927   0.104   4.851   8.419  1.8215  0.0911 -0.8955
   76SLPC  H18Z 6928   0.160   4.900   8.262 -0.2610 -0.0018 -0.1406
   77SLPC     N 6929   3.672   5.053   6.071  0.0661 -1.1419 -0.6838
   77SLPC   C13 6930   3.673   4.938   5.981 -0.5575  0.2975  0.3218
   77SLPC  H13A 6931   3.669   4.849   6.043  1.6124  0.0071  0.0631
   77SLPC  H13B 6932   3.598   4.944   5.903  0.1666 -1.2633 -0.5231
   77SLPC  H13C 6933   3.764   4.931   5.923 -0.1884  0.2744  0.9020
   77SLPC   C14 6934   3.664   5.175   5.986  0.2335 -0.0308  0.0122
   77SLPC  H14A 6935   3.751   5.177   5.922  2.2826 -0.2718  2.7048
   77SLPC  H14B 6936   3.574   5.174   5.926  1.1677 -0.1527 -1.4033
   77SLPC  H14C 6937   3.664   5.271   6.036 -0.6191 -0.2168  0.3695
   77SLPC   C15 6938   3.803   5.054   6.144  0.1933  0.4936 -0.0636
   77SLPC  H15A 6939   3.855   4.961   6.128  1.4429  0.9875  1.0599
   77SLPC  H15B 6940   3.865   5.135   6.108  1.3435  1.5610  4.0852
   77SLPC  H15C 6941   3.800   5.067   6.251 -1.8724  0.1601 -0.0638
   77SLPC   C12 6942   3.553   5.044   6.162 -0.1931 -0.3378  0.1652
   77SLPC  H12A 6943   3.547   4.952   6.218  0.5010 -1.6341 -1.8262
   77SLPC  H12B 6944   3.469   5.045   6.094 -1.5054  0.8387  1.7520
   77SLPC   C11 6945   3.518   5.160   6.255  0.0595 -1.0771 -0.0161
   77SLPC  H11A 6946   3.436   5.133   6.325  0.4011  0.3381  0.9387
   77SLPC  H11B 6947   3.497   5.249   6.192  1.7511 -1.3777 -1.0343
   77SLPC     P 6948   3.652   5.329   6.400  0.1558  0.4525  0.2907
   77SLPC   O13 6949   3.790   5.377   6.380 -0.1241 -0.6838 -0.5408
   77SLPC   O14 6950   3.543   5.420   6.362  0.9369  0.0138 -0.3179
   77SLPC   O12 6951   3.631   5.179   6.341  0.2611 -1.0133 -0.2495
   77SLPC   O11 6952   3.627   5.312   6.555  0.0625  0.1148 -0.1967
   77SLPC    C1 6953   3.596   5.187   6.620  0.2028  0.3107  0.6329
   77SLPC    HA 6954   3.532   5.126   6.552 -0.2769  2.2905 -0.7479
   77SLPC    HB 6955   3.692   5.133   6.637  0.6407  0.8119 -0.1968
   77SLPC    C2 6956   3.517   5.202   6.756 -0.0409 -0.2851 -0.2733
   77SLPC    HS 6957   3.418   5.246   6.731 -0.2091 -0.5339 -0.0591
   77SLPC   O21 6958   3.599   5.278   6.846  0.4481 -0.0759  0.2248
   77SLPC   C21 6959   3.537   5.360   6.922 -0.1411  0.2903  0.5331
   77SLPC   O22 6960   3.416   5.383   6.923  0.2374  0.3444 -0.0603
   77SLPC   C22 6961   3.638   5.419   7.013  0.1513  0.1046  0.5400
   77SLPC   H2R 6962   3.742   5.406   6.976 -0.5628 -1.2230 -1.0773
   77SLPC   H2S 6963   3.628   5.530   7.005 -0.9029 -0.0191  0.0490
   77SLPC    C3 6964   3.487   5.063   6.816 -0.1009 -0.1808 -0.4014
   77SLPC    HX 6965   3.581   5.008   6.834  1.0853  3.0278  3.9574
   77SLPC    HY 6966   3.424   5.012   6.740  0.4504 -3.2381  1.1187
   77SLPC   O31 6967   3.420   5.072   6.948 -0.1086  0.5097  0.4201
   77SLPC   C31 6968   3.295   5.027   6.965 -0.5071  0.8047  0.0495
   77SLPC   O32 6969   3.225   4.980   6.876  0.1473  0.1520 -0.0402
   77SLPC   C32 6970   3.250   5.048   7.110 -0.0443  0.9594 -0.3782
   77SLPC   H2X 6971   3.339   5.050   7.176 -0.1060  0.6245 -0.2861
   77SLPC   H2Y 6972   3.188   4.964   7.149  0.3980  0.4757 -0.7068
   77SLPC   C23 6973   3.617   5.381   7.157  0.4094 -0.5506  0.6950
   77SLPC   H3R 6974   3.507   5.383   7.176  0.7931 -0.6143  3.1813
   77SLPC   H3S 6975   3.661   5.462   7.220 -1.8712 -0.8027  2.7262
   77SLPC   C24 6976   3.666   5.238   7.179 -0.6179  0.4788 -0.5455
   77SLPC   H4R 6977   3.764   5.214   7.132  1.0741 -0.0202  3.0765
   77SLPC   H4S 6978   3.585   5.173   7.139 -0.3630 -0.2996  0.1830
   77SLPC   C25 6979   3.671   5.192   7.325  0.0620  0.5499  0.3804
   77SLPC   H5R 6980   3.567   5.198   7.363  0.6541  3.7002  1.6416
   77SLPC   H5S 6981   3.734   5.269   7.373  1.9709  1.1216 -2.8805
   77SLPC   C26 6982   3.720   5.048   7.338 -0.2530 -0.2617  0.4757
   77SLPC   H6R 6983   3.821   5.051   7.290 -0.0970 -2.9880  0.5884
   77SLPC   H6S 6984   3.658   4.968   7.293  0.4015 -1.6661  1.9933
   77SLPC   C27 6985   3.737   4.998   7.486  0.7495 -0.3127  0.1038
   77SLPC   H7R 6986   3.774   4.893   7.492  1.3107 -0.0161  2.6647
   77SLPC   H7S 6987   3.640   5.013   7.538  0.1766 -0.5515 -0.8880
   77SLPC   C28 6988   3.836   5.083   7.570 -0.0627 -0.0320  0.4237
   77SLPC   H8R 6989   3.807   5.053   7.673  0.6272 -0.4011  0.5151
   77SLPC   H8S 6990   3.813   5.191   7.559  0.4177 -0.0949 -1.2692
   77SLPC   C29 6991   3.995   5.054   7.564 -0.1232 -0.2089  0.2533
   77SLPC   H9R 6992   4.038   4.971   7.623  2.1440  0.9927  0.3173
   77SLPC  C210 6993   4.077   5.133   7.489 -0.2026 -0.4098  0.2493
   77SLPC  H10R 6994   4.186   5.120   7.493  0.1871  2.9818  2.8300
   77SLPC  C211 6995   4.036   5.253   7.408  0.0610  0.1340  0.5314
   77SLPC  H11R 6996   3.987   5.323   7.479 -1.3335 -2.5971  2.3703
   77SLPC  H11S 6997   3.943   5.222   7.356  0.2724  3.0985 -1.6852
   77SLPC  C212 6998   4.131   5.328   7.326 -0.1476  0.1229  0.0682
   77SLPC  H12R 6999   4.180   5.411   7.379  3.0511 -2.4884  1.3570
   77SLPC  C213 7000   4.182   5.305   7.197 -0.6448  0.3936  0.3069
   77SLPC  H13R 7001   4.252   5.379   7.158  0.5998 -0.5633  0.7083
   77SLPC  C214 7002   4.142   5.188   7.107  0.9029  0.3951 -0.1516
   77SLPC  H14R 7003   4.085   5.236   7.025 -2.0389  0.9993  2.1486
   77SLPC  H14S 7004   4.074   5.113   7.154 -0.5508 -1.2352 -4.6256
   77SLPC  C215 7005   4.268   5.113   7.036 -0.6222  0.5009  0.1381
   77SLPC  H15R 7006   4.338   5.186   6.991  0.1151  0.4609  1.2075
   77SLPC  H15S 7007   4.239   5.057   6.944  3.3851 -2.6093  0.6366
   77SLPC  C216 7008   4.350   5.034   7.143 -0.0798 -0.3340 -0.5733
   77SLPC  H16R 7009   4.374   5.104   7.225 -2.3299 -0.0513 -0.1258
   77SLPC  H16S 7010   4.437   4.989   7.090 -1.9208 -0.3731 -3.6818
   77SLPC  C217 7011   4.267   4.909   7.197  0.2463  0.0123  0.6871
   77SLPC  H17R 7012   4.220   4.862   7.108  0.6807  0.6259  0.1203
   77SLPC  H17S 7013   4.184   4.945   7.262  0.2481 -1.5427  1.5671
   77SLPC  C218 7014   4.345   4.812   7.279 -0.1695 -0.4510 -0.0244
   77SLPC  H18R 7015   4.423   4.777   7.207  0.2109 -1.9035  1.0742
   77SLPC  H18S 7016   4.279   4.733   7.321 -0.0312  0.6980  2.4282
   77SLPC  H18T 7017   4.384   4.873   7.363  0.9223 -2.4361  0.9597
   77SLPC   C33 7018   3.178   5.185   7.133  1.7165  1.0591 -0.0093
   77SLPC   H3X 7019   3.088   5.195   7.069  0.8283 -1.3812  0.8041
   77SLPC   H3Y 7020   3.261   5.256   7.112  2.0828  0.5923 -0.1788
   77SLPC   C34 7021   3.124   5.189   7.275 -0.1965  0.4513  0.9080
   77SLPC   H4X 7022   3.197   5.147   7.347 -2.1134  0.2866  2.8049
   77SLPC   H4Y 7023   3.030   5.130   7.279 -0.5855  0.9822 -0.0891
   77SLPC   C35 7024   3.091   5.335   7.320  0.3405 -0.2525  0.5184
   77SLPC   H5X 7025   3.052   5.331   7.424 -0.3833 -1.5934  0.2080
   77SLPC   H5Y 7026   3.005   5.381   7.266  1.5015 -0.5353 -1.6113
   77SLPC   C36 7027   3.211   5.429   7.326 -0.0820  0.1685  0.1050
   77SLPC   H6X 7028   3.180   5.529   7.362  3.6431  0.6037  2.4176
   77SLPC   H6Y 7029   3.249   5.452   7.224  1.9661  0.0942  0.8102
   77SLPC   C37 7030   3.332   5.365   7.402 -0.8010  0.2152 -0.0193
   77SLPC   H7X 7031   3.418   5.431   7.376  0.2948 -0.7718  0.9774
   77SLPC   H7Y 7032   3.373   5.268   7.366  0.1932  1.1607 -1.4557
   77SLPC   C38 7033   3.304   5.369   7.558 -0.6007  0.3707 -1.1395
   77SLPC   H8X 7034   3.209   5.315   7.581 -0.5676 -0.1034 -2.0925
   77SLPC   H8Y 7035   3.291   5.476   7.583 -0.0021  0.5258 -1.4973
   77SLPC   C39 7036   3.413   5.312   7.650 -0.0715  0.2306 -0.2503
   77SLPC   H9X 7037   3.511   5.349   7.614  0.7466  2.4101  3.8289
   77SLPC   H9Y 7038   3.420   5.202   7.643  1.5083  0.3908 -1.2727
   77SLPC  C310 7039   3.395   5.330   7.802  0.1328 -0.4173 -0.4508
   77SLPC  H10X 7040   3.287   5.315   7.823 -0.0989  3.1453  1.1673
   77SLPC  H10Y 7041   3.431   5.429   7.834 -0.7571 -0.4284  0.5932
   77SLPC  C311 7042   3.477   5.221   7.886 -1.0777 -0.2629  0.2235
   77SLPC  H11X 7043   3.582   5.236   7.852 -0.8263 -2.1921  0.1355
   77SLPC  H11Y 7044   3.454   5.116   7.859 -1.2068 -0.0733 -0.4112
   77SLPC  C312 7045   3.455   5.239   8.035  0.2937 -0.2675  1.0153
   77SLPC  H12X 7046   3.397   5.330   8.061  1.1609  1.6478 -3.4385
   77SLPC  H12Y 7047   3.550   5.227   8.091 -0.6144 -0.1583  2.6046
   77SLPC  C313 7048   3.355   5.123   8.087  0.7642  0.3566 -0.2536
   77SLPC  H13X 7049   3.409   5.028   8.069 -0.8505 -0.2098 -2.3797
   77SLPC  H13Y 7050   3.262   5.119   8.027  0.3279  1.1155  0.3699
   77SLPC  C314 7051   3.331   5.119   8.240 -0.2040 -0.2673 -0.0861
   77SLPC  H14X 7052   3.271   5.203   8.279  0.2951 -0.1734  0.5000
   77SLPC  H14Y 7053   3.421   5.130   8.305 -1.0674  0.6465  0.9731
   77SLPC  C315 7054   3.261   4.987   8.280  0.0450 -0.1031  0.0784
   77SLPC  H15X 7055   3.327   4.898   8.269 -1.9682 -1.4192 -2.0162
   77SLPC  H15Y 7056   3.184   4.977   8.200 -0.7746 -1.8533  1.0559
   77SLPC  C316 7057   3.204   4.992   8.424  0.0414  0.0204 -0.6871
   77SLPC  H16X 7058   3.163   5.091   8.453  2.5510  0.5492  1.2161
   77SLPC  H16Y 7059   3.286   4.966   8.494  1.4336  1.3846 -1.7709
   77SLPC  C317 7060   3.092   4.891   8.445 -0.1098 -0.7411  0.0119
   77SLPC  H17X 7061   3.125   4.794   8.401  2.2591  0.7589 -1.5908
   77SLPC  H17Y 7062   3.009   4.924   8.379  0.2105 -0.3556 -0.1913
   77SLPC  C318 7063   3.033   4.860   8.585 -0.4791 -0.3934  0.0311
   77SLPC  H18X 7064   2.994   4.955   8.628 -0.2385 -0.6798  0.9036
   77SLPC  H18Y 7065   3.111   4.820   8.653 -1.5327 -0.9325  0.9378
   77SLPC  H18Z 7066   2.949   4.788   8.574 -2.6021  2.2877 -2.0824
   78SLPC     N 7067   6.011   6.025   6.163  0.6761 -0.6452 -0.3409
   78SLPC   C13 7068   5.918   5.919   6.111  0.0677 -0.1385 -0.4915
   78SLPC  H13A 7069   5.889   5.942   6.010  0.7249  0.5291 -0.5317
   78SLPC  H13B 7070   5.964   5.821   6.104  0.4567 -0.2928  2.9687
   78SLPC  H13C 7071   5.831   5.903   6.173  2.1093 -0.8036  2.3622
   78SLPC   C14 7072   5.969   6.155   6.104 -0.3884 -0.0564  0.4034
   78SLPC  H14A 7073   5.980   6.152   5.996  0.3437  1.2394  0.4229
   78SLPC  H14B 7074   5.869   6.179   6.137  0.3513  0.1483  2.5355
   78SLPC  H14C 7075   6.039   6.232   6.133  0.1560 -0.1033 -0.7348
   78SLPC   C15 7076   6.145   5.988   6.110  0.4922 -0.4899 -0.0407
   78SLPC  H15A 7077   6.139   5.974   6.003 -0.4584 -0.5747  0.0228
   78SLPC  H15B 7078   6.219   6.063   6.134  0.0449  0.3699 -1.3157
   78SLPC  H15C 7079   6.173   5.887   6.139 -2.3728 -1.4303 -0.4360
   78SLPC   C12 7080   6.013   6.032   6.307 -0.3372  0.2819  0.3704
   78SLPC  H12A 7081   6.100   6.091   6.333 -1.5492  1.5284  1.6986
   78SLPC  H12B 7082   6.028   5.935   6.351 -0.6557 -0.1178 -0.4132
   78SLPC   C11 7083   5.895   6.099   6.376  0.1572 -0.4023 -0.4677
   78SLPC  H11A 7084   5.888   6.208   6.356 -3.0695 -0.2715  1.1439
   78SLPC  H11B 7085   5.896   6.097   6.487  2.0291 -2.4234 -0.4941
   78SLPC     P 7086   5.637   6.107   6.327  0.7388 -0.3459 -0.1871
   78SLPC   O13 7087   5.648   6.231   6.249  0.5568  0.3555 -0.7175
   78SLPC   O14 7088   5.540   6.009   6.281  1.0269  0.3104 -0.0310
   78SLPC   O12 7089   5.778   6.030   6.333  0.5256 -1.0458  0.1288
   78SLPC   O11 7090   5.601   6.130   6.477 -0.7100 -0.8044  0.2944
   78SLPC    C1 7091   5.643   6.039   6.576  0.2117  0.5443  0.4361
   78SLPC    HA 7092   5.696   5.949   6.538  1.9274  1.4069  0.6850
   78SLPC    HB 7093   5.719   6.088   6.642  0.1622  0.5769  0.4697
   78SLPC    C2 7094   5.531   6.000   6.674  0.3173 -0.5789 -0.1194
   78SLPC    HS 7095   5.436   5.988   6.617  0.2992  0.2571 -0.2747
   78SLPC   O21 7096   5.524   6.110   6.771  0.0503  0.1337  0.5503
   78SLPC   C21 7097   5.417   6.185   6.761 -0.3338 -0.0279  0.0190
   78SLPC   O22 7098   5.318   6.173   6.693  0.1689 -0.0000 -0.3616
   78SLPC   C22 7099   5.437   6.302   6.848  0.4004  0.1388  0.1195
   78SLPC   H2R 7100   5.486   6.383   6.790 -1.7015  1.2423 -0.1554
   78SLPC   H2S 7101   5.335   6.336   6.873  0.9570  0.8395  1.4957
   78SLPC    C3 7102   5.564   5.860   6.750  0.2055  0.2213 -0.0659
   78SLPC    HX 7103   5.664   5.869   6.797  0.8203  1.0422 -1.4727
   78SLPC    HY 7104   5.569   5.774   6.679  0.0409 -0.3711  0.6390
   78SLPC   O31 7105   5.463   5.830   6.852 -0.5338 -0.4628  0.0286
   78SLPC   C31 7106   5.360   5.770   6.801 -0.3593  0.3263 -0.4263
   78SLPC   O32 7107   5.350   5.736   6.683  0.1813  0.0495  0.1571
   78SLPC   C32 7108   5.269   5.710   6.906 -0.4591 -0.2595  0.0972
   78SLPC   H2X 7109   5.240   5.793   6.974 -0.6516 -0.3304  0.1025
   78SLPC   H2Y 7110   5.332   5.641   6.967 -0.2756 -0.6601 -0.5344
   78SLPC   C23 7111   5.511   6.273   6.983  0.0010  0.5675  0.4591
   78SLPC   H3R 7112   5.617   6.242   6.968  0.9619  3.0089  1.8756
   78SLPC   H3S 7113   5.461   6.183   7.024 -1.5029  0.9182 -0.5611
   78SLPC   C24 7114   5.504   6.374   7.091 -0.1238  0.1105 -0.1763
   78SLPC   H4R 7115   5.569   6.464   7.079 -2.0543  1.5113 -0.2365
   78SLPC   H4S 7116   5.548   6.329   7.182 -1.3953  0.2755  0.5193
   78SLPC   C25 7117   5.363   6.405   7.138  0.4661 -0.7772  0.0224
   78SLPC   H5R 7118   5.320   6.305   7.162  0.0757 -0.2022  1.7569
   78SLPC   H5S 7119   5.300   6.450   7.058  0.7079  0.8636  0.7446
   78SLPC   C26 7120   5.349   6.497   7.254 -0.0078  0.3430 -0.8314
   78SLPC   H6R 7121   5.356   6.603   7.221  1.6737  1.2572  2.2609
   78SLPC   H6S 7122   5.442   6.466   7.307 -1.9007 -1.7150  1.4076
   78SLPC   C27 7123   5.211   6.478   7.320  0.5290 -0.1493  0.5927
   78SLPC   H7R 7124   5.220   6.380   7.372 -1.0180 -0.7750 -0.2700
   78SLPC   H7S 7125   5.137   6.464   7.238  1.4061  1.8229 -0.5618
   78SLPC   C28 7126   5.180   6.601   7.414 -0.8254  0.2199 -0.0040
   78SLPC   H8R 7127   5.177   6.696   7.356  0.5089  1.8395  2.4912
   78SLPC   H8S 7128   5.261   6.612   7.489 -0.9222 -3.8761  0.7982
   78SLPC   C29 7129   5.046   6.588   7.484 -0.7661  0.2663 -0.0252
   78SLPC   H9R 7130   4.967   6.600   7.407 -1.6199  0.2840  0.8467
   78SLPC  C210 7131   5.023   6.566   7.617 -0.3831  0.2878  0.7304
   78SLPC  H10R 7132   4.918   6.546   7.644 -0.4011  2.6159  2.5620
   78SLPC  C211 7133   5.128   6.551   7.729  0.3260 -0.2477  0.1076
   78SLPC  H11R 7134   5.215   6.497   7.685 -1.5227 -2.4141 -0.9736
   78SLPC  H11S 7135   5.090   6.470   7.794 -0.9607  0.0159 -0.3019
   78SLPC  C212 7136   5.159   6.678   7.801  0.6948  0.8496  0.2121
   78SLPC  H12R 7137   5.131   6.776   7.759  0.7337  1.1423  0.8564
   78SLPC  C213 7138   5.196   6.682   7.924  0.1641 -0.5408  0.1506
   78SLPC  H13R 7139   5.221   6.778   7.971  1.7026 -1.1691  0.6516
   78SLPC  C214 7140   5.226   6.561   8.014 -0.3854  0.3550 -0.5315
   78SLPC  H14R 7141   5.314   6.588   8.076  1.2199  1.4341 -3.1848
   78SLPC  H14S 7142   5.261   6.471   7.958 -0.5860 -0.2253  0.2594
   78SLPC  C215 7143   5.115   6.523   8.120 -0.5758  0.1015 -0.0501
   78SLPC  H15R 7144   5.017   6.502   8.073  0.3292  0.3341 -2.0745
   78SLPC  H15S 7145   5.112   6.614   8.183  2.4698 -0.0254  0.3788
   78SLPC  C216 7146   5.149   6.406   8.221 -0.9322  0.6720  0.0158
   78SLPC  H16R 7147   5.232   6.445   8.284 -0.3214  0.4386 -0.6456
   78SLPC  H16S 7148   5.187   6.320   8.163 -1.5509 -0.8937  1.8870
   78SLPC  C217 7149   5.036   6.373   8.310  0.1562 -0.2185 -0.1525
   78SLPC  H17R 7150   5.060   6.274   8.354  0.1633 -0.4015 -0.5744
   78SLPC  H17S 7151   4.940   6.340   8.268 -0.4967  1.2720  0.1176
   78SLPC  C218 7152   5.016   6.474   8.423 -0.0161  0.8417 -0.1592
   78SLPC  H18R 7153   4.960   6.420   8.502  0.5470 -0.6340 -0.7497
   78SLPC  H18S 7154   4.956   6.566   8.404 -2.6701 -1.4272 -3.3897
   78SLPC  H18T 7155   5.117   6.496   8.465  0.8921 -2.8507 -0.2227
   78SLPC   C33 7156   5.132   5.659   6.854  0.3058 -0.2093  0.4628
   78SLPC   H3X 7157   5.153   5.582   6.777  0.8905 -0.8928  1.3019
   78SLPC   H3Y 7158   5.081   5.750   6.815 -1.5826 -2.0825 -1.6081
   78SLPC   C34 7159   5.044   5.606   6.960 -0.1992  0.9254  0.3201
   78SLPC   H4X 7160   5.066   5.500   6.987 -1.5281  0.3364 -0.7816
   78SLPC   H4Y 7161   4.951   5.609   6.898 -1.4756 -1.7887  1.9735
   78SLPC   C35 7162   5.036   5.685   7.100 -0.9004 -0.1459 -0.1740
   78SLPC   H5X 7163   5.005   5.788   7.073 -0.4393 -0.2040 -0.9638
   78SLPC   H5Y 7164   5.136   5.682   7.150  0.0416 -1.0748 -2.0586
   78SLPC   C36 7165   4.931   5.625   7.187  0.2816 -0.0427  0.1067
   78SLPC   H6X 7166   4.947   5.516   7.201 -2.3107 -0.4455  0.2060
   78SLPC   H6Y 7167   4.831   5.630   7.139  0.7261  1.5958 -0.6759
   78SLPC   C37 7168   4.936   5.694   7.327 -0.4911 -0.0400  0.6066
   78SLPC   H7X 7169   4.896   5.795   7.305 -0.3920  0.0534  0.8484
   78SLPC   H7Y 7170   5.036   5.697   7.375 -0.5630 -0.3102  0.7738
   78SLPC   C38 7171   4.843   5.627   7.426 -0.1560 -0.2148 -0.1942
   78SLPC   H8X 7172   4.890   5.528   7.439 -0.9720 -0.2992  2.2814
   78SLPC   H8Y 7173   4.743   5.614   7.379  0.5545 -0.9955 -1.5121
   78SLPC   C39 7174   4.824   5.686   7.572 -0.6814 -0.3909 -0.3250
   78SLPC   H9X 7175   4.748   5.766   7.568 -2.4373 -1.8897  1.9907
   78SLPC   H9Y 7176   4.919   5.734   7.603 -2.1695  3.0766 -0.9561
   78SLPC  C310 7177   4.781   5.587   7.678 -0.4144 -0.0495 -0.2134
   78SLPC  H10X 7178   4.702   5.518   7.640 -0.5192 -1.3364  2.2523
   78SLPC  H10Y 7179   4.738   5.613   7.777  0.2583  0.3851 -0.0330
   78SLPC  C311 7180   4.896   5.478   7.707 -0.1809  0.1354 -0.0317
   78SLPC  H11X 7181   4.986   5.539   7.729  0.9595 -1.3122 -0.6789
   78SLPC  H11Y 7182   4.917   5.422   7.614  1.3690 -0.5249  0.7045
   78SLPC  C312 7183   4.874   5.373   7.815 -0.0262 -0.1292 -0.6774
   78SLPC  H12X 7184   4.802   5.310   7.759 -1.2940  0.0283  0.7238
   78SLPC  H12Y 7185   4.839   5.435   7.901  0.6809 -1.1147  0.3282
   78SLPC  C313 7186   5.004   5.302   7.844 -0.2691  0.1245 -0.2236
   78SLPC  H13X 7187   5.071   5.368   7.902  2.0939 -2.1598 -0.2713
   78SLPC  H13Y 7188   5.057   5.273   7.750  1.4440 -0.9636  1.0593
   78SLPC  C314 7189   4.989   5.172   7.932  0.0325 -0.3558  0.2124
   78SLPC  H14X 7190   5.086   5.122   7.913  1.1242  2.1521 -1.0896
   78SLPC  H14Y 7191   4.904   5.119   7.885  1.1241 -0.9882 -1.0625
   78SLPC  C315 7192   4.959   5.200   8.080 -0.1972  0.1960 -0.6789
   78SLPC  H15X 7193   4.863   5.253   8.092 -1.1663 -1.6051 -0.2111
   78SLPC  H15Y 7194   5.036   5.265   8.127  1.5574 -1.6818 -0.8410
   78SLPC  C316 7195   4.960   5.072   8.162 -0.3398  0.7402 -0.9767
   78SLPC  H16X 7196   5.054   5.014   8.151  0.3039  1.5483  0.1379
   78SLPC  H16Y 7197   4.877   5.010   8.123 -1.9753  1.9672  0.4609
   78SLPC  C317 7198   4.917   5.080   8.315  0.2706  0.4348  0.4714
   78SLPC  H17X 7199   4.904   4.976   8.353  0.1557  0.1391 -0.3629
   78SLPC  H17Y 7200   4.824   5.140   8.327 -0.1490 -0.0917 -0.1907
   78SLPC  C318 7201   5.027   5.155   8.392 -0.6118  0.0065 -0.7182
   78SLPC  H18X 7202   5.122   5.098   8.387 -1.3534 -1.1689 -1.7721
   78SLPC  H18Y 7203   5.005   5.179   8.499 -1.0937  0.6415 -0.9607
   78SLPC  H18Z 7204   5.039   5.254   8.343  0.2642  0.2601 -0.0114
   79SLPC     N 7205   2.507   2.141   6.181 -0.1442  0.8523 -0.0232
   79SLPC   C13 7206   2.519   2.255   6.086 -0.0735  0.3921 -0.1765
   79SLPC  H13A 7207   2.444   2.246   6.009  0.2846 -1.1212 -0.3619
   79SLPC  H13B 7208   2.505   2.349   6.138  1.1741  0.9485 -0.8234
   79SLPC  H13C 7209   2.614   2.261   6.035  1.2372  2.5764  2.3806
   79SLPC   C14 7210   2.364   2.110   6.206 -0.3636  0.3811  0.1924
   79SLPC  H14A 7211   2.304   2.093   6.118  1.2433 -2.0634 -0.4869
   79SLPC  H14B 7212   2.346   2.034   6.281  0.9850 -0.3175 -0.1635
   79SLPC  H14C 7213   2.309   2.198   6.234 -2.4400 -0.8371  0.0307
   79SLPC   C15 7214   2.573   2.189   6.315 -0.1397 -0.2654  0.4953
   79SLPC  H15A 7215   2.573   2.115   6.393  1.8817  0.4169  1.1762
   79SLPC  H15B 7216   2.678   2.203   6.295 -0.4227  0.3585 -0.5777
   79SLPC  H15C 7217   2.531   2.279   6.355 -2.4728 -1.4209  0.7225
   79SLPC   C12 7218   2.566   2.013   6.121 -0.0363  0.6232 -0.6641
   79SLPC  H12A 7219   2.665   2.038   6.084  2.1510 -3.0023  2.3472
   79SLPC  H12B 7220   2.508   1.980   6.036 -4.8408  1.4529  2.1128
   79SLPC   C11 7221   2.578   1.881   6.207  0.2265 -0.4482 -0.1399
   79SLPC  H11A 7222   2.637   1.920   6.293  2.8639 -0.6873 -1.7842
   79SLPC  H11B 7223   2.635   1.806   6.148 -1.3842 -2.9036  1.3438
   79SLPC     P 7224   2.419   1.733   6.356  0.2074  0.2890 -0.4293
   79SLPC   O13 7225   2.277   1.700   6.363  0.2797  0.2407  0.7477
   79SLPC   O14 7226   2.502   1.615   6.336  0.4675  0.4532 -0.3035
   79SLPC   O12 7227   2.445   1.830   6.238  0.1942 -0.3093 -0.0649
   79SLPC   O11 7228   2.460   1.819   6.478 -0.4325 -0.2190 -0.1967
   79SLPC    C1 7229   2.396   1.941   6.511 -1.0374 -0.3819  0.6072
   79SLPC    HA 7230   2.482   2.012   6.516 -1.5430  0.3138 -0.2984
   79SLPC    HB 7231   2.323   1.973   6.434 -1.8064  0.5152  1.6946
   79SLPC    C2 7232   2.324   1.934   6.646 -0.4114 -0.1233 -0.4926
   79SLPC    HS 7233   2.288   2.034   6.677 -0.2305  0.4694 -2.1140
   79SLPC   O21 7234   2.414   1.880   6.747 -0.2539  0.3120 -0.2319
   79SLPC   C21 7235   2.510   1.951   6.792  0.4079 -0.4499 -0.2370
   79SLPC   O22 7236   2.534   2.066   6.766  0.1849 -0.1390 -0.5191
   79SLPC   C22 7237   2.579   1.873   6.909 -0.4009 -0.6087  0.4274
   79SLPC   H2R 7238   2.581   1.765   6.885  0.1003 -0.7164  0.9344
   79SLPC   H2S 7239   2.688   1.897   6.901 -0.7798  1.9075  2.0913
   79SLPC    C3 7240   2.203   1.845   6.638 -0.2223 -0.2683  0.6298
   79SLPC    HX 7241   2.242   1.746   6.605 -0.4017  0.0813 -0.6266
   79SLPC    HY 7242   2.135   1.886   6.560  1.0032  0.0969 -0.2584
   79SLPC   O31 7243   2.120   1.847   6.756  0.5234 -0.2696  0.2543
   79SLPC   C31 7244   2.137   1.745   6.839  0.3787 -0.8224  0.5488
   79SLPC   O32 7245   2.200   1.643   6.804 -0.4176  0.2092 -0.0455
   79SLPC   C32 7246   2.062   1.762   6.972 -0.7384  0.1493 -0.0554
   79SLPC   H2X 7247   2.002   1.855   6.961 -1.7161 -0.5007 -0.3522
   79SLPC   H2Y 7248   2.143   1.778   7.047 -1.1354  0.1425  0.3815
   79SLPC   C23 7249   2.521   1.893   7.054  0.6798  0.5128  0.0119
   79SLPC   H3R 7250   2.557   1.807   7.115 -2.9184 -1.7008 -0.8525
   79SLPC   H3S 7251   2.411   1.879   7.046  0.4560  1.2361  1.6006
   79SLPC   C24 7252   2.561   2.019   7.129  0.0466  0.3096 -0.0347
   79SLPC   H4R 7253   2.523   2.107   7.072 -2.6437  0.0334  1.2653
   79SLPC   H4S 7254   2.670   2.036   7.143 -0.0930  1.5116 -0.3249
   79SLPC   C25 7255   2.506   2.013   7.274 -0.6513  0.0632 -0.0067
   79SLPC   H5R 7256   2.526   1.918   7.328 -0.7958  0.1775  0.2493
   79SLPC   H5S 7257   2.397   2.033   7.262 -0.0594  1.4009 -3.8365
   79SLPC   C26 7258   2.548   2.128   7.359 -0.0674  0.0818 -0.6144
   79SLPC   H6R 7259   2.524   2.226   7.311  2.8209  0.7849 -0.6712
   79SLPC   H6S 7260   2.656   2.124   7.383 -0.0554 -0.1433 -0.7049
   79SLPC   C27 7261   2.480   2.124   7.504 -0.2035 -0.6841  0.0212
   79SLPC   H7R 7262   2.371   2.105   7.498 -0.1956 -0.7844  0.2085
   79SLPC   H7S 7263   2.502   2.222   7.550  1.0766 -0.1746 -1.6167
   79SLPC   C28 7264   2.526   2.010   7.599 -0.1977  0.4707  0.0111
   79SLPC   H8R 7265   2.634   2.031   7.608 -0.1363  0.2285 -0.1447
   79SLPC   H8S 7266   2.510   1.916   7.541  0.6668  0.5344 -0.3399
   79SLPC   C29 7267   2.435   1.997   7.726 -0.1891  0.0221  0.1400
   79SLPC   H9R 7268   2.326   2.013   7.721 -0.4481 -1.7906 -0.3270
   79SLPC  C210 7269   2.487   1.974   7.842  0.2627 -0.1889 -1.1899
   79SLPC  H10R 7270   2.432   1.991   7.935 -0.1225  1.6354 -1.7376
   79SLPC  C211 7271   2.632   1.956   7.868  0.1992 -1.1713  0.0981
   79SLPC  H11R 7272   2.668   2.054   7.907  1.0027 -2.6419  3.1726
   79SLPC  H11S 7273   2.688   1.937   7.774  0.2177  0.4243 -0.2239
   79SLPC  C212 7274   2.661   1.848   7.961 -0.0707  0.2248  0.0287
   79SLPC  H12R 7275   2.655   1.750   7.912 -0.0680 -0.6449  1.7658
   79SLPC  C213 7276   2.675   1.855   8.101  0.7138 -0.2456  0.5572
   79SLPC  H13R 7277   2.706   1.765   8.157  1.5847 -0.4568 -0.2456
   79SLPC  C214 7278   2.659   1.975   8.187 -0.9869 -0.9322 -0.1562
   79SLPC  H14R 7279   2.554   2.010   8.181 -1.0554 -1.0028  0.5800
   79SLPC  H14S 7280   2.709   2.061   8.137 -1.4019 -0.7107 -0.1919
   79SLPC  C215 7281   2.720   1.962   8.327 -0.1573 -0.7727 -0.5417
   79SLPC  H15R 7282   2.731   2.059   8.378  1.3940  0.2863 -2.7931
   79SLPC  H15S 7283   2.823   1.922   8.320 -0.5333 -2.1706  1.5327
   79SLPC  C216 7284   2.633   1.883   8.425  0.2573 -0.5636 -0.2230
   79SLPC  H16R 7285   2.618   1.784   8.378  1.0592  0.0344 -1.8198
   79SLPC  H16S 7286   2.533   1.930   8.436  0.7303  0.3410  0.2918
   79SLPC  C217 7287   2.693   1.862   8.560  0.0562 -0.1263 -0.9410
   79SLPC  H17R 7288   2.689   1.961   8.612  0.4284  0.0287 -1.2022
   79SLPC  H17S 7289   2.797   1.823   8.555  0.7513  1.5813 -0.3513
   79SLPC  C218 7290   2.606   1.766   8.642 -0.0174  0.0502  0.2451
   79SLPC  H18R 7291   2.645   1.774   8.746 -2.4996  2.0044  1.0808
   79SLPC  H18S 7292   2.631   1.667   8.599 -0.4419  0.1114 -0.1421
   79SLPC  H18T 7293   2.496   1.777   8.631  0.2610  2.2844 -0.7087
   79SLPC   C33 7294   1.960   1.640   6.995 -0.4674  0.2515 -0.4619
   79SLPC   H3X 7295   2.026   1.552   7.010  0.2776  0.4788 -2.2127
   79SLPC   H3Y 7296   1.912   1.625   6.895 -0.7643  1.3642 -0.4947
   79SLPC   C34 7297   1.871   1.666   7.109 -0.1380  0.5379  0.1859
   79SLPC   H4X 7298   1.798   1.748   7.090 -0.1711  0.3119 -0.6701
   79SLPC   H4Y 7299   1.920   1.683   7.207 -0.2765 -2.1276  0.7720
   79SLPC   C35 7300   1.779   1.543   7.142 -0.0987  0.0964 -0.3124
   79SLPC   H5X 7301   1.852   1.464   7.168 -0.8149 -0.4499  0.0791
   79SLPC   H5Y 7302   1.718   1.509   7.055 -0.6371 -1.5206  0.6663
   79SLPC   C36 7303   1.670   1.561   7.252 -0.9402 -0.1467  0.5473
   79SLPC   H6X 7304   1.586   1.629   7.226 -0.8398 -0.2488 -0.0545
   79SLPC   H6Y 7305   1.728   1.621   7.326 -0.8956  0.9520 -0.3605
   79SLPC   C37 7306   1.633   1.426   7.324 -0.0721 -0.0935 -0.0275
   79SLPC   H7X 7307   1.728   1.377   7.355 -2.0098 -1.7094  3.7213
   79SLPC   H7Y 7308   1.574   1.356   7.261  1.5165 -1.7098  0.2483
   79SLPC   C38 7309   1.555   1.454   7.459 -0.5699  0.3412  0.2563
   79SLPC   H8X 7310   1.452   1.488   7.436 -0.2950  0.0530 -1.5289
   79SLPC   H8Y 7311   1.611   1.530   7.517 -0.7546  0.3126  0.4714
   79SLPC   C39 7312   1.537   1.318   7.528  0.0883  0.2496 -0.1362
   79SLPC   H9X 7313   1.636   1.271   7.541 -0.7016 -1.0545  1.3298
   79SLPC   H9Y 7314   1.482   1.258   7.452 -1.5686  0.8165  0.5963
   79SLPC  C310 7315   1.467   1.337   7.666 -0.0543 -0.5033  0.6063
   79SLPC  H10X 7316   1.361   1.362   7.641  0.5359  0.0375 -1.4168
   79SLPC  H10Y 7317   1.511   1.421   7.722 -1.2042  0.0227  0.7394
   79SLPC  C311 7318   1.491   1.212   7.753 -0.6327  0.6341 -0.3787
   79SLPC  H11X 7319   1.598   1.182   7.754 -0.8394 -0.1135  0.8831
   79SLPC  H11Y 7320   1.439   1.128   7.702 -0.3094 -1.0505  1.9886
   79SLPC  C312 7321   1.456   1.242   7.899  0.4288  0.3363  0.5603
   79SLPC  H12X 7322   1.345   1.246   7.903  0.4885  1.4641  1.1937
   79SLPC  H12Y 7323   1.493   1.339   7.938 -2.0327  0.8382  1.7923
   79SLPC  C313 7324   1.510   1.130   7.997 -0.6057 -0.2714 -0.1098
   79SLPC  H13X 7325   1.493   1.154   8.104 -0.5913  1.7455 -0.5516
   79SLPC  H13Y 7326   1.619   1.114   7.981 -0.6898 -1.5790  0.5065
   79SLPC  C314 7327   1.422   1.001   7.988  0.1348  0.2526 -0.3177
   79SLPC  H14X 7328   1.418   0.955   7.887  0.1612 -2.1221  0.7383
   79SLPC  H14Y 7329   1.316   1.032   8.000  0.4535  1.3222 -0.2158
   79SLPC  C315 7330   1.482   0.903   8.093  0.6830  0.3214  0.3895
   79SLPC  H15X 7331   1.465   0.955   8.190 -0.2746  0.6952  0.0197
   79SLPC  H15Y 7332   1.591   0.897   8.072  0.3110 -2.2497 -1.0985
   79SLPC  C316 7333   1.416   0.763   8.104  0.8589 -0.1962  0.3042
   79SLPC  H16X 7334   1.501   0.692   8.110  0.9588  0.1189  3.1034
   79SLPC  H16Y 7335   1.354   0.731   8.017 -0.8257 -0.6145  1.6451
   79SLPC  C317 7336   1.317   0.751   8.228  0.0303 -0.1025  0.0564
   79SLPC  H17X 7337   1.232   0.820   8.212  0.0437  0.4530  2.1855
   79SLPC  H17Y 7338   1.373   0.783   8.318  1.9265  1.1183 -1.5138
   79SLPC  C318 7339   1.251   0.609   8.233 -0.5623  0.0740  0.3007
   79SLPC  H18X 7340   1.236   0.583   8.126 -0.7925  1.2557  0.0382
   79SLPC  H18Y 7341   1.149   0.620   8.278 -0.8898 -0.9777 -0.1696
   79SLPC  H18Z 7342   1.317   0.529   8.274  1.4589  0.5097 -1.9941
   80SLPC     N 7343   4.624   6.311   6.158  0.2635 -0.7704 -0.0040
   80SLPC   C13 7344   4.524   6.346   6.048  0.1142  0.3192 -0.1819
   80SLPC  H13A 7345   4.580   6.354   5.956  1.2151  0.3549  0.4787
   80SLPC  H13B 7346   4.457   6.263   6.031  1.8106 -0.5489 -2.8074
   80SLPC  H13C 7347   4.472   6.440   6.063 -1.7826 -0.6256 -0.6808
   80SLPC   C14 7348   4.716   6.422   6.190 -0.3954  0.2751 -0.2123
   80SLPC  H14A 7349   4.793   6.392   6.259  0.7365  0.3182 -1.4480
   80SLPC  H14B 7350   4.769   6.448   6.100  1.6241 -0.0782  0.8667
   80SLPC  H14C 7351   4.669   6.511   6.229 -0.6414 -0.1992  0.5993
   80SLPC   C15 7352   4.698   6.185   6.124 -0.6454  0.0539  0.3287
   80SLPC  H15A 7353   4.755   6.147   6.208  1.5056  0.9837 -0.6830
   80SLPC  H15B 7354   4.634   6.106   6.087 -0.9845  0.9856 -1.1132
   80SLPC  H15C 7355   4.778   6.206   6.055 -1.9906  4.1433 -0.1291
   80SLPC   C12 7356   4.545   6.285   6.282  0.1463 -0.0956 -0.2382
   80SLPC  H12A 7357   4.499   6.374   6.322  0.8915 -0.9699  2.6618
   80SLPC  H12B 7358   4.608   6.253   6.363 -0.6320  0.2764  0.5233
   80SLPC   C11 7359   4.431   6.181   6.273 -0.3092 -0.0741 -0.2001
   80SLPC  H11A 7360   4.348   6.206   6.203 -1.5527 -1.5056  0.7162
   80SLPC  H11B 7361   4.391   6.194   6.376 -0.1471  0.4642 -0.2070
   80SLPC     P 7362   4.516   5.956   6.362 -0.1704  0.6919  0.2047
   80SLPC   O13 7363   4.515   5.820   6.303 -0.2116 -0.0940  0.5852
   80SLPC   O14 7364   4.636   5.997   6.439 -0.2780  0.4457 -0.1122
   80SLPC   O12 7365   4.484   6.053   6.244  0.2954  0.3091  0.1911
   80SLPC   O11 7366   4.391   5.958   6.465  0.4214  0.5256 -0.6269
   80SLPC    C1 7367   4.257   5.953   6.402  0.6752  0.1956 -0.4504
   80SLPC    HA 7368   4.234   6.057   6.373  1.0797  0.4661  0.1864
   80SLPC    HB 7369   4.260   5.890   6.310  0.7741 -1.3336  0.5761
   80SLPC    C2 7370   4.141   5.902   6.490  0.2638  0.8032  0.3660
   80SLPC    HS 7371   4.051   5.888   6.427  1.1779  0.1286 -0.8185
   80SLPC   O21 7372   4.118   5.986   6.603  0.3461  0.5997  0.3059
   80SLPC   C21 7373   4.063   6.103   6.582 -0.1634  0.3762 -0.2589
   80SLPC   O22 7374   4.034   6.154   6.476 -0.2999  0.7255 -0.4718
   80SLPC   C22 7375   4.066   6.179   6.715  0.2522  0.5910 -0.3446
   80SLPC   H2R 7376   4.173   6.207   6.730  0.1536  0.7501  0.0894
   80SLPC   H2S 7377   3.998   6.264   6.695 -0.7364 -0.0799  0.1442
   80SLPC    C3 7378   4.175   5.748   6.529 -0.8387  0.4761 -0.1593
   80SLPC    HX 7379   4.279   5.734   6.566  0.1204  0.1214 -2.9158
   80SLPC    HY 7380   4.165   5.693   6.434  0.3016  1.3817 -0.8295
   80SLPC   O31 7381   4.082   5.693   6.625  0.1945  0.4000 -0.0460
   80SLPC   C31 7382   4.120   5.716   6.751 -0.8787  0.3088  0.0832
   80SLPC   O32 7383   4.228   5.728   6.796 -0.3500 -0.4875 -0.1080
   80SLPC   C32 7384   3.990   5.708   6.839  0.0676  0.2674 -0.4358
   80SLPC   H2X 7385   3.926   5.622   6.809 -1.4307  1.1524  0.1667
   80SLPC   H2Y 7386   3.934   5.804   6.837  1.1862  0.9179 -1.0026
   80SLPC   C23 7387   4.017   6.102   6.841 -0.1655 -0.7351  0.5674
   80SLPC   H3R 7388   4.049   6.147   6.937 -0.5596 -2.3408  1.4634
   80SLPC   H3S 7389   4.057   5.999   6.833  0.0170 -0.5117 -1.9833
   80SLPC   C24 7390   3.861   6.095   6.836 -0.1020 -0.0527 -0.0751
   80SLPC   H4R 7391   3.829   6.035   6.748 -0.2204 -1.6697  1.0483
   80SLPC   H4S 7392   3.825   6.199   6.823  2.5399  1.0960  1.4404
   80SLPC   C25 7393   3.815   6.032   6.965 -0.0221 -0.5719 -0.4381
   80SLPC   H5R 7394   3.878   5.943   6.986  1.3346  0.7604  1.3215
   80SLPC   H5S 7395   3.712   5.996   6.947  0.5996 -1.6352 -1.9278
   80SLPC   C26 7396   3.808   6.126   7.090 -0.3178 -1.0038  0.8877
   80SLPC   H6R 7397   3.755   6.216   7.053  3.8747  0.7183 -1.3568
   80SLPC   H6S 7398   3.914   6.160   7.102 -0.7331  0.8034 -0.3116
   80SLPC   C27 7399   3.748   6.080   7.222 -0.5853 -0.5113  0.3418
   80SLPC   H7R 7400   3.779   5.974   7.232 -1.2768 -0.8591 -1.0657
   80SLPC   H7S 7401   3.637   6.072   7.218 -0.3747 -2.9544 -1.8892
   80SLPC   C28 7402   3.787   6.167   7.333  0.4741 -0.3306  0.0530
   80SLPC   H8R 7403   3.721   6.147   7.419  0.0991 -0.8776 -0.3607
   80SLPC   H8S 7404   3.798   6.273   7.302 -2.2456  0.8007  2.7346
   80SLPC   C29 7405   3.927   6.120   7.377  0.0157  0.7258  0.6480
   80SLPC   H9R 7406   4.009   6.153   7.311  0.4311 -0.0784  0.7514
   80SLPC  C210 7407   3.957   6.046   7.489 -0.5412 -0.3711  0.2170
   80SLPC  H10R 7408   4.062   6.019   7.511  0.0664 -1.7792 -3.8385
   80SLPC  C211 7409   3.860   5.993   7.593 -0.1521 -0.4063 -0.4001
   80SLPC  H11R 7410   3.905   5.898   7.629  0.4243 -0.1189 -0.3600
   80SLPC  H11S 7411   3.762   5.965   7.548  0.2171 -1.6917 -0.4249
   80SLPC  C212 7412   3.827   6.089   7.704 -0.2053  0.6387 -0.1121
   80SLPC  H12R 7413   3.823   6.194   7.671 -1.6736  0.3510 -0.8940
   80SLPC  C213 7414   3.810   6.067   7.832  0.3539 -0.1120 -0.3289
   80SLPC  H13R 7415   3.798   6.152   7.901 -0.5060 -1.3771  1.1372
   80SLPC  C214 7416   3.808   5.933   7.904  0.2321 -0.3937  0.1333
   80SLPC  H14R 7417   3.846   5.855   7.835  1.8048  0.2121  0.2813
   80SLPC  H14S 7418   3.703   5.913   7.934  0.2699 -0.0795  0.4859
   80SLPC  C215 7419   3.890   5.928   8.031  1.5623  0.5291 -0.3944
   80SLPC  H15R 7420   3.991   5.972   8.020  1.0765  1.5271 -0.9104
   80SLPC  H15S 7421   3.897   5.817   8.042 -0.0754  0.1496 -2.5742
   80SLPC  C216 7422   3.821   5.998   8.150 -0.3178 -0.4597  0.3042
   80SLPC  H16R 7423   3.710   5.987   8.150 -0.4186  0.5565  0.0069
   80SLPC  H16S 7424   3.846   6.106   8.145 -3.1154  0.2799  1.1373
   80SLPC  C217 7425   3.869   5.947   8.286  0.2795  0.1703 -0.1895
   80SLPC  H17R 7426   3.980   5.939   8.288  0.1774 -1.4898 -0.5845
   80SLPC  H17S 7427   3.832   5.843   8.300  1.3432  0.0316  1.8506
   80SLPC  C218 7428   3.810   6.025   8.405  0.2139  0.7921  0.5574
   80SLPC  H18R 7429   3.825   5.970   8.500  1.3375  0.9720  0.4815
   80SLPC  H18S 7430   3.704   6.046   8.377  0.0213  0.8390  1.3240
   80SLPC  H18T 7431   3.861   6.123   8.410 -1.4237  1.6937  0.1264
   80SLPC   C33 7432   4.032   5.676   6.982 -0.1944 -0.0499  0.1364
   80SLPC   H3X 7433   4.100   5.755   7.021  0.3698 -1.3528  1.8258
   80SLPC   H3Y 7434   4.062   5.570   6.982  1.8910  0.5119 -1.3846
   80SLPC   C34 7435   3.916   5.697   7.086 -0.8649  0.2828  0.2966
   80SLPC   H4X 7436   3.818   5.662   7.048 -0.3985  1.0656 -1.6883
   80SLPC   H4Y 7437   3.900   5.800   7.124  1.3858  0.6467  0.3223
   80SLPC   C35 7438   3.938   5.612   7.213  0.7145 -0.4503  0.9976
   80SLPC   H5X 7439   4.041   5.607   7.254  0.0768 -1.2452  2.5232
   80SLPC   H5Y 7440   3.916   5.507   7.182 -0.2772 -0.6140  2.2001
   80SLPC   C36 7441   3.837   5.658   7.316  0.2952 -0.1121 -0.7530
   80SLPC   H6X 7442   3.735   5.670   7.273  0.6448  1.3319 -1.1796
   80SLPC   H6Y 7443   3.875   5.758   7.346  1.7217 -0.4459 -1.4215
   80SLPC   C37 7444   3.839   5.568   7.442  0.5180  0.8194  0.0719
   80SLPC   H7X 7445   3.946   5.557   7.470 -0.1297  0.7287  2.6350
   80SLPC   H7Y 7446   3.810   5.463   7.418  1.9226 -0.1157  2.2697
   80SLPC   C38 7447   3.750   5.621   7.558  0.4034  0.3287  0.3672
   80SLPC   H8X 7448   3.647   5.595   7.528 -0.2110  2.5348  0.4766
   80SLPC   H8Y 7449   3.738   5.731   7.574 -0.5597  0.5391 -1.6650
   80SLPC   C39 7450   3.797   5.556   7.685 -0.0529  0.0829  0.2889
   80SLPC   H9X 7451   3.885   5.616   7.719 -0.5999  2.1378 -1.8094
   80SLPC   H9Y 7452   3.830   5.451   7.670 -0.0508  0.2081 -0.6211
   80SLPC  C310 7453   3.705   5.572   7.804 -0.5445 -0.1030 -0.3590
   80SLPC  H10X 7454   3.616   5.507   7.789  0.7653 -1.5360 -2.1034
   80SLPC  H10Y 7455   3.673   5.677   7.826  3.5501  1.2211 -0.2887
   80SLPC  C311 7456   3.768   5.511   7.931 -0.6660  0.2188  0.1859
   80SLPC  H11X 7457   3.857   5.577   7.938 -0.0162 -0.4478 -1.4745
   80SLPC  H11Y 7458   3.804   5.407   7.922  0.6566  0.5178  1.8020
   80SLPC  C312 7459   3.694   5.531   8.061 -0.2980 -1.1232  0.0376
   80SLPC  H12X 7460   3.612   5.456   8.055  0.1660 -1.5477 -1.0771
   80SLPC  H12Y 7461   3.652   5.634   8.064  0.5713 -0.7759  0.4319
   80SLPC  C313 7462   3.770   5.499   8.187  0.2961 -0.4114 -0.1944
   80SLPC  H13X 7463   3.844   5.580   8.204  0.5415 -0.6138 -0.2792
   80SLPC  H13Y 7464   3.835   5.411   8.167  0.8436  0.0465 -0.4431
   80SLPC  C314 7465   3.671   5.468   8.306 -0.4649 -0.5704  0.0154
   80SLPC  H14X 7466   3.590   5.400   8.271 -0.2616 -0.8330  0.0522
   80SLPC  H14Y 7467   3.632   5.570   8.329 -1.3355 -0.9583  0.2919
   80SLPC  C315 7468   3.739   5.414   8.431  0.6682  0.0192  0.1902
   80SLPC  H15X 7469   3.655   5.393   8.501  1.3534 -3.3723  0.0909
   80SLPC  H15Y 7470   3.798   5.500   8.469 -0.2571  1.1979 -0.9914
   80SLPC  C316 7471   3.817   5.278   8.417 -0.3444  0.8471  0.3497
   80SLPC  H16X 7472   3.890   5.253   8.498 -0.5853  0.5445  0.4760
   80SLPC  H16Y 7473   3.863   5.272   8.316  2.3330 -0.4882  1.5974
   80SLPC  C317 7474   3.716   5.162   8.437  0.0690 -0.0133 -0.4270
   80SLPC  H17X 7475   3.629   5.190   8.373 -2.8644 -2.0857  2.4964
   80SLPC  H17Y 7476   3.667   5.171   8.537  3.0567 -1.0714  1.1796
   80SLPC  C318 7477   3.769   5.025   8.412 -0.0194  0.3310  0.1222
   80SLPC  H18X 7478   3.846   5.014   8.332  0.0968  2.4615 -0.0954
   80SLPC  H18Y 7479   3.688   4.957   8.378 -0.3422  0.7213  0.0973
   80SLPC  H18Z 7480   3.814   4.987   8.506 -3.4372  1.5406  2.3429
   81SAPS     N 7481   4.275   0.460  11.049  0.2113 -0.0907 -0.4316
   81SAPS   HN1 7482   4.298   0.472  10.948  0.4445  0.3306 -0.3300
   81SAPS   HN2 7483   4.173   0.441  11.045  0.0099  1.1575 -1.8107
   81SAPS   HN3 7484   4.302   0.547  11.099 -0.9508 -0.1940  0.3959
   81SAPS   C12 7485   4.353   0.345  11.099  0.9881  0.2585  0.7595
   81SAPS  H12A 7486   4.447   0.391  11.126  1.3582 -0.3536  0.5260
   81SAPS   C13 7487   4.287   0.269  11.217 -0.4501 -0.4580 -0.6191
   81SAPS  O13A 7488   4.170   0.303  11.253  0.4529  0.1174  0.3399
   81SAPS  O13B 7489   4.334   0.158  11.248 -0.1154  0.3518  0.2694
   81SAPS   C11 7490   4.371   0.243  10.981 -0.6283  0.0822 -0.2940
   81SAPS  H11A 7491   4.275   0.189  10.969  0.3781 -1.6367 -0.8304
   81SAPS  H11B 7492   4.449   0.171  11.014 -2.0117 -0.4594  1.8966
   81SAPS     P 7493   4.307   0.332  10.744  0.5098  0.0691 -0.7590
   81SAPS   O13 7494   4.226   0.213  10.704  0.0638  0.0978  0.5737
   81SAPS   O14 7495   4.231   0.454  10.787 -0.3418  0.0789  0.5375
   81SAPS   O12 7496   4.405   0.297  10.857 -0.3135 -0.1839 -0.0483
   81SAPS   O11 7497   4.409   0.369  10.625  0.2814  0.0746 -0.2731
   81SAPS    C1 7498   4.395   0.477  10.536 -0.1186  0.5742  0.8530
   81SAPS    HA 7499   4.350   0.563  10.590 -1.7176  0.0832  0.3067
   81SAPS    HB 7500   4.492   0.520  10.504  0.0001  1.6653  2.5758
   81SAPS    C2 7501   4.306   0.442  10.419 -0.4709 -0.1822  0.6162
   81SAPS    HS 7502   4.314   0.523  10.343 -0.0967  0.2851  1.1522
   81SAPS   O21 7503   4.178   0.400  10.458 -0.3716  0.5993  0.2789
   81SAPS   C21 7504   4.100   0.500  10.482  0.2329  0.4051  0.1312
   81SAPS   O22 7505   4.126   0.617  10.473 -0.5073  0.6529  0.0351
   81SAPS   C22 7506   3.966   0.445  10.519 -0.2078 -0.0509  0.4491
   81SAPS   H2R 7507   3.980   0.363  10.593  1.5367 -1.5216 -1.4411
   81SAPS   H2S 7508   3.909   0.526  10.569  0.4890  0.1570  0.9166
   81SAPS    C3 7509   4.374   0.324  10.340 -0.8130 -0.4668 -0.6046
   81SAPS    HX 7510   4.373   0.230  10.399 -3.2672 -0.3474 -0.3766
   81SAPS    HY 7511   4.479   0.358  10.329 -1.0657  0.3634 -0.5138
   81SAPS   O31 7512   4.300   0.309  10.212 -0.3715  0.1065  0.6310
   81SAPS   C31 7513   4.226   0.203  10.207  1.4183 -0.8954  0.2629
   81SAPS   O32 7514   4.188   0.125  10.294  0.5284  0.3132  0.8391
   81SAPS   C32 7515   4.195   0.181  10.060  0.7594 -0.2476  0.1066
   81SAPS   H2X 7516   4.153   0.276  10.019 -0.3121  0.5101  2.8251
   81SAPS   H2Y 7517   4.119   0.102  10.048 -0.5268  0.9226  0.3760
   81SAPS   C23 7518   3.883   0.388  10.403  0.8528 -0.5359  0.6120
   81SAPS   H3R 7519   3.793   0.348  10.454  0.2343  0.3479  0.2231
   81SAPS   H3S 7520   3.936   0.309  10.346 -0.1033  1.2256 -2.8684
   81SAPS   C24 7521   3.818   0.484  10.301  0.0801 -0.3882  0.3074
   81SAPS   H4R 7522   3.767   0.567  10.355  0.7433  1.1941 -1.4192
   81SAPS   H4S 7523   3.748   0.411  10.255  0.1540 -0.1492 -0.1900
   81SAPS   C25 7524   3.927   0.533  10.210  0.1913 -1.0122  0.5475
   81SAPS   H5R 7525   3.998   0.600  10.260  0.7231  0.6471 -2.3274
   81SAPS   C26 7526   3.940   0.498  10.081 -0.0357 -0.3897  0.2650
   81SAPS   H6R 7527   4.023   0.542  10.025 -0.7762 -0.1229 -0.6308
   81SAPS   C27 7528   3.834   0.411  10.015 -0.4879  0.5571 -0.2214
   81SAPS   H7R 7529   3.747   0.474   9.986 -0.9615 -1.2333 -2.8463
   81SAPS   H7S 7530   3.802   0.328  10.082  3.7627  0.8034  2.2422
   81SAPS   C28 7531   3.879   0.335   9.898 -0.3617 -0.0327  0.3794
   81SAPS   H8R 7532   3.934   0.241   9.910 -0.8962 -0.5734 -1.2508
   81SAPS   C29 7533   3.844   0.350   9.765 -0.5379  0.1666 -0.1268
   81SAPS   H9R 7534   3.881   0.265   9.705  0.9507  1.1902 -0.7121
   81SAPS  C210 7535   3.751   0.452   9.695  0.2065 -0.0062 -0.3193
   81SAPS  H10R 7536   3.764   0.555   9.735 -0.2079 -0.2916  0.5707
   81SAPS  H10S 7537   3.643   0.437   9.719  0.5334  0.8854  1.7990
   81SAPS  C211 7538   3.779   0.446   9.547 -0.1976  0.3145 -0.2266
   81SAPS  H11R 7539   3.883   0.462   9.514  0.1348 -2.7811 -0.7690
   81SAPS  C212 7540   3.690   0.422   9.452 -0.2021  0.1704  0.1745
   81SAPS  H12R 7541   3.728   0.413   9.349 -2.0189 -0.4263 -0.4702
   81SAPS  C213 7542   3.543   0.391   9.456 -0.1248  0.1484  0.6730
   81SAPS  H13R 7543   3.491   0.486   9.430 -0.4176 -0.7061 -2.1032
   81SAPS  H13S 7544   3.516   0.372   9.562 -1.3837 -2.2790 -0.0454
   81SAPS  C214 7545   3.506   0.278   9.363 -0.8376 -0.1353  0.6319
   81SAPS  H14R 7546   3.540   0.277   9.258  0.2980 -0.9015  1.0050
   81SAPS  C215 7547   3.427   0.177   9.401 -0.2025  0.2743  0.0879
   81SAPS  H15R 7548   3.416   0.090   9.335 -0.5720 -0.2299  0.8094
   81SAPS  C216 7549   3.361   0.143   9.530 -0.4481 -0.0487 -0.5144
   81SAPS  H16R 7550   3.265   0.092   9.508 -0.0112 -0.5330 -1.3166
   81SAPS  H16S 7551   3.333   0.234   9.586 -0.6141 -0.6061  0.3129
   81SAPS  C217 7552   3.458   0.055   9.606 -0.3302 -0.0800  0.0203
   81SAPS  H17R 7553   3.551   0.111   9.630 -0.3441 -0.4567  0.9961
   81SAPS  H17S 7554   3.472  -0.038   9.547  0.8306  0.4312 -0.5076
   81SAPS  C218 7555   3.406   0.017   9.745 -0.3345 -0.6772 -0.1501
   81SAPS  H18R 7556   3.468  -0.071   9.771  0.6944  0.1024  0.0541
   81SAPS  H18S 7557   3.305  -0.027   9.731 -1.0985  1.0186 -0.0434
   81SAPS  C219 7558   3.403   0.126   9.852 -0.1589 -0.9794  0.4317
   81SAPS  H19R 7559   3.334   0.095   9.934 -0.2824 -1.9425 -0.0339
   81SAPS  H19S 7560   3.354   0.221   9.820 -0.4935 -2.2429 -3.0036
   81SAPS  C220 7561   3.533   0.160   9.913  0.3753  0.0988  0.3264
   81SAPS  H20R 7562   3.614   0.156   9.836 -0.2875 -0.7663 -0.3405
   81SAPS  H20S 7563   3.557   0.087   9.993 -2.4158  1.0214  2.0509
   81SAPS  H20T 7564   3.526   0.256   9.968  0.0586  1.2589 -1.7005
   81SAPS   C33 7565   4.319   0.138   9.975 -0.3619 -0.8059 -0.5830
   81SAPS   H3X 7566   4.325   0.028   9.988 -2.5582 -1.0094 -1.1210
   81SAPS   H3Y 7567   4.412   0.181  10.018 -1.1406  1.0745 -0.7099
   81SAPS   C34 7568   4.298   0.177   9.833 -0.2005  0.2551 -0.7362
   81SAPS   H4X 7569   4.392   0.180   9.774  1.3523 -1.4259  1.5703
   81SAPS   H4Y 7570   4.256   0.280   9.829  3.1486  1.7007 -0.2495
   81SAPS   C35 7571   4.191   0.093   9.764 -1.0263  0.1175 -0.3372
   81SAPS   H5X 7572   4.100   0.116   9.822  0.4344  0.8876  1.7017
   81SAPS   H5Y 7573   4.218  -0.015   9.768  0.9106  0.5704 -0.6560
   81SAPS   C36 7574   4.146   0.131   9.622 -0.1459  0.1074  0.4195
   81SAPS   H6X 7575   4.148   0.241   9.604 -0.8098  0.0167 -0.2508
   81SAPS   H6Y 7576   4.041   0.097   9.610  0.8009 -2.7039 -0.3571
   81SAPS   C37 7577   4.217   0.061   9.510 -0.0652  0.0296  0.2679
   81SAPS   H7X 7578   4.234  -0.047   9.531 -1.8087 -0.0844  1.1829
   81SAPS   H7Y 7579   4.316   0.111   9.506 -1.0324  2.0373  0.5441
   81SAPS   C38 7580   4.155   0.092   9.373  0.7669 -0.0008 -0.3808
   81SAPS   H8X 7581   4.046   0.070   9.379  0.5331  1.5057  1.0787
   81SAPS   H8Y 7582   4.194   0.025   9.293  1.6891 -2.6006  2.1421
   81SAPS   C39 7583   4.176   0.244   9.325  0.1315  0.1315  0.1808
   81SAPS   H9X 7584   4.259   0.235   9.252 -0.6188  0.0977 -0.6779
   81SAPS   H9Y 7585   4.219   0.309   9.404 -0.2683  1.3631 -0.6001
   81SAPS  C310 7586   4.050   0.315   9.276  0.2009  0.0273  0.1355
   81SAPS  H10X 7587   3.977   0.325   9.359  0.9728  1.7734  0.6286
   81SAPS  H10Y 7588   3.996   0.259   9.197 -1.4900 -0.3865  1.5453
   81SAPS  C311 7589   4.094   0.453   9.219 -0.2813  0.5271  0.0513
   81SAPS  H11X 7590   4.138   0.430   9.120 -1.5815 -1.9592  0.0259
   81SAPS  H11Y 7591   4.171   0.502   9.283 -0.6970  1.7264 -0.3532
   81SAPS  C312 7592   3.967   0.547   9.194  0.6054 -0.8209 -0.7188
   81SAPS  H12X 7593   3.933   0.580   9.295 -0.6045  0.1722 -1.4324
   81SAPS  H12Y 7594   3.890   0.480   9.149 -1.4836 -0.4572  2.1690
   81SAPS  C313 7595   4.006   0.675   9.097 -1.2681  0.4225  0.1177
   81SAPS  H13X 7596   4.062   0.755   9.151 -0.6711  0.5857 -0.7301
   81SAPS  H13Y 7597   3.904   0.709   9.072 -1.3203 -1.6959 -2.7752
   81SAPS  C314 7598   4.081   0.638   8.969 -0.2974  0.8826 -0.0883
   81SAPS  H14X 7599   4.177   0.589   8.997 -2.1846 -2.0250  1.5877
   81SAPS  H14Y 7600   4.113   0.729   8.914 -2.1188  1.3342 -0.4506
   81SAPS  C315 7601   4.010   0.538   8.876  0.1076  0.3121 -0.0923
   81SAPS  H15X 7602   3.906   0.577   8.868  0.2461  0.5861 -0.6102
   81SAPS  H15Y 7603   4.017   0.436   8.920 -1.8634 -0.5194 -1.5958
   81SAPS  C316 7604   4.080   0.536   8.740 -0.2306  0.6149 -0.8270
   81SAPS  H16X 7605   4.079   0.644   8.714  3.1271  0.7930 -0.5032
   81SAPS  H16Y 7606   4.018   0.478   8.669 -0.5395 -1.1142  0.8451
   81SAPS  C317 7607   4.232   0.511   8.729 -0.1530 -0.0888 -0.6610
   81SAPS  H17X 7608   4.294   0.582   8.787  1.5443 -1.8916 -0.1936
   81SAPS  H17Y 7609   4.262   0.543   8.627  2.1330  1.0052  0.3256
   81SAPS  C318 7610   4.271   0.373   8.771 -0.5883 -0.3573  0.2019
   81SAPS  H18X 7611   4.224   0.357   8.870  0.4381  1.5511  1.0281
   81SAPS  H18Y 7612   4.381   0.358   8.777 -0.5339 -0.9501 -1.9311
   81SAPS  H18Z 7613   4.241   0.292   8.701 -2.8680  0.6365 -0.0155
   82SAPS     N 7614   2.841   5.930  10.916  0.1946 -0.2162  0.0700
   82SAPS   HN1 7615   2.750   5.980  10.923  0.3880  0.1212  0.2217
   82SAPS   HN2 7616   2.872   5.921  10.818  0.2957  1.7901 -0.1020
   82SAPS   HN3 7617   2.822   5.841  10.966  1.1883 -0.3979  0.1203
   82SAPS   C12 7618   2.944   6.011  10.998 -0.2667  0.4569 -0.0458
   82SAPS  H12A 7619   2.911   6.023  11.100 -3.2698 -0.1871 -0.9177
   82SAPS   C13 7620   3.085   5.943  11.006 -0.0673  0.2351  0.6947
   82SAPS  O13A 7621   3.104   5.842  10.931  0.1582  0.0710 -0.3113
   82SAPS  O13B 7622   3.186   6.014  11.039 -0.3605 -0.2878  0.1379
   82SAPS   C11 7623   2.951   6.158  10.937 -0.2535 -0.0796  0.2439
   82SAPS  H11A 7624   3.016   6.154  10.847 -1.5373  1.4434 -0.7929
   82SAPS  H11B 7625   3.009   6.221  11.008  0.5267 -0.8003  0.2532
   82SAPS     P 7626   2.806   6.316  10.783  0.0150 -0.1138 -0.1534
   82SAPS   O13 7627   2.665   6.352  10.766 -0.3065  0.0764 -0.1264
   82SAPS   O14 7628   2.898   6.427  10.820  0.3222  0.0616 -0.2073
   82SAPS   O12 7629   2.822   6.213  10.905  0.2591 -0.1536 -0.2606
   82SAPS   O11 7630   2.858   6.238  10.665  0.3476  0.4529  0.1048
   82SAPS    C1 7631   2.972   6.302  10.592 -0.4665  0.1695  0.0493
   82SAPS    HA 7632   3.056   6.344  10.652  0.8342  1.5721 -2.6336
   82SAPS    HB 7633   3.017   6.220  10.532 -0.8292 -1.9189  2.5368
   82SAPS    C2 7634   2.924   6.420  10.501 -0.8366  0.3652  0.7481
   82SAPS    HS 7635   2.877   6.500  10.563 -1.0145  1.8508 -1.2576
   82SAPS   O21 7636   2.817   6.374  10.410 -0.3140 -0.4636  0.1230
   82SAPS   C21 7637   2.743   6.468  10.349 -0.0040  1.0164 -0.6960
   82SAPS   O22 7638   2.729   6.578  10.390 -0.3641  0.3911 -0.0217
   82SAPS   C22 7639   2.667   6.409  10.233 -0.1030 -0.4832  0.4046
   82SAPS   H2R 7640   2.738   6.423  10.148 -0.1651  5.8379  1.1841
   82SAPS   H2S 7641   2.665   6.298  10.235  1.0905 -0.5151  0.1185
   82SAPS    C3 7642   3.044   6.476  10.418 -0.5965  0.3798  0.4911
   82SAPS    HX 7643   3.098   6.397  10.362  1.6818  2.3378 -0.1476
   82SAPS    HY 7644   3.115   6.514  10.494  0.2110 -1.9821  0.9716
   82SAPS   O31 7645   3.003   6.576  10.323  0.4035 -0.5268  0.3028
   82SAPS   C31 7646   3.048   6.708  10.356  0.1350 -0.3473  0.5868
   82SAPS   O32 7647   3.127   6.732  10.440 -0.1201 -1.3647 -0.1358
   82SAPS   C32 7648   2.977   6.810  10.269 -0.3076 -0.6745  0.0477
   82SAPS   H2X 7649   2.968   6.906  10.325 -2.2196 -0.3523 -0.7754
   82SAPS   H2Y 7650   2.871   6.786  10.248 -0.7184 -1.4243  2.8846
   82SAPS   C23 7651   2.527   6.465  10.198 -0.7869 -0.1513 -0.1172
   82SAPS   H3R 7652   2.538   6.575  10.192 -0.4600 -0.2159 -0.8303
   82SAPS   H3S 7653   2.465   6.433  10.284  1.0402 -2.4546  0.4027
   82SAPS   C24 7654   2.468   6.403  10.073  0.6020  0.7773 -0.2324
   82SAPS   H4R 7655   2.362   6.435  10.066  0.5359  0.1284 -2.2826
   82SAPS   H4S 7656   2.465   6.296  10.104  1.8087  0.3675 -1.4843
   82SAPS   C25 7657   2.545   6.420   9.951 -0.3741 -0.4352  0.1914
   82SAPS   H5R 7658   2.586   6.326   9.913  0.1370  0.7028 -2.1913
   82SAPS   C26 7659   2.552   6.535   9.878 -0.0385  0.0447  0.1806
   82SAPS   H6R 7660   2.605   6.541   9.782 -1.4434 -3.2247 -0.8825
   82SAPS   C27 7661   2.483   6.663   9.922 -0.3001 -0.6851  0.2944
   82SAPS   H7R 7662   2.562   6.741   9.931  1.2869 -2.1102 -0.8029
   82SAPS   H7S 7663   2.442   6.651  10.024 -1.2501 -0.8802 -0.0995
   82SAPS   C28 7664   2.373   6.702   9.818  0.4460 -0.5591  0.1021
   82SAPS   H8R 7665   2.272   6.675   9.850  0.6416 -1.3979  0.0300
   82SAPS   C29 7666   2.388   6.759   9.692  0.3788  0.1915 -0.3503
   82SAPS   H9R 7667   2.307   6.783   9.621 -0.4108  1.9481  1.1122
   82SAPS  C210 7668   2.522   6.801   9.639 -0.9226  0.0335 -0.1085
   82SAPS  H10R 7669   2.549   6.749   9.545  2.9599  0.6802  0.5586
   82SAPS  H10S 7670   2.601   6.773   9.712 -0.2812  3.1761  0.4679
   82SAPS  C211 7671   2.525   6.946   9.623 -0.2260 -0.0189  0.3712
   82SAPS  H11R 7672   2.542   7.013   9.708 -0.5431 -0.1557  0.5434
   82SAPS  C212 7673   2.474   7.012   9.515 -0.3552 -0.7370  0.9757
   82SAPS  H12R 7674   2.484   7.122   9.512  0.9569 -0.8482  1.0138
   82SAPS  C213 7675   2.410   6.953   9.394 -0.0523 -0.1815  0.0613
   82SAPS  H13R 7676   2.319   7.007   9.360 -0.6579 -0.8364  0.6356
   82SAPS  H13S 7677   2.389   6.845   9.407  0.7784 -0.1894  1.3798
   82SAPS  C214 7678   2.507   6.965   9.277 -0.2747 -0.5095  1.0664
   82SAPS  H14R 7679   2.580   7.042   9.305  1.1365 -0.9765 -1.2361
   82SAPS  C215 7680   2.517   6.900   9.160 -0.2882 -0.2185  0.5265
   82SAPS  H15R 7681   2.612   6.920   9.107 -0.1663 -0.3658  0.6923
   82SAPS  C216 7682   2.436   6.787   9.099  0.7950  0.0066 -0.4142
   82SAPS  H16R 7683   2.365   6.748   9.175 -2.5456  0.2161 -3.3229
   82SAPS  H16S 7684   2.503   6.704   9.067  1.3858 -0.3033  1.5521
   82SAPS  C217 7685   2.340   6.829   8.988 -0.3413  0.3063  0.1005
   82SAPS  H17R 7686   2.283   6.917   9.025 -1.4962 -1.0814  1.6640
   82SAPS  H17S 7687   2.260   6.756   8.964  1.8189 -2.3950  0.9088
   82SAPS  C218 7688   2.415   6.860   8.863  0.5979  0.3500 -0.3280
   82SAPS  H18R 7689   2.470   6.767   8.836 -1.4453 -1.5901  1.9207
   82SAPS  H18S 7690   2.482   6.949   8.868  0.0526  0.8442 -1.5493
   82SAPS  C219 7691   2.330   6.886   8.738 -0.2769  0.0037  0.2519
   82SAPS  H19R 7692   2.254   6.963   8.765 -0.2366  0.8678 -1.9333
   82SAPS  H19S 7693   2.274   6.796   8.704  1.7691 -1.1534 -0.1162
   82SAPS  C220 7694   2.404   6.944   8.618  0.4488 -0.1100 -0.3041
   82SAPS  H20R 7695   2.451   7.041   8.643  1.0648 -0.6004  0.4606
   82SAPS  H20S 7696   2.336   6.966   8.533 -3.0471 -2.7468  1.6702
   82SAPS  H20T 7697   2.481   6.872   8.582  0.3868  0.2742 -1.2236
   82SAPS   C33 7698   3.050   6.824  10.137 -0.4230 -0.0615  0.7950
   82SAPS   H3X 7699   3.056   6.725  10.085  0.4973  0.2554  0.2796
   82SAPS   H3Y 7700   3.150   6.871  10.144  0.6645 -2.1707  0.0263
   82SAPS   C34 7701   2.964   6.911  10.041  0.1766 -0.0676 -0.4015
   82SAPS   H4X 7702   2.945   7.008  10.091  2.2820 -1.1345  2.6214
   82SAPS   H4Y 7703   2.864   6.866  10.021 -0.3145  0.1849  1.4214
   82SAPS   C35 7704   3.023   6.929   9.908 -0.2376  0.1221  0.3163
   82SAPS   H5X 7705   3.022   6.832   9.853 -0.5133  0.3504 -0.0899
   82SAPS   H5Y 7706   3.124   6.973   9.903 -1.5701  3.1731 -1.0540
   82SAPS   C36 7707   2.936   7.029   9.828  0.0925  0.1131  0.5919
   82SAPS   H6X 7708   2.935   7.131   9.870  2.7777  1.0657 -1.4811
   82SAPS   H6Y 7709   2.828   7.006   9.837  0.2814 -0.4017  1.5368
   82SAPS   C37 7710   2.963   7.010   9.682 -0.8390  0.6411  0.3043
   82SAPS   H7X 7711   2.930   6.909   9.648  1.6920 -0.3134  0.5176
   82SAPS   H7Y 7712   3.074   7.013   9.673 -1.0542  1.1221 -2.4228
   82SAPS   C38 7713   2.908   7.123   9.601  0.2708 -0.3873 -0.0911
   82SAPS   H8X 7714   2.967   7.209   9.639  1.1104 -0.4222 -1.2695
   82SAPS   H8Y 7715   2.800   7.127   9.624  0.3548 -1.8506  0.5936
   82SAPS   C39 7716   2.936   7.119   9.449 -0.3333  0.4958  0.3731
   82SAPS   H9X 7717   2.884   7.034   9.400 -2.1800  1.0446  1.3535
   82SAPS   H9Y 7718   3.045   7.101   9.436 -0.7854 -3.6491  1.7960
   82SAPS  C310 7719   2.877   7.248   9.376 -0.6511 -0.1308  0.0549
   82SAPS  H10X 7720   2.910   7.347   9.416  1.5330 -1.3019  1.2339
   82SAPS  H10Y 7721   2.766   7.243   9.379 -0.6250 -0.1381  1.1752
   82SAPS  C311 7722   2.918   7.239   9.226 -0.3479 -0.1426  0.6230
   82SAPS  H11X 7723   2.852   7.162   9.180 -0.2112  0.5989 -0.8440
   82SAPS  H11Y 7724   3.022   7.202   9.219 -0.4457 -0.2031 -0.5988
   82SAPS  C312 7725   2.926   7.372   9.156  0.0073  0.3991 -0.4505
   82SAPS  H12X 7726   2.982   7.448   9.214  1.1257  0.8963 -2.1366
   82SAPS  H12Y 7727   2.818   7.398   9.151 -0.5270 -1.7774 -0.3963
   82SAPS  C313 7728   2.993   7.361   9.011  0.1294 -0.3436  0.4308
   82SAPS  H13X 7729   3.101   7.353   9.036  0.2316  0.8337  0.3845
   82SAPS  H13Y 7730   2.982   7.457   8.954  1.4443 -1.3172 -1.5411
   82SAPS  C314 7731   2.944   7.241   8.925  0.2431 -0.3114 -0.1130
   82SAPS  H14X 7732   2.834   7.242   8.918  0.1419  1.2132  1.3027
   82SAPS  H14Y 7733   2.979   7.145   8.970  4.1683  0.3797 -1.4460
   82SAPS  C315 7734   2.993   7.241   8.775  0.1976  0.4016  0.1147
   82SAPS  H15X 7735   3.101   7.215   8.774  0.0580 -0.4656  3.4489
   82SAPS  H15Y 7736   2.984   7.343   8.733  0.2761  1.6180  2.9800
   82SAPS  C316 7737   2.913   7.150   8.683 -0.0570 -0.5597  0.5327
   82SAPS  H16X 7738   2.892   7.050   8.725  0.0143 -0.4337  0.8686
   82SAPS  H16Y 7739   2.958   7.144   8.582 -0.9661  0.7007  0.0392
   82SAPS  C317 7740   2.768   7.198   8.658 -0.1406 -0.4733  0.2333
   82SAPS  H17X 7741   2.759   7.303   8.623 -1.1345 -0.3210  0.9179
   82SAPS  H17Y 7742   2.708   7.206   8.751 -1.1172 -1.6864 -0.2812
   82SAPS  C318 7743   2.691   7.105   8.569 -0.0510  0.7252 -0.5969
   82SAPS  H18X 7744   2.752   7.090   8.478  1.5124  2.2850  0.1735
   82SAPS  H18Y 7745   2.597   7.156   8.539 -0.3516 -0.3097 -1.4746
   82SAPS  H18Z 7746   2.666   7.013   8.626  1.5714 -0.1117 -1.2028
   83SAPS     N 7747   5.423   1.463  10.990 -0.2463 -0.6800  0.5417
   83SAPS   HN1 7748   5.332   1.433  10.949  0.3713 -1.8289 -0.0044
   83SAPS   HN2 7749   5.460   1.540  10.929  0.8200 -1.0789  0.6715
   83SAPS   HN3 7750   5.479   1.376  10.985  1.0757  0.1679  0.2407
   83SAPS   C12 7751   5.414   1.502  11.130  0.0669  0.4755  0.3278
   83SAPS  H12A 7752   5.425   1.403  11.171  0.2091  0.4865  0.3168
   83SAPS   C13 7753   5.543   1.581  11.180  0.1316  0.1739  0.2018
   83SAPS  O13A 7754   5.645   1.592  11.101 -0.2050 -0.1527  0.7028
   83SAPS  O13B 7755   5.553   1.615  11.303 -0.2477  0.1501  0.0310
   83SAPS   C11 7756   5.273   1.559  11.159  0.5307  1.0881 -0.0080
   83SAPS  H11A 7757   5.266   1.658  11.109  0.5650  0.4305 -1.3346
   83SAPS  H11B 7758   5.256   1.575  11.268 -1.9735 -2.1567  0.1588
   83SAPS     P 7759   5.032   1.532  11.077  0.1329 -0.0574 -0.2900
   83SAPS   O13 7760   4.948   1.430  11.011 -0.7535 -0.1240  0.4252
   83SAPS   O14 7761   4.991   1.585  11.205  0.7442 -0.3603  0.6451
   83SAPS   O12 7762   5.172   1.473  11.102  0.3916 -0.2687  0.3362
   83SAPS   O11 7763   5.050   1.647  10.973  0.1871  0.0914 -0.5973
   83SAPS    C1 7764   5.149   1.658  10.872 -0.2013  0.5099 -0.4520
   83SAPS    HA 7765   5.202   1.750  10.906 -1.1864  1.2161 -0.8284
   83SAPS    HB 7766   5.224   1.577  10.878 -1.6764 -0.7786  0.8856
   83SAPS    C2 7767   5.088   1.670  10.733  0.3935 -0.1552 -0.2666
   83SAPS    HS 7768   5.048   1.772  10.717  2.7331  0.4264 -2.8445
   83SAPS   O21 7769   4.993   1.564  10.712 -0.4688  0.2758  0.5008
   83SAPS   C21 7770   4.884   1.594  10.645 -0.4852  0.7516  0.5350
   83SAPS   O22 7771   4.870   1.687  10.566 -0.5348  0.2951  0.1846
   83SAPS   C22 7772   4.772   1.497  10.677 -0.7077  0.1961 -0.2624
   83SAPS   H2R 7773   4.803   1.392  10.661  0.5296  0.6525 -0.9113
   83SAPS   H2S 7774   4.753   1.511  10.786  1.4213 -2.7044  0.5426
   83SAPS    C3 7775   5.198   1.672  10.614 -0.0601 -0.3183  0.2832
   83SAPS    HX 7776   5.232   1.568  10.600  1.1146  0.1426 -0.3474
   83SAPS    HY 7777   5.280   1.730  10.661 -1.5938 -0.1152  2.8363
   83SAPS   O31 7778   5.147   1.711  10.483  0.0310  0.6642 -0.1345
   83SAPS   C31 7779   5.141   1.840  10.470 -0.6479  0.3644  0.1584
   83SAPS   O32 7780   5.185   1.925  10.545 -0.0959  0.3898  0.2651
   83SAPS   C32 7781   5.067   1.858  10.330 -0.4311 -0.0220 -0.6148
   83SAPS   H2X 7782   4.963   1.820  10.339 -0.6434  1.0856  1.9523
   83SAPS   H2Y 7783   5.128   1.800  10.258  0.3731  0.8912 -0.6710
   83SAPS   C23 7784   4.638   1.528  10.591  0.1280 -0.2126 -0.8111
   83SAPS   H3R 7785   4.659   1.512  10.483  0.0842 -1.9402 -0.5752
   83SAPS   H3S 7786   4.617   1.636  10.610 -0.8462 -0.9370  2.4218
   83SAPS   C24 7787   4.520   1.438  10.645 -0.1736 -0.5772 -0.8022
   83SAPS   H4R 7788   4.535   1.449  10.754  0.2786  0.2559 -0.9454
   83SAPS   H4S 7789   4.534   1.333  10.611  1.6113 -0.2240 -1.2294
   83SAPS   C25 7790   4.390   1.495  10.600 -0.1734 -0.0590 -0.6936
   83SAPS   H5R 7791   4.338   1.561  10.671  0.7974 -0.0956  0.0779
   83SAPS   C26 7792   4.344   1.473  10.475  0.1616 -0.2466  0.6733
   83SAPS   H6R 7793   4.240   1.501  10.453  0.6785  0.5522 -0.8998
   83SAPS   C27 7794   4.406   1.400  10.360 -0.1893 -0.4799  0.0437
   83SAPS   H7R 7795   4.511   1.368  10.378  0.4509  0.0983 -2.4604
   83SAPS   H7S 7796   4.397   1.459  10.267  1.7413 -1.0771 -0.5610
   83SAPS   C28 7797   4.317   1.278  10.345 -0.1875  0.3427 -0.1577
   83SAPS   H8R 7798   4.209   1.295  10.354 -0.3076 -1.7283  3.1435
   83SAPS   C29 7799   4.364   1.151  10.335  0.2007  0.2815  0.1982
   83SAPS   H9R 7800   4.286   1.073  10.335 -0.1784  0.6594  1.9132
   83SAPS  C210 7801   4.502   1.097  10.331 -0.1763  0.4521  0.8362
   83SAPS  H10R 7802   4.574   1.180  10.314 -1.5526  1.6534  0.7441
   83SAPS  H10S 7803   4.514   1.027  10.246  0.7536  0.3005  1.0893
   83SAPS  C211 7804   4.553   1.049  10.463  0.7009 -0.0275 -0.0679
   83SAPS  H11R 7805   4.625   1.107  10.521 -0.5084  0.4926  0.9243
   83SAPS  C212 7806   4.521   0.931  10.516  0.0033  0.3722  1.1335
   83SAPS  H12R 7807   4.551   0.905  10.619  1.6864  0.6869  0.7463
   83SAPS  C213 7808   4.436   0.826  10.450  0.0344 -0.0739 -0.2525
   83SAPS  H13R 7809   4.351   0.884  10.407 -0.9664  0.4266  2.3091
   83SAPS  H13S 7810   4.399   0.744  10.515 -0.4375 -0.1906 -0.6613
   83SAPS  C214 7811   4.492   0.767  10.325  0.0185  0.3500  1.0626
   83SAPS  H14R 7812   4.599   0.743  10.329  0.2046  0.4168 -2.1736
   83SAPS  C215 7813   4.428   0.744  10.209 -0.1350  0.3176 -0.2479
   83SAPS  H15R 7814   4.491   0.702  10.129  0.4532 -3.7137  2.1703
   83SAPS  C216 7815   4.286   0.762  10.173  0.4116 -0.3057  0.3032
   83SAPS  H16R 7816   4.213   0.777  10.255 -2.5944 -0.4223 -2.2585
   83SAPS  H16S 7817   4.256   0.671  10.117  0.2392 -0.4537  0.6335
   83SAPS  C217 7818   4.274   0.884  10.086 -0.1958 -0.4710 -0.8468
   83SAPS  H17R 7819   4.361   0.892  10.018 -0.5050 -1.7685 -1.3978
   83SAPS  H17S 7820   4.283   0.965  10.162  1.3525 -1.0950 -0.3366
   83SAPS  C218 7821   4.135   0.889  10.017 -0.0677 -0.2391  0.1874
   83SAPS  H18R 7822   4.056   0.878  10.095 -0.6761 -2.8429 -0.7508
   83SAPS  H18S 7823   4.121   0.811   9.939  1.4710 -0.2230 -0.1166
   83SAPS  C219 7824   4.113   1.020   9.937 -0.0347  0.4068  0.3950
   83SAPS  H19R 7825   4.016   1.020   9.883 -0.1673  1.8671  0.6308
   83SAPS  H19S 7826   4.193   1.030   9.860 -1.8364 -0.6913 -1.6627
   83SAPS  C220 7827   4.118   1.145  10.017  0.4309 -0.1722  0.4372
   83SAPS  H20R 7828   4.079   1.226   9.953 -2.9945 -1.2102  1.1092
   83SAPS  H20S 7829   4.224   1.163  10.047  0.7008 -0.0246 -0.6060
   83SAPS  H20T 7830   4.059   1.147  10.111 -0.7775  0.5704 -0.3357
   83SAPS   C33 7831   5.045   2.004  10.293 -0.4554 -0.1856 -0.0804
   83SAPS   H3X 7832   5.130   2.072  10.316 -1.8213  0.6036  2.8796
   83SAPS   H3Y 7833   4.966   2.040  10.363 -0.9998 -1.2359 -0.1414
   83SAPS   C34 7834   5.007   2.005  10.143 -0.3728 -0.0803  0.1889
   83SAPS   H4X 7835   4.946   1.914  10.126 -1.7391  0.8481 -0.0205
   83SAPS   H4Y 7836   5.104   2.015  10.090 -0.6972  1.2570 -0.1775
   83SAPS   C35 7837   4.920   2.134  10.106 -0.1414 -0.1169  0.3355
   83SAPS   H5X 7838   4.970   2.226  10.143 -1.5986  0.5630  0.6248
   83SAPS   H5Y 7839   4.820   2.119  10.151 -0.6748  0.6861 -0.5682
   83SAPS   C36 7840   4.905   2.137   9.955 -0.3690  0.3790 -0.9227
   83SAPS   H6X 7841   4.907   2.031   9.923 -3.0445  0.0557 -0.1188
   83SAPS   H6Y 7842   4.980   2.196   9.898  0.0524  0.6082 -0.1392
   83SAPS   C37 7843   4.771   2.202   9.917  0.5815 -0.4428 -0.1526
   83SAPS   H7X 7844   4.759   2.292   9.981 -1.4842 -0.6796 -0.1751
   83SAPS   H7Y 7845   4.686   2.140   9.954  0.2065 -0.7254 -1.4428
   83SAPS   C38 7846   4.758   2.252   9.777 -0.6078 -0.1490  0.5741
   83SAPS   H8X 7847   4.843   2.323   9.763 -0.0362 -0.5511  1.9542
   83SAPS   H8Y 7848   4.665   2.311   9.765  0.5108  1.7932  1.2091
   83SAPS   C39 7849   4.759   2.141   9.678 -0.1412  0.0728  0.3483
   83SAPS   H9X 7850   4.671   2.073   9.683 -2.0619  2.5134  0.8036
   83SAPS   H9Y 7851   4.850   2.078   9.682 -1.6792 -2.1757  1.1812
   83SAPS  C310 7852   4.742   2.189   9.530 -0.1207 -0.3508 -0.0373
   83SAPS  H10X 7853   4.838   2.243   9.516 -1.6613  1.9729 -1.9171
   83SAPS  H10Y 7854   4.656   2.260   9.524 -0.4761 -0.9659 -3.1117
   83SAPS  C311 7855   4.724   2.076   9.431 -0.7135 -0.4115 -0.0854
   83SAPS  H11X 7856   4.655   2.001   9.476 -2.2005 -0.3256 -2.1533
   83SAPS  H11Y 7857   4.822   2.028   9.411 -0.0984  1.0244 -0.5442
   83SAPS  C312 7858   4.674   2.124   9.288 -0.7219 -0.1012 -0.1544
   83SAPS  H12X 7859   4.711   2.228   9.274 -1.2265  0.5883  3.1067
   83SAPS  H12Y 7860   4.566   2.147   9.285 -1.0715 -1.6347  0.2074
   83SAPS  C313 7861   4.723   2.046   9.165 -0.0025 -0.2042 -0.0804
   83SAPS  H13X 7862   4.688   1.941   9.176  0.1006 -0.3016 -0.6621
   83SAPS  H13Y 7863   4.834   2.054   9.174  0.0904  0.1697 -1.4505
   83SAPS  C314 7864   4.684   2.104   9.030 -0.2087  0.2592 -0.5848
   83SAPS  H14X 7865   4.574   2.119   9.033 -0.0618  1.0107  1.5616
   83SAPS  H14Y 7866   4.699   2.036   8.943 -0.0040  0.3605 -0.6292
   83SAPS  C315 7867   4.760   2.234   9.016  1.0364  0.0439 -0.2832
   83SAPS  H15X 7868   4.868   2.206   9.017  0.4524 -2.2617  0.4307
   83SAPS  H15Y 7869   4.753   2.302   9.103  0.6584  0.5375 -0.6915
   83SAPS  C316 7870   4.726   2.312   8.888  0.2431 -0.6151 -0.4034
   83SAPS  H16X 7871   4.621   2.336   8.915 -0.5633 -3.5150 -0.7322
   83SAPS  H16Y 7872   4.729   2.231   8.811  0.6965 -1.4099  0.4357
   83SAPS  C317 7873   4.810   2.436   8.862  0.2790  0.1449  0.3826
   83SAPS  H17X 7874   4.803   2.495   8.955  1.4243  0.8662  0.0144
   83SAPS  H17Y 7875   4.758   2.492   8.781 -0.3007  1.1698  1.4565
   83SAPS  C318 7876   4.960   2.417   8.821  0.1369  0.2793 -0.0811
   83SAPS  H18X 7877   5.012   2.515   8.829 -1.1930  1.2511 -2.8529
   83SAPS  H18Y 7878   4.984   2.382   8.718  1.8463 -1.5165  0.8877
   83SAPS  H18Z 7879   4.996   2.339   8.891  0.9663 -0.8831 -1.7744
   84SAPS     N 7880   6.091   0.338  11.222 -0.2105 -0.3422  0.0724
   84SAPS   HN1 7881   6.166   0.400  11.186 -0.2413  1.0914  2.4058
   84SAPS   HN2 7882   6.128   0.267  11.288 -2.5215 -0.0277  1.7561
   84SAPS   HN3 7883   6.063   0.287  11.135 -1.2496  0.8823 -0.3369
   84SAPS   C12 7884   5.977   0.416  11.280 -0.0970  0.7849  0.1784
   84SAPS  H12A 7885   5.907   0.348  11.327 -2.1405  1.5987 -1.5967
   84SAPS   C13 7886   6.026   0.530  11.375 -0.1628  0.0142  0.5524
   84SAPS  O13A 7887   6.146   0.565  11.392  0.4686  0.4835 -0.1527
   84SAPS  O13B 7888   5.938   0.569  11.460 -0.0253 -0.3498  0.2983
   84SAPS   C11 7889   5.887   0.470  11.160 -1.0326  0.3340  0.7147
   84SAPS  H11A 7890   5.942   0.550  11.107  1.0135 -0.4994  1.5369
   84SAPS  H11B 7891   5.800   0.518  11.209 -0.2661  0.8821  1.5348
   84SAPS     P 7892   5.737   0.417  10.968 -0.2848  0.1968 -0.0938
   84SAPS   O13 7893   5.702   0.308  10.868  0.3712  0.4941 -0.3624
   84SAPS   O14 7894   5.633   0.486  11.038  0.0737 -0.1321  0.3837
   84SAPS   O12 7895   5.841   0.361  11.074  0.6692 -1.0275 -0.8659
   84SAPS   O11 7896   5.819   0.524  10.884  0.2605 -0.1213  0.0570
   84SAPS    C1 7897   5.936   0.494  10.804 -0.5364 -0.0914  0.1932
   84SAPS    HA 7898   6.023   0.514  10.869  0.1150 -3.2237  0.3595
   84SAPS    HB 7899   5.931   0.389  10.768 -0.7270 -0.0530  0.1079
   84SAPS    C2 7900   5.940   0.569  10.669  0.4451  0.4736 -0.7734
   84SAPS    HS 7901   6.002   0.508  10.599  4.0866  1.7592  1.1760
   84SAPS   O21 7902   6.007   0.691  10.668  0.2479  0.3747 -0.0031
   84SAPS   C21 7903   6.133   0.697  10.705 -0.2638  0.3158  0.8365
   84SAPS   O22 7904   6.213   0.605  10.724  0.1308 -0.3624  0.3292
   84SAPS   C22 7905   6.181   0.835  10.698 -0.4480  0.1498 -0.9105
   84SAPS   H2R 7906   6.156   0.882  10.601  0.9726  0.3687 -1.1776
   84SAPS   H2S 7907   6.115   0.883  10.774 -1.3328  0.2301 -1.7170
   84SAPS    C3 7908   5.804   0.587  10.607 -0.5402 -0.3660  0.5735
   84SAPS    HX 7909   5.748   0.669  10.657  0.5581  0.6449  0.1715
   84SAPS    HY 7910   5.752   0.490  10.620 -1.2886 -0.0707 -0.1360
   84SAPS   O31 7911   5.813   0.631  10.469 -0.1740  0.2772  0.1648
   84SAPS   C31 7912   5.751   0.557  10.372  0.0324 -0.4922  0.0292
   84SAPS   O32 7913   5.696   0.448  10.379 -1.0380 -0.1982  0.7089
   84SAPS   C32 7914   5.767   0.642  10.243  0.2281  0.7667 -0.4819
   84SAPS   H2X 7915   5.872   0.675  10.230  0.2866  0.4982 -0.6976
   84SAPS   H2Y 7916   5.709   0.733  10.268 -0.1859  0.4478 -0.2756
   84SAPS   C23 7917   6.333   0.860  10.747  0.4981 -0.9894  0.0005
   84SAPS   H3R 7918   6.361   0.784  10.824  2.2824  0.5092  0.8648
   84SAPS   H3S 7919   6.335   0.956  10.802  1.3566 -0.7210 -0.5061
   84SAPS   C24 7920   6.429   0.833  10.630 -0.2701 -0.4276  0.1009
   84SAPS   H4R 7921   6.418   0.733  10.583  1.6339  0.0859 -1.5138
   84SAPS   H4S 7922   6.532   0.845  10.671 -0.0321 -0.1578 -0.5641
   84SAPS   C25 7923   6.426   0.940  10.522  0.0655  0.3194 -0.7515
   84SAPS   H5R 7924   6.470   1.032  10.562 -1.2716  1.1815 -1.2054
   84SAPS   C26 7925   6.366   0.920  10.397  0.0291  0.2162 -0.3363
   84SAPS   H6R 7926   6.364   1.010  10.334 -1.2346 -0.5038 -1.3503
   84SAPS   C27 7927   6.299   0.797  10.340  1.4526  0.2487  0.7597
   84SAPS   H7R 7928   6.296   0.704  10.399  0.6774 -0.1808  0.0552
   84SAPS   H7S 7929   6.352   0.763  10.248 -0.7742  0.6552 -0.7242
   84SAPS   C28 7930   6.152   0.840  10.317 -0.0041  0.0975  0.2135
   84SAPS   H8R 7931   6.092   0.801  10.401  1.4172 -1.1081  0.6866
   84SAPS   C29 7932   6.095   0.916  10.226  0.1925  0.2485 -0.5295
   84SAPS   H9R 7933   5.987   0.926  10.209 -0.0972 -3.4160 -1.2206
   84SAPS  C210 7934   6.168   0.959  10.103 -0.5829  0.3975 -0.5581
   84SAPS  H10R 7935   6.277   0.974  10.115 -0.9600  0.5188  3.6032
   84SAPS  H10S 7936   6.145   1.061  10.066  3.7001  0.9288 -1.9633
   84SAPS  C211 7937   6.142   0.863   9.992  0.3277 -0.3034  0.1929
   84SAPS  H11R 7938   6.193   0.766  10.004 -2.1971 -1.6546  0.2769
   84SAPS  C212 7939   6.062   0.887   9.885  0.1569  0.1004  0.2967
   84SAPS  H12R 7940   6.044   0.801   9.819  0.6166 -1.3034  1.9573
   84SAPS  C213 7941   5.991   1.017   9.858  0.1966  0.6464 -0.5666
   84SAPS  H13R 7942   6.060   1.077   9.795  0.0541 -1.1231 -2.4957
   84SAPS  H13S 7943   5.980   1.080   9.948 -1.9003  0.2988 -0.5503
   84SAPS  C214 7944   5.855   1.018   9.790 -0.5537 -0.1224 -0.7408
   84SAPS  H14R 7945   5.769   0.983   9.850  1.0332  2.1514  3.0717
   84SAPS  C215 7946   5.833   1.034   9.657  0.0086 -0.1663 -0.5842
   84SAPS  H15R 7947   5.728   1.029   9.627 -0.2098 -0.6965  0.2688
   84SAPS  C216 7948   5.930   1.068   9.551 -0.0067  0.2606 -0.5452
   84SAPS  H16R 7949   5.959   0.976   9.495  1.0939 -1.1956  2.3181
   84SAPS  H16S 7950   6.023   1.118   9.586  0.5311  0.3720 -2.0724
   84SAPS  C217 7951   5.846   1.160   9.461 -0.1012 -0.4103  0.2851
   84SAPS  H17R 7952   5.789   1.242   9.511 -1.3738 -2.2897  1.9600
   84SAPS  H17S 7953   5.776   1.102   9.398 -0.3116  0.5574 -0.3782
   84SAPS  C218 7954   5.930   1.241   9.363  0.2347  0.2801 -0.1144
   84SAPS  H18R 7955   5.977   1.161   9.303  0.1211  0.3563 -0.3068
   84SAPS  H18S 7956   6.011   1.296   9.415  0.7480 -0.7516  0.1960
   84SAPS  C219 7957   5.849   1.329   9.268 -0.3656  0.3169  0.3607
   84SAPS  H19R 7958   5.786   1.398   9.327 -0.5254 -0.0641  0.6370
   84SAPS  H19S 7959   5.769   1.271   9.217  0.5334  0.0400 -0.7559
   84SAPS  C220 7960   5.941   1.403   9.169  0.3052 -0.0049  0.5854
   84SAPS  H20R 7961   6.015   1.331   9.129 -0.5380 -0.8311  0.5008
   84SAPS  H20S 7962   5.990   1.484   9.227 -0.3174 -0.4105  1.6923
   84SAPS  H20T 7963   5.883   1.455   9.090 -1.6857 -0.1939  1.8924
   84SAPS   C33 7964   5.709   0.568  10.127 -0.3385 -0.2566 -1.1135
   84SAPS   H3X 7965   5.605   0.538  10.151 -0.5860  0.2312 -1.5731
   84SAPS   H3Y 7966   5.763   0.477  10.094 -0.5583 -0.2264 -1.5611
   84SAPS   C34 7967   5.702   0.663  10.004 -0.4392 -0.3128 -0.0562
   84SAPS   H4X 7968   5.803   0.705   9.984 -0.9303  1.8589  1.7320
   84SAPS   H4Y 7969   5.638   0.751  10.028  1.0694  1.1857 -1.4485
   84SAPS   C35 7970   5.653   0.593   9.880  0.4106 -0.0616  0.3517
   84SAPS   H5X 7971   5.564   0.531   9.903  0.8879 -1.9941 -2.7840
   84SAPS   H5Y 7972   5.720   0.510   9.848  0.3949  0.2472 -0.4653
   84SAPS   C36 7973   5.633   0.687   9.752 -0.7482 -0.5174  0.0388
   84SAPS   H6X 7974   5.733   0.726   9.725 -0.5894 -1.1640 -0.3299
   84SAPS   H6Y 7975   5.565   0.772   9.773  0.4142  0.2325  0.8022
   84SAPS   C37 7976   5.592   0.611   9.620 -0.4029  0.0169  0.3375
   84SAPS   H7X 7977   5.496   0.555   9.629 -1.1870  1.0906 -1.0657
   84SAPS   H7Y 7978   5.669   0.536   9.593 -1.3893 -0.3729 -1.5456
   84SAPS   C38 7979   5.554   0.696   9.499  0.2045  0.7415  0.1276
   84SAPS   H8X 7980   5.636   0.769   9.482  0.2983  0.2338 -1.6673
   84SAPS   H8Y 7981   5.467   0.756   9.531  0.7380  2.8066 -2.1076
   84SAPS   C39 7982   5.516   0.613   9.375 -0.5647 -0.3027 -0.5243
   84SAPS   H9X 7983   5.412   0.575   9.385 -0.2830 -0.9356  0.0153
   84SAPS   H9Y 7984   5.588   0.531   9.356  1.0481  1.3076 -1.4651
   84SAPS  C310 7985   5.520   0.698   9.244  0.1929 -0.4231 -0.1970
   84SAPS  H10X 7986   5.628   0.720   9.224 -0.3574  1.3862 -1.3205
   84SAPS  H10Y 7987   5.481   0.800   9.264  1.1931 -0.3102  1.2033
   84SAPS  C311 7988   5.459   0.629   9.124 -0.5322  0.0855 -0.2950
   84SAPS  H11X 7989   5.516   0.537   9.098  0.4321  0.6362 -0.1588
   84SAPS  H11Y 7990   5.467   0.700   9.038 -0.9228  0.5393  0.0420
   84SAPS  C312 7991   5.313   0.589   9.137  1.1231  0.1631  0.4346
   84SAPS  H12X 7992   5.244   0.671   9.168 -0.8943 -0.8779 -1.1574
   84SAPS  H12Y 7993   5.308   0.506   9.210  1.7734  1.5638  2.0932
   84SAPS  C313 7994   5.262   0.524   8.993  0.1261 -0.8163 -0.3420
   84SAPS  H13X 7995   5.318   0.431   8.970  2.3768  0.4541 -0.0797
   84SAPS  H13Y 7996   5.308   0.599   8.925  1.0788 -1.1369 -0.0576
   84SAPS  C314 7997   5.115   0.519   8.975  0.4002 -0.1339 -0.1507
   84SAPS  H14X 7998   5.082   0.618   9.011 -0.7408 -0.9806  1.2028
   84SAPS  H14Y 7999   5.066   0.448   9.045 -1.9294  1.0521 -0.5203
   84SAPS  C315 8000   5.074   0.502   8.832  0.0210 -0.2987  0.2467
   84SAPS  H15X 8001   5.113   0.406   8.792 -1.0051 -0.2910 -0.7807
   84SAPS  H15Y 8002   5.120   0.587   8.778 -2.1485  1.3426  0.9046
   84SAPS  C316 8003   4.915   0.507   8.814  0.8389 -0.0333 -0.0297
   84SAPS  H16X 8004   4.888   0.614   8.831 -1.4959  0.1593 -4.3806
   84SAPS  H16Y 8005   4.862   0.439   8.885 -0.6647  0.5701 -0.5639
   84SAPS  C317 8006   4.858   0.486   8.672 -0.1672 -0.3822 -0.1163
   84SAPS  H17X 8007   4.853   0.383   8.631  1.0552 -0.5773  0.1968
   84SAPS  H17Y 8008   4.925   0.547   8.608  2.0754 -1.2572  1.3211
   84SAPS  C318 8009   4.724   0.550   8.650  0.4546 -0.0499 -0.0347
   84SAPS  H18X 8010   4.711   0.526   8.542 -2.3856  0.5709  0.1215
   84SAPS  H18Y 8011   4.719   0.660   8.659 -0.4448 -0.0112 -0.8614
   84SAPS  H18Z 8012   4.647   0.507   8.717  1.5152 -0.8408  0.6857
   85SAPS     N 8013   2.923   3.217  10.962 -0.7370 -0.2352  0.0935
   85SAPS   HN1 8014   3.014   3.168  10.966 -0.3963  0.3718 -0.1386
   85SAPS   HN2 8015   2.888   3.193  10.867 -0.6089  0.2554 -0.0781
   85SAPS   HN3 8016   2.923   3.321  10.967 -1.8105 -0.2405  0.2673
   85SAPS   C12 8017   2.826   3.170  11.056  0.6407  1.0105  0.3896
   85SAPS  H12A 8018   2.874   3.137  11.146 -0.1951 -0.1403  0.4259
   85SAPS   C13 8019   2.732   3.294  11.092  0.1345  0.2993 -0.6829
   85SAPS  O13A 8020   2.765   3.411  11.056 -0.0723 -0.3317  0.6137
   85SAPS  O13B 8021   2.628   3.269  11.169 -0.2338  0.8077 -0.4297
   85SAPS   C11 8022   2.738   3.068  10.982 -0.3456 -0.6262 -0.4958
   85SAPS  H11A 8023   2.706   3.112  10.885 -0.0318 -0.6793 -0.6237
   85SAPS  H11B 8024   2.640   3.043  11.029  0.2243 -0.1124  1.0093
   85SAPS     P 8025   2.757   2.806  10.912 -0.0667  0.0995 -0.2721
   85SAPS   O13 8026   2.774   2.725  11.036 -0.0286  0.0037 -0.2816
   85SAPS   O14 8027   2.624   2.824  10.851  0.3065 -0.1647  0.4016
   85SAPS   O12 8028   2.812   2.952  10.944 -0.0544  0.5146 -0.2112
   85SAPS   O11 8029   2.848   2.747  10.800  0.3426  0.2962  0.3196
   85SAPS    C1 8030   2.977   2.810  10.767 -0.1618 -0.2594  0.1491
   85SAPS    HA 8031   2.962   2.919  10.758  0.4170 -0.1874  0.0559
   85SAPS    HB 8032   3.049   2.801  10.851  0.8024 -1.7133 -0.8022
   85SAPS    C2 8033   3.037   2.756  10.636  0.1208  0.4021  0.3903
   85SAPS    HS 8034   3.125   2.816  10.605 -0.6498  0.9515 -0.7998
   85SAPS   O21 8035   2.946   2.740  10.526  0.7055 -0.9001  0.0285
   85SAPS   C21 8036   2.889   2.850  10.478  0.4231 -0.5718  0.3742
   85SAPS   O22 8037   2.915   2.962  10.512  0.2224 -0.3613  0.0686
   85SAPS   C22 8038   2.774   2.822  10.382 -0.0557 -0.1399 -0.5678
   85SAPS   H2R 8039   2.800   2.728  10.329 -0.3739 -0.7272  0.2997
   85SAPS   H2S 8040   2.689   2.798  10.450  1.0080  0.2993  0.9303
   85SAPS    C3 8041   3.108   2.620  10.655 -0.7554  0.7766 -0.1883
   85SAPS    HX 8042   3.026   2.551  10.683  0.6265  0.0907  2.4064
   85SAPS    HY 8043   3.173   2.635  10.744 -1.3936 -0.6950  0.5467
   85SAPS   O31 8044   3.186   2.580  10.547  0.4194 -0.1231 -0.1124
   85SAPS   C31 8045   3.164   2.453  10.494 -0.1577 -0.1776 -0.4614
   85SAPS   O32 8046   3.101   2.369  10.553 -0.0687  0.0610  0.0256
   85SAPS   C32 8047   3.211   2.456  10.347  0.7651  0.0702 -0.5291
   85SAPS   H2X 8048   3.317   2.486  10.359  1.4167 -2.2442 -0.1698
   85SAPS   H2Y 8049   3.151   2.529  10.288 -0.5373  0.2689  1.0067
   85SAPS   C23 8050   2.722   2.949  10.296 -0.8641 -0.0634 -0.2337
   85SAPS   H3R 8051   2.807   2.989  10.237  1.0685 -1.0006  1.8483
   85SAPS   H3S 8052   2.686   3.021  10.373 -0.4448 -3.5134  3.3209
   85SAPS   C24 8053   2.611   2.922  10.202  0.1524  0.0984 -0.0514
   85SAPS   H4R 8054   2.533   2.921  10.282  0.9011  0.1326  0.6924
   85SAPS   H4S 8055   2.611   2.818  10.161  1.0864 -0.2874  0.8930
   85SAPS   C25 8056   2.583   3.031  10.100  0.2488  0.2368 -0.1562
   85SAPS   H5R 8057   2.528   3.121  10.130 -1.6043 -1.4436  1.6584
   85SAPS   C26 8058   2.623   3.017   9.976  0.4725 -0.0843 -0.3156
   85SAPS   H6R 8059   2.610   3.108   9.915  0.0169  0.2098  0.2180
   85SAPS   C27 8060   2.706   2.907   9.918 -0.0748  0.6855 -0.4539
   85SAPS   H7R 8061   2.754   2.861  10.007 -2.1315 -0.3668  0.1419
   85SAPS   H7S 8062   2.784   2.951   9.852  2.4808 -1.5030  1.0043
   85SAPS   C28 8063   2.614   2.801   9.866 -0.7991 -0.0566 -0.7254
   85SAPS   H8R 8064   2.562   2.743   9.943  1.8827  0.7195  1.7644
   85SAPS   C29 8065   2.596   2.769   9.735 -0.2016  1.1463  0.1629
   85SAPS   H9R 8066   2.520   2.693   9.714 -1.5173  2.5019 -0.0995
   85SAPS  C210 8067   2.654   2.827   9.611  0.4740 -0.3045  0.3393
   85SAPS  H10R 8068   2.692   2.746   9.546 -1.7897 -1.4205  0.3731
   85SAPS  H10S 8069   2.747   2.883   9.638  0.2823  1.1429 -1.8935
   85SAPS  C211 8070   2.555   2.926   9.547 -0.0541  0.6485 -0.7269
   85SAPS  H11R 8071   2.481   2.968   9.616 -0.0850 -0.6974  0.0803
   85SAPS  C212 8072   2.546   2.961   9.416 -0.7516  0.4865  0.7076
   85SAPS  H12R 8073   2.480   3.048   9.405 -1.3384  0.4580  3.5263
   85SAPS  C213 8074   2.635   2.921   9.300 -1.2233 -0.0560  0.2057
   85SAPS  H13R 8075   2.740   2.904   9.332 -0.7625 -2.6829 -2.4795
   85SAPS  H13S 8076   2.637   3.001   9.222  1.2848  1.5007  1.8193
   85SAPS  C214 8077   2.590   2.793   9.232 -0.3788 -0.4096  0.1420
   85SAPS  H14R 8078   2.567   2.709   9.299 -2.7035 -0.1617 -0.3257
   85SAPS  C215 8079   2.597   2.759   9.104  0.6992 -0.4459 -0.6060
   85SAPS  H15R 8080   2.555   2.665   9.065 -0.8360 -0.1891  0.3800
   85SAPS  C216 8081   2.639   2.846   8.990  0.4568 -0.0691 -0.1611
   85SAPS  H16R 8082   2.660   2.948   9.029  0.8589 -0.6275  1.1228
   85SAPS  H16S 8083   2.551   2.861   8.923  0.5464  1.0207 -0.0466
   85SAPS  C217 8084   2.760   2.800   8.903  0.1549  0.9807  0.3157
   85SAPS  H17R 8085   2.743   2.696   8.867  1.3856  1.5524 -2.0493
   85SAPS  H17S 8086   2.852   2.791   8.964 -0.3342  0.9434  1.0560
   85SAPS  C218 8087   2.772   2.887   8.780  0.0627  0.5646 -0.0878
   85SAPS  H18R 8088   2.753   2.995   8.797 -3.1753 -0.4227  3.2406
   85SAPS  H18S 8089   2.691   2.859   8.709  0.0861  2.0708 -0.7356
   85SAPS  C219 8090   2.903   2.866   8.691  0.0363  0.2509  0.2392
   85SAPS  H19R 8091   2.898   2.763   8.649 -0.0770  0.8769 -1.3483
   85SAPS  H19S 8092   2.994   2.880   8.752  0.8308 -0.3637 -0.7872
   85SAPS  C220 8093   2.909   2.971   8.576 -0.1353  0.1986 -0.4094
   85SAPS  H20R 8094   2.902   3.075   8.615  1.8615 -0.2681  1.2918
   85SAPS  H20S 8095   2.830   2.945   8.502 -0.5529  3.5461 -1.2603
   85SAPS  H20T 8096   3.007   2.963   8.523 -0.3246 -0.5395 -0.6460
   85SAPS   C33 8097   3.225   2.318  10.287 -0.1363 -0.2424  0.5017
   85SAPS   H3X 8098   3.122   2.277  10.288 -0.8388  1.5129  1.0940
   85SAPS   H3Y 8099   3.292   2.252  10.346 -1.8352 -1.5154  1.0346
   85SAPS   C34 8100   3.268   2.333  10.140 -0.3132  0.1301  0.1762
   85SAPS   H4X 8101   3.377   2.355  10.145 -0.4834  1.2215 -0.9980
   85SAPS   H4Y 8102   3.215   2.408  10.079 -1.7655 -0.0632  1.1726
   85SAPS   C35 8103   3.241   2.201  10.067 -0.3784 -0.4862  0.2304
   85SAPS   H5X 8104   3.135   2.168  10.069 -1.0138  1.1367 -3.4114
   85SAPS   H5Y 8105   3.291   2.119  10.122  1.7402 -1.0173 -2.3677
   85SAPS   C36 8106   3.293   2.204   9.927 -0.1926  0.5879 -0.1911
   85SAPS   H6X 8107   3.404   2.215   9.925 -0.0671 -0.7258 -0.5494
   85SAPS   H6Y 8108   3.248   2.282   9.861 -2.9498 -2.0645 -1.5567
   85SAPS   C37 8109   3.273   2.071   9.847 -0.0282 -0.2086  0.4931
   85SAPS   H7X 8110   3.166   2.053   9.824 -0.2574  2.4514 -0.7788
   85SAPS   H7Y 8111   3.321   1.990   9.906  1.1049  0.9453  1.1886
   85SAPS   C38 8112   3.351   2.073   9.712 -0.6750  0.0707 -0.0203
   85SAPS   H8X 8113   3.454   2.115   9.723 -0.0982 -1.4336  0.3624
   85SAPS   H8Y 8114   3.301   2.140   9.638 -0.4547  0.4372  0.1575
   85SAPS   C39 8115   3.365   1.927   9.657 -0.0549 -0.1316  0.3014
   85SAPS   H9X 8116   3.264   1.886   9.678 -0.4644  0.5369 -0.2955
   85SAPS   H9Y 8117   3.426   1.871   9.731 -0.5699 -3.9496 -2.0445
   85SAPS  C310 8118   3.420   1.910   9.509 -0.3844  0.2415 -0.1888
   85SAPS  H10X 8119   3.419   1.801   9.489 -0.9469  0.1710  0.2119
   85SAPS  H10Y 8120   3.529   1.932   9.512  0.0692 -1.9450  0.3546
   85SAPS  C311 8121   3.350   2.000   9.407  0.3923  0.2625 -0.1885
   85SAPS  H11X 8122   3.374   2.108   9.418 -0.5313  0.5225 -0.6568
   85SAPS  H11Y 8123   3.243   1.998   9.435  1.1744 -0.5792  2.9822
   85SAPS  C312 8124   3.369   1.945   9.264  0.0313 -0.5155  0.8634
   85SAPS  H12X 8125   3.330   1.841   9.264  0.0645 -0.5317  0.4237
   85SAPS  H12Y 8126   3.477   1.948   9.236  0.2757  1.7919  1.9166
   85SAPS  C313 8127   3.289   2.031   9.161  0.4676 -0.0194  0.0171
   85SAPS  H13X 8128   3.315   2.139   9.169  1.7177 -0.3114 -0.0855
   85SAPS  H13Y 8129   3.189   2.021   9.209  1.0511  0.5263  1.3772
   85SAPS  C314 8130   3.303   1.984   9.022  0.3202  0.7616  0.7882
   85SAPS  H14X 8131   3.263   1.881   9.028  0.8614  0.5830  1.3790
   85SAPS  H14Y 8132   3.408   1.982   8.985 -0.3788  4.0874 -1.6067
   85SAPS  C315 8133   3.217   2.052   8.915 -0.8625  0.6453  0.2918
   85SAPS  H15X 8134   3.240   2.160   8.924 -0.9239  0.5431  1.7307
   85SAPS  H15Y 8135   3.109   2.036   8.932 -0.4314 -0.9488  1.6887
   85SAPS  C316 8136   3.243   2.011   8.769  0.8385  0.3380 -0.1270
   85SAPS  H16X 8137   3.227   1.903   8.748 -0.0006  0.8708 -2.4193
   85SAPS  H16Y 8138   3.347   2.032   8.737  0.5803  3.5468  0.9254
   85SAPS  C317 8139   3.160   2.101   8.672  0.2368  0.1176 -0.8783
   85SAPS  H17X 8140   3.204   2.077   8.573 -1.9593  0.5480 -1.9786
   85SAPS  H17Y 8141   3.192   2.203   8.704 -0.8739  0.1559  0.1474
   85SAPS  C318 8142   3.009   2.078   8.663  0.1651 -0.0625  0.2428
   85SAPS  H18X 8143   2.965   2.132   8.576  2.0798 -1.1963 -1.4796
   85SAPS  H18Y 8144   2.954   2.111   8.754 -3.7964  0.2600 -2.1619
   85SAPS  H18Z 8145   2.983   1.971   8.654 -3.5170  0.7406  0.4766
   86SAPS     N 8146   4.092   3.108  10.816 -0.6069  0.4122  0.1364
   86SAPS   HN1 8147   4.160   3.104  10.737 -1.5908  1.9105 -0.8138
   86SAPS   HN2 8148   4.000   3.070  10.786 -0.8856  1.1634  0.0266
   86SAPS   HN3 8149   4.084   3.207  10.846  0.8976  0.5387  0.1800
   86SAPS   C12 8150   4.138   3.019  10.927  0.1781 -0.6606 -0.4480
   86SAPS  H12A 8151   4.206   3.077  10.987  0.3011  0.5080 -1.6888
   86SAPS   C13 8152   4.032   2.978  11.032 -0.0819  0.0906  0.1525
   86SAPS  O13A 8153   3.912   3.022  11.034  0.0196 -0.2892  0.1873
   86SAPS  O13B 8154   4.062   2.875  11.098 -0.1856  0.1486 -0.3314
   86SAPS   C11 8155   4.212   2.896  10.869 -0.0191 -0.6657 -0.0042
   86SAPS  H11A 8156   4.141   2.838  10.807  1.2518 -2.3695  0.1005
   86SAPS  H11B 8157   4.250   2.822  10.942  2.7911 -1.5025 -2.2045
   86SAPS     P 8158   4.469   2.931  10.836 -0.0879 -0.0143  0.0102
   86SAPS   O13 8159   4.488   3.030  10.947  0.7070 -0.0817  0.3151
   86SAPS   O14 8160   4.502   2.792  10.865  0.0906 -0.0993 -0.3937
   86SAPS   O12 8161   4.321   2.948  10.794 -0.2971  0.1102 -0.3950
   86SAPS   O11 8162   4.550   2.981  10.710  0.0437  0.0536  0.1210
   86SAPS    C1 8163   4.489   2.983  10.581 -0.3964 -0.0597  0.0075
   86SAPS    HA 8164   4.445   2.885  10.552  2.2165 -0.7216 -1.9052
   86SAPS    HB 8165   4.418   3.068  10.577 -0.2970  0.0555  0.5941
   86SAPS    C2 8166   4.593   3.013  10.470 -0.2412  0.2950  0.0306
   86SAPS    HS 8167   4.650   3.105  10.496 -0.8971  0.5566  0.5319
   86SAPS   O21 8168   4.528   3.020  10.341 -0.9008  0.0120  0.1483
   86SAPS   C21 8169   4.482   3.139  10.308 -0.3923  0.5930 -0.4799
   86SAPS   O22 8170   4.504   3.242  10.367 -0.0129  0.1732 -0.0453
   86SAPS   C22 8171   4.419   3.120  10.162  0.8020  0.0689 -1.0349
   86SAPS   H2R 8172   4.462   3.028  10.117 -0.4554 -1.6855  1.2259
   86SAPS   H2S 8173   4.312   3.120  10.190  0.8972  0.4853 -0.6637
   86SAPS    C3 8174   4.702   2.900  10.474 -0.4350 -1.0661 -0.3413
   86SAPS    HX 8175   4.647   2.804  10.466 -0.4428 -1.0138 -0.9715
   86SAPS    HY 8176   4.756   2.896  10.571 -0.0750 -1.6690 -0.5592
   86SAPS   O31 8177   4.794   2.900  10.361  0.0432 -0.4777  0.2747
   86SAPS   C31 8178   4.883   2.995  10.371 -0.1268  0.3490 -0.3463
   86SAPS   O32 8179   4.896   3.071  10.467 -0.3248 -0.2139  0.0767
   86SAPS   C32 8180   4.962   3.006  10.234  0.3501  0.8357  0.6933
   86SAPS   H2X 8181   4.875   3.034  10.172  1.5193 -0.6228 -1.6688
   86SAPS   H2Y 8182   4.976   2.899  10.210 -1.0012 -0.1908  4.1113
   86SAPS   C23 8183   4.464   3.244  10.071  0.3194  0.6962  0.1299
   86SAPS   H3R 8184   4.488   3.332  10.135  2.4485 -0.0027  0.3245
   86SAPS   H3S 8185   4.378   3.268  10.005 -2.2054 -0.9673  2.6532
   86SAPS   C24 8186   4.590   3.201  10.001  0.2773 -0.5201  0.2142
   86SAPS   H4R 8187   4.670   3.179  10.075  1.0210 -1.6967 -0.9308
   86SAPS   H4S 8188   4.633   3.289   9.948 -0.3072 -0.5355 -0.2832
   86SAPS   C25 8189   4.568   3.098   9.904  0.4988 -0.8428 -0.1350
   86SAPS   H5R 8190   4.556   2.998   9.948  1.4243 -1.3202 -0.9584
   86SAPS   C26 8191   4.557   3.124   9.778 -0.1378 -0.3793  0.8725
   86SAPS   H6R 8192   4.558   3.036   9.711 -0.7014  0.9606 -0.9427
   86SAPS   C27 8193   4.565   3.258   9.705 -0.1789 -0.2714 -0.0200
   86SAPS   H7R 8194   4.667   3.299   9.695 -0.7043  1.3229  1.0927
   86SAPS   H7S 8195   4.518   3.333   9.771  0.1705  1.4598 -1.7040
   86SAPS   C28 8196   4.496   3.253   9.562  0.2613 -0.5875 -0.4483
   86SAPS   H8R 8197   4.559   3.224   9.476 -0.3083 -0.3255 -0.9557
   86SAPS   C29 8198   4.366   3.278   9.543 -0.3628  0.2075  0.3016
   86SAPS   H9R 8199   4.328   3.291   9.440  0.7208  0.1033 -0.1229
   86SAPS  C210 8200   4.262   3.317   9.644  0.2297 -0.3028  0.7288
   86SAPS  H10R 8201   4.237   3.422   9.618  0.3972 -0.5533 -0.4502
   86SAPS  H10S 8202   4.294   3.317   9.751  0.6226  0.5359  0.6160
   86SAPS  C211 8203   4.138   3.235   9.631  0.3403 -0.0401  0.3746
   86SAPS  H11R 8204   4.134   3.156   9.708 -0.3880 -0.2081  0.1697
   86SAPS  C212 8205   4.038   3.245   9.540 -0.2471  0.0975  0.2607
   86SAPS  H12R 8206   3.953   3.175   9.544 -0.0771 -0.1797 -0.8055
   86SAPS  C213 8207   4.030   3.345   9.429  0.0497  0.0944  0.2547
   86SAPS  H13R 8208   4.129   3.383   9.394  0.2962 -1.0987 -0.3784
   86SAPS  H13S 8209   3.981   3.439   9.461 -0.0396  0.9501 -2.2692
   86SAPS  C214 8210   3.945   3.289   9.312 -0.6824  1.0239 -0.5750
   86SAPS  H14R 8211   3.847   3.244   9.333 -0.8180  1.8526  0.5882
   86SAPS  C215 8212   3.989   3.284   9.185  0.4313  0.0950 -0.2193
   86SAPS  H15R 8213   3.935   3.227   9.107  1.9231 -0.6914 -0.6889
   86SAPS  C216 8214   4.119   3.326   9.127 -0.4813 -0.6014 -0.1183
   86SAPS  H16R 8215   4.193   3.314   9.209  1.7638 -1.9533 -2.2632
   86SAPS  H16S 8216   4.117   3.427   9.080 -0.0341 -1.0726 -1.1871
   86SAPS  C217 8217   4.170   3.237   9.011 -0.2429  0.6687  0.3351
   86SAPS  H17R 8218   4.109   3.246   8.919 -2.0547 -1.0359  1.3138
   86SAPS  H17S 8219   4.167   3.130   9.041  3.2914  0.0182 -1.4312
   86SAPS  C218 8220   4.318   3.280   8.983  0.8490  0.6997  0.3015
   86SAPS  H18R 8221   4.370   3.283   9.081 -0.2514  1.6298  0.8654
   86SAPS  H18S 8222   4.320   3.380   8.935 -4.2378  0.4419 -0.6680
   86SAPS  C219 8223   4.393   3.175   8.895  0.0372  0.0805 -0.2685
   86SAPS  H19R 8224   4.384   3.077   8.946 -0.9894  0.7260  0.8069
   86SAPS  H19S 8225   4.499   3.208   8.899 -0.0376  0.6848 -2.5071
   86SAPS  C220 8226   4.341   3.164   8.748  0.8243  0.3628 -0.4413
   86SAPS  H20R 8227   4.248   3.104   8.742 -0.9290  2.3493  4.4000
   86SAPS  H20S 8228   4.421   3.100   8.704 -0.2214 -0.8436 -0.5979
   86SAPS  H20T 8229   4.337   3.266   8.702 -1.2661 -0.7708 -2.9125
   86SAPS   C33 8230   5.083   3.104  10.228  0.0492  0.6101 -0.1514
   86SAPS   H3X 8231   5.147   3.106  10.319  0.4282 -0.7611 -0.3819
   86SAPS   H3Y 8232   5.045   3.206  10.205 -4.5287 -1.1086 -0.6915
   86SAPS   C34 8233   5.187   3.062  10.125  0.3823 -0.0616 -0.3779
   86SAPS   H4X 8234   5.260   2.988  10.164  0.9550  0.9419  0.4517
   86SAPS   H4Y 8235   5.244   3.156  10.107 -0.3947  0.7134  1.1560
   86SAPS   C35 8236   5.128   3.011   9.993  0.1683 -0.0110  0.2500
   86SAPS   H5X 8237   5.060   2.924  10.009  0.7797 -0.8549 -1.5284
   86SAPS   H5Y 8238   5.207   2.981   9.921 -0.1589 -3.6574  1.2802
   86SAPS   C36 8239   5.052   3.112   9.909  0.3076 -0.5773 -0.0565
   86SAPS   H6X 8240   5.123   3.197   9.916  0.7095 -0.6730 -2.6584
   86SAPS   H6Y 8241   4.958   3.142   9.962  0.8713 -0.1730  0.7254
   86SAPS   C37 8242   5.024   3.063   9.775  0.2511  0.1919 -0.9029
   86SAPS   H7X 8243   4.944   2.986   9.779 -1.8361  2.3646  0.5008
   86SAPS   H7Y 8244   5.109   3.016   9.720  0.1285 -1.7824  0.5292
   86SAPS   C38 8245   4.969   3.173   9.677  0.1474  0.2569  0.4506
   86SAPS   H8X 8246   5.051   3.247   9.669  0.2869 -0.0121 -0.6979
   86SAPS   H8Y 8247   4.873   3.217   9.712 -0.5994 -0.8888 -0.1270
   86SAPS   C39 8248   4.938   3.122   9.530 -0.2648 -0.0262 -0.2834
   86SAPS   H9X 8249   4.848   3.058   9.520 -0.3640  0.2073 -0.8942
   86SAPS   H9Y 8250   5.029   3.063   9.508  0.3158  0.6573  0.2492
   86SAPS  C310 8251   4.915   3.234   9.435 -0.3219  0.0571 -0.4060
   86SAPS  H10X 8252   4.992   3.312   9.455  0.4136 -0.4065 -1.4086
   86SAPS  H10Y 8253   4.819   3.285   9.460  1.0610  2.2229  0.6849
   86SAPS  C311 8254   4.927   3.177   9.295  0.0581  0.5474  0.1025
   86SAPS  H11X 8255   4.840   3.111   9.278 -1.7970  1.9859  3.4051
   86SAPS  H11Y 8256   5.027   3.128   9.289 -1.4505 -2.5372 -0.6637
   86SAPS  C312 8257   4.915   3.283   9.193  1.0062  0.1306  0.9177
   86SAPS  H12X 8258   4.958   3.244   9.098 -0.5312 -0.0082  0.2614
   86SAPS  H12Y 8259   4.979   3.371   9.215  0.7089  0.3492  0.9022
   86SAPS  C313 8260   4.774   3.330   9.165  0.4622  0.4189 -0.0025
   86SAPS  H13X 8261   4.731   3.388   9.249 -0.3233 -0.3334  0.1213
   86SAPS  H13Y 8262   4.704   3.250   9.133 -1.9295  1.4098  2.4794
   86SAPS  C314 8263   4.761   3.430   9.050 -0.5134 -0.3284  0.5402
   86SAPS  H14X 8264   4.848   3.500   9.047 -1.6175  1.0244 -0.5254
   86SAPS  H14Y 8265   4.681   3.506   9.065 -0.5258 -0.5822  1.8568
   86SAPS  C315 8266   4.764   3.363   8.906  0.4183 -0.3494  0.9173
   86SAPS  H15X 8267   4.695   3.277   8.895  0.1238 -0.0346  0.3007
   86SAPS  H15Y 8268   4.859   3.330   8.858 -0.8242  0.3071 -2.1189
   86SAPS  C316 8269   4.722   3.477   8.810  0.1142  0.3713 -0.7155
   86SAPS  H16X 8270   4.785   3.565   8.833  2.8877 -1.4337 -1.1652
   86SAPS  H16Y 8271   4.619   3.489   8.851  0.8339  1.6470  0.7527
   86SAPS  C317 8272   4.727   3.439   8.663 -0.3364 -1.3019 -0.5484
   86SAPS  H17X 8273   4.678   3.516   8.600  0.4559 -0.5074 -0.2018
   86SAPS  H17Y 8274   4.672   3.343   8.657 -0.6251 -1.1184 -0.8285
   86SAPS  C318 8275   4.869   3.430   8.610  0.9155  0.0900  0.2602
   86SAPS  H18X 8276   4.869   3.405   8.501 -2.1959  0.3139  0.1744
   86SAPS  H18Y 8277   4.919   3.349   8.666 -2.3908 -1.8089  0.5795
   86SAPS  H18Z 8278   4.924   3.526   8.619  0.6071  0.4808 -1.6334
   87SAPS     N 8279   5.891   3.594  11.070  0.1764  0.2951 -0.6014
   87SAPS   HN1 8280   5.943   3.585  10.980 -0.3578 -3.8895 -0.5724
   87SAPS   HN2 8281   5.959   3.575  11.147 -1.0073 -1.3694  0.0719
   87SAPS   HN3 8282   5.814   3.524  11.065 -0.5129  1.1064 -1.5573
   87SAPS   C12 8283   5.836   3.732  11.083  0.9088 -0.3436 -0.1783
   87SAPS  H12A 8284   5.741   3.720  11.133  0.0667  0.0525 -1.6581
   87SAPS   C13 8285   5.926   3.826  11.169  0.3817  0.3306  0.1232
   87SAPS  O13A 8286   6.045   3.797  11.181 -0.2009  0.1638 -0.1499
   87SAPS  O13B 8287   5.874   3.923  11.222 -0.5431 -0.3206  0.5156
   87SAPS   C11 8288   5.814   3.787  10.936 -0.6256  0.0761 -0.4476
   87SAPS  H11A 8289   5.916   3.798  10.895  0.4412 -0.6247  1.9439
   87SAPS  H11B 8290   5.774   3.890  10.950  2.4933  1.4071 -0.8722
   87SAPS     P 8291   5.592   3.724  10.826 -0.4196  0.3023  0.0015
   87SAPS   O13 8292   5.536   3.617  10.746 -0.5380  0.1100 -0.4508
   87SAPS   O14 8293   5.521   3.754  10.956  0.3163 -0.5028 -0.3782
   87SAPS   O12 8294   5.740   3.691  10.861  0.2643 -0.1411 -0.4969
   87SAPS   O11 8295   5.593   3.860  10.744 -0.1955  0.2214  0.1060
   87SAPS    C1 8296   5.692   3.890  10.640  0.2981  0.5643 -0.2267
   87SAPS    HA 8297   5.727   3.995  10.655 -0.1596  0.5975  0.6078
   87SAPS    HB 8298   5.779   3.821  10.641  0.6757  1.0383 -0.1009
   87SAPS    C2 8299   5.632   3.887  10.495  0.1455 -0.1007  0.6883
   87SAPS    HS 8300   5.549   3.962  10.493  0.1491 -0.1161 -0.9228
   87SAPS   O21 8301   5.580   3.754  10.474  0.1300  0.1191  0.2804
   87SAPS   C21 8302   5.484   3.738  10.388  0.2590 -0.4846  0.4598
   87SAPS   O22 8303   5.415   3.829  10.337 -0.0284 -0.9886 -0.5007
   87SAPS   C22 8304   5.482   3.588  10.351 -0.5468 -0.3461  0.2831
   87SAPS   H2R 8305   5.579   3.575  10.298 -1.0827 -0.0691 -0.7707
   87SAPS   H2S 8306   5.479   3.526  10.443 -1.7601 -2.6526 -1.2779
   87SAPS    C3 8307   5.737   3.930  10.386 -0.2717 -0.2850  0.8239
   87SAPS    HX 8308   5.808   3.845  10.378  0.3211  0.3375 -0.6572
   87SAPS    HY 8309   5.796   4.013  10.431 -1.6052  1.1373  0.0123
   87SAPS   O31 8310   5.685   3.958  10.252 -0.2143 -0.0924  0.4473
   87SAPS   C31 8311   5.639   4.078  10.238 -0.7491  0.3837 -0.8209
   87SAPS   O32 8312   5.637   4.170  10.314  0.3507 -0.1565  0.1789
   87SAPS   C32 8313   5.559   4.093  10.107 -0.7079 -0.1022  0.2993
   87SAPS   H2X 8314   5.623   4.156  10.040 -1.8565  1.9423  1.0741
   87SAPS   H2Y 8315   5.470   4.153  10.135 -0.2773  1.8160 -2.2068
   87SAPS   C23 8316   5.367   3.550  10.252 -0.7351 -0.0340 -0.2145
   87SAPS   H3R 8317   5.374   3.606  10.157  0.0321 -1.4093 -0.9866
   87SAPS   H3S 8318   5.269   3.570  10.300 -1.1481 -0.1143 -1.0326
   87SAPS   C24 8319   5.367   3.401  10.211  0.5310  0.0998 -0.0903
   87SAPS   H4R 8320   5.271   3.379  10.161 -0.6759  0.0838  2.1691
   87SAPS   H4S 8321   5.353   3.336  10.300 -4.2655  0.4645 -0.4428
   87SAPS   C25 8322   5.488   3.370  10.135  0.3848  0.2133 -0.2317
   87SAPS   H5R 8323   5.575   3.357  10.201 -0.6044  0.8561  1.2244
   87SAPS   C26 8324   5.512   3.374  10.003 -0.7207 -0.1346 -0.0898
   87SAPS   H6R 8325   5.617   3.357   9.977 -0.8610  0.0417 -0.7926
   87SAPS   C27 8326   5.407   3.406   9.893 -0.0512  0.1607  1.0733
   87SAPS   H7R 8327   5.304   3.414   9.934 -0.9484  1.0847 -1.2633
   87SAPS   H7S 8328   5.409   3.332   9.810 -2.2983 -0.6635  1.7038
   87SAPS   C28 8329   5.423   3.543   9.823  0.7853  0.2534  0.3656
   87SAPS   H8R 8330   5.395   3.625   9.890  1.2492 -1.1058  2.2891
   87SAPS   C29 8331   5.474   3.564   9.701  0.1089  0.5425 -0.3449
   87SAPS   H9R 8332   5.487   3.671   9.680  0.6949  0.7742  1.0782
   87SAPS  C210 8333   5.528   3.454   9.613 -0.0283 -0.1483 -0.5707
   87SAPS  H10R 8334   5.444   3.397   9.568  1.2440 -3.1234  0.6652
   87SAPS  H10S 8335   5.567   3.374   9.679  1.0448  0.2025 -0.7676
   87SAPS  C211 8336   5.630   3.518   9.525  0.1800 -0.5032  0.2846
   87SAPS  H11R 8337   5.736   3.511   9.555  0.9386  0.9703 -1.8943
   87SAPS  C212 8338   5.595   3.572   9.406 -0.7284  0.4342 -0.7799
   87SAPS  H12R 8339   5.676   3.621   9.351 -0.3193  1.0536  0.3638
   87SAPS  C213 8340   5.461   3.566   9.343  0.7265  0.3866  0.3759
   87SAPS  H13R 8341   5.385   3.582   9.423  1.4836 -0.1284  1.2102
   87SAPS  H13S 8342   5.459   3.464   9.300 -1.5996 -0.9033  3.3377
   87SAPS  C214 8343   5.444   3.687   9.254  0.2422  0.1839 -1.2805
   87SAPS  H14R 8344   5.470   3.779   9.308  3.2230 -1.7649  0.7128
   87SAPS  C215 8345   5.407   3.690   9.126 -0.0092  0.0697  0.4328
   87SAPS  H15R 8346   5.405   3.785   9.070  0.9962 -0.7691 -1.0793
   87SAPS  C216 8347   5.383   3.567   9.037 -0.1610  0.5729  0.2707
   87SAPS  H16R 8348   5.414   3.476   9.093 -0.7309  0.7246  0.8363
   87SAPS  H16S 8349   5.444   3.557   8.945 -0.0361 -0.3175  0.4393
   87SAPS  C217 8350   5.228   3.565   8.998  0.0584 -0.8118  0.1776
   87SAPS  H17R 8351   5.182   3.532   9.093  0.1683 -0.9127  0.1970
   87SAPS  H17S 8352   5.208   3.487   8.923 -0.7197  0.3910 -0.8932
   87SAPS  C218 8353   5.160   3.696   8.942 -0.0049  0.9086  0.0496
   87SAPS  H18R 8354   5.175   3.779   9.014  2.8477 -0.5256  1.2014
   87SAPS  H18S 8355   5.052   3.670   8.935  0.0071  0.4840  1.3057
   87SAPS  C219 8356   5.212   3.746   8.803 -0.2469 -0.3593  0.1765
   87SAPS  H19R 8357   5.211   3.658   8.736 -1.1487  1.8225 -2.7591
   87SAPS  H19S 8358   5.315   3.785   8.813 -1.2130  2.2021  0.4222
   87SAPS  C220 8359   5.123   3.855   8.755  0.3453 -0.5688  0.1684
   87SAPS  H20R 8360   5.019   3.829   8.783 -0.0983  0.1098 -0.8133
   87SAPS  H20S 8361   5.135   3.879   8.647 -0.2222 -0.8379  0.0375
   87SAPS  H20T 8362   5.144   3.952   8.805 -0.0427  0.0703 -0.8749
   87SAPS   C33 8363   5.505   3.968  10.031 -0.2907  0.2389  0.0149
   87SAPS   H3X 8364   5.459   3.893  10.099 -1.6922  0.5101 -0.6121
   87SAPS   H3Y 8365   5.588   3.912   9.983  0.9701  2.1236 -0.0691
   87SAPS   C34 8366   5.398   4.010   9.932  0.1945 -0.7066 -0.3703
   87SAPS   H4X 8367   5.421   4.114   9.899  0.1446 -0.0509  1.5704
   87SAPS   H4Y 8368   5.299   4.017   9.981 -0.1924  0.4889 -1.2904
   87SAPS   C35 8369   5.402   3.915   9.809 -0.1074 -0.8039  0.3759
   87SAPS   H5X 8370   5.363   3.821   9.853 -0.4907 -0.8885 -0.1342
   87SAPS   H5Y 8371   5.506   3.917   9.770 -1.1745 -1.3750 -2.6972
   87SAPS   C36 8372   5.312   3.937   9.685  0.5185  0.4867 -0.1576
   87SAPS   H6X 8373   5.210   3.950   9.727  1.2742  2.9052  0.9988
   87SAPS   H6Y 8374   5.310   3.846   9.620  0.3116 -0.1220  0.6935
   87SAPS   C37 8375   5.326   4.064   9.596 -0.3556  0.8214 -0.3610
   87SAPS   H7X 8376   5.337   4.149   9.667 -1.3732  0.6385  0.0266
   87SAPS   H7Y 8377   5.235   4.088   9.536 -0.9325 -3.0790 -1.1571
   87SAPS   C38 8378   5.449   4.052   9.509  0.5850 -0.4579  0.0802
   87SAPS   H8X 8379   5.417   3.983   9.428 -1.3371  0.8743 -0.3398
   87SAPS   H8Y 8380   5.528   4.000   9.567  1.5126  1.8102  0.8908
   87SAPS   C39 8381   5.493   4.191   9.448 -0.6034 -0.3229 -0.2191
   87SAPS   H9X 8382   5.576   4.153   9.384  0.4052 -1.7657  1.8761
   87SAPS   H9Y 8383   5.523   4.259   9.531  1.9380 -2.3052  0.5838
   87SAPS  C310 8384   5.393   4.268   9.359 -0.0514  0.2798  0.1355
   87SAPS  H10X 8385   5.433   4.369   9.337  1.9382 -0.9135 -1.9219
   87SAPS  H10Y 8386   5.303   4.276   9.423 -1.0216 -2.3355 -0.8436
   87SAPS  C311 8387   5.363   4.188   9.227 -0.1904 -0.8614  0.1012
   87SAPS  H11X 8388   5.354   4.078   9.237  1.7418 -1.2631 -2.1436
   87SAPS  H11Y 8389   5.450   4.200   9.159 -0.1567 -0.5767  0.1908
   87SAPS  C312 8390   5.245   4.249   9.153 -0.1663  0.1406 -0.8296
   87SAPS  H12X 8391   5.247   4.360   9.149 -0.5826  0.3019  1.9846
   87SAPS  H12Y 8392   5.162   4.229   9.225  1.2730  1.1462  1.1507
   87SAPS  C313 8393   5.223   4.187   9.015 -0.0279  0.6668 -0.7734
   87SAPS  H13X 8394   5.121   4.208   8.978 -0.5892 -2.0401 -0.8429
   87SAPS  H13Y 8395   5.225   4.076   9.020  3.5168  0.6831 -0.7755
   87SAPS  C314 8396   5.330   4.231   8.917  0.2100 -0.4557 -0.7399
   87SAPS  H14X 8397   5.425   4.192   8.959  0.7498  1.7428  0.1186
   87SAPS  H14Y 8398   5.332   4.342   8.920 -1.7827 -0.4089 -0.5224
   87SAPS  C315 8399   5.316   4.194   8.766  0.6283  0.1512  0.0731
   87SAPS  H15X 8400   5.328   4.085   8.747 -1.0482  0.0429 -0.4263
   87SAPS  H15Y 8401   5.404   4.237   8.713  0.5104 -0.1934 -0.4037
   87SAPS  C316 8402   5.181   4.232   8.701  0.7602 -0.1576 -0.5355
   87SAPS  H16X 8403   5.166   4.335   8.739 -1.0443  0.2414 -2.2564
   87SAPS  H16Y 8404   5.101   4.166   8.742 -0.7562 -0.3476 -3.6660
   87SAPS  C317 8405   5.197   4.211   8.545 -0.3518 -0.5257 -0.6015
   87SAPS  H17X 8406   5.228   4.104   8.541 -0.3701 -0.4722 -3.0459
   87SAPS  H17Y 8407   5.264   4.284   8.495 -1.1085  1.5756  1.3773
   87SAPS  C318 8408   5.063   4.224   8.467  0.0473 -0.3588 -0.2671
   87SAPS  H18X 8409   5.054   4.327   8.427 -0.8698  0.3941  1.7895
   87SAPS  H18Y 8410   4.972   4.190   8.522 -0.0133  0.9177  0.4451
   87SAPS  H18Z 8411   5.054   4.161   8.376 -0.4623  0.4569 -0.7829
   88SAPS     N 8412   0.574   1.581  11.210 -0.2769 -0.0036  0.1395
   88SAPS   HN1 8413   0.591   1.663  11.273  0.1759 -0.2348  0.3231
   88SAPS   HN2 8414   0.482   1.540  11.234 -0.2344  0.1253  0.5313
   88SAPS   HN3 8415   0.637   1.502  11.235 -1.6401 -0.2900  2.8818
   88SAPS   C12 8416   0.605   1.615  11.071  0.1427 -0.1557  0.4976
   88SAPS  H12A 8417   0.587   1.533  11.002  2.3100  0.9815 -1.4930
   88SAPS   C13 8418   0.535   1.733  11.011  0.0853 -0.0475  0.3690
   88SAPS  O13A 8419   0.440   1.785  11.075  0.2139 -0.1241  0.1161
   88SAPS  O13B 8420   0.562   1.772  10.891 -0.0280  0.0313  0.0325
   88SAPS   C11 8421   0.761   1.632  11.058 -0.3634 -0.4006  0.7238
   88SAPS  H11A 8422   0.789   1.724  11.115  1.5703 -0.1215 -0.6500
   88SAPS  H11B 8423   0.787   1.658  10.954 -0.0785  2.3424  1.4357
   88SAPS     P 8424   0.983   1.503  11.090  0.2960 -0.2388  0.2082
   88SAPS   O13 8425   1.042   1.587  11.198 -0.4081 -0.2253 -0.3939
   88SAPS   O14 8426   1.022   1.358  11.098 -0.5486 -0.0197  0.0829
   88SAPS   O12 8427   0.821   1.513  11.102 -0.5545  0.1985 -0.4420
   88SAPS   O11 8428   1.017   1.554  10.942  0.0470  0.6090  0.2351
   88SAPS    C1 8429   1.127   1.636  10.903 -0.5619  0.2473 -0.3517
   88SAPS    HA 8430   1.200   1.654  10.984 -0.2638 -1.5780 -0.1943
   88SAPS    HB 8431   1.172   1.587  10.814  0.6477 -0.5285  0.6688
   88SAPS    C2 8432   1.087   1.770  10.847  0.6553 -0.0386  0.4167
   88SAPS    HS 8433   1.055   1.835  10.931  0.1264  0.3727 -0.0984
   88SAPS   O21 8434   0.979   1.746  10.760 -0.0828  0.4920  0.4044
   88SAPS   C21 8435   0.912   1.855  10.715  0.5296  0.3729  0.0513
   88SAPS   O22 8436   0.929   1.967  10.761 -0.4817  0.4848 -0.1022
   88SAPS   C22 8437   0.824   1.808  10.598  0.4572 -0.7569 -0.1896
   88SAPS   H2R 8438   0.892   1.772  10.518  1.5944  1.4188 -0.2464
   88SAPS   H2S 8439   0.753   1.732  10.636 -0.1761 -0.5016 -0.8451
   88SAPS    C3 8440   1.207   1.843  10.778  0.7226 -0.4855 -0.2384
   88SAPS    HX 8441   1.287   1.860  10.853  1.2191  0.9541 -1.0612
   88SAPS    HY 8442   1.167   1.944  10.755 -0.0608 -0.7096  0.1319
   88SAPS   O31 8443   1.229   1.774  10.654 -0.1641  0.0969 -0.3177
   88SAPS   C31 8444   1.354   1.729  10.636  0.6360  0.2456 -0.3202
   88SAPS   O32 8445   1.444   1.753  10.710  0.5584 -0.3985  0.1506
   88SAPS   C32 8446   1.359   1.627  10.520 -0.2474 -0.1966  0.9468
   88SAPS   H2X 8447   1.259   1.629  10.472 -0.0922 -1.8740  0.5097
   88SAPS   H2Y 8448   1.387   1.525  10.554  2.7731  0.0062 -0.8216
   88SAPS   C23 8449   0.743   1.926  10.545  0.1040 -0.4140  0.1134
   88SAPS   H3R 8450   0.809   2.009  10.512  1.8442 -1.5157  0.7215
   88SAPS   H3S 8451   0.687   1.967  10.632  1.2082  2.2769 -0.3881
   88SAPS   C24 8452   0.642   1.882  10.435 -0.1948 -0.2155  0.0199
   88SAPS   H4R 8453   0.587   1.790  10.466 -2.3657  0.9408 -0.3596
   88SAPS   H4S 8454   0.695   1.841  10.347 -2.9911 -1.0888 -1.3063
   88SAPS   C25 8455   0.539   1.991  10.394 -0.0438  0.1048  0.2703
   88SAPS   H5R 8456   0.459   2.021  10.464  1.6613  0.7711  1.9885
   88SAPS   C26 8457   0.539   2.047  10.270 -0.1701  0.9979 -0.0018
   88SAPS   H6R 8458   0.465   2.125  10.251  0.2747  1.1999 -0.9602
   88SAPS   C27 8459   0.639   2.023  10.155  0.5471 -0.0290 -0.1050
   88SAPS   H7R 8460   0.733   1.979  10.195 -1.0157 -1.5528  2.0652
   88SAPS   H7S 8461   0.662   2.119  10.105  0.8368  0.6720  1.3496
   88SAPS   C28 8462   0.576   1.922  10.056 -0.2133 -0.3916 -0.4032
   88SAPS   H8R 8463   0.605   1.816  10.057 -0.5563 -0.4986 -1.1152
   88SAPS   C29 8464   0.516   1.965   9.943  0.3296 -0.2622 -0.4931
   88SAPS   H9R 8465   0.467   1.896   9.872  0.1521  1.3649 -2.0133
   88SAPS  C210 8466   0.479   2.104   9.900 -0.4976 -0.7460  0.6993
   88SAPS  H10R 8467   0.504   2.177   9.980 -0.0694  0.8733 -0.8830
   88SAPS  H10S 8468   0.369   2.110   9.884 -0.2438  0.8186 -0.6336
   88SAPS  C211 8469   0.546   2.134   9.763 -0.3225  0.2037  0.4305
   88SAPS  H11R 8470   0.638   2.192   9.776  1.1435 -2.1938  1.0623
   88SAPS  C212 8471   0.505   2.104   9.640  0.4342  0.3944 -0.6255
   88SAPS  H12R 8472   0.580   2.135   9.566  0.4745  1.8057 -0.0151
   88SAPS  C213 8473   0.384   2.025   9.601  0.6474 -0.1826 -0.0678
   88SAPS  H13R 8474   0.304   2.089   9.557 -1.1870 -1.0122  2.0016
   88SAPS  H13S 8475   0.341   1.986   9.696  1.6079 -1.9439 -0.3349
   88SAPS  C214 8476   0.422   1.908   9.514 -0.1401 -0.6910 -0.3739
   88SAPS  H14R 8477   0.484   1.831   9.563  0.8767  0.3906  0.0798
   88SAPS  C215 8478   0.385   1.876   9.387 -0.7482 -0.3898  0.0370
   88SAPS  H15R 8479   0.463   1.825   9.328 -0.9576  0.4200 -0.9655
   88SAPS  C216 8480   0.290   1.958   9.299 -0.3060 -0.3969  0.0387
   88SAPS  H16R 8481   0.236   2.025   9.369 -0.0910 -0.9578  0.7499
   88SAPS  H16S 8482   0.217   1.892   9.248 -0.1240  0.3347 -1.1828
   88SAPS  C217 8483   0.356   2.042   9.193 -0.1395  0.8205 -0.0774
   88SAPS  H17R 8484   0.434   2.108   9.235  1.1599 -1.9226  1.9502
   88SAPS  H17S 8485   0.272   2.106   9.157 -1.4366 -0.3453  0.7917
   88SAPS  C218 8486   0.423   1.964   9.078 -0.0867  0.2929  0.6126
   88SAPS  H18R 8487   0.351   1.912   9.011  0.8834 -0.8708  0.4562
   88SAPS  H18S 8488   0.503   1.902   9.123  0.1430  1.4267  1.7964
   88SAPS  C219 8489   0.503   2.057   8.975  0.5242  0.4028 -0.3757
   88SAPS  H19R 8490   0.517   1.985   8.892 -2.7176 -0.2980 -0.4057
   88SAPS  H19S 8491   0.602   2.086   9.017  1.6040  0.4237 -2.8980
   88SAPS  C220 8492   0.430   2.177   8.928 -0.3708 -0.5644  0.1973
   88SAPS  H20R 8493   0.492   2.229   8.851 -1.2407 -0.7450 -0.6392
   88SAPS  H20S 8494   0.399   2.241   9.013 -0.8041 -0.5837  0.0553
   88SAPS  H20T 8495   0.341   2.144   8.870  1.9159 -0.9439 -3.2403
   88SAPS   C33 8496   1.468   1.657  10.409  0.0984 -0.2182  0.3489
   88SAPS   H3X 8497   1.568   1.657  10.458  0.1159  0.2991  0.3068
   88SAPS   H3Y 8498   1.454   1.763  10.381 -0.9345 -0.7951 -1.3626
   88SAPS   C34 8499   1.460   1.549  10.299 -0.7931 -0.0930 -0.6029
   88SAPS   H4X 8500   1.454   1.444  10.335  0.5239 -0.5950 -1.8279
   88SAPS   H4Y 8501   1.557   1.557  10.246 -1.1645 -5.2358 -2.2937
   88SAPS   C35 8502   1.353   1.576  10.188 -0.0379  0.3366  0.3737
   88SAPS   H5X 8503   1.339   1.684  10.168 -1.2372 -0.0416 -0.9066
   88SAPS   H5Y 8504   1.255   1.535  10.221  0.2681 -1.4934 -0.8970
   88SAPS   C36 8505   1.381   1.504  10.056 -0.9872  0.2172 -0.9187
   88SAPS   H6X 8506   1.364   1.397  10.080  1.4725 -0.2593 -1.1473
   88SAPS   H6Y 8507   1.487   1.518  10.025 -1.1941  0.5573 -1.4767
   88SAPS   C37 8508   1.294   1.556   9.943 -0.1519 -0.1199 -0.7636
   88SAPS   H7X 8509   1.302   1.667   9.940  1.0995 -0.1571  0.7523
   88SAPS   H7Y 8510   1.189   1.538   9.974 -0.2513 -1.6007 -1.9043
   88SAPS   C38 8511   1.323   1.492   9.806 -0.1877 -0.3555 -0.0011
   88SAPS   H8X 8512   1.290   1.385   9.809  0.3284 -0.4891  1.4907
   88SAPS   H8Y 8513   1.432   1.501   9.787  0.0970  0.1332  1.7843
   88SAPS   C39 8514   1.235   1.553   9.695 -0.0364 -0.3537  0.1210
   88SAPS   H9X 8515   1.262   1.660   9.696 -2.0668  0.1780  0.0684
   88SAPS   H9Y 8516   1.126   1.540   9.714  0.2040 -0.3330  1.5578
   88SAPS  C310 8517   1.270   1.490   9.561 -0.0879  0.0595  0.4277
   88SAPS  H10X 8518   1.229   1.387   9.561  2.8762 -1.1728  0.0744
   88SAPS  H10Y 8519   1.379   1.477   9.547 -0.1521 -2.0601  1.6485
   88SAPS  C311 8520   1.219   1.571   9.437 -0.6343 -0.0613  0.9071
   88SAPS  H11X 8521   1.264   1.673   9.440 -0.6734 -0.0142  0.0279
   88SAPS  H11Y 8522   1.109   1.587   9.447 -0.2613  1.2167  3.5041
   88SAPS  C312 8523   1.264   1.512   9.304  0.5819  0.0880 -0.3809
   88SAPS  H12X 8524   1.217   1.418   9.270  4.0919 -1.7485 -0.3523
   88SAPS  H12Y 8525   1.371   1.485   9.319  0.7743  1.9200  1.8828
   88SAPS  C313 8526   1.250   1.619   9.191 -0.2807 -0.1424  0.3547
   88SAPS  H13X 8527   1.340   1.684   9.197 -1.1468  1.2149 -0.9812
   88SAPS  H13Y 8528   1.159   1.679   9.214 -1.0587 -0.8304 -0.8479
   88SAPS  C314 8529   1.230   1.545   9.056 -0.3276  0.9725 -0.0538
   88SAPS  H14X 8530   1.140   1.483   9.077 -0.4090  1.2410  0.3948
   88SAPS  H14Y 8531   1.323   1.489   9.033  0.2609  2.3966 -1.2087
   88SAPS  C315 8532   1.185   1.638   8.929  0.3737 -0.1415  0.0290
   88SAPS  H15X 8533   1.270   1.705   8.905  2.6520 -2.6910  0.6966
   88SAPS  H15Y 8534   1.095   1.696   8.959  0.0276  0.3320 -1.8698
   88SAPS  C316 8535   1.149   1.550   8.808  0.4629  0.3696  0.7345
   88SAPS  H16X 8536   1.087   1.461   8.832  0.7926  0.0231  0.3125
   88SAPS  H16Y 8537   1.240   1.513   8.756 -0.6098  0.4684 -1.2899
   88SAPS  C317 8538   1.064   1.630   8.705 -0.4208  0.7691 -0.4221
   88SAPS  H17X 8539   1.110   1.727   8.679  1.2447  0.4243  1.1592
   88SAPS  H17Y 8540   0.960   1.647   8.739  0.1932 -1.6872  3.0028
   88SAPS  C318 8541   1.076   1.550   8.570 -0.6116 -0.1982  0.1047
   88SAPS  H18X 8542   1.183   1.552   8.538 -1.7000 -0.2706 -3.8627
   88SAPS  H18Y 8543   1.032   1.609   8.487 -0.5170  0.9364  0.8593
   88SAPS  H18Z 8544   1.037   1.446   8.573 -1.1805 -0.0810 -1.9731
   89SAPS     N 8545   0.625   4.623  10.900  0.0941  0.0617 -0.1753
   89SAPS   HN1 8546   0.537   4.597  10.850  1.6715  0.6664 -3.3554
   89SAPS   HN2 8547   0.693   4.621  10.822  1.6462 -1.2069  1.1953
   89SAPS   HN3 8548   0.656   4.547  10.965  2.8214  1.7963  0.6171
   89SAPS   C12 8549   0.609   4.761  10.954  0.6953 -0.3256 -0.1797
   89SAPS  H12A 8550   0.525   4.764  11.022 -0.5856  0.7906 -1.7672
   89SAPS   C13 8551   0.733   4.805  11.031 -0.0027 -0.0904  0.6629
   89SAPS  O13A 8552   0.819   4.721  11.077 -0.3869  0.3558 -0.0405
   89SAPS  O13B 8553   0.723   4.914  11.088 -0.2513 -0.8954 -0.1799
   89SAPS   C11 8554   0.584   4.852  10.828 -0.5076  0.2412  0.2452
   89SAPS  H11A 8555   0.665   4.836  10.754 -0.8757 -0.5694  0.0136
   89SAPS  H11B 8556   0.582   4.956  10.866 -0.6841 -0.0968  1.1802
   89SAPS     P 8557   0.441   4.801  10.612  0.1132  0.1213  0.7353
   89SAPS   O13 8558   0.452   4.659  10.578 -0.3314  0.3220  0.1959
   89SAPS   O14 8559   0.314   4.873  10.571  0.2162 -0.7150 -0.4371
   89SAPS   O12 8560   0.453   4.828  10.762 -0.0906  0.6259 -0.4205
   89SAPS   O11 8561   0.568   4.879  10.551 -0.6319 -0.6960 -0.0101
   89SAPS    C1 8562   0.550   5.024  10.530 -0.3238 -0.5086 -0.1186
   89SAPS    HA 8563   0.509   5.069  10.623  2.5516 -0.8701  1.3808
   89SAPS    HB 8564   0.656   5.058  10.531 -0.8374  1.1217  0.9762
   89SAPS    C2 8565   0.493   5.079  10.397 -0.0972 -0.0177  0.2823
   89SAPS    HS 8566   0.390   5.040  10.380 -0.3067  0.9445 -0.7435
   89SAPS   O21 8567   0.574   5.040  10.285 -0.1967 -0.1240 -0.7042
   89SAPS   C21 8568   0.533   4.938  10.224 -0.2678  0.3494  0.4922
   89SAPS   O22 8569   0.432   4.870  10.248 -0.3032 -0.6521 -0.0007
   89SAPS   C22 8570   0.634   4.924  10.102  0.7143  1.2984 -0.0828
   89SAPS   H2R 8571   0.648   5.022  10.051 -1.2559  2.2237  1.1075
   89SAPS   H2S 8572   0.724   4.891  10.158  0.2943  3.1539  1.7362
   89SAPS    C3 8573   0.479   5.228  10.399  0.1088 -0.0650 -0.5414
   89SAPS    HX 8574   0.580   5.273  10.390  1.0189 -1.4547  2.2610
   89SAPS    HY 8575   0.438   5.274  10.491 -0.4532  0.3520 -0.9961
   89SAPS   O31 8576   0.407   5.273  10.287 -0.2411 -0.4524 -0.0213
   89SAPS   C31 8577   0.272   5.270  10.289  0.8336 -0.4249 -0.1540
   89SAPS   O32 8578   0.201   5.248  10.382 -0.4544 -0.5421  0.1567
   89SAPS   C32 8579   0.228   5.327  10.147 -0.7136  0.6026 -0.6059
   89SAPS   H2X 8580   0.236   5.438  10.149  0.2732  0.5408 -0.9198
   89SAPS   H2Y 8581   0.118   5.309  10.147 -0.3830 -1.5343 -0.8884
   89SAPS   C23 8582   0.584   4.824  10.000  0.4362 -0.3497  0.0511
   89SAPS   H3R 8583   0.546   4.735  10.054  0.3755 -0.3186  0.0585
   89SAPS   H3S 8584   0.672   4.788   9.941  2.2325  1.4704  1.5084
   89SAPS   C24 8585   0.486   4.874   9.899  0.1208 -0.0917 -0.0707
   89SAPS   H4R 8586   0.527   4.967   9.852  0.2202  0.2059  0.5954
   89SAPS   H4S 8587   0.401   4.914   9.959 -1.1540 -1.3328 -1.0372
   89SAPS   C25 8588   0.445   4.774   9.795  0.2121  0.2624  0.3739
   89SAPS   H5R 8589   0.398   4.690   9.849  1.9165 -0.4590  0.7795
   89SAPS   C26 8590   0.451   4.776   9.656 -0.6292  0.4802  0.0408
   89SAPS   H6R 8591   0.405   4.694   9.599  2.1937 -0.2609 -1.2687
   89SAPS   C27 8592   0.504   4.881   9.562  0.0249 -0.8568 -0.1035
   89SAPS   H7R 8593   0.514   4.978   9.615  3.8982 -0.4360 -1.4123
   89SAPS   H7S 8594   0.431   4.911   9.484  1.1170  1.9164 -0.1204
   89SAPS   C28 8595   0.631   4.842   9.507 -0.9088  1.3163 -0.4123
   89SAPS   H8R 8596   0.716   4.877   9.567  0.2115 -2.6869  0.4235
   89SAPS   C29 8597   0.652   4.769   9.395  0.2102  0.0111 -0.0996
   89SAPS   H9R 8598   0.754   4.763   9.354  0.5734 -1.7728  0.9799
   89SAPS  C210 8599   0.541   4.709   9.307  0.1715  0.9883 -0.7083
   89SAPS  H10R 8600   0.555   4.751   9.205 -1.7236  1.7382 -0.6716
   89SAPS  H10S 8601   0.442   4.737   9.349  0.2857 -0.3606  0.4882
   89SAPS  C211 8602   0.561   4.560   9.304 -0.0132  0.5875 -0.2391
   89SAPS  H11R 8603   0.529   4.498   9.389 -0.7939 -2.2602 -2.4944
   89SAPS  C212 8604   0.603   4.489   9.200  0.1456 -0.2791  0.2086
   89SAPS  H12R 8605   0.609   4.379   9.200  0.7499 -0.2428 -0.6341
   89SAPS  C213 8606   0.644   4.539   9.066 -0.2379  0.5114  0.2372
   89SAPS  H13R 8607   0.754   4.534   9.051  0.1337  0.6143  2.7962
   89SAPS  H13S 8608   0.632   4.649   9.050  0.8790  0.5389 -0.4296
   89SAPS  C214 8609   0.570   4.470   8.952  0.0587  0.9643  0.4209
   89SAPS  H14R 8610   0.477   4.425   8.991  1.8142 -2.1957  1.0890
   89SAPS  C215 8611   0.601   4.461   8.828 -0.3004 -0.4568  0.3492
   89SAPS  H15R 8612   0.533   4.411   8.757 -0.0287 -0.3020 -0.0176
   89SAPS  C216 8613   0.721   4.528   8.779  0.2346  0.2812  0.1581
   89SAPS  H16R 8614   0.773   4.596   8.851  0.5652 -0.7862  0.9359
   89SAPS  H16S 8615   0.681   4.593   8.698 -0.9458  0.4461  0.8565
   89SAPS  C217 8616   0.830   4.425   8.725 -0.0761  0.4074  0.0699
   89SAPS  H17R 8617   0.779   4.336   8.684 -2.1000  0.2328  2.8285
   89SAPS  H17S 8618   0.892   4.385   8.808 -1.1971 -1.7261 -0.1085
   89SAPS  C218 8619   0.925   4.485   8.612 -0.2968  0.5472  0.2833
   89SAPS  H18R 8620   0.864   4.501   8.521  0.2313 -0.3643 -0.2343
   89SAPS  H18S 8621   1.002   4.408   8.591  0.7801  1.5546  0.4607
   89SAPS  C219 8622   0.990   4.619   8.641  0.4117 -0.5814  0.3180
   89SAPS  H19R 8623   0.906   4.679   8.682  0.3046 -1.6063  1.6192
   89SAPS  H19S 8624   1.019   4.663   8.543 -1.8087  0.7558  0.2259
   89SAPS  C220 8625   1.105   4.639   8.741  0.4093 -0.0865 -0.0465
   89SAPS  H20R 8626   1.153   4.739   8.735 -1.4984  0.8795  0.2668
   89SAPS  H20S 8627   1.182   4.560   8.733 -1.3148 -1.8527  0.3932
   89SAPS  H20T 8628   1.073   4.624   8.847  1.5751 -0.0457  0.3204
   89SAPS   C33 8629   0.311   5.269  10.031 -0.5199 -0.2729 -0.0973
   89SAPS   H3X 8630   0.308   5.159  10.046 -0.0706 -0.4912 -1.5143
   89SAPS   H3Y 8631   0.419   5.297  10.030 -0.5481  0.0274  1.9249
   89SAPS   C34 8632   0.246   5.300   9.892 -0.0884  0.4485 -0.0947
   89SAPS   H4X 8633   0.222   5.408   9.880  1.7164  1.2695  3.2063
   89SAPS   H4Y 8634   0.152   5.240   9.893 -0.0536  0.3643 -1.0878
   89SAPS   C35 8635   0.326   5.253   9.772  0.2275  0.2808 -0.2583
   89SAPS   H5X 8636   0.352   5.145   9.781  0.8310  0.5204  1.0355
   89SAPS   H5Y 8637   0.430   5.294   9.774  2.2989 -4.5133 -1.6745
   89SAPS   C36 8638   0.276   5.278   9.632  0.1289 -0.5510 -0.2590
   89SAPS   H6X 8639   0.279   5.389   9.625 -0.2233 -0.5328 -0.1271
   89SAPS   H6Y 8640   0.179   5.234   9.601  0.5767  0.7448 -3.7284
   89SAPS   C37 8641   0.376   5.241   9.523  0.7001 -0.3362  0.0940
   89SAPS   H7X 8642   0.412   5.141   9.554  0.2985 -0.4476  0.2105
   89SAPS   H7Y 8643   0.457   5.317   9.528  0.5053 -0.2488  3.4755
   89SAPS   C38 8644   0.312   5.236   9.382  0.2276  0.6861  0.0204
   89SAPS   H8X 8645   0.292   5.338   9.343  1.6487  0.0089 -2.6452
   89SAPS   H8Y 8646   0.212   5.187   9.383 -0.0785  1.3002 -0.1915
   89SAPS   C39 8647   0.411   5.160   9.297 -0.4526  0.3875  0.3411
   89SAPS   H9X 8648   0.379   5.054   9.285  0.9201  0.1375 -1.2291
   89SAPS   H9Y 8649   0.509   5.160   9.349  1.3081 -0.6675 -2.8545
   89SAPS  C310 8650   0.427   5.215   9.160 -0.6415  1.0996  0.3190
   89SAPS  H10X 8651   0.484   5.310   9.174  2.0663 -0.3116 -0.8450
   89SAPS  H10Y 8652   0.336   5.232   9.099 -0.9667 -1.4608  0.0613
   89SAPS  C311 8653   0.526   5.125   9.078 -0.0932  0.4026  1.1612
   89SAPS  H11X 8654   0.474   5.030   9.053  1.3553  0.2498 -1.4361
   89SAPS  H11Y 8655   0.613   5.098   9.141  0.2546 -1.0356  0.1103
   89SAPS  C312 8656   0.574   5.195   8.951  0.3066 -0.4109  0.0362
   89SAPS  H12X 8657   0.662   5.149   8.901  1.4183  0.8242  0.8320
   89SAPS  H12Y 8658   0.603   5.299   8.975  1.9841 -0.8013 -0.2180
   89SAPS  C313 8659   0.471   5.205   8.838 -0.3174 -0.0443  0.1766
   89SAPS  H13X 8660   0.383   5.268   8.864 -1.3765 -0.1179 -3.0195
   89SAPS  H13Y 8661   0.435   5.103   8.813 -0.9040  0.0117  0.7511
   89SAPS  C314 8662   0.539   5.270   8.714  0.2926  0.9388  0.9940
   89SAPS  H14X 8663   0.627   5.211   8.683 -1.7457 -1.5072 -0.3379
   89SAPS  H14Y 8664   0.571   5.376   8.728  0.0751  0.8471  2.2250
   89SAPS  C315 8665   0.445   5.261   8.595  0.0380  0.1116 -0.0012
   89SAPS  H15X 8666   0.422   5.153   8.591 -0.9774  0.3259 -0.0773
   89SAPS  H15Y 8667   0.504   5.271   8.502 -0.9161 -1.1124 -0.7415
   89SAPS  C316 8668   0.324   5.350   8.600 -0.3599 -0.0528  0.2736
   89SAPS  H16X 8669   0.350   5.456   8.622  0.0071 -0.2716  0.9211
   89SAPS  H16Y 8670   0.255   5.321   8.682 -1.2287 -2.5628 -1.3060
   89SAPS  C317 8671   0.246   5.348   8.468  0.1319  1.3038 -0.0836
   89SAPS  H17X 8672   0.308   5.399   8.391  1.5869 -0.2125  0.0630
   89SAPS  H17Y 8673   0.152   5.405   8.486 -0.0620  0.0701  3.0938
   89SAPS  C318 8674   0.212   5.213   8.424  0.0638 -0.4968  0.2863
   89SAPS  H18X 8675   0.146   5.231   8.337  0.6743 -1.0276 -0.2914
   89SAPS  H18Y 8676   0.150   5.177   8.509  0.0802  0.3777  0.6656
   89SAPS  H18Z 8677   0.307   5.157   8.409  0.5873  0.5094 -0.2090
   90SAPS     N 8678   2.387   4.408  10.828 -0.7649 -0.1306 -0.0829
   90SAPS   HN1 8679   2.482   4.447  10.841 -1.3191  0.8981  0.9292
   90SAPS   HN2 8680   2.383   4.332  10.757 -1.6282 -1.4686  1.3698
   90SAPS   HN3 8681   2.327   4.486  10.794 -0.2256  0.7386  0.9247
   90SAPS   C12 8682   2.334   4.334  10.945  0.6849 -0.4069  0.2645
   90SAPS  H12A 8683   2.397   4.247  10.955 -0.1866 -1.2026 -0.9176
   90SAPS   C13 8684   2.338   4.406  11.085  0.9109 -0.2849 -0.0076
   90SAPS  O13A 8685   2.363   4.529  11.088  0.6347  0.0994 -0.5304
   90SAPS  O13B 8686   2.272   4.350  11.183  0.5832  0.5834 -0.1613
   90SAPS   C11 8687   2.186   4.286  10.918 -0.9962  0.3048  0.2285
   90SAPS  H11A 8688   2.112   4.368  10.924 -0.7211  0.6040 -0.4533
   90SAPS  H11B 8689   2.167   4.227  11.011 -1.8945  0.7709  0.3450
   90SAPS     P 8690   2.083   4.090  10.780  0.2230  0.0253 -0.2115
   90SAPS   O13 8691   2.087   3.991  10.889  0.5179 -0.1996 -0.3745
   90SAPS   O14 8692   1.948   4.134  10.752  0.4150 -0.7190  0.1521
   90SAPS   O12 8693   2.179   4.210  10.799 -0.1090 -0.0791 -0.1740
   90SAPS   O11 8694   2.135   4.026  10.654  0.3941 -0.0809 -0.0917
   90SAPS    C1 8695   2.191   4.114  10.551  0.0208 -0.0776 -0.6461
   90SAPS    HA 8696   2.132   4.201  10.515 -1.1732 -0.8521 -0.5741
   90SAPS    HB 8697   2.288   4.153  10.589 -1.4410  2.2192  0.8344
   90SAPS    C2 8698   2.217   4.045  10.404 -0.2573 -0.6503 -0.6405
   90SAPS    HS 8699   2.114   4.030  10.365 -0.7125  2.8205 -0.8858
   90SAPS   O21 8700   2.288   3.923  10.430  0.1920 -0.0982 -0.3877
   90SAPS   C21 8701   2.268   3.838  10.334 -0.0087  0.0317 -0.2256
   90SAPS   O22 8702   2.173   3.841  10.254  0.4833 -0.4065 -0.4152
   90SAPS   C22 8703   2.388   3.739  10.333  0.3483  0.1745 -0.3359
   90SAPS   H2R 8704   2.479   3.799  10.314  1.2515 -1.2477 -0.5570
   90SAPS   H2S 8705   2.397   3.690  10.432 -1.5764 -0.3300 -0.3802
   90SAPS    C3 8706   2.296   4.130  10.310  0.3173  0.2332  0.0039
   90SAPS    HX 8707   2.400   4.140  10.347 -0.0227  0.3423  0.9423
   90SAPS    HY 8708   2.236   4.223  10.326 -0.1727 -0.1878  0.6144
   90SAPS   O31 8709   2.298   4.069  10.177  0.2907 -0.2304  0.2254
   90SAPS   C31 8710   2.204   4.102  10.095  0.4985 -0.0763  0.5283
   90SAPS   O32 8711   2.109   4.177  10.126  0.5052 -0.0279 -0.1489
   90SAPS   C32 8712   2.234   4.062   9.950 -0.1447  0.4914 -0.1904
   90SAPS   H2X 8713   2.226   3.952   9.936  1.4231  0.4757 -1.1378
   90SAPS   H2Y 8714   2.338   4.087   9.920  0.3913  0.0537  1.2653
   90SAPS   C23 8715   2.374   3.625  10.236  0.2382  0.3530 -0.2652
   90SAPS   H3R 8716   2.307   3.544  10.272  3.1417 -0.8834  2.6255
   90SAPS   H3S 8717   2.470   3.571  10.247  0.3001  0.3809 -0.6874
   90SAPS   C24 8718   2.379   3.660  10.086  0.3649 -0.4488  0.1183
   90SAPS   H4R 8719   2.458   3.737  10.073 -0.6091  0.8870  1.7820
   90SAPS   H4S 8720   2.289   3.720  10.063 -0.0323 -1.4341 -0.9141
   90SAPS   C25 8721   2.399   3.545   9.995 -0.1628  0.2588  0.3477
   90SAPS   H5R 8722   2.425   3.458  10.057 -1.2483  0.1518  0.6747
   90SAPS   C26 8723   2.362   3.541   9.863 -0.3097  0.0369 -0.1903
   90SAPS   H6R 8724   2.383   3.452   9.803  0.3841  0.5127 -0.6713
   90SAPS   C27 8725   2.296   3.658   9.792 -0.1359  1.2126  0.3012
   90SAPS   H7R 8726   2.350   3.677   9.697 -0.9711  1.3261 -0.1550
   90SAPS   H7S 8727   2.305   3.753   9.850 -1.2439  2.5573 -1.6793
   90SAPS   C28 8728   2.152   3.641   9.761 -0.3252 -0.4406 -0.4375
   90SAPS   H8R 8729   2.095   3.604   9.847  0.0625  0.7127  0.3361
   90SAPS   C29 8730   2.089   3.654   9.640  0.6433  0.2942 -0.7879
   90SAPS   H9R 8731   1.983   3.625   9.637  0.9073 -1.0232  1.3744
   90SAPS  C210 8732   2.143   3.699   9.507 -0.6412 -0.3389  0.2847
   90SAPS  H10R 8733   2.217   3.781   9.517  1.1227 -1.7967 -0.7787
   90SAPS  H10S 8734   2.057   3.747   9.455  0.9585  0.8534 -1.2914
   90SAPS  C211 8735   2.201   3.589   9.425 -0.3978 -0.8430  0.4085
   90SAPS  H11R 8736   2.182   3.488   9.464  0.6856 -0.6133  1.5776
   90SAPS  C212 8737   2.273   3.606   9.315  0.2296  0.3657  0.3317
   90SAPS  H12R 8738   2.307   3.514   9.264  1.5831  2.3875 -2.5835
   90SAPS  C213 8739   2.309   3.740   9.259 -0.3570  0.2372 -0.4219
   90SAPS  H13R 8740   2.343   3.815   9.334 -1.1714  0.6271 -0.4393
   90SAPS  H13S 8741   2.213   3.772   9.214 -1.7170 -1.4022  1.2303
   90SAPS  C214 8742   2.418   3.730   9.155 -0.4835  0.5349  0.4782
   90SAPS  H14R 8743   2.523   3.719   9.188 -0.6817  1.8937  1.6404
   90SAPS  C215 8744   2.403   3.736   9.018 -0.4782  0.4167  0.3575
   90SAPS  H15R 8745   2.493   3.720   8.957  1.3624  0.7922  2.9100
   90SAPS  C216 8746   2.271   3.748   8.941 -0.1700  0.2521  0.4489
   90SAPS  H16R 8747   2.242   3.855   8.939 -2.0712 -0.2609 -0.7177
   90SAPS  H16S 8748   2.201   3.697   9.011 -0.9005  1.2840  0.4873
   90SAPS  C217 8749   2.252   3.686   8.803  0.0926 -0.5084  0.1603
   90SAPS  H17R 8750   2.145   3.683   8.772  0.6468 -0.6223 -1.8394
   90SAPS  H17S 8751   2.289   3.581   8.807  0.1514 -0.4889  0.1250
   90SAPS  C218 8752   2.319   3.764   8.689 -0.2473  0.1553 -0.1138
   90SAPS  H18R 8753   2.424   3.785   8.718 -0.7683  3.9358 -0.6710
   90SAPS  H18S 8754   2.270   3.864   8.689 -1.9247 -0.6604 -0.5347
   90SAPS  C219 8755   2.304   3.717   8.546 -0.1397 -0.3906 -0.5945
   90SAPS  H19R 8756   2.196   3.731   8.525 -1.0499 -5.2744  0.2466
   90SAPS  H19S 8757   2.323   3.609   8.530  1.4294 -0.0358 -1.2264
   90SAPS  C220 8758   2.396   3.796   8.447  0.3740  0.2873 -0.3445
   90SAPS  H20R 8759   2.345   3.892   8.422 -2.6014 -0.9687  0.6256
   90SAPS  H20S 8760   2.413   3.738   8.354  0.1297 -2.1538  1.0876
   90SAPS  H20T 8761   2.497   3.803   8.493 -0.3495  3.6412  0.8785
   90SAPS   C33 8762   2.138   4.108   9.834  0.3878 -0.0959 -0.0802
   90SAPS   H3X 8763   2.130   4.219   9.836  1.2625 -0.0501  0.9159
   90SAPS   H3Y 8764   2.047   4.050   9.863  1.7200 -2.5463 -0.7002
   90SAPS   C34 8765   2.166   4.070   9.689  0.1807 -0.2783 -0.5808
   90SAPS   H4X 8766   2.150   3.960   9.681 -0.4468 -0.2706  0.5108
   90SAPS   H4Y 8767   2.270   4.086   9.656  0.8875 -1.3295  1.0776
   90SAPS   C35 8768   2.068   4.142   9.597 -0.1416  0.5815  0.5544
   90SAPS   H5X 8769   2.070   4.251   9.615 -0.6589  0.7898 -0.5811
   90SAPS   H5Y 8770   1.965   4.104   9.614 -1.1180  1.2068 -3.3225
   90SAPS   C36 8771   2.094   4.125   9.444  0.0830 -0.1094  0.4380
   90SAPS   H6X 8772   2.106   4.016   9.427  1.7962  0.6026 -3.3279
   90SAPS   H6Y 8773   2.188   4.176   9.416 -0.2008 -0.4680 -1.2084
   90SAPS   C37 8774   1.979   4.181   9.368  0.4885  0.4841  0.4623
   90SAPS   H7X 8775   1.961   4.289   9.388  0.4077  0.3867  0.9330
   90SAPS   H7Y 8776   1.888   4.130   9.408  2.7676 -2.2229  2.3546
   90SAPS   C38 8777   1.988   4.154   9.221 -1.2360 -0.2574  0.4800
   90SAPS   H8X 8778   2.003   4.046   9.198 -2.0087 -0.3894  0.5673
   90SAPS   H8Y 8779   2.071   4.215   9.180 -1.9908 -0.4919 -1.4355
   90SAPS   C39 8780   1.851   4.185   9.158 -0.5712  0.1659 -0.6985
   90SAPS   H9X 8781   1.819   4.282   9.204 -1.8264 -0.9771  0.8914
   90SAPS   H9Y 8782   1.780   4.110   9.199  2.0918 -2.3855 -0.6175
   90SAPS  C310 8783   1.870   4.183   9.010  0.2608 -0.0879 -0.6246
   90SAPS  H10X 8784   1.949   4.254   8.976 -0.7788  2.5239  2.2172
   90SAPS  H10Y 8785   1.776   4.232   8.975 -0.8159 -1.7859 -0.1727
   90SAPS  C311 8786   1.889   4.036   8.947  0.5968 -0.9769 -0.0280
   90SAPS  H11X 8787   1.830   3.971   9.015 -0.1122 -1.7938 -1.4118
   90SAPS  H11Y 8788   1.993   3.997   8.940  1.2967  1.1802 -2.3965
   90SAPS  C312 8789   1.819   4.033   8.812 -0.0154 -0.4059 -1.1854
   90SAPS  H12X 8790   1.896   4.069   8.741  1.7019  1.3072  1.4622
   90SAPS  H12Y 8791   1.735   4.106   8.818 -0.1286 -0.7127  1.6868
   90SAPS  C313 8792   1.757   3.899   8.772  0.0786  0.2073 -0.2670
   90SAPS  H13X 8793   1.821   3.816   8.807 -1.2686 -1.0971 -0.8358
   90SAPS  H13Y 8794   1.755   3.889   8.661  0.0793 -0.4084 -0.2074
   90SAPS  C314 8795   1.629   3.848   8.840  0.3140  0.6355 -0.1244
   90SAPS  H14X 8796   1.537   3.898   8.804 -0.2794 -1.0562 -1.0088
   90SAPS  H14Y 8797   1.643   3.868   8.948  3.1322  0.9035 -0.5009
   90SAPS  C315 8798   1.608   3.695   8.814  0.3679 -0.7857 -0.3694
   90SAPS  H15X 8799   1.538   3.656   8.890 -1.1325 -0.4429 -1.5444
   90SAPS  H15Y 8800   1.704   3.644   8.836 -0.6757 -3.3192 -1.4678
   90SAPS  C316 8801   1.554   3.662   8.666  0.0355 -0.2571 -0.2482
   90SAPS  H16X 8802   1.626   3.685   8.585 -0.0552  0.5074 -0.1174
   90SAPS  H16Y 8803   1.463   3.725   8.660  0.0824 -0.0068  1.3259
   90SAPS  C317 8804   1.519   3.515   8.658 -0.0965  0.0190 -0.0622
   90SAPS  H17X 8805   1.441   3.507   8.579 -0.7656 -0.4007  0.6282
   90SAPS  H17Y 8806   1.463   3.472   8.744  0.3865 -0.0103  0.2387
   90SAPS  C318 8807   1.634   3.428   8.609  0.1705  0.5307  0.1061
   90SAPS  H18X 8808   1.660   3.454   8.504 -2.5323  1.0410 -0.4689
   90SAPS  H18Y 8809   1.613   3.319   8.616  0.7395  0.4463  0.4834
   90SAPS  H18Z 8810   1.717   3.438   8.681  0.0628  0.2769  0.2657
   91SAPS     N 8811   1.347   2.485   5.753 -0.3558 -0.9188  0.2292
   91SAPS   HN1 8812   1.358   2.464   5.854 -1.9432 -1.1550  0.3794
   91SAPS   HN2 8813   1.428   2.533   5.710 -1.4673 -0.6204 -1.5918
   91SAPS   HN3 8814   1.264   2.547   5.742 -0.3694 -0.8107  0.9251
   91SAPS   C12 8815   1.333   2.351   5.686  0.0981 -0.6593 -0.0984
   91SAPS  H12A 8816   1.271   2.357   5.598  0.2914  3.8461 -0.0428
   91SAPS   C13 8817   1.468   2.313   5.626  0.6666 -0.1090 -0.5972
   91SAPS  O13A 8818   1.563   2.398   5.621 -0.1958  0.9111 -0.7800
   91SAPS  O13B 8819   1.480   2.199   5.576  0.3275  0.2997 -0.3151
   91SAPS   C11 8820   1.267   2.252   5.784 -0.3787 -0.3734  0.1623
   91SAPS  H11A 8821   1.277   2.151   5.740 -1.9160 -0.3053 -0.3906
   91SAPS  H11B 8822   1.160   2.280   5.792 -0.8349 -2.0985  0.3039
   91SAPS     P 8823   1.333   2.141   6.004 -0.2254  0.2699 -0.3627
   91SAPS   O13 8824   1.201   2.067   5.978 -0.3962  0.3241 -0.5487
   91SAPS   O14 8825   1.461   2.067   5.990 -0.8596  0.2705  0.1945
   91SAPS   O12 8826   1.328   2.266   5.914  0.1385  0.7705  0.6422
   91SAPS   O11 8827   1.312   2.202   6.151 -0.5982 -0.3703 -0.7565
   91SAPS    C1 8828   1.416   2.275   6.217  0.0767 -1.0433 -0.3738
   91SAPS    HA 8829   1.501   2.204   6.230  0.9635 -0.2847 -1.8304
   91SAPS    HB 8830   1.455   2.353   6.148 -0.7719  1.7571  2.2156
   91SAPS    C2 8831   1.351   2.334   6.349 -0.6171  0.4874  0.9540
   91SAPS    HS 8832   1.436   2.389   6.395  1.3895 -1.5905 -0.1773
   91SAPS   O21 8833   1.294   2.227   6.423  0.1490  0.2775  0.2253
   91SAPS   C21 8834   1.331   2.219   6.543  0.1956 -0.4489  0.1053
   91SAPS   O22 8835   1.403   2.296   6.606 -0.2187  0.1186 -0.0112
   91SAPS   C22 8836   1.258   2.104   6.609 -0.2308  0.0766 -0.0368
   91SAPS   H2R 8837   1.151   2.104   6.576 -0.5762 -1.6083  1.0501
   91SAPS   H2S 8838   1.300   2.009   6.569  2.5582  0.3430  2.1357
   91SAPS    C3 8839   1.240   2.436   6.312 -0.0498  0.4878 -0.1062
   91SAPS    HX 8840   1.175   2.394   6.233 -1.9451  2.1943  0.4824
   91SAPS    HY 8841   1.289   2.521   6.259  1.2957  0.9900  1.8805
   91SAPS   O31 8842   1.151   2.480   6.418  0.3999 -0.1772  0.2313
   91SAPS   C31 8843   1.198   2.554   6.507 -0.2926 -0.2320 -0.5544
   91SAPS   O32 8844   1.310   2.602   6.516  0.1830 -0.1058 -0.6315
   91SAPS   C32 8845   1.086   2.599   6.600 -0.6073  0.2041 -0.3911
   91SAPS   H2X 8846   1.031   2.509   6.636 -0.3201  0.1326 -0.1361
   91SAPS   H2Y 8847   1.020   2.668   6.543 -0.9456 -0.1222 -0.4015
   91SAPS   C23 8848   1.265   2.097   6.768 -0.1656  0.2775  0.2298
   91SAPS   H3R 8849   1.368   2.106   6.807 -0.5382  0.4698  1.1863
   91SAPS   H3S 8850   1.232   1.997   6.804 -0.5028  0.7095  1.1349
   91SAPS   C24 8851   1.177   2.205   6.853 -0.4923  0.1785 -0.3430
   91SAPS   H4R 8852   1.217   2.309   6.847 -0.2681  0.1178  0.1040
   91SAPS   H4S 8853   1.171   2.175   6.959 -1.0543  0.2204 -0.3636
   91SAPS   C25 8854   1.034   2.210   6.806 -0.3676  0.0525 -0.1410
   91SAPS   H5R 8855   1.008   2.285   6.729  0.9339  0.9498  0.2676
   91SAPS   C26 8856   0.936   2.123   6.837 -0.2178  0.0971  0.0461
   91SAPS   H6R 8857   0.836   2.141   6.794 -1.5845  0.1073  3.1318
   91SAPS   C27 8858   0.955   2.007   6.928 -0.1580  0.2167 -0.5295
   91SAPS   H7R 8859   1.029   2.029   7.008 -1.0881 -1.7070  0.9102
   91SAPS   H7S 8860   0.994   1.918   6.873 -2.0218 -0.9557  0.0178
   91SAPS   C28 8861   0.820   1.961   6.979  0.3328 -0.3028  0.0202
   91SAPS   H8R 8862   0.748   1.910   6.913  1.1238 -1.3077 -0.0760
   91SAPS   C29 8863   0.769   1.968   7.105 -0.0167  0.3043  0.1678
   91SAPS   H9R 8864   0.664   1.939   7.118  0.0396 -0.1141 -0.3155
   91SAPS  C210 8865   0.837   2.035   7.227 -0.6498  0.1521 -1.0464
   91SAPS  H10R 8866   0.837   2.146   7.235 -0.3361  0.2337 -2.0548
   91SAPS  H10S 8867   0.945   2.008   7.234  0.1701  3.5879  0.7177
   91SAPS  C211 8868   0.784   1.975   7.359  0.7285 -0.3230  0.0160
   91SAPS  H11R 8869   0.691   1.917   7.350  0.4619  0.2140 -0.7471
   91SAPS  C212 8870   0.840   1.985   7.484 -0.8320  0.6938  0.1855
   91SAPS  H12R 8871   0.795   1.928   7.567  0.4743 -2.5332 -1.2203
   91SAPS  C213 8872   0.959   2.072   7.521  0.4062  0.4380  0.7547
   91SAPS  H13R 8873   1.000   2.124   7.431  2.5959 -1.2933  0.7184
   91SAPS  H13S 8874   1.044   2.006   7.549 -0.5366 -1.2431 -0.2604
   91SAPS  C214 8875   0.921   2.167   7.632 -0.3444  0.9132 -0.3352
   91SAPS  H14R 8876   0.845   2.244   7.611  0.4796  1.3758 -1.7431
   91SAPS  C215 8877   0.976   2.166   7.758  0.5433 -0.2436 -0.0395
   91SAPS  H15R 8878   0.951   2.249   7.827 -0.7607 -0.7591  0.1258
   91SAPS  C216 8879   1.087   2.073   7.811 -0.1437  0.0984  0.3106
   91SAPS  H16R 8880   1.181   2.126   7.787  0.8576 -2.2337 -1.0430
   91SAPS  H16S 8881   1.080   1.979   7.753 -1.3436  0.9744 -0.9766
   91SAPS  C217 8882   1.079   2.040   7.968 -0.2138 -0.2612 -0.3495
   91SAPS  H17R 8883   0.991   1.973   7.980  1.1974 -1.9865  0.6280
   91SAPS  H17S 8884   1.052   2.139   8.011 -0.6118 -0.6777  0.3762
   91SAPS  C218 8885   1.207   1.975   8.022 -0.6274  0.2012  0.1466
   91SAPS  H18R 8886   1.279   2.053   7.988 -2.4815  1.4352 -1.0602
   91SAPS  H18S 8887   1.219   1.873   7.982  3.8273  1.4940 -2.1043
   91SAPS  C219 8888   1.213   1.958   8.177  0.3653  0.3282  0.1663
   91SAPS  H19R 8889   1.297   1.892   8.207 -0.7093 -0.3143  1.7787
   91SAPS  H19S 8890   1.126   1.890   8.194  1.8421 -2.0609 -1.4657
   91SAPS  C220 8891   1.212   2.081   8.275  0.0805 -0.7538 -0.0642
   91SAPS  H20R 8892   1.251   2.049   8.374 -1.1705 -3.4734 -0.3811
   91SAPS  H20S 8893   1.108   2.116   8.296  1.0460  1.4147  1.2209
   91SAPS  H20T 8894   1.268   2.169   8.237 -0.7937  0.2768  1.0155
   91SAPS   C33 8895   1.149   2.672   6.717  0.8589 -0.8258  0.1419
   91SAPS   H3X 8896   1.194   2.765   6.677 -3.2325  0.9853 -0.4353
   91SAPS   H3Y 8897   1.233   2.613   6.762  1.8535  0.0201 -0.5959
   91SAPS   C34 8898   1.053   2.706   6.834  0.0988 -0.2349  0.5455
   91SAPS   H4X 8899   1.019   2.616   6.889 -2.2516  1.6583  2.3266
   91SAPS   H4Y 8900   0.963   2.760   6.797 -2.5617 -1.1685  5.1754
   91SAPS   C35 8901   1.111   2.781   6.951 -0.1934 -0.3613  0.3894
   91SAPS   H5X 8902   1.128   2.888   6.925 -1.6898 -0.5726 -1.6060
   91SAPS   H5Y 8903   1.201   2.732   6.994  0.5832  0.3668 -0.3711
   91SAPS   C36 8904   0.999   2.805   7.052 -0.2039 -0.3906 -0.3291
   91SAPS   H6X 8905   0.984   2.716   7.117  1.5639  0.0789  0.7686
   91SAPS   H6Y 8906   0.906   2.826   6.996  0.1744  4.0204  0.4552
   91SAPS   C37 8907   1.029   2.925   7.148  0.1617  0.2735  0.2250
   91SAPS   H7X 8908   1.016   3.019   7.091  1.6882 -0.2416 -1.0150
   91SAPS   H7Y 8909   1.136   2.912   7.177  0.2736 -2.6367 -1.3362
   91SAPS   C38 8910   0.941   2.927   7.272 -0.1360  0.0281 -0.2807
   91SAPS   H8X 8911   0.836   2.903   7.248 -0.0410 -0.7871  0.1111
   91SAPS   H8Y 8912   0.935   3.027   7.320 -0.6057 -1.1252  2.1575
   91SAPS   C39 8913   0.988   2.836   7.398  0.6690  0.5707 -1.3667
   91SAPS   H9X 8914   1.099   2.841   7.407  0.6250  0.8792 -1.0129
   91SAPS   H9Y 8915   0.973   2.732   7.362  1.6984 -0.1807  0.2945
   91SAPS  C310 8916   0.902   2.852   7.522 -0.5362  0.6273 -0.1276
   91SAPS  H10X 8917   0.921   2.761   7.582  1.3109  1.4601  0.6028
   91SAPS  H10Y 8918   0.796   2.846   7.492 -0.9113  1.1189  1.0597
   91SAPS  C311 8919   0.936   2.974   7.601 -0.2081  0.3544  0.0379
   91SAPS  H11X 8920   0.938   3.064   7.536 -1.1759  1.2012  1.1685
   91SAPS  H11Y 8921   1.040   2.959   7.637 -0.2244  0.1817  0.0153
   91SAPS  C312 8922   0.856   2.995   7.724  0.2011 -0.0774 -0.0221
   91SAPS  H12X 8923   0.849   2.897   7.775 -0.4920 -0.5094 -0.9311
   91SAPS  H12Y 8924   0.754   3.025   7.694 -0.1200 -0.4166  0.7223
   91SAPS  C313 8925   0.922   3.097   7.824  0.5024 -0.0994 -0.2770
   91SAPS  H13X 8926   0.914   3.200   7.783  0.5334 -0.6141 -1.6150
   91SAPS  H13Y 8927   1.030   3.075   7.837  0.9470  1.8788 -0.4750
   91SAPS  C314 8928   0.854   3.096   7.964  0.1185  0.2464  0.4874
   91SAPS  H14X 8929   0.885   2.999   8.009  3.0389 -0.6379 -3.1515
   91SAPS  H14Y 8930   0.744   3.107   7.954  0.0797  0.5460  1.2377
   91SAPS  C315 8931   0.908   3.203   8.059  0.1316  0.9333  0.3417
   91SAPS  H15X 8932   0.850   3.201   8.154 -1.3693 -0.6478 -0.5822
   91SAPS  H15Y 8933   0.881   3.300   8.011  1.4185  0.7670 -0.7520
   91SAPS  C316 8934   1.063   3.194   8.082 -0.0569 -0.0580  0.2760
   91SAPS  H16X 8935   1.102   3.216   7.980  1.0456 -3.6369 -0.1571
   91SAPS  H16Y 8936   1.088   3.089   8.107  2.0016 -0.1806 -2.1036
   91SAPS  C317 8937   1.120   3.286   8.191 -0.5340  0.5930  0.2853
   91SAPS  H17X 8938   1.230   3.283   8.182 -0.4727  1.6804  0.6500
   91SAPS  H17Y 8939   1.084   3.235   8.283 -0.7052 -0.2246 -0.2280
   91SAPS  C318 8940   1.053   3.428   8.197  0.0204  0.5974  0.0634
   91SAPS  H18X 8941   0.943   3.425   8.210 -0.0408  1.1691 -0.2803
   91SAPS  H18Y 8942   1.066   3.478   8.098 -0.1040 -0.2002 -0.3630
   91SAPS  H18Z 8943   1.100   3.491   8.276 -0.6865 -0.0355  0.9917
   92SAPS     N 8944   0.234   0.413   6.217 -0.0769  0.4112 -0.2169
   92SAPS   HN1 8945   0.220   0.480   6.296 -0.3997 -0.5456  0.5349
   92SAPS   HN2 8946   0.215   0.459   6.126 -0.3516  0.6769 -0.0300
   92SAPS   HN3 8947   0.177   0.328   6.231  0.2554  0.1955 -0.1773
   92SAPS   C12 8948   0.368   0.361   6.239 -0.1961  1.0001 -0.2898
   92SAPS  H12A 8949   0.388   0.291   6.159  0.6897  1.7573 -0.7322
   92SAPS   C13 8950   0.476   0.469   6.236 -0.2091  0.3911  0.3394
   92SAPS  O13A 8951   0.447   0.588   6.213  0.0484  0.0077  0.5125
   92SAPS  O13B 8952   0.590   0.422   6.210 -0.2646 -0.2164 -0.0925
   92SAPS   C11 8953   0.375   0.281   6.373 -0.5374  0.0504 -0.0106
   92SAPS  H11A 8954   0.350   0.351   6.455  1.0560  0.1489  0.4121
   92SAPS  H11B 8955   0.471   0.232   6.399 -0.8939 -0.1475  0.9457
   92SAPS     P 8956   0.307   0.017   6.394  0.1366 -0.3024 -0.1707
   92SAPS   O13 8957   0.173  -0.047   6.385  0.9646  0.0275 -0.2303
   92SAPS   O14 8958   0.409  -0.023   6.299 -0.1378  0.4581  0.7488
   92SAPS   O12 8959   0.286   0.176   6.378  0.3349  0.4288  0.0570
   92SAPS   O11 8960   0.372  -0.006   6.536  0.3087 -0.0981 -0.3526
   92SAPS    C1 8961   0.347   0.087   6.642 -0.0389 -0.1921  0.2701
   92SAPS    HA 8962   0.414   0.175   6.630  0.1187 -0.4525 -0.8020
   92SAPS    HB 8963   0.242   0.125   6.637 -0.3464 -1.0881 -0.0790
   92SAPS    C2 8964   0.364   0.029   6.784  0.4761  0.2928 -0.3887
   92SAPS    HS 8965   0.313  -0.070   6.793  0.5375  0.3855  1.0533
   92SAPS   O21 8966   0.304   0.117   6.877  0.0623 -0.3433 -0.5545
   92SAPS   C21 8967   0.175   0.115   6.894  0.3568  0.0783 -0.7832
   92SAPS   O22 8968   0.100   0.032   6.843  0.1604 -0.1639 -0.1511
   92SAPS   C22 8969   0.135   0.215   7.002  0.2448 -0.1360  0.5922
   92SAPS   H2R 8970   0.190   0.183   7.093  0.3664 -1.5869  0.0157
   92SAPS   H2S 8971   0.176   0.315   6.979  2.0562 -0.9512  0.1865
   92SAPS    C3 8972   0.511   0.006   6.819 -0.6175  0.3667 -0.8360
   92SAPS    HX 8973   0.559   0.106   6.815 -1.4942  1.0143  3.1390
   92SAPS    HY 8974   0.557  -0.054   6.737 -1.6487 -1.6965  0.0683
   92SAPS   O31 8975   0.529  -0.066   6.948  0.3097 -0.3450  0.1082
   92SAPS   C31 8976   0.586   0.008   7.042  0.6906  0.4965 -0.0479
   92SAPS   O32 8977   0.660   0.105   7.022  0.6049 -0.1142 -0.3020
   92SAPS   C32 8978   0.540  -0.061   7.174 -0.3068 -0.2629 -0.3054
   92SAPS   H2X 8979   0.591  -0.160   7.183  0.6062  0.0040 -2.1434
   92SAPS   H2Y 8980   0.432  -0.079   7.155 -0.8144  1.1300  1.1857
   92SAPS   C23 8981  -0.017   0.228   7.035  0.1671  0.3584 -0.3511
   92SAPS   H3R 8982  -0.057   0.135   7.080  0.1320 -0.5055 -2.1358
   92SAPS   H3S 8983  -0.064   0.243   6.936  0.2932  2.0011 -0.1742
   92SAPS   C24 8984  -0.061   0.357   7.112 -0.0428  0.5272  0.3009
   92SAPS   H4R 8985  -0.036   0.448   7.052 -2.0522  1.6158  1.0808
   92SAPS   H4S 8986  -0.004   0.367   7.207  0.0572  1.5372  0.1391
   92SAPS   C25 8987  -0.206   0.350   7.141 -0.8126 -0.5998  0.2754
   92SAPS   H5R 8988  -0.257   0.321   7.049  0.7709 -0.1266 -0.7773
   92SAPS   C26 8989  -0.264   0.356   7.262 -0.0443 -0.6672  0.0940
   92SAPS   H6R 8990  -0.373   0.340   7.260  0.0545 -1.6105  1.4351
   92SAPS   C27 8991  -0.202   0.382   7.399  0.4638  0.2806  0.0801
   92SAPS   H7R 8992  -0.101   0.427   7.388  0.4012  0.5823  0.7329
   92SAPS   H7S 8993  -0.183   0.283   7.446  1.3633 -0.6626 -2.2065
   92SAPS   C28 8994  -0.295   0.465   7.490 -0.3393 -0.7831 -0.3350
   92SAPS   H8R 8995  -0.353   0.539   7.434 -0.8847 -1.5061 -0.7354
   92SAPS   C29 8996  -0.333   0.433   7.622 -0.6212 -0.4283 -0.0697
   92SAPS   H9R 8997  -0.403   0.498   7.676  1.9674  1.7894  0.7715
   92SAPS  C210 8998  -0.272   0.320   7.700  0.4326 -0.5630  0.0085
   92SAPS  H10R 8999  -0.173   0.349   7.740  1.1407  0.2903 -2.2369
   92SAPS  H10S 9000  -0.245   0.235   7.634 -1.5452  0.8282 -2.6967
   92SAPS  C211 9001  -0.347   0.265   7.825 -0.1872  0.0405  0.0575
   92SAPS  H11R 9002  -0.411   0.176   7.810 -0.3581  0.5443 -2.4906
   92SAPS  C212 9003  -0.348   0.327   7.946 -0.5097 -0.1774 -0.2877
   92SAPS  H12R 9004  -0.417   0.291   8.024  0.0587 -0.3328  0.1491
   92SAPS  C213 9005  -0.285   0.459   7.984  0.6312  0.1449 -0.2508
   92SAPS  H13R 9006  -0.237   0.505   7.895 -0.3958  1.2873 -0.2299
   92SAPS  H13S 9007  -0.215   0.453   8.069 -0.6149  0.7999  0.8368
   92SAPS  C214 9008  -0.398   0.549   8.028  0.2533 -0.0208  0.7798
   92SAPS  H14R 9009  -0.473   0.574   7.952 -0.1831  1.1481  1.5718
   92SAPS  C215 9010  -0.411   0.622   8.145 -0.0520 -0.3905  0.6561
   92SAPS  H15R 9011  -0.511   0.661   8.170 -0.1790 -1.1716  1.3671
   92SAPS  C216 9012  -0.314   0.624   8.257  0.4124  0.0804  0.5422
   92SAPS  H16R 9013  -0.242   0.706   8.234 -0.8800  0.4559 -2.5045
   92SAPS  H16S 9014  -0.259   0.533   8.287  3.0288  0.0333 -3.8157
   92SAPS  C217 9015  -0.390   0.653   8.384 -0.0404 -0.0021 -0.2041
   92SAPS  H17R 9016  -0.441   0.751   8.369 -1.3073 -0.4392  1.1547
   92SAPS  H17S 9017  -0.308   0.655   8.460  0.5693  0.8558 -0.8719
   92SAPS  C218 9018  -0.499   0.551   8.424 -0.4397  0.2581  0.2915
   92SAPS  H18R 9019  -0.451   0.457   8.390 -0.1163  1.5662 -3.0355
   92SAPS  H18S 9020  -0.586   0.556   8.355  0.6082  0.2160 -1.0534
   92SAPS  C219 9021  -0.558   0.566   8.557 -0.5356 -0.4616  0.0889
   92SAPS  H19R 9022  -0.606   0.666   8.560 -1.7917 -1.0770  1.2175
   92SAPS  H19S 9023  -0.470   0.568   8.626 -2.2397 -0.3925  2.3153
   92SAPS  C220 9024  -0.652   0.452   8.594  0.2665  0.4701 -0.0324
   92SAPS  H20R 9025  -0.691   0.471   8.696  0.2405 -0.6351  0.1730
   92SAPS  H20S 9026  -0.607   0.350   8.588 -0.8201  0.1295 -3.2308
   92SAPS  H20T 9027  -0.736   0.452   8.522 -0.8942 -0.0743  1.2838
   92SAPS   C33 9028   0.558   0.020   7.299 -0.4691 -0.1775  0.3567
   92SAPS   H3X 9029   0.482  -0.001   7.377 -1.9356  1.8267 -0.4853
   92SAPS   H3Y 9030   0.532   0.123   7.265  1.4525  0.0229 -0.5762
   92SAPS   C34 9031   0.708   0.015   7.355 -0.2709 -0.0661  0.3876
   92SAPS   H4X 9032   0.724   0.097   7.428  0.4621  0.1620 -0.0242
   92SAPS   H4Y 9033   0.767   0.043   7.265 -0.9318  0.0221 -0.0299
   92SAPS   C35 9034   0.751  -0.115   7.421 -0.2410 -0.0403 -0.3106
   92SAPS   H5X 9035   0.859  -0.100   7.444 -0.0508 -0.0298 -1.1995
   92SAPS   H5Y 9036   0.754  -0.198   7.348 -0.7347  0.1952 -0.6039
   92SAPS   C36 9037   0.652  -0.174   7.523 -0.5487 -0.2161 -0.3680
   92SAPS   H6X 9038   0.563  -0.227   7.484 -1.0890  1.3298 -1.3087
   92SAPS   H6Y 9039   0.617  -0.082   7.575 -0.7143 -0.2075 -0.4953
   92SAPS   C37 9040   0.723  -0.259   7.618 -0.6986  0.3162  0.7368
   92SAPS   H7X 9041   0.801  -0.207   7.677  0.7369 -0.8190 -0.1232
   92SAPS   H7Y 9042   0.778  -0.334   7.556  0.3636  2.8091 -1.4373
   92SAPS   C38 9043   0.640  -0.340   7.716  0.3388 -0.0144 -0.3014
   92SAPS   H8X 9044   0.545  -0.376   7.670 -0.4384  1.2998  0.2717
   92SAPS   H8Y 9045   0.612  -0.275   7.801  0.0521  0.3101 -0.6452
   92SAPS   C39 9046   0.715  -0.466   7.762 -0.3466 -0.1333 -0.1262
   92SAPS   H9X 9047   0.814  -0.439   7.805 -0.8618 -1.5409  1.9825
   92SAPS   H9Y 9048   0.741  -0.524   7.671 -0.3446 -0.6631  0.2118
   92SAPS  C310 9049   0.656  -0.542   7.882 -0.0116 -0.2859 -0.3164
   92SAPS  H10X 9050   0.715  -0.634   7.900 -1.3538 -1.1824 -0.4544
   92SAPS  H10Y 9051   0.556  -0.577   7.850 -0.8034  0.6605  1.0832
   92SAPS  C311 9052   0.641  -0.448   8.007  0.6789  0.6472 -0.2050
   92SAPS  H11X 9053   0.587  -0.512   8.080  0.3700 -0.6641 -1.5428
   92SAPS  H11Y 9054   0.569  -0.367   7.982 -0.2919  0.2921  1.4019
   92SAPS  C312 9055   0.770  -0.412   8.082  0.4282  1.3189  0.5531
   92SAPS  H12X 9056   0.821  -0.333   8.024 -1.9882  1.0523 -2.0597
   92SAPS  H12Y 9057   0.839  -0.499   8.077 -0.6624  0.5000 -0.8937
   92SAPS  C313 9058   0.746  -0.354   8.223  0.5821  0.1777  0.0842
   92SAPS  H13X 9059   0.698  -0.424   8.294 -0.4190  2.4955  1.7072
   92SAPS  H13Y 9060   0.691  -0.261   8.196 -0.1240 -0.2398  0.0715
   92SAPS  C314 9061   0.868  -0.316   8.312 -0.2445  0.2703  0.3318
   92SAPS  H14X 9062   0.842  -0.240   8.389 -0.4156  1.5865 -0.9983
   92SAPS  H14Y 9063   0.944  -0.280   8.239 -1.8425 -0.0845 -1.5531
   92SAPS  C315 9064   0.939  -0.426   8.395 -0.7073 -0.5597  0.2156
   92SAPS  H15X 9065   1.044  -0.406   8.423 -1.8991  1.4984  3.5496
   92SAPS  H15Y 9066   0.940  -0.520   8.336 -2.0545 -0.3405 -0.1758
   92SAPS  C316 9067   0.863  -0.454   8.533 -0.4102  0.6459  0.3752
   92SAPS  H16X 9068   0.895  -0.559   8.556  0.5161  0.5199 -1.4290
   92SAPS  H16Y 9069   0.760  -0.444   8.495  0.0797 -0.8094 -1.4085
   92SAPS  C317 9070   0.880  -0.356   8.651  0.3041 -0.6608 -0.8634
   92SAPS  H17X 9071   0.823  -0.392   8.739  0.3650  1.0944 -0.0839
   92SAPS  H17Y 9072   0.843  -0.253   8.637  1.5597  0.2997  2.3632
   92SAPS  C318 9073   1.022  -0.349   8.688  0.2739  0.1498 -0.0924
   92SAPS  H18X 9074   1.056  -0.444   8.735  2.3422 -0.2199 -2.2221
   92SAPS  H18Y 9075   1.036  -0.272   8.766 -1.3995  0.6473 -0.2655
   92SAPS  H18Z 9076   1.085  -0.314   8.603 -0.9290  1.7647 -0.3314
   93SAPS     N 9077   0.364   0.834   6.171 -0.8479 -0.2360 -0.3937
   93SAPS   HN1 9078   0.341   0.828   6.070 -1.4347 -2.5885 -0.1425
   93SAPS   HN2 9079   0.408   0.746   6.205 -0.7000 -0.1455 -0.3502
   93SAPS   HN3 9080   0.282   0.852   6.233 -0.2102  0.4598  0.2727
   93SAPS   C12 9081   0.455   0.948   6.204 -0.1423 -0.2883  0.1827
   93SAPS  H12A 9082   0.555   0.912   6.187 -0.5015 -0.4566 -1.6811
   93SAPS   C13 9083   0.422   1.081   6.126 -0.0019  0.6309 -0.3179
   93SAPS  O13A 9084   0.313   1.088   6.063 -0.1074  0.0043  0.3135
   93SAPS  O13B 9085   0.497   1.183   6.142  0.2164 -0.6479  0.1901
   93SAPS   C11 9086   0.449   0.966   6.359  0.1650  0.0846 -0.1047
   93SAPS  H11A 9087   0.343   0.984   6.386  0.0952 -0.2234 -0.1786
   93SAPS  H11B 9088   0.500   1.057   6.396  1.1505 -0.0973 -0.9873
   93SAPS     P 9089   0.641   0.811   6.461  0.1113 -0.1754 -0.2924
   93SAPS   O13 9090   0.648   0.711   6.572  0.2638  0.1484  0.3711
   93SAPS   O14 9091   0.719   0.785   6.336 -0.0129 -0.0387  0.1476
   93SAPS   O12 9092   0.490   0.847   6.419  0.3514  0.1045 -0.0683
   93SAPS   O11 9093   0.691   0.941   6.525  0.0289  0.9294  0.0689
   93SAPS    C1 9094   0.670   0.968   6.662  0.6240  0.1885 -0.2290
   93SAPS    HA 9095   0.652   1.077   6.675 -1.3602 -0.1907  0.3562
   93SAPS    HB 9096   0.578   0.930   6.711  3.0468 -2.3704  2.5933
   93SAPS    C2 9097   0.797   0.931   6.750 -0.1818  0.3512  0.0860
   93SAPS    HS 9098   0.829   0.829   6.721 -2.5155 -0.4658  0.2402
   93SAPS   O21 9099   0.752   0.942   6.892  0.0253  0.2788 -0.5572
   93SAPS   C21 9100   0.816   0.857   6.977  0.8401  0.4218 -0.6622
   93SAPS   O22 9101   0.908   0.783   6.947  0.0679  0.2136  0.3658
   93SAPS   C22 9102   0.744   0.862   7.109  0.0158  0.0887 -0.9257
   93SAPS   H2R 9103   0.776   0.955   7.161  2.4000 -0.9509 -0.4405
   93SAPS   H2S 9104   0.635   0.876   7.094 -0.1434 -1.0989 -0.9543
   93SAPS    C3 9105   0.915   1.027   6.716  0.3305 -0.3312 -0.4756
   93SAPS    HX 9106   0.867   1.127   6.715 -0.2405 -0.5360  2.1989
   93SAPS    HY 9107   0.940   1.010   6.609  1.6340 -0.1280 -0.2088
   93SAPS   O31 9108   1.026   1.010   6.801  0.3217 -0.3890  0.1000
   93SAPS   C31 9109   1.145   1.047   6.757  0.5957  0.1062  0.0539
   93SAPS   O32 9110   1.159   1.128   6.664 -0.3814 -0.9070  0.1634
   93SAPS   C32 9111   1.264   0.985   6.836 -0.4826 -1.2341  0.3186
   93SAPS   H2X 9112   1.342   0.952   6.764  0.7805 -1.0722  1.5899
   93SAPS   H2Y 9113   1.241   0.898   6.901 -0.5448 -2.8632 -1.8494
   93SAPS   C23 9114   0.771   0.742   7.201 -0.2207 -0.4876 -0.2559
   93SAPS   H3R 9115   0.800   0.654   7.140  0.2521  0.2059 -1.0376
   93SAPS   H3S 9116   0.673   0.724   7.251  0.7020 -0.3420  1.6579
   93SAPS   C24 9117   0.873   0.777   7.313  0.2946  0.1371 -0.0607
   93SAPS   H4R 9118   0.836   0.851   7.387 -2.0695  0.3126 -1.3613
   93SAPS   H4S 9119   0.956   0.815   7.250  0.3859  0.2574  0.1317
   93SAPS   C25 9120   0.926   0.659   7.396  0.6309  0.6507 -0.2479
   93SAPS   H5R 9121   1.031   0.634   7.378  0.7010  0.1610  0.8249
   93SAPS   C26 9122   0.853   0.587   7.490  0.2128  0.1234  0.2123
   93SAPS   H6R 9123   0.892   0.495   7.536  0.1535  0.3461  0.7117
   93SAPS   C27 9124   0.714   0.631   7.531 -0.4730 -0.3704 -0.3821
   93SAPS   H7R 9125   0.701   0.724   7.470  0.2223  0.6885  1.0525
   93SAPS   H7S 9126   0.708   0.654   7.639 -0.8014 -2.4462  0.0443
   93SAPS   C28 9127   0.599   0.541   7.503  0.3586  0.8404  0.4894
   93SAPS   H8R 9128   0.539   0.552   7.411 -0.1371 -1.7451  0.4946
   93SAPS   C29 9129   0.559   0.438   7.578 -0.0869 -0.1137 -0.9958
   93SAPS   H9R 9130   0.474   0.378   7.544 -0.8898  0.6098 -0.2803
   93SAPS  C210 9131   0.624   0.392   7.714 -0.0537 -0.0089 -0.1207
   93SAPS  H10R 9132   0.543   0.384   7.789 -0.9739  0.7123 -1.0209
   93SAPS  H10S 9133   0.711   0.454   7.744 -1.3104  1.4186  0.6378
   93SAPS  C211 9134   0.689   0.255   7.693  0.1778 -0.1892  0.2380
   93SAPS  H11R 9135   0.758   0.261   7.607  1.5088 -1.1830  1.2108
   93SAPS  C212 9136   0.669   0.138   7.752  0.8394  0.5544  0.3507
   93SAPS  H12R 9137   0.730   0.054   7.716  0.8058  0.8075 -0.3140
   93SAPS  C213 9138   0.573   0.102   7.862  0.0247 -0.2617  0.5897
   93SAPS  H13R 9139   0.528   0.001   7.852 -0.2593  0.0771 -1.6986
   93SAPS  H13S 9140   0.491   0.178   7.864 -2.4534 -2.8423  2.2774
   93SAPS  C214 9141   0.637   0.114   8.001  0.3054  0.4265  0.3071
   93SAPS  H14R 9142   0.737   0.158   8.001  0.6722 -0.3285 -1.9046
   93SAPS  C215 9143   0.579   0.080   8.115  1.0507 -1.3162 -0.2650
   93SAPS  H15R 9144   0.634   0.088   8.210 -2.0861 -1.3028  1.6119
   93SAPS  C216 9145   0.438   0.034   8.135  0.2462  0.3733 -0.1034
   93SAPS  H16R 9146   0.420  -0.063   8.085  2.3042 -0.4568  0.7392
   93SAPS  H16S 9147   0.361   0.096   8.083 -0.7063 -0.4751  0.2950
   93SAPS  C217 9148   0.404   0.032   8.282 -0.1284 -0.0569  0.0293
   93SAPS  H17R 9149   0.294   0.047   8.293 -0.8271 -3.2296 -1.9463
   93SAPS  H17S 9150   0.430   0.128   8.330 -1.9439  0.8781 -0.8095
   93SAPS  C218 9151   0.440  -0.102   8.354  0.0632  0.5171 -0.3317
   93SAPS  H18R 9152   0.551  -0.108   8.358  0.2329  2.8904 -0.3960
   93SAPS  H18S 9153   0.408  -0.188   8.291 -2.9515 -0.5965  2.5802
   93SAPS  C219 9154   0.385  -0.116   8.497  0.6606 -0.6687 -0.2146
   93SAPS  H19R 9155   0.386  -0.008   8.524 -0.0774 -0.4709 -0.9763
   93SAPS  H19S 9156   0.459  -0.169   8.560 -0.3506 -0.9869  0.7154
   93SAPS  C220 9157   0.241  -0.167   8.504 -0.0152 -0.4025 -0.3168
   93SAPS  H20R 9158   0.192  -0.153   8.603 -0.4946 -3.7183 -0.0514
   93SAPS  H20S 9159   0.237  -0.276   8.486 -1.2411 -0.3361 -0.4687
   93SAPS  H20T 9160   0.183  -0.120   8.422 -0.9283 -0.6595  0.1802
   93SAPS   C33 9161   1.334   1.095   6.920 -0.1048 -0.3451 -0.4399
   93SAPS   H3X 9162   1.326   1.192   6.866  1.0001 -0.0590 -0.1077
   93SAPS   H3Y 9163   1.445   1.089   6.924 -0.1971 -2.1151 -0.2224
   93SAPS   C34 9164   1.273   1.110   7.054 -0.2880 -0.0744 -0.0722
   93SAPS   H4X 9165   1.167   1.076   7.053 -0.2155 -0.2954 -0.4584
   93SAPS   H4Y 9166   1.265   1.215   7.089 -0.5182 -1.0392  2.8868
   93SAPS   C35 9167   1.359   1.040   7.165  0.3286  0.3512  0.4646
   93SAPS   H5X 9168   1.446   1.109   7.170  0.6043  0.2452 -2.2793
   93SAPS   H5Y 9169   1.402   0.948   7.121 -1.1832  0.2610 -0.8285
   93SAPS   C36 9170   1.294   1.013   7.303 -0.7267 -0.7035  1.0564
   93SAPS   H6X 9171   1.362   0.973   7.381  1.2354 -0.6517 -0.5807
   93SAPS   H6Y 9172   1.221   0.933   7.283 -1.9807  0.8730 -0.8822
   93SAPS   C37 9173   1.220   1.137   7.358  0.0083  0.0611  0.1535
   93SAPS   H7X 9174   1.136   1.155   7.288 -0.0583  2.1582  0.7477
   93SAPS   H7Y 9175   1.282   1.230   7.357 -0.4404  0.3699  0.7128
   93SAPS   C38 9176   1.173   1.118   7.506  0.2444  0.2710 -0.7209
   93SAPS   H8X 9177   1.158   1.220   7.548  0.7526 -0.7127  1.8916
   93SAPS   H8Y 9178   1.266   1.081   7.555 -0.1534  0.3593  0.0987
   93SAPS   C39 9179   1.062   1.020   7.556  0.4705  0.1654  0.3525
   93SAPS   H9X 9180   1.073   0.939   7.480 -0.9034  0.5903 -0.3099
   93SAPS   H9Y 9181   0.963   1.065   7.534  2.1142  2.3018 -3.1449
   93SAPS  C310 9182   1.085   0.964   7.701  0.0224 -0.0577  0.0861
   93SAPS  H10X 9183   1.083   1.048   7.774 -2.8744  1.1392 -1.2602
   93SAPS  H10Y 9184   1.181   0.910   7.709 -0.7423 -1.4561 -0.1027
   93SAPS  C311 9185   0.976   0.860   7.750 -0.4455  0.2377  0.1212
   93SAPS  H11X 9186   0.980   0.766   7.691 -0.4045 -0.7891  1.7180
   93SAPS  H11Y 9187   0.875   0.900   7.730 -0.5854 -1.7114 -3.4781
   93SAPS  C312 9188   0.991   0.826   7.894  0.4652  0.3789  0.1751
   93SAPS  H12X 9189   1.023   0.916   7.951  0.2391  0.6662 -0.1441
   93SAPS  H12Y 9190   1.074   0.752   7.897  0.4383  0.3313 -0.1974
   93SAPS  C313 9191   0.870   0.759   7.951 -0.4540  0.1855  0.3251
   93SAPS  H13X 9192   0.844   0.670   7.891 -4.3566  0.1322  1.9316
   93SAPS  H13Y 9193   0.778   0.820   7.933  0.3489  0.9843 -1.1078
   93SAPS  C314 9194   0.864   0.734   8.104 -0.1363  0.3725 -0.8401
   93SAPS  H14X 9195   0.865   0.831   8.159 -0.7897  0.2562 -0.6166
   93SAPS  H14Y 9196   0.948   0.681   8.153 -1.6849 -1.0083  0.3386
   93SAPS  C315 9197   0.734   0.660   8.150  0.0899 -0.0540 -0.0953
   93SAPS  H15X 9198   0.705   0.577   8.083 -0.6445 -0.9739  1.3388
   93SAPS  H15Y 9199   0.650   0.734   8.142 -1.1246 -1.6450 -2.9816
   93SAPS  C316 9200   0.749   0.609   8.291 -0.2399 -0.5227  0.3293
   93SAPS  H16X 9201   0.788   0.693   8.353  0.2872 -0.2564 -0.3594
   93SAPS  H16Y 9202   0.822   0.526   8.289 -0.6488 -0.9470  2.3021
   93SAPS  C317 9203   0.615   0.548   8.350 -0.5209 -0.7113 -0.3100
   93SAPS  H17X 9204   0.532   0.618   8.326  0.7996  0.8578 -0.3998
   93SAPS  H17Y 9205   0.622   0.549   8.461  2.6517 -0.5695 -0.4597
   93SAPS  C318 9206   0.577   0.411   8.289 -0.1899  0.7145  0.2155
   93SAPS  H18X 9207   0.665   0.343   8.290 -1.2181 -0.6177  0.9952
   93SAPS  H18Y 9208   0.571   0.430   8.179  2.8830 -1.5205 -0.4080
   93SAPS  H18Z 9209   0.492   0.356   8.334  0.7488  0.1012  1.2686
   94SAPS     N 9210   0.881   2.912   5.526 -0.2932  0.5348 -0.5267
   94SAPS   HN1 9211   0.917   2.999   5.571  0.6877 -0.0283 -0.2092
   94SAPS   HN2 9212   0.932   2.907   5.436  1.2195 -2.6049  0.4347
   94SAPS   HN3 9213   0.780   2.923   5.501 -0.3189 -1.3497 -1.2908
   94SAPS   C12 9214   0.912   2.785   5.608  0.8971  0.4706 -0.2230
   94SAPS  H12A 9215   0.860   2.694   5.582 -1.5884  1.8546 -0.1831
   94SAPS   C13 9216   1.063   2.749   5.624 -0.2739 -0.2440 -1.2176
   94SAPS  O13A 9217   1.139   2.809   5.547  0.0615 -0.6444 -0.0370
   94SAPS  O13B 9218   1.095   2.639   5.678  0.3580  0.9456  0.4787
   94SAPS   C11 9219   0.867   2.807   5.757 -0.0462  0.5341  0.9306
   94SAPS  H11A 9220   0.897   2.725   5.826  2.6109 -1.0877 -2.0063
   94SAPS  H11B 9221   0.756   2.808   5.760 -0.0724  0.2145  0.1019
   94SAPS     P 9222   0.983   2.958   5.935  0.0590  0.0051  0.3021
   94SAPS   O13 9223   1.124   2.921   5.913 -0.5388 -0.6409  0.0234
   94SAPS   O14 9224   0.965   3.102   5.976 -0.4779  0.1893  0.0873
   94SAPS   O12 9225   0.905   2.939   5.804  0.4725 -0.1060  0.6960
   94SAPS   O11 9226   0.914   2.866   6.039 -0.2544 -0.3643  0.5477
   94SAPS    C1 9227   0.782   2.902   6.079  0.2448 -0.0407 -0.2804
   94SAPS    HA 9228   0.718   2.944   5.999 -1.0289  0.1404  0.8107
   94SAPS    HB 9229   0.734   2.811   6.120 -1.0158 -0.1840 -2.0170
   94SAPS    C2 9230   0.779   3.007   6.205 -0.6734  0.3713  0.5428
   94SAPS    HS 9231   0.822   3.104   6.171 -2.2321  2.3373  3.9225
   94SAPS   O21 9232   0.852   2.951   6.318  0.0498  0.1318 -0.0620
   94SAPS   C21 9233   0.929   3.033   6.386  0.0793  0.0746  0.4133
   94SAPS   O22 9234   0.964   3.146   6.365  0.7587  0.2215  0.0793
   94SAPS   C22 9235   0.964   2.959   6.520 -0.1326  0.1430 -0.1266
   94SAPS   H2R 9236   0.891   2.877   6.535 -0.3743  0.1741 -1.0929
   94SAPS   H2S 9237   1.063   2.914   6.497 -1.1687 -2.3047  0.0732
   94SAPS    C3 9238   0.636   3.035   6.251  0.7849 -0.3166 -0.6785
   94SAPS    HX 9239   0.596   2.932   6.260 -0.3362  0.4555  4.1452
   94SAPS    HY 9240   0.591   3.092   6.166  2.0460  1.1091 -0.4124
   94SAPS   O31 9241   0.627   3.115   6.375 -0.7503  0.0016  0.3359
   94SAPS   C31 9242   0.648   3.248   6.357 -0.7963 -0.0918  0.2583
   94SAPS   O32 9243   0.685   3.304   6.249  0.6984 -0.3512 -0.0391
   94SAPS   C32 9244   0.634   3.322   6.488  0.2628  0.0404 -0.4008
   94SAPS   H2X 9245   0.738   3.337   6.524 -0.2481 -0.4533  1.3742
   94SAPS   H2Y 9246   0.575   3.264   6.563  0.1084  0.9366  0.1845
   94SAPS   C23 9247   0.982   3.039   6.650 -0.2942 -0.6897 -0.2476
   94SAPS   H3R 9248   1.029   3.137   6.630  0.4178 -0.6565  1.5086
   94SAPS   H3S 9249   1.050   2.982   6.716  3.4687  2.4825 -1.2247
   94SAPS   C24 9250   0.854   3.046   6.720 -0.1404 -0.3262 -0.7145
   94SAPS   H4R 9251   0.826   2.940   6.737  1.1934 -0.3836  1.3767
   94SAPS   H4S 9252   0.770   3.089   6.662 -1.4994 -0.0971  1.3688
   94SAPS   C25 9253   0.875   3.116   6.852 -0.5887 -0.2445 -0.1210
   94SAPS   H5R 9254   0.973   3.106   6.901 -0.1228  2.3519 -0.4287
   94SAPS   C26 9255   0.788   3.192   6.921 -0.1807 -1.0565 -0.6035
   94SAPS   H6R 9256   0.825   3.219   7.021  0.9063 -2.3008 -0.6669
   94SAPS   C27 9257   0.646   3.232   6.893 -0.1772 -0.2256 -0.2956
   94SAPS   H7R 9258   0.622   3.265   6.790 -0.2858  1.2684  0.1838
   94SAPS   H7S 9259   0.620   3.326   6.947 -2.6319 -0.1868 -1.4591
   94SAPS   C28 9260   0.544   3.124   6.917  0.4395  0.3225 -0.2249
   94SAPS   H8R 9261   0.535   3.056   6.832  1.6046  1.3666 -1.2161
   94SAPS   C29 9262   0.455   3.108   7.021 -0.0468 -0.3958 -0.0727
   94SAPS   H9R 9263   0.381   3.027   7.010 -1.1360  0.6302 -0.3936
   94SAPS  C210 9264   0.434   3.203   7.139  0.4358  0.4480  0.4326
   94SAPS  H10R 9265   0.325   3.221   7.154 -0.1058 -2.3342  0.1762
   94SAPS  H10S 9266   0.490   3.296   7.116 -0.3537  0.3777 -1.9208
   94SAPS  C211 9267   0.475   3.123   7.261  0.1586  0.4985  0.3194
   94SAPS  H11R 9268   0.481   3.014   7.247 -0.5803  0.6769 -1.5004
   94SAPS  C212 9269   0.480   3.167   7.384 -0.3522 -0.3488 -0.0785
   94SAPS  H12R 9270   0.505   3.096   7.464 -0.6750 -0.0093  0.3326
   94SAPS  C213 9271   0.449   3.309   7.427  0.1483  0.2495  0.5569
   94SAPS  H13R 9272   0.391   3.315   7.522  1.4990 -1.3436  1.5163
   94SAPS  H13S 9273   0.366   3.335   7.359  2.6907 -0.1812 -2.8696
   94SAPS  C214 9274   0.558   3.417   7.419 -0.6098  0.8734  0.8842
   94SAPS  H14R 9275   0.542   3.494   7.343  0.1524  2.3648  2.2080
   94SAPS  C215 9276   0.656   3.454   7.507  0.9140 -0.2315 -0.6656
   94SAPS  H15R 9277   0.715   3.542   7.477  0.9466 -0.5115 -1.4597
   94SAPS  C216 9278   0.682   3.379   7.637 -0.0742  0.6571  0.8364
   94SAPS  H16R 9279   0.772   3.317   7.619  0.1941  0.8656  1.4594
   94SAPS  H16S 9280   0.594   3.314   7.656  0.2434  0.3524  1.2735
   94SAPS  C217 9281   0.700   3.474   7.759 -0.2235 -0.0447 -0.0537
   94SAPS  H17R 9282   0.784   3.541   7.735 -0.6340  1.0964  1.5969
   94SAPS  H17S 9283   0.734   3.405   7.839  1.6120 -0.9972 -1.6256
   94SAPS  C218 9284   0.584   3.562   7.802 -0.2527  0.3038 -0.3170
   94SAPS  H18R 9285   0.566   3.646   7.731 -1.1212  0.8563  0.5459
   94SAPS  H18S 9286   0.610   3.613   7.897  0.2082  1.3440 -0.9875
   94SAPS  C219 9287   0.458   3.486   7.846  0.9472  0.1351 -0.4267
   94SAPS  H19R 9288   0.489   3.389   7.890  1.0508 -0.2401 -1.3019
   94SAPS  H19S 9289   0.390   3.474   7.759  1.4006 -0.1500 -0.7480
   94SAPS  C220 9290   0.386   3.552   7.962 -0.2728 -0.3773 -0.8643
   94SAPS  H20R 9291   0.295   3.493   7.987 -2.4456  1.5277 -4.0277
   94SAPS  H20S 9292   0.350   3.654   7.936  0.3965  0.1378  0.1544
   94SAPS  H20T 9293   0.456   3.567   8.047 -0.1208 -1.4942 -0.7915
   94SAPS   C33 9294   0.582   3.461   6.476  0.0466  0.3036 -0.8466
   94SAPS   H3X 9295   0.478   3.447   6.440 -0.1855  1.1861 -0.5028
   94SAPS   H3Y 9296   0.622   3.539   6.408 -1.7286  3.0186  1.1727
   94SAPS   C34 9297   0.561   3.518   6.617 -0.2115  0.1157 -0.0775
   94SAPS   H4X 9298   0.646   3.477   6.677  0.5827  0.9481 -0.6223
   94SAPS   H4Y 9299   0.472   3.478   6.670 -1.5845  1.0507 -1.6203
   94SAPS   C35 9300   0.569   3.671   6.618  0.3892  0.9922  0.1597
   94SAPS   H5X 9301   0.512   3.711   6.531  0.4530 -0.0106 -0.3527
   94SAPS   H5Y 9302   0.661   3.726   6.585  0.5106  0.9770  0.4747
   94SAPS   C36 9303   0.497   3.723   6.746  0.6745  0.0881  0.4211
   94SAPS   H6X 9304   0.407   3.661   6.768 -0.4970  1.5021 -0.2965
   94SAPS   H6Y 9305   0.458   3.823   6.718 -0.4804 -0.0336  1.5395
   94SAPS   C37 9306   0.579   3.728   6.872 -0.4566  0.1956  0.4611
   94SAPS   H7X 9307   0.676   3.780   6.857 -1.7137  2.1851 -1.1371
   94SAPS   H7Y 9308   0.588   3.621   6.902 -0.8671 -0.2832 -1.0629
   94SAPS   C38 9309   0.495   3.770   6.994 -0.2663  1.3945 -0.1274
   94SAPS   H8X 9310   0.403   3.710   7.008  1.0032 -0.2599  1.3383
   94SAPS   H8Y 9311   0.471   3.877   6.976 -2.1299  0.8746 -0.8651
   94SAPS   C39 9312   0.576   3.769   7.126 -0.5878  0.5656 -0.5362
   94SAPS   H9X 9313   0.666   3.833   7.110 -0.3693  0.7073  1.1477
   94SAPS   H9Y 9314   0.624   3.670   7.141  0.7905  1.0108 -1.8965
   94SAPS  C310 9315   0.499   3.816   7.250  0.1199  0.3505  0.2501
   94SAPS  H10X 9316   0.441   3.737   7.301 -0.8092 -0.4200 -1.9102
   94SAPS  H10Y 9317   0.438   3.900   7.210 -2.6032 -1.3501  0.7610
   94SAPS  C311 9318   0.610   3.863   7.342 -0.4478  0.6104  0.2243
   94SAPS  H11X 9319   0.665   3.944   7.290  0.2799  0.9394  1.4805
   94SAPS  H11Y 9320   0.672   3.775   7.372 -0.4723  0.3569 -0.4677
   94SAPS  C312 9321   0.543   3.912   7.470  0.0304  0.4586  0.2409
   94SAPS  H12X 9322   0.454   3.852   7.497  0.2480 -0.5065 -1.1256
   94SAPS  H12Y 9323   0.509   4.018   7.465  1.6190  0.9493 -0.5177
   94SAPS  C313 9324   0.632   3.922   7.594 -0.3968 -0.3299 -0.4140
   94SAPS  H13X 9325   0.721   3.987   7.583 -1.1172  0.8266  0.5104
   94SAPS  H13Y 9326   0.679   3.821   7.603  0.2583 -0.0353 -0.4803
   94SAPS  C314 9327   0.558   3.959   7.720 -0.0573 -0.0833  1.2064
   94SAPS  H14X 9328   0.470   3.893   7.731  1.4672 -2.0282  2.1817
   94SAPS  H14Y 9329   0.532   4.066   7.706 -1.2743 -0.4659  0.5624
   94SAPS  C315 9330   0.639   3.962   7.849 -0.8383  0.0911 -0.2859
   94SAPS  H15X 9331   0.730   4.025   7.855 -0.3068 -0.7418  0.3832
   94SAPS  H15Y 9332   0.680   3.861   7.865 -0.7376  0.1051 -0.4508
   94SAPS  C316 9333   0.540   3.991   7.965  0.5235 -0.5628 -0.0206
   94SAPS  H16X 9334   0.588   3.982   8.065 -1.2968 -0.1641  0.9202
   94SAPS  H16Y 9335   0.459   3.915   7.958 -0.1961 -0.1097  2.7347
   94SAPS  C317 9336   0.481   4.132   7.963  0.6046 -0.2197  0.9177
   94SAPS  H17X 9337   0.420   4.146   7.871 -0.3238  0.7520  1.6560
   94SAPS  H17Y 9338   0.565   4.205   7.964  0.2726  0.1680  1.0118
   94SAPS  C318 9339   0.391   4.171   8.076  0.2335 -0.1249 -0.1407
   94SAPS  H18X 9340   0.441   4.156   8.174  0.9534 -1.6804 -0.7303
   94SAPS  H18Y 9341   0.309   4.096   8.065  1.0876 -1.0747 -0.1213
   94SAPS  H18Z 9342   0.355   4.276   8.071 -0.8005 -0.5222 -1.2727
   95SAPS     N 9343   3.962   0.145   5.889 -0.4969 -0.4258  0.7873
   95SAPS   HN1 9344   3.965   0.187   5.794  0.7256 -2.9094 -0.3088
   95SAPS   HN2 9345   3.975   0.043   5.875  1.4600 -0.2735  1.3792
   95SAPS   HN3 9346   3.872   0.165   5.937  0.0312  1.1709  1.1598
   95SAPS   C12 9347   4.076   0.196   5.976 -0.6628  0.8770 -0.3969
   95SAPS  H12A 9348   4.043   0.166   6.074 -1.1423  0.5801 -0.6445
   95SAPS   C13 9349   4.211   0.127   5.938  0.9175 -1.0803 -0.2868
   95SAPS  O13A 9350   4.220   0.039   5.842  0.3357 -0.5623  0.1219
   95SAPS  O13B 9351   4.319   0.182   5.977  0.0521 -0.4303  0.4228
   95SAPS   C11 9352   4.076   0.346   5.977  0.0744  0.2943 -0.3575
   95SAPS  H11A 9353   4.077   0.381   5.871  1.7986 -1.4697 -0.9508
   95SAPS  H11B 9354   4.172   0.372   6.026 -0.9284  0.6809  1.4512
   95SAPS     P 9355   3.946   0.521   6.112 -0.2858  0.3329  0.1310
   95SAPS   O13 9356   3.986   0.637   6.029 -0.0676  0.3042 -0.3965
   95SAPS   O14 9357   3.809   0.537   6.169 -0.3329  0.0253  0.4381
   95SAPS   O12 9358   3.954   0.387   6.034  0.4900  0.0841 -0.4247
   95SAPS   O11 9359   4.065   0.497   6.222  0.4506 -0.3556  0.4099
   95SAPS    C1 9360   4.061   0.380   6.304 -0.1313  0.4009  0.1361
   95SAPS    HA 9361   3.970   0.316   6.302  0.4668 -0.4997  1.0843
   95SAPS    HB 9362   4.140   0.302   6.295 -0.2263  0.4716 -1.4164
   95SAPS    C2 9363   4.059   0.435   6.452 -0.0017 -0.1118 -0.2589
   95SAPS    HS 9364   3.997   0.528   6.447 -0.2796 -0.2826  0.0216
   95SAPS   O21 9365   4.195   0.464   6.488  0.2507  0.1195 -0.2857
   95SAPS   C21 9366   4.214   0.565   6.581 -0.2084 -0.1136 -0.0180
   95SAPS   O22 9367   4.128   0.642   6.610 -0.3831  0.0349 -0.5938
   95SAPS   C22 9368   4.354   0.561   6.636 -0.4437  0.4753 -1.3651
   95SAPS   H2R 9369   4.423   0.576   6.551 -0.7373 -0.9997 -1.8640
   95SAPS   H2S 9370   4.371   0.642   6.711 -1.7145  2.3803 -3.0749
   95SAPS    C3 9371   3.985   0.338   6.549  0.3843  0.1757 -0.8475
   95SAPS    HX 9372   4.044   0.244   6.554  3.9337  2.4083  1.5423
   95SAPS    HY 9373   3.885   0.322   6.504  0.3030  2.5652 -1.5903
   95SAPS   O31 9374   3.971   0.395   6.679 -0.4257 -0.3026 -0.3937
   95SAPS   C31 9375   3.887   0.334   6.765  0.5214 -0.5645 -0.4372
   95SAPS   O32 9376   3.815   0.240   6.737  0.3890 -0.1708  0.2144
   95SAPS   C32 9377   3.878   0.415   6.890  0.0145  0.0806 -0.1623
   95SAPS   H2X 9378   3.786   0.477   6.892  0.0625  0.1827  3.8054
   95SAPS   H2Y 9379   3.962   0.488   6.898  0.5459 -0.5923  0.5410
   95SAPS   C23 9380   4.382   0.425   6.707  0.5451 -0.4048 -0.1341
   95SAPS   H3R 9381   4.489   0.436   6.733  0.0750  1.5139  1.0286
   95SAPS   H3S 9382   4.375   0.350   6.625 -0.1189 -0.4365 -0.0493
   95SAPS   C24 9383   4.289   0.393   6.825 -0.4072  0.7422 -0.5706
   95SAPS   H4R 9384   4.181   0.395   6.798 -0.8777  0.9350  1.2657
   95SAPS   H4S 9385   4.300   0.468   6.906  1.5983 -1.5506  1.3972
   95SAPS   C25 9386   4.330   0.250   6.875  0.1910  0.1782 -0.1761
   95SAPS   H5R 9387   4.300   0.170   6.805  0.8286  0.4655 -0.7861
   95SAPS   C26 9388   4.394   0.229   6.992  0.9880  0.4093  0.0034
   95SAPS   H6R 9389   4.404   0.121   7.013 -0.7194  0.2013 -0.2008
   95SAPS   C27 9390   4.442   0.324   7.092 -0.4129 -0.0855 -0.2297
   95SAPS   H7R 9391   4.483   0.407   7.031  0.4264 -0.4643 -0.1978
   95SAPS   H7S 9392   4.524   0.269   7.143  1.5561 -0.3674 -3.5647
   95SAPS   C28 9393   4.340   0.380   7.190 -0.1231 -0.3568 -0.3411
   95SAPS   H8R 9394   4.254   0.440   7.157 -0.2648  0.3186  1.1638
   95SAPS   C29 9395   4.331   0.355   7.319 -0.4867  0.0417 -0.1727
   95SAPS   H9R 9396   4.257   0.405   7.383 -0.5593  3.0823 -2.5028
   95SAPS  C210 9397   4.434   0.282   7.400 -0.0307  0.3773  0.1207
   95SAPS  H10R 9398   4.521   0.263   7.335 -0.4280 -1.8599  0.1887
   95SAPS  H10S 9399   4.403   0.179   7.428 -0.4367  0.0874 -1.3324
   95SAPS  C211 9400   4.472   0.354   7.532 -0.1664 -0.1708  0.8621
   95SAPS  H11R 9401   4.553   0.428   7.521 -0.4990 -0.2001 -2.3557
   95SAPS  C212 9402   4.413   0.334   7.652  0.5411 -0.1087 -0.2710
   95SAPS  H12R 9403   4.460   0.389   7.735  0.2229 -0.9699  0.4786
   95SAPS  C213 9404   4.309   0.238   7.695 -0.3604  0.7562 -0.3003
   95SAPS  H13R 9405   4.357   0.167   7.764 -0.1350  0.0297 -1.1987
   95SAPS  H13S 9406   4.279   0.181   7.605  3.7073  0.4632 -1.5661
   95SAPS  C214 9407   4.200   0.306   7.769 -0.1651  0.2728  0.2241
   95SAPS  H14R 9408   4.155   0.386   7.708  0.5206  1.9345  1.8733
   95SAPS  C215 9409   4.158   0.288   7.893 -0.3512 -0.4361 -0.2255
   95SAPS  H15R 9410   4.079   0.358   7.925  0.2753  0.1944 -0.0493
   95SAPS  C216 9411   4.218   0.194   7.993  0.8805  0.4192 -0.4299
   95SAPS  H16R 9412   4.297   0.129   7.948  0.9383  1.2867 -1.6190
   95SAPS  H16S 9413   4.130   0.129   8.011 -0.3582  2.2839  0.2970
   95SAPS  C217 9414   4.273   0.261   8.120  0.3395  0.1501  0.0544
   95SAPS  H17R 9415   4.208   0.348   8.143 -2.0425 -1.0599 -1.8869
   95SAPS  H17S 9416   4.378   0.296   8.114  0.5189 -0.4581 -0.4038
   95SAPS  C218 9417   4.252   0.166   8.241  0.0350 -0.8976 -0.1406
   95SAPS  H18R 9418   4.321   0.083   8.213  0.2549 -0.5706 -0.5750
   95SAPS  H18S 9419   4.147   0.131   8.236  0.2969 -1.4443 -2.3568
   95SAPS  C219 9420   4.288   0.234   8.375  0.1006 -0.1790  0.1416
   95SAPS  H19R 9421   4.281   0.160   8.458 -1.0872 -1.6842 -1.2657
   95SAPS  H19S 9422   4.217   0.317   8.397  0.4533  0.3932 -0.8456
   95SAPS  C220 9423   4.425   0.297   8.375 -0.5712 -0.5986  1.2235
   95SAPS  H20R 9424   4.462   0.316   8.478 -0.5207 -0.5610  1.1988
   95SAPS  H20S 9425   4.414   0.392   8.319 -0.9189 -1.2285  0.2062
   95SAPS  H20T 9426   4.494   0.230   8.319 -1.8300 -0.1742 -0.8877
   95SAPS   C33 9427   3.868   0.319   7.012 -0.0759  0.2902  0.3238
   95SAPS   H3X 9428   3.939   0.234   7.009  0.9308  1.1842 -2.6073
   95SAPS   H3Y 9429   3.768   0.270   7.012  1.8118 -3.8190  2.7756
   95SAPS   C34 9430   3.873   0.392   7.145  0.0578  0.6426 -0.6110
   95SAPS   H4X 9431   3.801   0.477   7.143 -3.2427 -1.9808  1.0394
   95SAPS   H4Y 9432   3.977   0.429   7.153  0.4140 -0.4901  0.1610
   95SAPS   C35 9433   3.843   0.307   7.267  0.5139 -0.0642  0.8801
   95SAPS   H5X 9434   3.911   0.219   7.273 -1.0790 -1.3319  0.6592
   95SAPS   H5Y 9435   3.742   0.264   7.256  1.3300 -1.6160 -0.8406
   95SAPS   C36 9436   3.856   0.386   7.400  0.1766 -0.3335  0.4946
   95SAPS   H6X 9437   3.792   0.477   7.411  2.1027  1.2312 -0.7237
   95SAPS   H6Y 9438   3.961   0.424   7.398  0.0062  0.1787  0.9994
   95SAPS   C37 9439   3.821   0.293   7.520  0.9676 -0.6165 -0.3302
   95SAPS   H7X 9440   3.883   0.202   7.503  0.8570 -0.6924 -0.3352
   95SAPS   H7Y 9441   3.714   0.263   7.507  0.6074  0.2458  0.5874
   95SAPS   C38 9442   3.848   0.362   7.652  0.3735  0.2412  0.9292
   95SAPS   H8X 9443   3.765   0.435   7.660  0.3787  0.1245  2.1344
   95SAPS   H8Y 9444   3.947   0.413   7.657  0.0244  1.1667 -1.2769
   95SAPS   C39 9445   3.826   0.276   7.780 -0.5533  0.2656 -0.2903
   95SAPS   H9X 9446   3.905   0.197   7.779 -0.2349  0.5838 -0.1347
   95SAPS   H9Y 9447   3.725   0.232   7.764  0.3286 -2.1850  0.5228
   95SAPS  C310 9448   3.813   0.369   7.903  0.1270 -0.0644  0.1557
   95SAPS  H10X 9449   3.725   0.433   7.880 -1.0756 -1.9140 -0.5212
   95SAPS  H10Y 9450   3.900   0.438   7.912 -0.2568  0.3380  0.8089
   95SAPS  C311 9451   3.793   0.296   8.040  0.1229 -0.5160  0.0865
   95SAPS  H11X 9452   3.826   0.190   8.036  0.3583 -0.6440  4.0705
   95SAPS  H11Y 9453   3.686   0.274   8.061  0.2899 -0.7795  0.6620
   95SAPS  C312 9454   3.863   0.364   8.159  0.2530  0.2448 -0.0067
   95SAPS  H12X 9455   3.960   0.403   8.122  0.0141  1.5390  0.7193
   95SAPS  H12Y 9456   3.889   0.293   8.240 -1.1375 -0.5084 -0.2021
   95SAPS  C313 9457   3.782   0.477   8.224 -0.3618  0.5584  0.1788
   95SAPS  H13X 9458   3.685   0.441   8.264 -0.4003  0.0391 -0.3812
   95SAPS  H13Y 9459   3.756   0.542   8.138 -4.4215  0.3810  1.1866
   95SAPS  C314 9460   3.860   0.558   8.328  0.8729 -0.4894  0.2101
   95SAPS  H14X 9461   3.950   0.584   8.268  1.1279  1.7226  1.4782
   95SAPS  H14Y 9462   3.886   0.495   8.416  0.8126 -2.1671 -0.9596
   95SAPS  C315 9463   3.798   0.693   8.368 -0.2089  0.6648 -0.3766
   95SAPS  H15X 9464   3.701   0.673   8.419  0.2996  1.2602  0.8467
   95SAPS  H15Y 9465   3.777   0.740   8.270  2.8159  0.5616 -1.1008
   95SAPS  C316 9466   3.891   0.785   8.447 -0.3749  0.2107  0.1197
   95SAPS  H16X 9467   3.988   0.788   8.394  0.3281 -2.8489  1.1408
   95SAPS  H16Y 9468   3.921   0.751   8.548  2.3057 -1.7116 -1.2586
   95SAPS  C317 9469   3.821   0.924   8.475  0.1281  0.4812 -0.2310
   95SAPS  H17X 9470   3.736   0.906   8.544  2.7484 -2.3723  2.4200
   95SAPS  H17Y 9471   3.783   0.975   8.384  0.1716 -1.6662 -1.4710
   95SAPS  C318 9472   3.918   1.019   8.554  0.6950 -0.1702  0.2618
   95SAPS  H18X 9473   3.857   1.108   8.579 -1.1271 -0.9520 -1.3244
   95SAPS  H18Y 9474   4.013   1.040   8.501  1.0584 -0.0294  0.9623
   95SAPS  H18Z 9475   3.943   0.971   8.651  0.9778 -3.4049 -1.3322
   96SAPS     N 9476   5.034   1.999   6.454 -0.5864 -0.0455 -0.4150
   96SAPS   HN1 9477   5.132   1.964   6.446 -0.3731  0.3284  0.4357
   96SAPS   HN2 9478   5.035   2.096   6.491 -1.0751 -0.1092 -0.2318
   96SAPS   HN3 9479   4.983   1.935   6.519  0.7533 -0.9491 -0.2174
   96SAPS   C12 9480   4.972   1.996   6.322  0.0916  0.3957 -0.4873
   96SAPS  H12A 9481   4.873   2.035   6.343 -0.0944 -0.1472 -0.3551
   96SAPS   C13 9482   5.045   2.089   6.218  0.4607  0.2002 -0.0851
   96SAPS  O13A 9483   5.145   2.158   6.260 -0.2208  0.0201  0.0963
   96SAPS  O13B 9484   4.995   2.119   6.110 -0.4855  0.2389  0.1746
   96SAPS   C11 9485   4.944   1.846   6.280  0.3786 -0.0963 -0.3017
   96SAPS  H11A 9486   5.036   1.784   6.277  0.2012 -0.4271  0.7227
   96SAPS  H11B 9487   4.910   1.841   6.174  1.8745 -0.1578 -0.7852
   96SAPS     P 9488   4.720   1.707   6.326  0.5520 -0.4366 -0.0505
   96SAPS   O13 9489   4.633   1.797   6.244 -0.2638  0.5068 -0.3102
   96SAPS   O14 9490   4.761   1.576   6.270  0.0010  0.0013  0.3726
   96SAPS   O12 9491   4.847   1.787   6.364 -0.5532 -0.5050  0.0551
   96SAPS   O11 9492   4.664   1.689   6.479  0.3378 -0.8596  0.5838
   96SAPS    C1 9493   4.600   1.563   6.508  0.9406 -0.5771  0.8447
   96SAPS    HA 9494   4.489   1.571   6.505  0.7055 -2.6263  3.0256
   96SAPS    HB 9495   4.642   1.483   6.445  1.3599  0.2573  0.0501
   96SAPS    C2 9496   4.634   1.531   6.662  0.6843 -0.3416 -0.6052
   96SAPS    HS 9497   4.588   1.433   6.688  1.1477 -0.4792 -0.2961
   96SAPS   O21 9498   4.595   1.632   6.755 -0.4338 -0.3112 -0.0847
   96SAPS   C21 9499   4.467   1.651   6.765 -0.4293 -0.5285 -0.3589
   96SAPS   O22 9500   4.385   1.572   6.720 -0.4455  0.0817 -0.1392
   96SAPS   C22 9501   4.439   1.782   6.832  0.0148 -0.4883 -0.3001
   96SAPS   H2R 9502   4.493   1.859   6.773  0.2201 -0.9263 -0.6862
   96SAPS   H2S 9503   4.330   1.799   6.826  0.1472  0.8605  0.8327
   96SAPS    C3 9504   4.791   1.527   6.687 -0.1176 -0.2170 -0.8824
   96SAPS    HX 9505   4.828   1.622   6.641 -0.5405 -0.4784 -1.7798
   96SAPS    HY 9506   4.844   1.445   6.633 -1.4789 -0.7755 -1.3864
   96SAPS   O31 9507   4.835   1.515   6.831  0.0456  0.5385 -0.6969
   96SAPS   C31 9508   4.953   1.565   6.856 -0.0275  0.1976  0.2893
   96SAPS   O32 9509   5.033   1.606   6.775  0.1070  0.1245  0.2719
   96SAPS   C32 9510   4.971   1.578   7.006 -0.9920  0.3511  0.1249
   96SAPS   H2X 9511   5.067   1.629   7.030 -0.9087  0.1514  0.2096
   96SAPS   H2Y 9512   4.984   1.473   7.038  0.0079 -0.3353 -2.3821
   96SAPS   C23 9513   4.484   1.776   6.982 -0.2706  0.1221 -0.2284
   96SAPS   H3R 9514   4.595   1.772   6.991 -0.2867  0.8489  0.3706
   96SAPS   H3S 9515   4.447   1.679   7.019 -0.5990  0.2099 -0.3269
   96SAPS   C24 9516   4.428   1.894   7.073  0.5985  0.0322 -0.1031
   96SAPS   H4R 9517   4.454   1.994   7.031  0.4504 -0.5678 -1.6203
   96SAPS   H4S 9518   4.478   1.884   7.172 -0.8089  2.9327  0.9563
   96SAPS   C25 9519   4.277   1.883   7.095 -0.0456  0.1912 -0.1878
   96SAPS   H5R 9520   4.215   1.899   7.005 -0.8246  0.6138  0.4218
   96SAPS   C26 9521   4.216   1.843   7.207 -0.0735 -0.4001  0.5655
   96SAPS   H6R 9522   4.106   1.832   7.204 -0.0879  0.1119 -1.5759
   96SAPS   C27 9523   4.278   1.806   7.338  0.2045  0.1088 -0.2718
   96SAPS   H7R 9524   4.327   1.892   7.389  2.4727 -0.3391 -1.5921
   96SAPS   H7S 9525   4.365   1.745   7.307  2.0920  2.0106  1.1116
   96SAPS   C28 9526   4.184   1.738   7.431 -0.0484  0.7091  0.0040
   96SAPS   H8R 9527   4.196   1.629   7.437  1.3416  0.8828  0.5902
   96SAPS   C29 9528   4.087   1.786   7.506 -0.6778  0.5124  0.5990
   96SAPS   H9R 9529   4.018   1.711   7.548 -0.5479  1.0055  1.6945
   96SAPS  C210 9530   4.045   1.927   7.511 -0.0182 -0.7192 -0.5406
   96SAPS  H10R 9531   3.966   1.946   7.435 -0.2228  0.6426  0.0056
   96SAPS  H10S 9532   4.121   1.996   7.469  0.4430  1.0151  2.9323
   96SAPS  C211 9533   4.004   1.987   7.640 -0.1694  0.0104  0.1007
   96SAPS  H11R 9534   4.083   2.044   7.691 -0.5663  0.2432  0.4652
   96SAPS  C212 9535   3.878   2.005   7.700 -0.1638 -0.0579 -0.1059
   96SAPS  H12R 9536   3.874   2.048   7.801  1.3847  1.7672 -0.7973
   96SAPS  C213 9537   3.741   1.957   7.642 -0.2056 -0.3720 -0.0457
   96SAPS  H13R 9538   3.758   1.909   7.543  0.5278  0.1862 -0.1980
   96SAPS  H13S 9539   3.675   2.044   7.619  1.4133  1.0882  0.6608
   96SAPS  C214 9540   3.660   1.869   7.736 -0.2815 -0.1444  0.4633
   96SAPS  H14R 9541   3.666   1.762   7.712 -1.6389 -0.1307  0.0375
   96SAPS  C215 9542   3.600   1.903   7.854 -0.2077 -0.3942 -1.0749
   96SAPS  H15R 9543   3.531   1.833   7.904  0.3837  0.5582  1.1344
   96SAPS  C216 9544   3.596   2.049   7.900  0.2214 -0.3909 -0.3100
   96SAPS  H16R 9545   3.509   2.104   7.857  0.6867  0.7938  0.2223
   96SAPS  H16S 9546   3.690   2.101   7.873 -0.6027 -0.1255 -2.7569
   96SAPS  C217 9547   3.589   2.044   8.056 -0.5209 -0.2054 -0.3147
   96SAPS  H17R 9548   3.690   2.014   8.092 -0.7061  0.0989  0.4606
   96SAPS  H17S 9549   3.516   1.965   8.083  0.3296 -1.5790 -1.9151
   96SAPS  C218 9550   3.555   2.180   8.120 -0.1092  0.0438  0.0726
   96SAPS  H18R 9551   3.450   2.201   8.089 -0.5564 -0.9474  0.8986
   96SAPS  H18S 9552   3.623   2.262   8.090  1.4986 -0.5423  2.0352
   96SAPS  C219 9553   3.555   2.191   8.275  0.3258  0.0843 -0.2968
   96SAPS  H19R 9554   3.646   2.146   8.323  0.1420 -0.4090 -0.4105
   96SAPS  H19S 9555   3.470   2.128   8.307  0.9235  0.3995  2.0345
   96SAPS  C220 9556   3.534   2.328   8.329 -0.0489 -0.3282 -0.1035
   96SAPS  H20R 9557   3.452   2.374   8.270  0.7808  1.4400  0.0705
   96SAPS  H20S 9558   3.625   2.391   8.313 -1.4393  1.7262 -0.1543
   96SAPS  H20T 9559   3.502   2.327   8.435  1.0437  1.0051  0.2567
   96SAPS   C33 9560   4.850   1.645   7.077  0.0005  0.1381 -0.3039
   96SAPS   H3X 9561   4.755   1.606   7.036 -0.0721 -0.0423  0.0372
   96SAPS   H3Y 9562   4.846   1.753   7.053  0.7402  0.5377  1.2871
   96SAPS   C34 9563   4.856   1.623   7.229  0.8206  0.7880 -0.3192
   96SAPS   H4X 9564   4.857   1.512   7.236  0.7353  0.7163 -1.3427
   96SAPS   H4Y 9565   4.756   1.656   7.264  0.1752 -1.1978 -0.2184
   96SAPS   C35 9566   4.972   1.694   7.298 -0.4533 -0.0669  0.4697
   96SAPS   H5X 9567   4.964   1.803   7.278 -1.8724  0.0628  1.6935
   96SAPS   H5Y 9568   5.066   1.654   7.253 -1.7330 -1.5784 -0.9287
   96SAPS   C36 9569   4.979   1.683   7.449 -0.6538  0.0346 -0.0023
   96SAPS   H6X 9570   5.081   1.717   7.477  0.3107 -0.1297 -3.1941
   96SAPS   H6Y 9571   4.989   1.581   7.492 -0.4322  0.1070  0.1217
   96SAPS   C37 9572   4.879   1.770   7.528 -0.2522 -0.1770  0.1754
   96SAPS   H7X 9573   4.781   1.718   7.519 -2.1375  2.7069  2.9835
   96SAPS   H7Y 9574   4.876   1.874   7.489  2.3163  0.1576  0.8024
   96SAPS   C38 9575   4.899   1.795   7.684  0.1763  0.1198  0.4721
   96SAPS   H8X 9576   4.808   1.847   7.720 -0.0286  0.5676 -0.6607
   96SAPS   H8Y 9577   4.995   1.850   7.694  1.9979 -2.7549 -0.4546
   96SAPS   C39 9578   4.911   1.661   7.771 -0.6080 -0.0940  0.4293
   96SAPS   H9X 9579   5.000   1.605   7.736 -0.4404 -2.1173  3.9054
   96SAPS   H9Y 9580   4.830   1.588   7.753  0.2907 -1.2307  0.9492
   96SAPS  C310 9581   4.930   1.669   7.923 -0.0584  0.5728  0.5733
   96SAPS  H10X 9582   5.015   1.739   7.940  2.0758 -1.5292 -1.1610
   96SAPS  H10Y 9583   4.979   1.573   7.951  0.5316  1.2196  1.8181
   96SAPS  C311 9584   4.805   1.700   8.005 -0.6513 -0.0540 -0.0330
   96SAPS  H11X 9585   4.731   1.623   7.974 -1.7656  0.8812  0.2897
   96SAPS  H11Y 9586   4.765   1.800   7.976 -1.1287 -0.6199 -1.3805
   96SAPS  C312 9587   4.822   1.693   8.158 -0.5099  0.1655 -0.2908
   96SAPS  H12X 9588   4.722   1.685   8.205  0.0152 -0.0850  0.8166
   96SAPS  H12Y 9589   4.867   1.782   8.206  1.9526 -0.7243 -0.8619
   96SAPS  C313 9590   4.901   1.573   8.210  0.2275  0.1940  0.1079
   96SAPS  H13X 9591   5.005   1.592   8.175  0.7078 -1.0962  0.8420
   96SAPS  H13Y 9592   4.868   1.478   8.163  3.8782  0.3508 -3.0967
   96SAPS  C314 9593   4.888   1.559   8.362 -0.1030 -0.1481 -0.3174
   96SAPS  H14X 9594   4.781   1.536   8.381  0.3048 -0.1914  2.1461
   96SAPS  H14Y 9595   4.908   1.656   8.413  0.5386  0.3538 -1.4988
   96SAPS  C315 9596   4.971   1.454   8.437  0.8856  0.1687 -0.5440
   96SAPS  H15X 9597   5.076   1.463   8.400  1.4326  1.6375  1.3205
   96SAPS  H15Y 9598   4.945   1.354   8.396  0.2801 -0.6187  1.7092
   96SAPS  C316 9599   4.960   1.456   8.587  0.4902  0.5438  0.1466
   96SAPS  H16X 9600   4.886   1.384   8.628 -0.3550  2.2521  1.7226
   96SAPS  H16Y 9601   4.922   1.557   8.615 -2.2730 -0.1599 -0.8930
   96SAPS  C317 9602   5.090   1.439   8.659  0.0398 -0.5011 -0.7259
   96SAPS  H17X 9603   5.143   1.537   8.654  0.9993 -1.0384 -1.2192
   96SAPS  H17Y 9604   5.149   1.361   8.607 -2.4997 -2.5295 -0.6148
   96SAPS  C318 9605   5.061   1.408   8.806  0.2904  0.4823 -0.4141
   96SAPS  H18X 9606   5.160   1.412   8.854  1.1855  2.3200 -2.3359
   96SAPS  H18Y 9607   5.021   1.306   8.823 -0.1269  0.8578  0.9155
   96SAPS  H18Z 9608   4.988   1.484   8.842  0.6849  0.7487 -0.1762
   97SAPS     N 9609   5.959   0.433   6.378  0.4774 -0.1389  0.0988
   97SAPS   HN1 9610   5.869   0.486   6.378  1.9237  2.4254  2.5289
   97SAPS   HN2 9611   5.938   0.351   6.438 -1.1296 -0.1290 -0.4237
   97SAPS   HN3 9612   6.030   0.495   6.422  0.8587  1.2173 -2.2792
   97SAPS   C12 9613   6.017   0.381   6.249 -0.1562 -0.1311  0.3246
   97SAPS  H12A 9614   5.957   0.296   6.222 -0.1446 -0.5746  1.6820
   97SAPS   C13 9615   6.015   0.478   6.126  0.1491 -1.1464  0.4648
   97SAPS  O13A 9616   5.967   0.596   6.137 -0.5595  0.0796  0.6672
   97SAPS  O13B 9617   6.081   0.439   6.022 -0.3328  0.3351  0.2711
   97SAPS   C11 9618   6.163   0.327   6.276  0.1189 -0.1160 -0.6467
   97SAPS  H11A 9619   6.239   0.407   6.273  0.4686 -0.4007  0.5467
   97SAPS  H11B 9620   6.175   0.260   6.188 -2.8026  1.5012 -2.3678
   97SAPS     P 9621   6.294   0.279   6.501  0.1061  0.4169  0.2490
   97SAPS   O13 9622   6.413   0.219   6.429  0.2740  0.0417  0.4693
   97SAPS   O14 9623   6.307   0.423   6.539  0.1203  0.1883  0.5461
   97SAPS   O12 9624   6.167   0.264   6.406  0.0415 -0.5782  0.3426
   97SAPS   O11 9625   6.264   0.187   6.627  0.4480 -0.5237  0.3910
   97SAPS    C1 9626   6.119   0.177   6.667  0.4452  0.1705 -0.0111
   97SAPS    HA 9627   6.090   0.277   6.706  0.3518 -1.2935  3.8976
   97SAPS    HB 9628   6.059   0.162   6.575 -2.7461  3.5649  1.3660
   97SAPS    C2 9629   6.086   0.060   6.767  0.0518  0.8385  0.2704
   97SAPS    HS 9630   5.985   0.081   6.806  0.7899  1.7325  1.7597
   97SAPS   O21 9631   6.184   0.056   6.874  0.2448  0.1008 -0.6170
   97SAPS   C21 9632   6.170   0.143   6.973  0.0934  0.7753 -0.0570
   97SAPS   O22 9633   6.080   0.232   6.975  0.1554 -0.0031  0.2058
   97SAPS   C22 9634   6.262   0.129   7.092 -0.1075  0.7629 -0.1497
   97SAPS   H2R 9635   6.362   0.100   7.054 -0.6783  0.1169 -1.1537
   97SAPS   H2S 9636   6.268   0.228   7.142 -0.9879  0.0064  1.5318
   97SAPS    C3 9637   6.079  -0.076   6.688  0.8320  0.2459 -0.2113
   97SAPS    HX 9638   6.173  -0.121   6.650 -0.6388 -3.5851  0.5111
   97SAPS    HY 9639   6.017  -0.052   6.600  1.2360  1.1302 -0.2590
   97SAPS   O31 9640   6.005  -0.179   6.760 -0.2688 -0.2779 -0.1015
   97SAPS   C31 9641   6.075  -0.263   6.834 -0.3003 -0.3007  0.0375
   97SAPS   O32 9642   6.195  -0.264   6.846 -0.1655 -0.6750  0.1586
   97SAPS   C32 9643   5.987  -0.360   6.914  0.2278  0.0273 -0.1886
   97SAPS   H2X 9644   6.032  -0.459   6.892  2.0477  0.8176 -0.1095
   97SAPS   H2Y 9645   5.878  -0.368   6.891  0.7172 -1.3888 -2.1171
   97SAPS   C23 9646   6.224   0.018   7.193 -0.0116 -0.3774 -0.1802
   97SAPS   H3R 9647   6.202  -0.065   7.121  0.4939 -2.3088  1.8428
   97SAPS   H3S 9648   6.125   0.031   7.242  0.6305 -1.3293  1.4079
   97SAPS   C24 9649   6.335  -0.023   7.287 -0.1416 -0.3561  0.3526
   97SAPS   H4R 9650   6.429  -0.037   7.229  0.4691 -0.5354  1.3715
   97SAPS   H4S 9651   6.307  -0.124   7.323  0.0193 -1.0772 -1.4754
   97SAPS   C25 9652   6.349   0.069   7.405  0.2344  0.2052 -1.0915
   97SAPS   H5R 9653   6.423   0.149   7.394  2.5497 -1.7502 -0.2676
   97SAPS   C26 9654   6.292   0.062   7.527 -0.5882  0.7370 -0.3696
   97SAPS   H6R 9655   6.318   0.144   7.596 -2.1748  0.2597  0.8193
   97SAPS   C27 9656   6.196  -0.034   7.591  0.0555 -0.8502 -0.2839
   97SAPS   H7R 9657   6.227  -0.052   7.696  2.0991 -1.0653 -0.9018
   97SAPS   H7S 9658   6.202  -0.130   7.536  1.4020  1.0896 -3.7470
   97SAPS   C28 9659   6.047   0.008   7.574  0.0043  0.5578  0.1599
   97SAPS   H8R 9660   6.021   0.029   7.469 -2.1194 -3.7207 -0.3091
   97SAPS   C29 9661   5.966   0.038   7.674 -0.2449  1.1303  0.8026
   97SAPS   H9R 9662   5.862   0.062   7.650  0.2421  0.4812 -2.1296
   97SAPS  C210 9663   5.995   0.034   7.823 -0.2815  0.1623  0.0626
   97SAPS  H10R 9664   6.053  -0.057   7.849 -0.0249  0.4106  0.3596
   97SAPS  H10S 9665   5.901   0.008   7.877 -0.7241 -0.5433 -1.0306
   97SAPS  C211 9666   6.042   0.166   7.886 -0.6677 -0.8735  0.1328
   97SAPS  H11R 9667   6.012   0.261   7.839  1.8377 -0.4875 -0.7437
   97SAPS  C212 9668   6.109   0.187   7.999  0.2343  0.7073  0.2700
   97SAPS  H12R 9669   6.136   0.289   8.029  0.9444  0.2946  1.0603
   97SAPS  C213 9670   6.171   0.083   8.086 -0.3706 -0.6023 -0.1874
   97SAPS  H13R 9671   6.253   0.120   8.151 -3.0909  1.0266  2.4443
   97SAPS  H13S 9672   6.213  -0.004   8.032 -1.1298 -0.2418 -1.3612
   97SAPS  C214 9673   6.064   0.037   8.186 -0.0966 -0.3771  0.4374
   97SAPS  H14R 9674   6.024   0.116   8.251 -0.9360 -1.0453  0.7564
   97SAPS  C215 9675   6.049  -0.088   8.223  0.2636 -0.4100  0.7462
   97SAPS  H15R 9676   5.964  -0.105   8.291 -0.0956  1.3469  0.7676
   97SAPS  C216 9677   6.119  -0.214   8.181 -0.2295 -0.0088 -0.2583
   97SAPS  H16R 9678   6.187  -0.198   8.094  1.4690 -1.3942  0.7886
   97SAPS  H16S 9679   6.045  -0.293   8.157 -1.7362  0.8237  1.5708
   97SAPS  C217 9680   6.206  -0.276   8.293 -0.9236 -0.2918 -0.2321
   97SAPS  H17R 9681   6.278  -0.202   8.335  0.2101 -1.3152 -0.3435
   97SAPS  H17S 9682   6.273  -0.348   8.242 -0.4853 -0.1856  0.1884
   97SAPS  C218 9683   6.126  -0.340   8.409 -0.2128 -0.2938 -0.1596
   97SAPS  H18R 9684   6.069  -0.427   8.371  1.9385 -2.4885  1.4532
   97SAPS  H18S 9685   6.063  -0.266   8.463  1.9474  2.1894 -0.9556
   97SAPS  C219 9686   6.221  -0.383   8.527  0.2100  0.8665  0.0245
   97SAPS  H19R 9687   6.162  -0.411   8.617  0.6462 -0.4119 -0.0761
   97SAPS  H19S 9688   6.287  -0.296   8.549  3.0777 -1.0457 -0.8243
   97SAPS  C220 9689   6.312  -0.496   8.479  0.0697 -0.5895  0.0702
   97SAPS  H20R 9690   6.381  -0.521   8.563 -1.8483 -0.8096  1.6315
   97SAPS  H20S 9691   6.379  -0.457   8.400  0.6511 -3.2008 -0.7518
   97SAPS  H20T 9692   6.261  -0.588   8.445  1.2821 -0.3956 -2.3502
   97SAPS   C33 9693   6.002  -0.334   7.067 -0.2173 -0.4468 -1.3787
   97SAPS   H3X 9694   6.101  -0.291   7.094  0.2307 -2.6085  0.6193
   97SAPS   H3Y 9695   5.975  -0.423   7.127  2.1427  0.0092  0.4455
   97SAPS   C34 9696   5.900  -0.230   7.112  0.5781 -0.0494 -0.7131
   97SAPS   H4X 9697   5.810  -0.230   7.046  0.9348 -1.9821 -1.2400
   97SAPS   H4Y 9698   5.951  -0.132   7.122  0.3714  0.1273 -1.3706
   97SAPS   C35 9699   5.843  -0.264   7.252  0.1031 -0.1865 -0.0549
   97SAPS   H5X 9700   5.920  -0.282   7.330  0.6561  0.2658 -0.4881
   97SAPS   H5Y 9701   5.788  -0.360   7.240 -0.0018  0.1495 -2.7623
   97SAPS   C36 9702   5.728  -0.174   7.295 -0.1333 -0.5089 -0.3080
   97SAPS   H6X 9703   5.646  -0.167   7.221  2.5580  1.7508 -3.2000
   97SAPS   H6Y 9704   5.760  -0.068   7.297  0.1068 -0.5889  1.1886
   97SAPS   C37 9705   5.672  -0.223   7.434 -0.4784  0.2258  0.8111
   97SAPS   H7X 9706   5.767  -0.242   7.489 -0.5232 -2.2491  0.0734
   97SAPS   H7Y 9707   5.618  -0.320   7.425 -2.7720  1.6564 -1.2639
   97SAPS   C38 9708   5.581  -0.111   7.490 -0.9930 -0.2365  0.3514
   97SAPS   H8X 9709   5.490  -0.095   7.429 -1.0925 -0.3984  0.4562
   97SAPS   H8Y 9710   5.641  -0.018   7.487 -0.1144 -0.6892  2.7236
   97SAPS   C39 9711   5.524  -0.159   7.622 -0.2653  0.1154 -0.2640
   97SAPS   H9X 9712   5.495  -0.266   7.617  1.4368 -0.3684  0.0185
   97SAPS   H9Y 9713   5.435  -0.099   7.649  0.4446  0.6777  0.8593
   97SAPS  C310 9714   5.628  -0.157   7.737 -0.6676 -0.4393 -0.0597
   97SAPS  H10X 9715   5.692  -0.066   7.728  0.7980 -1.5079 -0.6735
   97SAPS  H10Y 9716   5.690  -0.248   7.726 -0.2850 -0.0464 -1.2312
   97SAPS  C311 9717   5.578  -0.162   7.885 -0.1353  0.8520  0.2249
   97SAPS  H11X 9718   5.492  -0.233   7.884  0.9082 -0.5524  2.9723
   97SAPS  H11Y 9719   5.533  -0.068   7.923  1.3299  0.5520  2.8571
   97SAPS  C312 9720   5.686  -0.216   7.979  0.6421 -0.1172  0.3115
   97SAPS  H12X 9721   5.782  -0.164   7.962  0.8184 -0.1078  1.2990
   97SAPS  H12Y 9722   5.713  -0.321   7.953 -0.5174  0.4511 -3.4936
   97SAPS  C313 9723   5.643  -0.202   8.122  0.3969  0.7498 -0.4814
   97SAPS  H13X 9724   5.706  -0.260   8.193  0.0235  1.7848  0.7231
   97SAPS  H13Y 9725   5.542  -0.248   8.119 -0.3506  2.4240 -2.0897
   97SAPS  C314 9726   5.640  -0.060   8.181 -0.4719 -0.7567  0.6234
   97SAPS  H14X 9727   5.586   0.011   8.116  1.7100  0.7003  0.3413
   97SAPS  H14Y 9728   5.743  -0.019   8.188 -1.0873  0.6135  1.8494
   97SAPS  C315 9729   5.578  -0.050   8.326  0.2824  0.5051 -1.4658
   97SAPS  H15X 9730   5.588   0.050   8.371  1.3182 -0.0884 -0.3416
   97SAPS  H15Y 9731   5.642  -0.107   8.397 -1.9194  1.5939  1.4737
   97SAPS  C316 9732   5.431  -0.107   8.335  0.4801  0.4949  0.1066
   97SAPS  H16X 9733   5.418  -0.209   8.294 -1.0614  1.3590 -1.6462
   97SAPS  H16Y 9734   5.368  -0.040   8.272  1.3939  1.1240 -0.1688
   97SAPS  C317 9735   5.394  -0.094   8.490  0.0723  0.0073  0.4839
   97SAPS  H17X 9736   5.286  -0.071   8.500  0.0431 -0.1709  0.5827
   97SAPS  H17Y 9737   5.450  -0.008   8.531  1.7703 -1.0894  0.5298
   97SAPS  C318 9738   5.428  -0.217   8.578 -0.3345 -0.2064  0.4372
   97SAPS  H18X 9739   5.491  -0.172   8.658  1.0253  1.7176 -1.6348
   97SAPS  H18Y 9740   5.481  -0.294   8.517 -1.9944  0.7040 -2.2552
   97SAPS  H18Z 9741   5.338  -0.253   8.631  0.2137 -0.4245  1.2199
   98SAPS     N 9742   3.515   0.665   5.798 -0.6687  0.6926  0.3716
   98SAPS   HN1 9743   3.597   0.697   5.854  0.5841 -0.2499 -0.8794
   98SAPS   HN2 9744   3.489   0.568   5.825 -0.7152  1.0958  1.7934
   98SAPS   HN3 9745   3.550   0.662   5.700 -1.2892 -0.1291  0.1699
   98SAPS   C12 9746   3.400   0.756   5.819 -0.2862 -0.7230 -0.6405
   98SAPS  H12A 9747   3.437   0.857   5.804  1.1090 -1.0564  0.4822
   98SAPS   C13 9748   3.270   0.726   5.742  1.0563 -0.3662  0.0400
   98SAPS  O13A 9749   3.271   0.638   5.648  0.0935  0.2943 -0.5204
   98SAPS  O13B 9750   3.193   0.823   5.735 -0.9672 -0.3456  0.0363
   98SAPS   C11 9751   3.360   0.757   5.975 -0.0193  0.3732  0.6074
   98SAPS  H11A 9752   3.334   0.651   5.998 -0.0826 -0.3145 -2.3627
   98SAPS  H11B 9753   3.264   0.810   5.988 -0.7264 -0.5488 -0.7347
   98SAPS     P 9754   3.460   0.933   6.144  0.3544  0.0943 -0.1077
   98SAPS   O13 9755   3.595   0.983   6.186  0.8535 -0.4541  0.0942
   98SAPS   O14 9756   3.387   1.022   6.058  0.4365  0.0147  0.5290
   98SAPS   O12 9757   3.470   0.793   6.062  0.3519  0.1906  0.0606
   98SAPS   O11 9758   3.367   0.903   6.260 -0.4035  0.3032  0.4646
   98SAPS    C1 9759   3.414   0.842   6.387  0.0029 -0.1319 -0.1475
   98SAPS    HA 9760   3.524   0.849   6.398  0.1442  0.4944 -1.8420
   98SAPS    HB 9761   3.369   0.898   6.472  1.3169  2.7182 -1.2677
   98SAPS    C2 9762   3.360   0.704   6.399 -0.7685  0.3085 -0.3036
   98SAPS    HS 9763   3.379   0.653   6.302  1.0377  2.1252 -0.9556
   98SAPS   O21 9764   3.219   0.717   6.429  0.3152  0.1959  0.1639
   98SAPS   C21 9765   3.156   0.602   6.394  0.4564 -0.3464  0.4689
   98SAPS   O22 9766   3.207   0.499   6.359 -0.3111 -0.4503 -0.3437
   98SAPS   C22 9767   3.009   0.626   6.394  0.1351 -0.0652  0.7879
   98SAPS   H2R 9768   2.982   0.729   6.426 -0.2371 -0.9064  3.3033
   98SAPS   H2S 9769   2.969   0.613   6.291 -1.4021  0.5159  1.2967
   98SAPS    C3 9770   3.430   0.638   6.525  0.6219  0.1136  0.9593
   98SAPS    HX 9771   3.534   0.629   6.487  0.2294 -1.6306  0.2653
   98SAPS    HY 9772   3.397   0.532   6.527  1.4191 -0.1615 -0.1241
   98SAPS   O31 9773   3.447   0.715   6.650 -0.4151 -0.0136 -1.0117
   98SAPS   C31 9774   3.486   0.641   6.750 -0.8113 -0.1214 -0.6089
   98SAPS   O32 9775   3.515   0.523   6.746  0.4082  0.6434 -0.0208
   98SAPS   C32 9776   3.454   0.714   6.878  0.0535 -0.8958  0.3270
   98SAPS   H2X 9777   3.345   0.734   6.881 -0.1888 -1.8039 -1.6941
   98SAPS   H2Y 9778   3.510   0.810   6.869 -1.4806 -0.0459 -0.2834
   98SAPS   C23 9779   2.934   0.527   6.484 -0.0493  0.1409 -0.2047
   98SAPS   H3R 9780   2.971   0.425   6.463  1.6495  0.8171 -0.5561
   98SAPS   H3S 9781   2.825   0.538   6.462 -0.8950 -2.5053  2.4349
   98SAPS   C24 9782   2.935   0.576   6.627 -0.1129  0.2430  0.1036
   98SAPS   H4R 9783   2.877   0.670   6.626  1.3153  1.1327 -0.1550
   98SAPS   H4S 9784   3.035   0.623   6.644  0.4932 -1.4079  1.2428
   98SAPS   C25 9785   2.890   0.478   6.738  0.3048 -0.1968 -0.8618
   98SAPS   H5R 9786   2.801   0.423   6.706  0.3803  0.0199 -1.4464
   98SAPS   C26 9787   2.955   0.464   6.858 -0.8720  0.2006  0.4977
   98SAPS   H6R 9788   2.914   0.390   6.928  1.7534 -0.7931  1.0117
   98SAPS   C27 9789   3.079   0.539   6.902 -0.3967  0.2253 -0.4878
   98SAPS   H7R 9790   3.049   0.622   6.969  1.5829  0.3741  0.2704
   98SAPS   H7S 9791   3.133   0.595   6.823  0.8320  0.7211  0.6763
   98SAPS   C28 9792   3.175   0.441   6.963 -0.7308  0.2351  0.6708
   98SAPS   H8R 9793   3.225   0.372   6.894  0.7552  0.4778  1.4705
   98SAPS   C29 9794   3.199   0.424   7.099 -0.3399 -0.1051  0.0542
   98SAPS   H9R 9795   3.272   0.344   7.123 -0.2403 -0.6078 -1.8469
   98SAPS  C210 9796   3.133   0.494   7.218 -0.1806 -0.1143 -0.7584
   98SAPS  H10R 9797   3.113   0.600   7.192  0.4903 -0.2857 -2.0218
   98SAPS  H10S 9798   3.206   0.497   7.301 -0.0706 -1.2550 -0.8129
   98SAPS  C211 9799   3.007   0.414   7.245 -0.2760 -0.2575 -0.4721
   98SAPS  H11R 9800   2.935   0.410   7.161 -1.8424  0.9201  0.7853
   98SAPS  C212 9801   2.977   0.353   7.360  0.2450  0.3147 -0.4906
   98SAPS  H12R 9802   2.881   0.300   7.369  0.4335 -0.2666 -1.7271
   98SAPS  C213 9803   3.060   0.370   7.492 -0.3362  0.5120  0.0663
   98SAPS  H13R 9804   3.167   0.394   7.470 -0.6576  0.4733 -1.6422
   98SAPS  H13S 9805   3.052   0.269   7.538 -2.2091  0.6813  0.1285
   98SAPS  C214 9806   2.999   0.477   7.574  0.6159  0.1278  0.5021
   98SAPS  H14R 9807   2.985   0.578   7.534  1.3840  0.4506  1.0375
   98SAPS  C215 9808   2.974   0.468   7.704 -0.1449  0.0361 -0.3007
   98SAPS  H15R 9809   2.935   0.551   7.764 -1.4745  0.1350 -1.2707
   98SAPS  C216 9810   3.002   0.348   7.784  0.1192 -0.3269 -0.3460
   98SAPS  H16R 9811   3.092   0.295   7.746 -0.7376 -0.5803 -2.0807
   98SAPS  H16S 9812   2.923   0.271   7.771  0.6771 -0.9011 -0.3977
   98SAPS  C217 9813   3.010   0.367   7.936 -0.7229 -0.5355  0.5260
   98SAPS  H17R 9814   3.092   0.439   7.954 -0.9366 -0.4722  1.2574
   98SAPS  H17S 9815   3.041   0.273   7.986 -1.4685 -0.8227  0.4547
   98SAPS  C218 9816   2.881   0.423   7.991  0.2946 -0.5908  0.1894
   98SAPS  H18R 9817   2.798   0.352   7.971 -0.5632  0.1965  0.8979
   98SAPS  H18S 9818   2.846   0.514   7.939  1.1483 -0.2918  0.1245
   98SAPS  C219 9819   2.895   0.455   8.139 -0.1807  0.1762 -0.2595
   98SAPS  H19R 9820   2.796   0.491   8.174  0.7173  2.0602  0.3941
   98SAPS  H19S 9821   2.965   0.541   8.146 -2.2956  1.9499 -0.3061
   98SAPS  C220 9822   2.954   0.351   8.238  0.6811 -0.4478  0.3161
   98SAPS  H20R 9823   2.910   0.255   8.204  1.1234  0.1096 -1.9281
   98SAPS  H20S 9824   2.934   0.376   8.344  1.7018 -2.7292  1.0808
   98SAPS  H20T 9825   3.064   0.342   8.227  0.6649 -2.9555  1.9915
   98SAPS   C33 9826   3.505   0.633   7.007 -0.5066  0.2379  0.1304
   98SAPS   H3X 9827   3.615   0.621   6.998 -0.5206  0.3749 -0.2313
   98SAPS   H3Y 9828   3.456   0.534   7.014  2.2194 -1.2253 -0.6315
   98SAPS   C34 9829   3.465   0.698   7.144  0.2554  0.2413  0.4648
   98SAPS   H4X 9830   3.355   0.707   7.147  0.3541  2.1937 -1.3335
   98SAPS   H4Y 9831   3.510   0.799   7.139  2.0238 -0.5054  0.6616
   98SAPS   C35 9832   3.531   0.623   7.267  0.1390  0.0526 -0.0702
   98SAPS   H5X 9833   3.640   0.639   7.276  0.5309 -1.3621 -1.7915
   98SAPS   H5Y 9834   3.514   0.514   7.251  0.6412  0.4278 -3.5916
   98SAPS   C36 9835   3.468   0.654   7.398 -0.2857 -1.3312 -0.5317
   98SAPS   H6X 9836   3.361   0.627   7.379 -0.3124 -2.4607  1.1091
   98SAPS   H6Y 9837   3.459   0.756   7.439 -0.5106 -2.3597  2.0325
   98SAPS   C37 9838   3.499   0.558   7.509  0.3481  0.0007 -0.0477
   98SAPS   H7X 9839   3.607   0.570   7.531  0.7029 -0.1144 -1.7283
   98SAPS   H7Y 9840   3.478   0.452   7.484  2.2663  0.2576 -2.8537
   98SAPS   C38 9841   3.419   0.598   7.630  0.3597  0.2905  0.5306
   98SAPS   H8X 9842   3.309   0.592   7.614  0.4497 -1.8898  0.6324
   98SAPS   H8Y 9843   3.439   0.706   7.646  0.1906  0.1557  1.6338
   98SAPS   C39 9844   3.440   0.528   7.764 -0.2781 -0.0405 -0.5200
   98SAPS   H9X 9845   3.551   0.528   7.774  0.0558  0.9884 -3.5810
   98SAPS   H9Y 9846   3.411   0.421   7.764 -0.7761  0.0586  2.1953
   98SAPS  C310 9847   3.376   0.610   7.882 -0.4702  0.3331 -0.9494
   98SAPS  H10X 9848   3.267   0.594   7.871 -0.6418  0.5497  0.3578
   98SAPS  H10Y 9849   3.399   0.718   7.865  0.4749  0.2523 -0.2175
   98SAPS  C311 9850   3.425   0.557   8.013  0.9232 -0.0630 -0.4547
   98SAPS  H11X 9851   3.526   0.595   8.040  1.9950 -2.3903 -1.0537
   98SAPS  H11Y 9852   3.435   0.447   8.002  0.9580 -0.1506  0.3960
   98SAPS  C312 9853   3.326   0.587   8.129 -0.3185 -0.2435 -0.0757
   98SAPS  H12X 9854   3.248   0.509   8.113  1.1277 -1.2157 -2.7510
   98SAPS  H12Y 9855   3.287   0.690   8.114  1.7152  0.7827  1.3726
   98SAPS  C313 9856   3.382   0.572   8.269  0.3199  0.1294 -0.0275
   98SAPS  H13X 9857   3.484   0.614   8.285 -0.6568  1.8824  1.7900
   98SAPS  H13Y 9858   3.394   0.463   8.284  1.9856 -0.1103 -2.7201
   98SAPS  C314 9859   3.297   0.639   8.381  0.4237  0.0261  0.0419
   98SAPS  H14X 9860   3.194   0.606   8.358  0.0456 -0.8207  2.7606
   98SAPS  H14Y 9861   3.305   0.749   8.369 -3.1110  0.2896 -0.2746
   98SAPS  C315 9862   3.335   0.581   8.523  0.1194 -0.1646  0.0095
   98SAPS  H15X 9863   3.296   0.477   8.516  0.7481 -0.5368  1.8054
   98SAPS  H15Y 9864   3.264   0.633   8.591 -1.2632 -2.0480  0.0154
   98SAPS  C316 9865   3.479   0.585   8.563 -0.1071 -0.0068  0.2354
   98SAPS  H16X 9866   3.558   0.546   8.495  0.8940  1.0378  0.7648
   98SAPS  H16Y 9867   3.491   0.516   8.650 -1.6867 -1.6364 -0.8292
   98SAPS  C317 9868   3.511   0.720   8.622 -0.4209  0.3207  0.0279
   98SAPS  H17X 9869   3.431   0.772   8.678 -0.6848 -1.4035  1.2796
   98SAPS  H17Y 9870   3.523   0.795   8.541  0.7379 -0.4489 -0.5253
   98SAPS  C318 9871   3.638   0.725   8.707  0.3726  0.1149 -0.5228
   98SAPS  H18X 9872   3.611   0.660   8.792 -0.7365 -1.6490 -2.1835
   98SAPS  H18Y 9873   3.654   0.831   8.738 -2.2864  1.1040 -2.2921
   98SAPS  H18Z 9874   3.731   0.688   8.659  0.2310  2.2657 -2.5766
   99SAPS     N 9875   3.576   4.356   5.955 -0.0733 -0.0409  0.2360
   99SAPS   HN1 9876   3.570   4.339   6.057  0.6716 -1.2666  0.0731
   99SAPS   HN2 9877   3.490   4.324   5.907 -0.4855  2.3311 -0.6931
   99SAPS   HN3 9878   3.657   4.301   5.921 -1.5499 -0.6141 -2.4276
   99SAPS   C12 9879   3.594   4.498   5.915  0.0257  0.0103 -0.5143
   99SAPS  H12A 9880   3.679   4.529   5.974  1.6031 -0.2050 -2.6060
   99SAPS   C13 9881   3.632   4.510   5.767  0.3819 -0.0911  0.5079
   99SAPS  O13A 9882   3.601   4.418   5.688  0.0491  0.0119  0.0028
   99SAPS  O13B 9883   3.669   4.621   5.729 -0.6149  0.3889  0.0728
   99SAPS   C11 9884   3.459   4.584   5.950 -0.1718 -0.0079  0.1715
   99SAPS  H11A 9885   3.374   4.553   5.886 -0.1360  1.8519 -0.7937
   99SAPS  H11B 9886   3.473   4.689   5.917  1.6695  0.2709  1.7514
   99SAPS     P 9887   3.492   4.655   6.214 -0.3941 -0.0674  0.1213
   99SAPS   O13 9888   3.619   4.720   6.177  0.0808  0.3329 -0.3907
   99SAPS   O14 9889   3.385   4.736   6.279  0.3486 -0.5912  0.1761
   99SAPS   O12 9890   3.418   4.585   6.093  0.6789  0.3474 -0.5360
   99SAPS   O11 9891   3.515   4.531   6.313 -0.0746  0.0385 -0.1347
   99SAPS    C1 9892   3.428   4.445   6.376  1.0724 -0.7169  0.0257
   99SAPS    HA 9893   3.322   4.452   6.345  1.4057 -0.9788 -1.2161
   99SAPS    HB 9894   3.468   4.345   6.349  1.9967  0.0370 -1.4808
   99SAPS    C2 9895   3.435   4.456   6.533 -0.5984  0.7336 -0.5811
   99SAPS    HS 9896   3.420   4.359   6.586  0.0221  0.5646 -0.7106
   99SAPS   O21 9897   3.340   4.555   6.568  0.2526  0.2849 -0.0293
   99SAPS   C21 9898   3.213   4.512   6.579 -0.3717  0.0174 -0.4645
   99SAPS   O22 9899   3.170   4.404   6.538  0.2864 -0.2936  0.1597
   99SAPS   C22 9900   3.135   4.636   6.629 -0.5507 -0.7596 -0.2699
   99SAPS   H2R 9901   3.116   4.701   6.541  0.6533  0.7393  0.5551
   99SAPS   H2S 9902   3.033   4.601   6.658 -1.7969  0.6808 -2.7460
   99SAPS    C3 9903   3.576   4.501   6.585  0.4281 -0.2217  0.3311
   99SAPS    HX 9904   3.607   4.601   6.549 -0.4907  0.6091  1.7992
   99SAPS    HY 9905   3.634   4.419   6.538 -1.0223 -2.3627  2.1627
   99SAPS   O31 9906   3.585   4.489   6.727  0.3349  0.2826 -0.1262
   99SAPS   C31 9907   3.565   4.602   6.792  0.4119  0.1653 -0.1065
   99SAPS   O32 9908   3.547   4.712   6.749 -1.4212  0.3382 -0.1743
   99SAPS   C32 9909   3.566   4.574   6.947 -0.3265  0.1451 -0.0374
   99SAPS   H2X 9910   3.662   4.521   6.966 -0.4076 -0.8865 -2.2832
   99SAPS   H2Y 9911   3.484   4.502   6.970  0.2188 -0.5707 -0.3157
   99SAPS   C23 9912   3.196   4.704   6.756 -0.5408  0.2024 -0.5857
   99SAPS   H3R 9913   3.119   4.775   6.792 -0.4105 -0.1390  0.3802
   99SAPS   H3S 9914   3.288   4.763   6.735  1.1803 -2.3777 -0.4893
   99SAPS   C24 9915   3.224   4.604   6.866  0.2231 -0.1868  0.6666
   99SAPS   H4R 9916   3.274   4.648   6.955  1.7415 -0.2169 -0.1598
   99SAPS   H4S 9917   3.286   4.516   6.839 -1.4141 -1.7324  1.7814
   99SAPS   C25 9918   3.094   4.543   6.923  0.1953 -0.2989  0.1934
   99SAPS   H5R 9919   3.063   4.448   6.875 -1.1464 -1.1751  2.7091
   99SAPS   C26 9920   3.020   4.580   7.025 -0.1425 -0.0542 -0.1286
   99SAPS   H6R 9921   2.934   4.516   7.051 -0.0870  0.1523  0.5627
   99SAPS   C27 9922   3.047   4.697   7.113  0.1102 -0.4640  0.9994
   99SAPS   H7R 9923   2.951   4.746   7.141 -0.2776 -1.6771  1.8354
   99SAPS   H7S 9924   3.098   4.780   7.061 -2.5730  0.2993 -0.5349
   99SAPS   C28 9925   3.127   4.658   7.230  0.0806  0.1984  0.0073
   99SAPS   H8R 9926   3.200   4.577   7.213  0.5942  0.5228  0.6757
   99SAPS   C29 9927   3.113   4.709   7.352 -0.1441 -0.3655  0.5217
   99SAPS   H9R 9928   3.171   4.660   7.431  2.0672 -0.0654 -0.8549
   99SAPS  C210 9929   3.017   4.810   7.415  0.8900  0.6999  0.2162
   99SAPS  H10R 9930   2.936   4.753   7.463 -0.1769  1.2230 -0.9167
   99SAPS  H10S 9931   2.975   4.866   7.328 -0.4846 -1.3070 -0.4531
   99SAPS  C211 9932   3.086   4.913   7.503 -0.0970 -0.6093 -0.5503
   99SAPS  H11R 9933   3.151   4.979   7.445 -0.6401 -2.1088 -2.9685
   99SAPS  C212 9934   3.076   4.935   7.636  0.0736 -0.3497  0.1002
   99SAPS  H12R 9935   3.142   5.017   7.668  3.6860 -2.4749 -1.6743
   99SAPS  C213 9936   2.994   4.861   7.734 -0.0789 -0.6232 -0.2694
   99SAPS  H13R 9937   2.969   4.762   7.691 -0.3240 -0.6245 -0.1230
   99SAPS  H13S 9938   2.902   4.923   7.728 -2.0120 -3.5211 -1.8036
   99SAPS  C214 9939   3.059   4.862   7.874 -0.2266 -0.0374  0.3101
   99SAPS  H14R 9940   3.088   4.960   7.915 -1.0960  1.0307 -1.5347
   99SAPS  C215 9941   3.052   4.766   7.967  0.4873 -0.5649  0.0126
   99SAPS  H15R 9942   3.116   4.771   8.056  0.0221 -1.1033  0.3726
   99SAPS  C216 9943   2.977   4.641   7.944  0.0249  0.0340  0.2489
   99SAPS  H16R 9944   2.901   4.647   7.863  0.4807 -2.4956 -0.4117
   99SAPS  H16S 9945   2.936   4.606   8.041  1.1203 -3.0331 -0.3266
   99SAPS  C217 9946   3.085   4.537   7.903 -0.3405  0.3869  0.0356
   99SAPS  H17R 9947   3.129   4.570   7.806 -1.1187 -0.8809 -0.7751
   99SAPS  H17S 9948   3.027   4.445   7.882  0.5050  0.2103 -1.6057
   99SAPS  C218 9949   3.197   4.504   8.001 -0.2333 -0.4776  0.2270
   99SAPS  H18R 9950   3.259   4.595   8.022  0.8745 -1.4281  1.1920
   99SAPS  H18S 9951   3.270   4.438   7.950  1.5266  2.0573 -0.6764
   99SAPS  C219 9952   3.156   4.455   8.137  0.2095  0.3539  0.6563
   99SAPS  H19R 9953   3.118   4.541   8.198 -0.4133  1.1772 -0.8787
   99SAPS  H19S 9954   3.244   4.425   8.198 -0.2902 -0.7846  0.8278
   99SAPS  C220 9955   3.066   4.331   8.136 -0.6736  0.1413 -0.9674
   99SAPS  H20R 9956   2.967   4.358   8.094 -2.5870 -0.9150  2.6167
   99SAPS  H20S 9957   3.043   4.303   8.242 -0.9771  2.2698 -0.4561
   99SAPS  H20T 9958   3.112   4.241   8.090 -0.3649  0.3435 -1.0512
   99SAPS   C33 9959   3.575   4.707   7.030  0.1957 -0.1142 -0.0819
   99SAPS   H3X 9960   3.509   4.774   6.970  0.2244  2.1216  2.2929
   99SAPS   H3Y 9961   3.679   4.746   7.040  0.5687 -0.6663 -1.6607
   99SAPS   C34 9962   3.520   4.701   7.172  0.6282  0.4493 -0.3629
   99SAPS   H4X 9963   3.410   4.687   7.174  0.9894 -3.1706 -1.7808
   99SAPS   H4Y 9964   3.530   4.804   7.213 -0.1922 -0.1455  1.3732
   99SAPS   C35 9965   3.598   4.614   7.271 -0.5697  0.6897  0.1910
   99SAPS   H5X 9966   3.700   4.649   7.296 -0.9201 -1.4057  5.0681
   99SAPS   H5Y 9967   3.611   4.512   7.230 -0.6688 -0.3641  2.7017
   99SAPS   C36 9968   3.511   4.601   7.399  0.7401  0.5601  0.3131
   99SAPS   H6X 9969   3.558   4.520   7.457  0.1705 -1.1718 -1.5886
   99SAPS   H6Y 9970   3.414   4.563   7.359  2.0799 -2.7165  0.0570
   99SAPS   C37 9971   3.489   4.726   7.477  0.7089  0.5436  0.0624
   99SAPS   H7X 9972   3.426   4.797   7.421  0.0924 -0.8362 -1.0078
   99SAPS   H7Y 9973   3.590   4.766   7.504  0.9169  0.7479 -1.0161
   99SAPS   C38 9974   3.439   4.704   7.619  0.7992 -0.1383  1.1024
   99SAPS   H8X 9975   3.494   4.615   7.655  1.0399 -0.4215  0.0372
   99SAPS   H8Y 9976   3.330   4.680   7.620  0.7012  0.2608 -0.3068
   99SAPS   C39 9977   3.446   4.829   7.712 -0.3722  1.0012  0.5843
   99SAPS   H9X 9978   3.385   4.910   7.666  0.8381  0.7912 -1.4606
   99SAPS   H9Y 9979   3.547   4.874   7.702  0.6086 -1.0145  1.1156
   99SAPS  C310 9980   3.404   4.796   7.859  0.4131  0.0212  0.5958
   99SAPS  H10X 9981   3.329   4.714   7.860 -1.1301  1.3850  3.9839
   99SAPS  H10Y 9982   3.353   4.882   7.909 -2.3111  0.8678 -3.3905
   99SAPS  C311 9983   3.522   4.733   7.940 -0.7324  0.2215  0.3678
   99SAPS  H11X 9984   3.568   4.653   7.878 -0.4621  0.3017  0.4619
   99SAPS  H11Y 9985   3.482   4.685   8.032 -0.9517  0.1528  0.2391
   99SAPS  C312 9986   3.632   4.835   7.964 -0.4267  0.1857 -0.2037
   99SAPS  H12X 9987   3.587   4.921   8.018 -1.0461 -0.3992  0.2097
   99SAPS  H12Y 9988   3.672   4.883   7.871 -0.4370  3.1195  1.2431
   99SAPS  C313 9989   3.759   4.786   8.047  0.6595 -0.3974 -0.4246
   99SAPS  H13X 9990   3.766   4.675   8.054 -1.3874 -0.4523  1.3627
   99SAPS  H13Y 9991   3.736   4.809   8.154  0.7328  0.2085 -0.5386
   99SAPS  C314 9992   3.881   4.859   7.997  0.1130 -0.3865  0.2478
   99SAPS  H14X 9993   3.891   4.832   7.890 -0.7403 -0.7532  0.2561
   99SAPS  H14Y 9994   3.963   4.823   8.063  1.0687  0.2158 -0.5967
   99SAPS  C315 9995   3.869   5.012   8.011  0.0101  0.0657 -0.8147
   99SAPS  H15X 9996   3.843   5.029   8.118 -0.6164 -0.5506 -0.8621
   99SAPS  H15Y 9997   3.790   5.063   7.952 -0.7151  2.1057  1.8129
   99SAPS  C316 9998   4.006   5.073   7.970 -0.0906 -0.1067 -0.3366
   99SAPS  H16X 9999   4.045   5.017   7.881  0.7843 -3.2681  1.9345
   99SAPS  H16Y10000   4.077   5.049   8.052 -0.5069  0.5295  0.2052
   99SAPS  C31710001   3.984   5.222   7.955 -0.1415 -0.2191  0.5677
   99SAPS  H17X10002   3.929   5.259   8.044  0.4535  0.7536  0.5397
   99SAPS  H17Y10003   3.912   5.244   7.873  0.1243 -2.7578 -0.3962
   99SAPS  C31810004   4.103   5.307   7.937 -0.3604  0.0469 -0.1544
   99SAPS  H18X10005   4.177   5.308   8.019  0.8794  1.0704 -1.2716
   99SAPS  H18Y10006   4.067   5.413   7.935  1.4491  0.7468  2.1202
   99SAPS  H18Z10007   4.156   5.278   7.844  0.3251  2.6401 -0.6230
  100SAPS     N10008   6.222   6.766   6.107  0.0644 -0.3042  0.3268
  100SAPS   HN110009   6.318   6.798   6.131 -0.7207  2.5091 -0.1387
  100SAPS   HN210010   6.220   6.692   6.035 -0.0207 -0.1606  0.1816
  100SAPS   HN310011   6.162   6.842   6.068  1.6031  0.5783 -0.3553
  100SAPS   C1210012   6.150   6.717   6.229 -0.2865 -0.0139 -0.6380
  100SAPS  H12A10013   6.140   6.802   6.295 -2.4562 -1.3070  0.7528
  100SAPS   C1310014   6.008   6.657   6.217 -0.3951  0.3330  0.0311
  100SAPS  O13A10015   5.944   6.667   6.110 -0.1501 -0.0446  0.0692
  100SAPS  O13B10016   5.955   6.608   6.323 -0.2177  0.2455  0.1388
  100SAPS   C1110017   6.239   6.599   6.277 -0.2854  0.2365 -0.2994
  100SAPS  H11A10018   6.208   6.510   6.219  1.0671  1.5995 -3.2176
  100SAPS  H11B10019   6.212   6.588   6.384  1.5739  0.8927  0.2489
  100SAPS     P10020   6.474   6.504   6.281  0.1943 -0.3344 -0.3211
  100SAPS   O1310021   6.462   6.420   6.160  0.0076 -0.2517  0.1543
  100SAPS   O1410022   6.608   6.556   6.310 -0.4164 -0.4253  0.2677
  100SAPS   O1210023   6.379   6.631   6.274 -0.1195  0.0178 -0.0028
  100SAPS   O1110024   6.412   6.429   6.406 -0.3581  0.2081 -0.0979
  100SAPS    C110025   6.464   6.443   6.538  0.1989  0.4342 -1.4763
  100SAPS    HA10026   6.519   6.539   6.549  2.1822 -0.5811 -2.2188
  100SAPS    HB10027   6.380   6.442   6.611  0.3031 -0.9177 -1.3462
  100SAPS    C210028   6.556   6.322   6.573  0.1700 -0.4485 -0.4640
  100SAPS    HS10029   6.619   6.292   6.487  0.3809 -1.6902  0.1146
  100SAPS   O2110030   6.470   6.211   6.608  0.4263 -0.2982  0.0508
  100SAPS   C2110031   6.527   6.093   6.618  0.1561  0.0695 -0.8636
  100SAPS   O2210032   6.642   6.064   6.606 -0.1337 -0.0065 -0.5051
  100SAPS   C2210033   6.416   5.992   6.644  0.5472 -0.4761 -0.3438
  100SAPS   H2R10034   6.339   5.994   6.564  0.0618  0.5892  0.1433
  100SAPS   H2S10035   6.458   5.889   6.637  3.9274  0.8720 -0.8925
  100SAPS    C310036   6.649   6.357   6.694 -0.9295 -0.0634 -0.4951
  100SAPS    HX10037   6.708   6.447   6.670 -2.4467  0.6034 -1.8014
  100SAPS    HY10038   6.724   6.275   6.696 -0.3937  0.4144 -0.9576
  100SAPS   O3110039   6.571   6.371   6.815 -0.8188 -0.4624  0.0272
  100SAPS   C3110040   6.551   6.503   6.861 -0.1152  0.8416  0.6393
  100SAPS   O3210041   6.598   6.598   6.804 -0.5698 -0.2378  0.4111
  100SAPS   C3210042   6.473   6.504   6.992 -0.3971 -0.1455 -0.7205
  100SAPS   H2X10043   6.386   6.571   6.976 -0.7946 -0.8366 -1.4964
  100SAPS   H2Y10044   6.546   6.535   7.070 -2.6129  0.4638  1.1555
  100SAPS   C2310045   6.346   6.017   6.779 -0.7644  0.2798 -0.1559
  100SAPS   H3R10046   6.419   6.063   6.849  1.9153 -0.7703 -2.1367
  100SAPS   H3S10047   6.304   5.924   6.822 -2.0878  0.8804 -0.1160
  100SAPS   C2410048   6.228   6.116   6.766  0.0667 -0.6186 -0.3747
  100SAPS   H4R10049   6.266   6.214   6.730 -1.8535  1.8524  4.0342
  100SAPS   H4S10050   6.204   6.128   6.874 -0.7381  0.6937 -0.6871
  100SAPS   C2510051   6.105   6.058   6.694 -1.0392  0.6323  0.2516
  100SAPS   H5R10052   6.125   6.075   6.587  0.7379  0.9588  0.6138
  100SAPS   C2610053   6.002   5.988   6.743 -0.2263 -0.4601 -0.1113
  100SAPS   H6R10054   5.917   5.956   6.680  1.0620  0.4093 -2.3445
  100SAPS   C2710055   5.987   5.965   6.892 -0.1805 -0.2217  0.5944
  100SAPS   H7R10056   6.076   5.953   6.957  0.6307  0.1439 -0.4436
  100SAPS   H7S10057   5.947   5.862   6.905 -1.6572  0.1496 -0.7753
  100SAPS   C2810058   5.899   6.073   6.951 -0.4620  0.5585 -0.2767
  100SAPS   H8R10059   5.829   6.122   6.881 -1.3480  1.3178  1.1044
  100SAPS   C2910060   5.896   6.115   7.077 -0.2854 -0.0954 -0.9687
  100SAPS   H9R10061   5.821   6.193   7.096  0.6366  1.2375 -2.6515
  100SAPS  C21010062   5.977   6.060   7.191  0.7707  0.3663  0.0740
  100SAPS  H10R10063   6.083   6.056   7.159  0.6488  1.2090 -0.4277
  100SAPS  H10S10064   5.943   5.956   7.215  2.7871 -0.2016  0.5210
  100SAPS  C21110065   5.962   6.143   7.318  0.0375 -0.0702 -0.0667
  100SAPS  H11R10066   5.957   6.251   7.299 -1.5212  0.0934  1.1571
  100SAPS  C21210067   5.927   6.098   7.438 -0.2015 -0.2507  0.5813
  100SAPS  H12R10068   5.925   6.173   7.518  1.5368 -0.3037  0.6969
  100SAPS  C21310069   5.894   5.950   7.474 -0.2506  0.6219 -0.2550
  100SAPS  H13R10070   5.964   5.878   7.427  1.5192  1.8278  0.4610
  100SAPS  H13S10071   5.789   5.921   7.451  0.6866 -2.4181 -0.9282
  100SAPS  C21410072   5.886   5.918   7.619  0.4605 -0.1581  0.3486
  100SAPS  H14R10073   5.982   5.881   7.656  1.5519  1.0440 -1.2128
  100SAPS  C21510074   5.780   5.940   7.700  0.1087  0.4389 -0.2963
  100SAPS  H15R10075   5.782   5.901   7.803 -0.8862 -0.2148 -0.5189
  100SAPS  C21610076   5.652   6.003   7.660 -0.6580 -0.6236 -0.6560
  100SAPS  H16R10077   5.565   5.943   7.695 -1.0606  0.5519  0.4383
  100SAPS  H16S10078   5.640   6.031   7.554 -1.5281  1.7800  0.0339
  100SAPS  C21710079   5.636   6.137   7.737  0.0598 -0.1707 -0.8603
  100SAPS  H17R10080   5.717   6.200   7.695  0.6903 -1.5611 -1.7685
  100SAPS  H17S10081   5.647   6.125   7.846 -0.5031  1.2108 -0.6458
  100SAPS  C21810082   5.498   6.190   7.715 -0.2864  0.3652 -0.0302
  100SAPS  H18R10083   5.466   6.180   7.609  2.3769  1.0935 -0.9529
  100SAPS  H18S10084   5.506   6.297   7.745 -0.5059  0.2994  0.2736
  100SAPS  C21910085   5.393   6.140   7.806 -0.2701  0.0526  0.5352
  100SAPS  H19R10086   5.416   6.157   7.913  2.2121 -1.4247  0.2620
  100SAPS  H19S10087   5.386   6.029   7.804 -0.4448  0.0702  0.2680
  100SAPS  C22010088   5.257   6.188   7.772 -0.6910 -0.0354 -0.3890
  100SAPS  H20R10089   5.245   6.167   7.663 -2.1392 -2.9989  0.2857
  100SAPS  H20S10090   5.243   6.298   7.780  3.0659  0.6295 -1.6940
  100SAPS  H20T10091   5.176   6.122   7.811  0.2039 -0.7171  0.3406
  100SAPS   C3310092   6.423   6.361   7.035  0.4185 -0.1960  0.0911
  100SAPS   H3X10093   6.510   6.291   7.036  2.2133  1.9953 -0.2000
  100SAPS   H3Y10094   6.348   6.323   6.961 -0.0370  0.0522  0.4249
  100SAPS   C3410095   6.369   6.365   7.180 -0.4790  0.3421  0.0721
  100SAPS   H4X10096   6.302   6.450   7.200 -1.6448 -0.0295 -2.0922
  100SAPS   H4Y10097   6.452   6.385   7.252 -1.2660  1.0539  0.7829
  100SAPS   C3510098   6.301   6.238   7.234 -1.2285 -0.0883 -0.5126
  100SAPS   H5X10099   6.341   6.153   7.175 -3.6851 -1.2505 -0.5502
  100SAPS   H5Y10100   6.198   6.243   7.192 -0.1203  2.2573 -3.0851
  100SAPS   C3610101   6.318   6.234   7.389 -0.0850  0.0430  0.7423
  100SAPS   H6X10102   6.428   6.231   7.408 -0.1005 -1.5867  0.6232
  100SAPS   H6Y10103   6.272   6.139   7.425 -0.8872  0.8833  1.9508
  100SAPS   C3710104   6.246   6.346   7.463  1.2465  0.3951  0.3081
  100SAPS   H7X10105   6.158   6.372   7.401  1.3680  0.3411  0.1140
  100SAPS   H7Y10106   6.297   6.445   7.468  3.0351 -0.5962  2.8703
  100SAPS   C3810107   6.224   6.301   7.608  0.1453  0.1204 -0.2400
  100SAPS   H8X10108   6.316   6.261   7.654  0.3828  0.2169 -0.6314
  100SAPS   H8Y10109   6.152   6.216   7.613 -0.6897  0.8043 -0.3692
  100SAPS   C3910110   6.161   6.409   7.697 -0.2025 -0.7144  0.4057
  100SAPS   H9X10111   6.057   6.424   7.660 -0.0702 -2.0056 -0.5263
  100SAPS   H9Y10112   6.223   6.497   7.670 -0.4562 -0.5641  0.3112
  100SAPS  C31010113   6.170   6.385   7.851  0.5214 -0.2127  0.2505
  100SAPS  H10X10114   6.149   6.483   7.899  0.5759  0.7904 -1.7244
  100SAPS  H10Y10115   6.265   6.335   7.882 -0.4296 -1.3624  1.3813
  100SAPS  C31110116   6.061   6.281   7.895 -0.2604 -0.0850 -0.0826
  100SAPS  H11X10117   6.049   6.194   7.827 -0.8950 -1.1594  1.3754
  100SAPS  H11Y10118   5.961   6.329   7.881  0.3032  0.9207 -0.6947
  100SAPS  C31210119   6.084   6.229   8.034 -0.2796  0.1336  0.2532
  100SAPS  H12X10120   6.109   6.311   8.105  1.9205  1.0039 -1.4858
  100SAPS  H12Y10121   6.177   6.172   8.018  0.3890  1.4738 -0.7249
  100SAPS  C31310122   5.970   6.137   8.075 -0.0369 -0.1101 -0.1719
  100SAPS  H13X10123   6.016   6.078   8.156  1.3309 -1.2177 -1.7182
  100SAPS  H13Y10124   5.936   6.068   7.995 -1.2382  0.7515 -0.4258
  100SAPS  C31410125   5.844   6.203   8.125  0.6621  0.0981  0.6918
  100SAPS  H14X10126   5.802   6.279   8.056  1.8875 -0.4316 -0.6631
  100SAPS  H14Y10127   5.855   6.271   8.212  1.4268 -0.2647  0.8792
  100SAPS  C31510128   5.733   6.106   8.142 -0.8762 -0.0943  0.4841
  100SAPS  H15X10129   5.766   6.017   8.200  2.7317  1.9364  1.7119
  100SAPS  H15Y10130   5.714   6.064   8.041  1.3060 -1.4105  0.6076
  100SAPS  C31610131   5.609   6.162   8.210  0.0900  0.3083 -0.4373
  100SAPS  H16X10132   5.528   6.088   8.191 -0.6315  0.6080  1.3964
  100SAPS  H16Y10133   5.582   6.259   8.163 -0.0269  0.3187 -0.3478
  100SAPS  C31710134   5.618   6.201   8.359  0.1002 -0.0879 -0.3785
  100SAPS  H17X10135   5.663   6.303   8.364 -0.1786  0.0299 -0.3288
  100SAPS  H17Y10136   5.687   6.128   8.408 -0.3022 -1.1674 -1.4127
  100SAPS  C31810137   5.476   6.191   8.409 -0.5172  0.0101  0.2120
  100SAPS  H18X10138   5.403   6.240   8.342 -0.5582 -0.6092 -0.1992
  100SAPS  H18Y10139   5.467   6.222   8.515 -2.6580 -1.2226  0.4194
  100SAPS  H18Z10140   5.455   6.082   8.418 -2.6574  0.4309  0.4538
  101OSM      N10141   4.597   0.015  10.670 -0.1746  0.0436 -0.7754
  101OSM    C1510142   4.578   0.112  10.559  0.0446 -0.2073 -0.0175
  101OSM   H15A10143   4.674   0.157  10.539  0.0863  0.7406  2.2265
  101OSM   H15B10144   4.509   0.187  10.594 -0.1685 -1.0760  1.4694
  101OSM   H15C10145   4.543   0.058  10.473 -2.7865  1.3474  0.1096
  101OSM    C1410146   4.655   0.088  10.786  0.4268 -0.4089 -0.2835
  101OSM   H14A10147   4.748   0.137  10.759 -0.6214  0.5545 -2.2027
  101OSM   H14B10148   4.680   0.028  10.872  0.7694  1.0505  0.6730
  101OSM   H14C10149   4.604   0.175  10.826  1.5802  0.4911 -0.7357
  101OSM    C1310150   4.454  -0.027  10.704 -0.1751  0.7560 -0.5539
  101OSM   H13A10151   4.401  -0.076  10.624  1.8122 -1.8051 -0.3628
  101OSM   H13B10152   4.390   0.050  10.745 -0.1294  0.5873 -0.1576
  101OSM   H13C10153   4.453  -0.094  10.789 -3.5602  0.9988 -0.3370
  101OSM    C1210154   4.687  -0.105  10.624  0.2343  0.6405 -0.3443
  101OSM   H12A10155   4.778  -0.066  10.581 -0.7074  0.9826 -2.0657
  101OSM   H12B10156   4.637  -0.149  10.539 -1.5821  1.1049  0.4611
  101OSM    C1110157   4.728  -0.217  10.734 -0.2099  0.7690 -0.8080
  101OSM   H11A10158   4.815  -0.204  10.803 -0.7841 -0.0675  0.0923
  101OSM   H11B10159   4.763  -0.307  10.678 -0.6214  0.3285 -0.3645
  101OSM      P10160   4.584  -0.392  10.849 -0.2438  0.0358  0.2259
  101OSM    O1310161   4.679  -0.472  10.929 -0.1178  0.1056  0.0658
  101OSM    O1410162   4.450  -0.382  10.905  0.3119 -0.1682 -0.6113
  101OSM    O1110163   4.572  -0.459  10.711  0.0572 -0.0694 -0.2435
  101OSM    O1210164   4.620  -0.243  10.827 -0.6844 -0.2390 -0.6935
  101OSM    C1S10165   4.454  -0.418  10.633  0.4628  0.1384  0.1918
  101OSM    H1S10166   4.438  -0.308  10.627 -0.8417 -0.1684 -3.4929
  101OSM    H1T10167   4.357  -0.449  10.677  1.2924  0.0145  1.9778
  101OSM     NF10168   4.350  -0.404  10.410  0.4465  0.4464  0.0418
  101OSM    HNF10169   4.270  -0.454  10.378  0.1933  1.2732 -0.6722
  101OSM    C2S10170   4.458  -0.469  10.482  0.1363  0.1871 -0.7627
  101OSM    H2S10171   4.559  -0.436  10.449 -0.6046  2.3287 -0.9943
  101OSM    C3S10172   4.460  -0.626  10.459 -0.1917  0.6163 -0.1568
  101OSM    H3S10173   4.357  -0.665  10.473 -0.7038  2.0454  0.1348
  101OSM     O310174   4.536  -0.683  10.572  0.1423 -0.2010 -0.3184
  101OSM    HO310175   4.531  -0.620  10.644 -0.3621  0.9569 -1.3407
  101OSM    C4S10176   4.510  -0.659  10.325  0.6506 -0.3207  0.0144
  101OSM    H4S10177   4.432  -0.649  10.249 -0.4620 -0.8783  1.0727
  101OSM    C5S10178   4.634  -0.702  10.290  0.1853  0.8156 -0.6665
  101OSM    H5S10179   4.699  -0.737  10.371 -1.6866 -0.4918  0.2922
  101OSM    C6S10180   4.687  -0.736  10.151 -0.9944 -0.2854 -0.1891
  101OSM    H6S10181   4.698  -0.845  10.131 -0.2033 -0.1946 -0.2749
  101OSM    H6T10182   4.789  -0.694  10.143 -1.1125 -0.3277 -2.0501
  101OSM    C7S10183   4.593  -0.700  10.036  0.3475 -0.2845 -0.3078
  101OSM    H7S10184   4.570  -0.592  10.035  1.4466 -0.0527 -2.4609
  101OSM    H7T10185   4.494  -0.747  10.054  0.1746  0.1828 -0.0345
  101OSM    C8S10186   4.649  -0.730   9.900 -0.4421 -0.4196 -0.0397
  101OSM    H8S10187   4.681  -0.837   9.901 -0.3391 -0.4005 -0.9550
  101OSM    H8T10188   4.752  -0.688   9.893 -0.3671  0.0017  2.7605
  101OSM    C9S10189   4.549  -0.695   9.790 -0.5835 -0.2706  0.1607
  101OSM    H9S10190   4.510  -0.592   9.802  1.4976  0.5418  0.1572
  101OSM    H9T10191   4.464  -0.766   9.800 -1.9745  1.4496  0.7173
  101OSM   C10S10192   4.601  -0.715   9.643 -0.1980 -0.1248  0.0551
  101OSM   H10S10193   4.653  -0.813   9.639  1.4966  0.7916 -0.4917
  101OSM   H10T10194   4.681  -0.638   9.638  1.7412 -2.1246 -0.1860
  101OSM   C11S10195   4.493  -0.698   9.545  0.0322  0.8662  0.1583
  101OSM   H11S10196   4.425  -0.618   9.582 -0.3161  0.0136  1.3858
  101OSM   H11T10197   4.438  -0.794   9.538  1.3287  0.0619  0.6869
  101OSM   C12S10198   4.553  -0.674   9.407  0.6314  0.9078 -0.3929
  101OSM   H12S10199   4.623  -0.757   9.382  2.0773  1.6715  1.0885
  101OSM   H12T10200   4.622  -0.587   9.408  0.9911  0.6225  1.7099
  101OSM   C13S10201   4.441  -0.673   9.300 -0.0396  0.3731 -0.4755
  101OSM   H13S10202   4.391  -0.579   9.330 -0.3212 -0.2840  1.1531
  101OSM   H13T10203   4.364  -0.750   9.321  0.9013 -0.4290  0.0695
  101OSM   C14S10204   4.483  -0.679   9.159  0.0434  0.1174  0.3546
  101OSM   H14S10205   4.508  -0.572   9.141 -1.1475  0.2775 -0.3879
  101OSM   H14T10206   4.403  -0.716   9.093  2.3159 -0.5983 -2.0924
  101OSM   C15S10207   4.594  -0.772   9.122 -0.0445  0.7296 -0.2173
  101OSM   H15S10208   4.554  -0.876   9.127 -1.2514  1.2009  0.0130
  101OSM   H15T10209   4.686  -0.762   9.184  0.4551 -2.4397 -0.3428
  101OSM   C16S10210   4.630  -0.764   8.967  0.3992 -0.4572 -0.2163
  101OSM   H16S10211   4.627  -0.658   8.935 -0.0200 -0.6080 -0.6717
  101OSM   H16T10212   4.550  -0.811   8.907  0.9912  0.4297 -1.7255
  101OSM   C17S10213   4.768  -0.823   8.934  0.5748 -0.0268  0.1446
  101OSM   H17S10214   4.769  -0.933   8.950  1.4103 -0.3348 -1.8583
  101OSM   H17T10215   4.842  -0.772   9.000  0.5624 -1.2512  1.1170
  101OSM   C18S10216   4.800  -0.813   8.785 -0.4611  0.7985  0.1060
  101OSM   H18S10217   4.720  -0.860   8.725  0.0166 -0.4699  0.4483
  101OSM   H18T10218   4.893  -0.868   8.762  0.7932  2.1424  1.7775
  101OSM   H18U10219   4.807  -0.705   8.759 -0.9237 -0.2196 -4.5519
  101OSM    C1F10220   4.357  -0.271  10.384  0.4614  0.7643  0.1307
  101OSM     OF10221   4.452  -0.204  10.416  0.2956  0.2513 -0.2074
  101OSM    C2F10222   4.238  -0.211  10.303  1.0141 -0.3861 -0.0459
  101OSM    H2F10223   4.240  -0.100  10.314  0.2463 -0.4981  1.3556
  101OSM    H2G10224   4.143  -0.256  10.338  1.9815 -2.9253 -0.6149
  101OSM    C3F10225   4.238  -0.239  10.146 -0.3615  0.0212  0.6330
  101OSM    H3F10226   4.327  -0.195  10.096 -0.4801 -2.6519 -2.0959
  101OSM    H3G10227   4.146  -0.189  10.110 -0.3831  0.1116  0.8173
  101OSM    C4F10228   4.241  -0.377  10.099  0.4988  1.0073  0.3590
  101OSM    H4F10229   4.165  -0.441  10.149  0.3011  0.3191 -0.8215
  101OSM    H4G10230   4.341  -0.419  10.121  0.5343 -0.6561 -2.7835
  101OSM    C5F10231   4.227  -0.374   9.950 -0.4337  0.3890  0.6075
  101OSM    H5F10232   4.303  -0.313   9.895  1.3729 -1.3350  1.1177
  101OSM    H5G10233   4.131  -0.326   9.923 -1.0062 -0.6463  0.7613
  101OSM    C6F10234   4.219  -0.515   9.893 -0.2513  0.5696  0.4819
  101OSM    H6F10235   4.132  -0.571   9.933  0.1893  0.1409  0.8350
  101OSM    H6G10236   4.312  -0.568   9.922  0.6312  2.2652  0.8326
  101OSM    C7F10237   4.178  -0.512   9.743 -0.2189  0.1336 -0.2224
  101OSM    H7F10238   4.261  -0.467   9.685 -0.5327  0.2791 -0.5613
  101OSM    H7G10239   4.095  -0.439   9.728 -0.7072 -0.7003 -1.6537
  101OSM    C8F10240   4.135  -0.651   9.689  0.3205 -0.4615 -0.3754
  101OSM    H8F10241   4.050  -0.678   9.755 -0.9634  1.0331 -1.3971
  101OSM    H8G10242   4.209  -0.726   9.726  0.4010  0.2938  0.9984
  101OSM    C9F10243   4.120  -0.650   9.538  0.6370 -1.1108 -0.2800
  101OSM    H9F10244   4.212  -0.620   9.485  0.8342 -2.3668 -0.6561
  101OSM   C10F10245   4.019  -0.672   9.451 -0.9213 -0.0842 -0.2403
  101OSM   H10F10246   4.046  -0.656   9.346 -0.0773 -1.5827 -0.2751
  101OSM   C11F10247   3.871  -0.711   9.454  0.7921 -0.7467  0.2027
  101OSM   H11F10248   3.844  -0.739   9.558  2.0377 -1.5801  0.3155
  101OSM   H11G10249   3.854  -0.806   9.398  0.1466 -0.6276  0.1906
  101OSM   C12F10250   3.772  -0.613   9.393 -0.0685  0.1175 -0.1484
  101OSM   H12F10251   3.752  -0.524   9.457 -0.7224 -1.0385  1.2804
  101OSM   H12G10252   3.678  -0.673   9.395  1.1888 -1.8539  0.5862
  101OSM   C13F10253   3.784  -0.574   9.240 -0.5174  0.2761 -0.3441
  101OSM   H13F10254   3.823  -0.672   9.204  1.0391  1.4567 -1.9439
  101OSM   H13G10255   3.857  -0.492   9.224 -1.2474  1.3556  1.6244
  101OSM   C14F10256   3.649  -0.541   9.179 -0.1395  0.2690 -0.0209
  101OSM   H14F10257   3.619  -0.439   9.214  0.0740  0.3528 -0.0835
  101OSM   H14G10258   3.563  -0.604   9.211  0.9635 -0.3624  1.7416
  101OSM   C15F10259   3.647  -0.539   9.028  0.7437  0.3618 -0.0270
  101OSM   H15F10260   3.542  -0.528   8.994  1.0402  1.1820 -0.6720
  101OSM   H15G10261   3.693  -0.634   8.993  2.1291  0.9249  0.2229
  101OSM   C16F10262   3.722  -0.432   8.953 -0.1164  0.4131  0.3034
  101OSM   H16F10263   3.831  -0.454   8.953 -0.3251 -0.7247  1.6170
  101OSM   H16G10264   3.712  -0.328   8.991 -0.4697  0.6648 -0.4682
  101OSM   C17F10265   3.687  -0.418   8.797 -0.0593  0.2201 -1.6117
  101OSM   H17F10266   3.739  -0.331   8.751  1.7468 -0.7500 -1.4657
  101OSM   H17G10267   3.578  -0.401   8.786 -0.5341  0.7679  2.8064
  101OSM   C18F10268   3.729  -0.532   8.706  0.9858  0.7700  0.2168
  101OSM   H18F10269   3.726  -0.492   8.603  0.9823  0.7592  0.2125
  101OSM   H18G10270   3.667  -0.623   8.720  1.4477  0.3732 -0.3406
  101OSM   H18H10271   3.834  -0.556   8.732  0.6075 -0.9613  0.1821
  102OSM      N10272   4.257   6.045  11.007  0.1798  0.3936 -0.5130
  102OSM    C1510273   4.187   6.151  11.094  0.3426 -0.1379 -0.0000
  102OSM   H15A10274   4.238   6.245  11.084  0.4652  0.0813  2.3913
  102OSM   H15B10275   4.183   6.119  11.197 -1.5391  1.3537  0.4058
  102OSM   H15C10276   4.083   6.165  11.068 -0.0619 -0.4227  1.3921
  102OSM    C1410277   4.409   6.046  11.029  0.2160  0.7272  0.2863
  102OSM   H14A10278   4.449   5.997  10.942  0.3050 -1.7167  1.6734
  102OSM   H14B10279   4.439   5.981  11.109 -0.8367  1.4835  1.3079
  102OSM   H14C10280   4.460   6.141  11.029  0.2643  0.7544 -2.6733
  102OSM    C1310281   4.199   5.913  11.051  0.9342  0.6825 -0.7353
  102OSM   H13A10282   4.094   5.919  11.027  0.4225  1.0390  1.4786
  102OSM   H13B10283   4.207   5.896  11.158  1.2828  1.1234 -0.6896
  102OSM   H13C10284   4.241   5.829  10.997 -1.2555 -1.5975  0.9622
  102OSM    C1210285   4.223   6.083  10.871  0.0596 -0.5430  0.2353
  102OSM   H12A10286   4.260   6.183  10.852 -0.3331 -0.3347  0.5622
  102OSM   H12B10287   4.115   6.082  10.862  0.1011  0.6138 -0.5187
  102OSM    C1110288   4.279   5.990  10.761  0.3771  0.0657 -0.2645
  102OSM   H11A10289   4.390   5.995  10.762  0.4456 -1.2673  0.1213
  102OSM   H11B10290   4.253   6.032  10.662  1.9016  2.4774  0.3275
  102OSM      P10291   4.318   5.721  10.761 -0.5173 -0.6941 -0.3916
  102OSM    O1310292   4.464   5.746  10.781 -0.0153  0.6078 -0.3004
  102OSM    O1410293   4.246   5.625  10.846  0.0845 -0.2912 -0.6567
  102OSM    O1110294   4.300   5.692  10.600  0.3501 -0.6057  0.5049
  102OSM    O1210295   4.234   5.858  10.767  0.1354 -0.5841 -0.1236
  102OSM    C1S10296   4.197   5.766  10.522  0.2421 -0.2367 -0.2923
  102OSM    H1S10297   4.222   5.873  10.511  0.2050 -0.1006  0.9494
  102OSM    H1T10298   4.094   5.761  10.562  1.0880 -2.1620  1.7421
  102OSM     NF10299   4.067   5.780  10.311  0.8581 -0.1599 -0.2819
  102OSM    HNF10300   3.977   5.738  10.304  1.0141 -0.1957 -2.4142
  102OSM    C2S10301   4.173   5.701  10.378 -0.3942  1.0491 -0.1499
  102OSM    H2S10302   4.264   5.699  10.314  0.7329 -3.0367  1.3847
  102OSM    C3S10303   4.134   5.546  10.389  0.0353  0.1113  0.0838
  102OSM    H3S10304   4.024   5.538  10.401 -0.0556 -3.2823 -2.3566
  102OSM     O310305   4.204   5.475  10.498 -0.1556 -0.5994  0.8061
  102OSM    HO310306   4.243   5.539  10.557  0.6561 -0.6627  0.3398
  102OSM    C4S10307   4.157   5.480  10.257 -0.1013  0.9573  0.6416
  102OSM    H4S10308   4.256   5.502  10.213 -0.4701  0.6625 -0.3554
  102OSM    C5S10309   4.068   5.416  10.172  0.4433  0.1524 -0.1139
  102OSM    H5S10310   3.965   5.400  10.208  0.0449  1.1830 -0.7833
  102OSM    C6S10311   4.094   5.353  10.038  0.4479  0.3757 -0.2130
  102OSM    H6S10312   4.078   5.244  10.050  0.7083  0.4106  0.4376
  102OSM    H6T10313   4.203   5.362  10.018  0.8216  0.0895  1.6807
  102OSM    C7S10314   4.007   5.418   9.930  0.8053  0.7782  0.1563
  102OSM    H7S10315   4.001   5.529   9.933 -1.4440  0.7762 -2.3174
  102OSM    H7T10316   3.903   5.384   9.951  0.9422 -1.4498 -2.4861
  102OSM    C8S10317   4.037   5.392   9.787  0.5992  0.3805 -0.0477
  102OSM    H8S10318   4.045   5.286   9.754 -0.2459  0.7072 -1.3288
  102OSM    H8T10319   4.127   5.445   9.749  0.2677  0.0183 -1.3413
  102OSM    C9S10320   3.923   5.449   9.705 -0.1934 -0.0773 -0.2620
  102OSM    H9S10321   3.939   5.559   9.707 -1.1828  0.0740 -0.3796
  102OSM    H9T10322   3.835   5.412   9.762  1.5145 -0.5486  2.1523
  102OSM   C10S10323   3.932   5.394   9.562 -0.0943  0.2971  0.5665
  102OSM   H10S10324   3.915   5.286   9.578  0.3492  0.0094 -0.8337
  102OSM   H10T10325   4.030   5.401   9.511 -1.0125  0.7214 -1.2020
  102OSM   C11S10326   3.818   5.450   9.474 -0.2695  0.2570 -0.0112
  102OSM   H11S10327   3.843   5.554   9.444 -0.4677  0.0063 -1.0987
  102OSM   H11T10328   3.722   5.458   9.530 -0.1060  3.2951 -0.1070
  102OSM   C12S10329   3.794   5.368   9.342 -0.1030  0.1786 -0.0591
  102OSM   H12S10330   3.751   5.269   9.366  0.1247  0.1937  0.4281
  102OSM   H12T10331   3.891   5.359   9.288  0.0889 -2.5054  0.6631
  102OSM   C13S10332   3.695   5.439   9.241  0.4520 -0.8167  0.2097
  102OSM   H13S10333   3.594   5.455   9.285 -0.1487 -0.1714 -1.3822
  102OSM   H13T10334   3.669   5.365   9.162  0.3792  3.7925 -4.3069
  102OSM   C14S10335   3.746   5.567   9.173 -0.5625  0.4126  0.0285
  102OSM   H14S10336   3.855   5.556   9.155 -0.2618  0.7613  1.5802
  102OSM   H14T10337   3.736   5.644   9.252 -1.6902 -1.0374  1.3205
  102OSM   C15S10338   3.669   5.612   9.049  0.4093 -0.4586 -0.1350
  102OSM   H15S10339   3.561   5.613   9.072  0.5164  1.0619  0.3298
  102OSM   H15T10340   3.680   5.545   8.960 -1.4644 -0.0967 -0.6626
  102OSM   C16S10341   3.704   5.759   8.996  0.0262 -0.3094  0.5256
  102OSM   H16S10342   3.813   5.764   8.975 -0.1598 -0.2569 -0.4387
  102OSM   H16T10343   3.686   5.838   9.072 -0.0569  0.1436  0.0388
  102OSM   C17S10344   3.613   5.797   8.876  0.1690  0.0355 -0.2430
  102OSM   H17S10345   3.620   5.904   8.847  1.7026  0.2619  0.8918
  102OSM   H17T10346   3.514   5.775   8.920  0.1693  0.1563 -0.1816
  102OSM   C18S10347   3.647   5.725   8.745  0.0982  0.4377  0.4375
  102OSM   H18S10348   3.636   5.615   8.758 -0.5885  0.5834  1.1498
  102OSM   H18T10349   3.751   5.732   8.706  1.0017  0.1958  2.6941
  102OSM   H18U10350   3.576   5.756   8.666 -2.2059 -3.2402  0.9430
  102OSM    C1F10351   4.072   5.909  10.271  0.8247  0.1389 -0.4653
  102OSM     OF10352   4.175   5.978  10.281  0.1673 -0.2753 -0.0741
  102OSM    C2F10353   3.954   5.975  10.215 -0.2013 -0.2514  0.4794
  102OSM    H2F10354   3.895   6.010  10.302 -0.3940  1.6530 -0.3833
  102OSM    H2G10355   3.888   5.900  10.166  0.8421 -0.3865 -0.7473
  102OSM    C3F10356   3.985   6.083  10.102 -0.2659  0.1295  0.3741
  102OSM    H3F10357   4.033   6.044  10.010 -0.1640  1.2148 -0.0459
  102OSM    H3G10358   4.060   6.156  10.141  0.5407  0.2421 -1.3233
  102OSM    C4F10359   3.860   6.159  10.058  0.4823  0.7731  0.1514
  102OSM    H4F10360   3.882   6.249   9.997 -0.5258  0.9352  0.0277
  102OSM    H4G10361   3.813   6.194  10.152  2.7481 -2.7402  2.7188
  102OSM    C5F10362   3.759   6.072   9.971  0.3576 -0.2324 -0.1275
  102OSM    H5F10363   3.732   5.981  10.029  4.3569 -2.3104 -1.3242
  102OSM    H5G10364   3.816   6.038   9.882  2.4069  1.2948  0.5715
  102OSM    C6F10365   3.630   6.148   9.931  0.4518  0.1573  0.0477
  102OSM    H6F10366   3.585   6.179  10.028 -1.1671 -0.8390 -0.3645
  102OSM    H6G10367   3.557   6.077   9.886  1.6411 -0.2228 -1.3054
  102OSM    C7F10368   3.651   6.265   9.829 -0.0246 -0.3837 -0.6519
  102OSM    H7F10369   3.737   6.245   9.763  2.2112  1.1006  1.7049
  102OSM    H7G10370   3.684   6.356   9.884 -0.6357 -0.4940 -0.0869
  102OSM    C8F10371   3.527   6.295   9.727  1.0659 -1.0708  0.4122
  102OSM    H8F10372   3.432   6.326   9.775 -0.0917  0.8529 -2.9713
  102OSM    H8G10373   3.508   6.196   9.679 -0.0975  0.0327 -1.4413
  102OSM    C9F10374   3.564   6.400   9.619 -0.0187  0.1432 -0.1996
  102OSM    H9F10375   3.635   6.477   9.653  0.0347 -0.5207  1.2464
  102OSM   C10F10376   3.495   6.418   9.499 -0.4907  0.2007 -0.4730
  102OSM   H10F10377   3.523   6.498   9.429 -1.9138 -0.4524 -1.8098
  102OSM   C11F10378   3.379   6.331   9.458  0.4163  0.1182 -0.1428
  102OSM   H11F10379   3.305   6.329   9.541 -0.1072  0.8406 -0.5771
  102OSM   H11G10380   3.405   6.230   9.420  0.4082 -0.0450  0.2875
  102OSM   C12F10381   3.316   6.396   9.329  0.3412  0.0285  0.5689
  102OSM   H12F10382   3.394   6.393   9.250  0.7269  0.5449  0.9309
  102OSM   H12G10383   3.292   6.504   9.336 -0.2496  0.0727 -1.6725
  102OSM   C13F10384   3.188   6.324   9.289  1.1070  0.0063  0.9131
  102OSM   H13F10385   3.109   6.348   9.364 -1.6332  0.6883 -2.0706
  102OSM   H13G10386   3.193   6.214   9.305  2.9283  0.2534  2.1235
  102OSM   C14F10387   3.130   6.368   9.156 -0.1274 -0.2328 -0.3002
  102OSM   H14F10388   3.123   6.478   9.166 -0.0708 -0.4475  2.6174
  102OSM   H14G10389   3.025   6.330   9.149 -0.7978  1.5620 -0.1398
  102OSM   C15F10390   3.224   6.339   9.037  0.1259  0.3941  0.6898
  102OSM   H15F10391   3.257   6.233   9.028 -0.6774  0.3116 -1.5375
  102OSM   H15G10392   3.322   6.389   9.056  0.5572  0.1146 -0.7881
  102OSM   C16F10393   3.163   6.368   8.898 -0.0636 -0.0732  0.2896
  102OSM   H16F10394   3.089   6.288   8.878  0.3923  0.3529 -3.4861
  102OSM   H16G10395   3.239   6.365   8.817 -1.2866 -2.9033 -0.8093
  102OSM   C17F10396   3.082   6.500   8.896 -0.5427 -0.7432  0.5444
  102OSM   H17F10397   3.152   6.583   8.919 -0.2565 -0.1981 -2.0637
  102OSM   H17G10398   2.997   6.493   8.968  1.2325 -2.7246  2.5049
  102OSM   C18F10399   3.012   6.535   8.758 -0.7942  0.1865  0.2135
  102OSM   H18F10400   3.085   6.526   8.676  0.6687 -1.6814  1.6819
  102OSM   H18G10401   2.964   6.636   8.754 -1.5085 -0.1737 -0.2836
  102OSM   H18H10402   2.927   6.467   8.735  0.2429 -0.9219 -0.3400
  103OSM      N10403   5.430   2.604  11.378  0.0195  0.6975 -0.4373
  103OSM    C1510404   5.553   2.686  11.401  0.3771 -0.0141 -0.3848
  103OSM   H15A10405   5.559   2.697  11.508  1.0819  2.1286 -0.6233
  103OSM   H15B10406   5.551   2.781  11.349 -0.3212  0.8307  1.1536
  103OSM   H15C10407   5.639   2.634  11.363  0.0042 -0.5833 -0.4632
  103OSM    C1410408   5.439   2.493  11.480  0.2688 -0.4903 -0.4083
  103OSM   H14A10409   5.426   2.529  11.581  1.0252 -0.9346 -0.1430
  103OSM   H14B10410   5.539   2.453  11.469  0.5001  0.4139 -1.6941
  103OSM   H14C10411   5.371   2.415  11.449 -0.4241  1.0968 -3.0230
  103OSM    C1310412   5.312   2.686  11.402  0.7228  0.2940  0.3763
  103OSM   H13A10413   5.227   2.627  11.435  1.3256 -0.0995  1.2457
  103OSM   H13B10414   5.277   2.742  11.317 -1.0497 -0.9617  0.2581
  103OSM   H13C10415   5.327   2.756  11.483 -0.3876 -1.1980  1.9220
  103OSM    C1210416   5.432   2.552  11.236 -0.5533  0.5981  0.2170
  103OSM   H12A10417   5.515   2.484  11.225  0.1644  1.5019  0.0045
  103OSM   H12B10418   5.445   2.634  11.167 -1.3625  0.2142 -0.3925
  103OSM    C1110419   5.298   2.483  11.183 -0.8317 -0.6647 -0.2966
  103OSM   H11A10420   5.265   2.426  11.272  1.0698  0.1493  0.9810
  103OSM   H11B10421   5.304   2.409  11.100  2.6221 -1.1646  0.3138
  103OSM      P10422   5.208   2.680  11.028  0.3789 -0.1607  0.1446
  103OSM    O1310423   5.083   2.734  10.975 -0.6212 -0.0897 -0.2799
  103OSM    O1410424   5.307   2.784  11.068  0.0548  0.3453 -0.5244
  103OSM    O1110425   5.275   2.606  10.909  0.3576 -0.5085 -0.4544
  103OSM    O1210426   5.194   2.582  11.152 -0.0646 -0.3511 -0.3586
  103OSM    C1S10427   5.190   2.544  10.806  0.6160  0.1767  0.2916
  103OSM    H1S10428   5.125   2.616  10.752  1.1455 -0.1957 -0.8610
  103OSM    H1T10429   5.122   2.467  10.847 -1.9101  0.6001 -2.9078
  103OSM     NF10430   5.191   2.440  10.576 -0.6401  0.4993  0.0114
  103OSM    HNF10431   5.143   2.354  10.559  1.2077 -0.4944 -0.4079
  103OSM    C2S10432   5.277   2.472  10.696 -0.4352 -0.2025 -0.2909
  103OSM    H2S10433   5.360   2.539  10.667  1.3040 -0.3586  3.9797
  103OSM    C3S10434   5.342   2.348  10.768 -0.0001 -0.7441 -0.0990
  103OSM    H3S10435   5.269   2.272  10.804  0.1837 -0.4110  1.0065
  103OSM     O310436   5.433   2.386  10.876 -0.2747 -0.1410 -0.1093
  103OSM    HO310437   5.404   2.476  10.889 -2.7577 -1.0367  0.7405
  103OSM    C4S10438   5.441   2.276  10.680  0.0181  0.1876  0.3260
  103OSM    H4S10439   5.549   2.299  10.685 -0.2792  1.6647  0.2871
  103OSM    C5S10440   5.401   2.166  10.609 -0.6201 -0.1012 -0.5335
  103OSM    H5S10441   5.296   2.133  10.601 -0.2302 -1.0448 -1.9683
  103OSM    C6S10442   5.485   2.088  10.504  0.1244 -0.4068 -0.2843
  103OSM    H6S10443   5.503   1.985  10.543  1.6284  0.2425  0.7965
  103OSM    H6T10444   5.592   2.116  10.509 -0.1626  0.6425 -0.0067
  103OSM    C7S10445   5.426   2.096  10.362  0.5136  0.0165 -0.1413
  103OSM    H7S10446   5.335   2.032  10.364  1.6016 -1.5659 -0.5846
  103OSM    H7T10447   5.502   2.046  10.298  0.6721 -2.2964  1.7752
  103OSM    C8S10448   5.393   2.235  10.302 -0.2574 -0.4727  0.3784
  103OSM    H8S10449   5.480   2.300  10.282 -2.4576  2.5661  0.2863
  103OSM    H8T10450   5.346   2.293  10.385  1.9848  0.3721  1.0934
  103OSM    C9S10451   5.316   2.238  10.177 -0.5038 -0.0930  0.5891
  103OSM    H9S10452   5.308   2.342  10.138  0.6900  0.6787  2.3589
  103OSM    H9T10453   5.210   2.209  10.188 -0.5278 -0.9581 -1.6523
  103OSM   C10S10454   5.368   2.144  10.069 -0.2437 -0.3090  0.4135
  103OSM   H10S10455   5.346   2.042  10.108  0.5337 -0.3597  0.7352
  103OSM   H10T10456   5.478   2.147  10.057 -0.3662 -0.2681 -0.7285
  103OSM   C11S10457   5.314   2.176   9.928 -0.5244 -0.5900 -0.2297
  103OSM   H11S10458   5.384   2.250   9.884 -0.6646  1.2492  2.5248
  103OSM   H11T10459   5.220   2.235   9.931 -0.3587 -0.3543  0.4185
  103OSM   C12S10460   5.308   2.050   9.841 -0.1015 -0.3779  0.4281
  103OSM   H12S10461   5.244   1.977   9.895  1.1051 -1.5794  0.2701
  103OSM   H12T10462   5.409   2.003   9.840 -0.7119 -1.7486  1.5841
  103OSM   C13S10463   5.262   2.088   9.698 -0.6680  0.0066 -0.3708
  103OSM   H13S10464   5.338   2.163   9.665  0.5393  0.0515  2.4059
  103OSM   H13T10465   5.164   2.140   9.694 -0.5564  0.3307  0.8796
  103OSM   C14S10466   5.254   1.966   9.595  0.6042 -0.5850 -0.0009
  103OSM   H14S10467   5.216   1.887   9.663 -2.6076  1.9544  1.2358
  103OSM   H14T10468   5.355   1.936   9.560  0.7502  2.0034 -1.9601
  103OSM   C15S10469   5.157   1.982   9.479  0.3609  0.1786 -0.2229
  103OSM   H15S10470   5.066   2.027   9.523  0.9040  1.2442 -0.1778
  103OSM   H15T10471   5.139   1.889   9.420  1.4463 -0.6378  0.7110
  103OSM   C16S10472   5.206   2.079   9.369  0.7067 -0.3589 -0.2937
  103OSM   H16S10473   5.305   2.044   9.333  2.5083  2.0103  2.1477
  103OSM   H16T10474   5.224   2.184   9.402 -1.9764  0.3266 -0.8954
  103OSM   C17S10475   5.102   2.098   9.256 -0.4162  0.2789 -0.1350
  103OSM   H17S10476   5.012   2.153   9.290 -0.0679  0.8626 -0.1456
  103OSM   H17T10477   5.065   1.999   9.220  1.5411 -1.1399  1.6064
  103OSM   C18S10478   5.142   2.201   9.142 -0.3733  0.5772 -0.0519
  103OSM   H18S10479   5.055   2.218   9.075 -0.3008  1.2375  0.0254
  103OSM   H18T10480   5.222   2.147   9.087  0.3778  0.8452  0.7580
  103OSM   H18U10481   5.195   2.293   9.173 -0.2842  0.6906 -0.5438
  103OSM    C1F10482   5.154   2.527  10.490 -0.3384  0.0884  0.5021
  103OSM     OF10483   5.166   2.645  10.516  0.5331 -0.2098  0.0371
  103OSM    C2F10484   5.096   2.482  10.358  0.5323 -0.5601  0.6735
  103OSM    H2F10485   5.004   2.422  10.370 -0.1858  0.4368  0.1323
  103OSM    H2G10486   5.177   2.438  10.296 -0.0204 -1.6000  0.6848
  103OSM    C3F10487   5.080   2.611  10.272  0.1365  0.6479  0.3639
  103OSM    H3F10488   5.177   2.666  10.266  1.3729 -1.3578  1.2499
  103OSM    H3G10489   4.992   2.671  10.305 -0.6330  0.5551 -1.4640
  103OSM    C4F10490   5.036   2.574  10.135  0.3116 -0.2743  0.8958
  103OSM    H4F10491   4.981   2.663  10.098  0.8673 -0.3911 -0.2124
  103OSM    H4G10492   4.953   2.501  10.140  1.0403 -1.1092  1.0567
  103OSM    C5F10493   5.143   2.533  10.038  0.1081  0.1377  0.1663
  103OSM    H5F10494   5.149   2.422  10.049  4.3336  0.2169 -0.8157
  103OSM    H5G10495   5.246   2.571  10.047  1.1683 -2.3060 -1.0770
  103OSM    C6F10496   5.103   2.572   9.897 -0.1556 -0.5306  0.0118
  103OSM    H6F10497   5.076   2.679   9.906 -0.5679 -0.4300 -2.1005
  103OSM    H6G10498   5.013   2.519   9.860 -0.9443 -0.4345  1.7619
  103OSM    C7F10499   5.214   2.545   9.791  0.5279  0.0964  0.2244
  103OSM    H7F10500   5.255   2.447   9.822 -0.3453 -0.2997  0.1392
  103OSM    H7G10501   5.290   2.624   9.804  1.4167 -1.0455  2.1985
  103OSM    C8F10502   5.143   2.542   9.651 -0.5198 -0.6253 -0.9398
  103OSM    H8F10503   5.091   2.639   9.636 -0.8908 -0.9570 -1.8577
  103OSM    H8G10504   5.063   2.465   9.650 -0.4390 -0.7233 -0.2883
  103OSM    C9F10505   5.248   2.510   9.542 -0.3422  0.4818  0.2669
  103OSM    H9F10506   5.304   2.418   9.561  0.3906  1.1406  1.4043
  103OSM   C10F10507   5.277   2.577   9.429  0.9712 -0.3521 -0.0380
  103OSM   H10F10508   5.363   2.536   9.373  1.2109  0.9012 -0.5918
  103OSM   C11F10509   5.224   2.709   9.372  0.0004  0.0437 -0.0449
  103OSM   H11F10510   5.307   2.782   9.381  0.1809 -0.1737  0.0809
  103OSM   H11G10511   5.135   2.748   9.426  1.6774  1.2053  1.9738
  103OSM   C12F10512   5.174   2.694   9.235  0.0061  0.3003  0.2695
  103OSM   H12F10513   5.092   2.620   9.230 -0.0392  0.3106  0.8204
  103OSM   H12G10514   5.247   2.646   9.166 -0.4703 -0.9517  0.6389
  103OSM   C13F10515   5.132   2.820   9.162 -0.3176 -0.6984  0.4354
  103OSM   H13F10516   5.045   2.867   9.212  0.6590 -0.2877  1.7688
  103OSM   H13G10517   5.206   2.902   9.160  0.8632 -1.7305  1.0563
  103OSM   C14F10518   5.094   2.794   9.011  0.2920  0.2289  0.0244
  103OSM   H14F10519   5.031   2.702   9.006  0.3158  0.1899  0.4587
  103OSM   H14G10520   5.178   2.800   8.938  0.8045 -2.8041  0.2652
  103OSM   C15F10521   4.991   2.895   8.974 -0.0130 -0.2183 -0.2452
  103OSM   H15F10522   5.044   2.993   8.971  0.7476 -0.5901  0.7077
  103OSM   H15G10523   4.908   2.894   9.047 -0.3321 -1.6973 -0.6191
  103OSM   C16F10524   4.921   2.860   8.839 -0.5029 -0.0868 -0.1634
  103OSM   H16F10525   4.863   2.766   8.849 -1.0762  0.6343  4.8023
  103OSM   H16G10526   4.997   2.826   8.767  0.4299 -0.6659  1.0758
  103OSM   C17F10527   4.844   2.983   8.780 -0.0481 -0.2223 -0.3652
  103OSM   H17F10528   4.907   3.073   8.768  1.1738 -0.8943  0.7970
  103OSM   H17G10529   4.772   3.010   8.860  0.9031  0.1505  0.3824
  103OSM   C18F10530   4.771   2.949   8.648 -0.3362  0.0215  1.0154
  103OSM   H18F10531   4.724   2.849   8.654  0.6593 -0.5297 -0.0557
  103OSM   H18G10532   4.837   2.959   8.558  0.6446 -1.9912  1.4808
  103OSM   H18H10533   4.688   3.016   8.619 -1.2610 -1.2890  0.6098
  104OSM      N10534   2.060   0.926  10.583  0.0482  0.3935  0.1643
  104OSM    C1510535   1.938   0.851  10.622  0.1230 -0.5942 -0.8147
  104OSM   H15A10536   1.865   0.865  10.544  0.2615  2.2452 -0.4930
  104OSM   H15B10537   1.894   0.894  10.711  1.7587  1.1238 -0.7915
  104OSM   H15C10538   1.966   0.748  10.635 -0.6943 -0.5966  1.0686
  104OSM    C1410539   2.096   0.895  10.446 -0.5651  0.1422 -0.2689
  104OSM   H14A10540   2.015   0.905  10.375  0.0915 -0.4763 -1.1232
  104OSM   H14B10541   2.139   0.798  10.425 -2.1343 -0.8196  0.8776
  104OSM   H14C10542   2.165   0.968  10.407  1.8067 -0.8384  1.9077
  104OSM    C1310543   2.021   1.077  10.600  0.3744  0.1511  0.4944
  104OSM   H13A10544   1.953   1.112  10.523  2.6887  2.8902 -0.3845
  104OSM   H13B10545   2.112   1.134  10.602  1.4102 -1.4340 -0.2732
  104OSM   H13C10546   1.974   1.086  10.697  3.0934  1.0505  1.7638
  104OSM    C1210547   2.171   0.889  10.672  0.0633  0.4232  0.3379
  104OSM   H12A10548   2.197   0.786  10.651 -1.1858 -0.3629  2.4329
  104OSM   H12B10549   2.134   0.901  10.773 -0.4797  5.2203 -0.3263
  104OSM    C1110550   2.306   0.966  10.641 -1.0087 -0.3811  0.2392
  104OSM   H11A10551   2.322   0.944  10.534 -0.2429 -0.1249  0.2932
  104OSM   H11B10552   2.381   0.910  10.701 -1.6762 -0.8874  0.6063
  104OSM      P10553   2.413   1.205  10.627 -0.3005  0.6205 -0.2669
  104OSM    O1310554   2.382   1.333  10.691 -0.3353  0.2929 -0.4196
  104OSM    O1410555   2.543   1.147  10.665 -0.8042 -0.0379 -0.0033
  104OSM    O1110556   2.400   1.220  10.468 -0.1121  0.3041 -0.2525
  104OSM    O1210557   2.300   1.107  10.667  0.2573  0.0486  0.1196
  104OSM    C1S10558   2.283   1.261  10.400 -0.4964 -0.0864 -0.0516
  104OSM    H1S10559   2.234   1.346  10.452 -0.5818  0.8394 -1.5927
  104OSM    H1T10560   2.202   1.187  10.383 -1.9833  1.6587 -0.7796
  104OSM     NF10561   2.226   1.401  10.204  0.2190  0.4295 -0.3952
  104OSM    HNF10562   2.164   1.353  10.143 -1.2934  1.9816 -0.1300
  104OSM    C2S10563   2.325   1.307  10.263  0.0551  0.4653  0.2934
  104OSM    H2S10564   2.411   1.377  10.273 -0.5409  0.9593  2.0771
  104OSM    C3S10565   2.354   1.189  10.164 -0.1938  0.0462 -0.2915
  104OSM    H3S10566   2.269   1.117  10.163  0.2927 -0.5525  0.4751
  104OSM     O310567   2.467   1.113  10.219  0.4599 -0.7411  0.2930
  104OSM    HO310568   2.484   1.143  10.309  1.0121 -0.0105 -0.0467
  104OSM    C4S10569   2.372   1.244  10.026 -0.1862 -0.5244  0.1338
  104OSM    H4S10570   2.274   1.256   9.978 -0.9830  0.3418  1.9443
  104OSM    C5S10571   2.490   1.283   9.965  0.0332  0.4551  0.1969
  104OSM    H5S10572   2.587   1.249  10.007 -0.0800 -1.4755 -1.0143
  104OSM    C6S10573   2.500   1.332   9.821 -0.5911 -0.2526 -0.0243
  104OSM    H6S10574   2.599   1.298   9.785  0.9335  0.9173  2.9063
  104OSM    H6T10575   2.501   1.442   9.808 -0.9201 -0.4267 -1.6154
  104OSM    C7S10576   2.420   1.275   9.704 -0.0217  0.2973  0.2888
  104OSM    H7S10577   2.450   1.319   9.607 -0.4277  1.6785  0.7833
  104OSM    H7T10578   2.319   1.321   9.716  0.2698  1.4641 -1.5410
  104OSM    C8S10579   2.428   1.119   9.688  0.3072  0.4043 -0.1609
  104OSM    H8S10580   2.402   1.080   9.789 -0.2300  0.1967 -0.3737
  104OSM    H8T10581   2.529   1.080   9.665  0.1191 -1.9938  2.7188
  104OSM    C9S10582   2.319   1.087   9.593 -1.0792  1.2190  0.6581
  104OSM    H9S10583   2.248   1.170   9.574 -1.4890  0.5972 -0.6013
  104OSM    H9T10584   2.267   0.994   9.627  1.7371 -1.2371 -1.4215
  104OSM   C10S10585   2.370   1.056   9.445  0.2708  0.0556 -0.2484
  104OSM   H10S10586   2.466   1.000   9.451  0.1484 -0.2516 -1.1689
  104OSM   H10T10587   2.402   1.158   9.411  1.1275  0.3717  1.4511
  104OSM   C11S10588   2.280   0.982   9.343 -0.1778 -0.1287 -0.1251
  104OSM   H11S10589   2.176   1.016   9.363 -0.3283  0.1198 -1.2812
  104OSM   H11T10590   2.286   0.877   9.378  2.1200  0.2816  0.8597
  104OSM   C12S10591   2.316   1.013   9.202 -0.6540  0.0454 -0.1129
  104OSM   H12S10592   2.421   0.984   9.184 -0.0681  2.0911 -0.1313
  104OSM   H12T10593   2.324   1.123   9.186  1.2606 -0.2199 -1.1141
  104OSM   C13S10594   2.220   0.955   9.104  0.1681 -0.0490  1.0466
  104OSM   H13S10595   2.119   0.988   9.138 -1.4182  0.0353 -3.4630
  104OSM   H13T10596   2.229   0.845   9.092  0.8685  0.0118  0.9818
  104OSM   C14S10597   2.244   1.018   8.966  0.4793 -0.8402  0.4377
  104OSM   H14S10598   2.347   0.995   8.930  0.6586  1.6461 -0.7084
  104OSM   H14T10599   2.238   1.128   8.979 -0.5787 -0.5945 -1.9410
  104OSM   C15S10600   2.143   0.982   8.859 -0.1343  0.2079  0.7961
  104OSM   H15S10601   2.040   1.000   8.898 -0.8898  1.3583 -1.6193
  104OSM   H15T10602   2.161   0.875   8.836  3.3740  0.1148  3.4617
  104OSM   C16S10603   2.164   1.061   8.731 -0.9629  0.0576  0.6812
  104OSM   H16S10604   2.273   1.060   8.710 -0.8640 -0.2965  1.1776
  104OSM   H16T10605   2.145   1.168   8.753  1.6906  0.3492  1.8634
  104OSM   C17S10606   2.082   1.005   8.620 -0.5519 -0.1493  0.1475
  104OSM   H17S10607   1.985   1.059   8.620 -0.9531 -0.8623  0.4148
  104OSM   H17T10608   2.067   0.897   8.644  1.5520  0.0714  2.7207
  104OSM   C18S10609   2.155   1.018   8.485  0.1748 -0.5833 -0.2014
  104OSM   H18S10610   2.177   1.125   8.471  0.7472 -0.7961 -0.9492
  104OSM   H18T10611   2.105   0.967   8.400 -0.4965 -1.4082  0.6610
  104OSM   H18U10612   2.254   0.970   8.501  0.4068  0.3230  1.1543
  104OSM    C1F10613   2.200   1.529  10.253  0.3155 -0.2612 -0.1680
  104OSM     OF10614   2.288   1.587  10.319 -0.2092 -0.4298 -0.0163
  104OSM    C2F10615   2.074   1.596  10.224  0.0039  0.9051 -0.2769
  104OSM    H2F10616   2.026   1.634  10.317  1.1935 -0.6560  1.0163
  104OSM    H2G10617   2.011   1.509  10.194 -0.5760  0.7132  1.4181
  104OSM    C3F10618   2.087   1.699  10.111  0.0737 -0.0382  0.0712
  104OSM    H3F10619   2.148   1.787  10.141  0.3163 -0.6949  1.5502
  104OSM    H3G10620   1.983   1.737  10.102  1.1252  2.6005 -1.8988
  104OSM    C4F10621   2.140   1.633   9.981  0.5222 -1.0484  0.3170
  104OSM    H4F10622   2.141   1.523   9.997  1.6197 -0.9979  0.6685
  104OSM    H4G10623   2.241   1.674   9.956  0.2777 -1.5964 -1.7011
  104OSM    C5F10624   2.055   1.666   9.855  0.1048  0.4094  0.6365
  104OSM    H5F10625   2.040   1.774   9.830  0.8343 -0.0310 -1.8540
  104OSM    H5G10626   1.951   1.631   9.871  0.2502 -0.0056  0.6827
  104OSM    C6F10627   2.101   1.592   9.725 -0.1067  0.3720  0.6666
  104OSM    H6F10628   2.121   1.483   9.735  0.8686  0.5387  0.6329
  104OSM    H6G10629   2.199   1.634   9.694 -0.1585 -0.0419 -0.0638
  104OSM    C7F10630   2.007   1.612   9.604  0.4539  0.2257 -0.9116
  104OSM    H7F10631   1.963   1.714   9.599  1.8774  1.1189  2.8475
  104OSM    H7G10632   1.923   1.541   9.623  3.1244 -2.8524 -0.0532
  104OSM    C8F10633   2.059   1.590   9.467 -0.1079  0.0333 -0.1926
  104OSM    H8F10634   2.140   1.658   9.435 -0.4218  0.6553  0.3288
  104OSM    H8G10635   1.974   1.602   9.397 -0.3764  0.5273  0.2218
  104OSM    C9F10636   2.120   1.448   9.456  0.2018 -0.2975 -0.4414
  104OSM    H9F10637   2.207   1.436   9.522 -0.6671 -0.2642  0.7183
  104OSM   C10F10638   2.077   1.347   9.384 -0.2675 -0.4077  0.2732
  104OSM   H10F10639   2.129   1.250   9.393  1.9534  0.6548 -0.9131
  104OSM   C11F10640   1.955   1.342   9.298  0.4998  0.7242  0.1081
  104OSM   H11F10641   1.884   1.427   9.313  0.5222  0.9514 -1.0274
  104OSM   H11G10642   1.901   1.248   9.325  2.2285 -0.2143  0.3206
  104OSM   C12F10643   2.006   1.327   9.155  0.4144 -0.1861 -0.5692
  104OSM   H12F10644   2.084   1.249   9.141  1.0066  0.7118 -2.3074
  104OSM   H12G10645   2.044   1.428   9.129  2.3853 -0.0382  2.5522
  104OSM   C13F10646   1.890   1.300   9.071  0.8515 -0.3836 -0.0780
  104OSM   H13F10647   1.810   1.371   9.101  1.4096 -0.0656  0.6888
  104OSM   H13G10648   1.840   1.202   9.087 -0.5106  0.3209  0.0564
  104OSM   C14F10649   1.921   1.318   8.918  0.8984  0.2556  0.0163
  104OSM   H14F10650   2.026   1.283   8.904  0.8879 -0.8155  2.3107
  104OSM   H14G10651   1.916   1.426   8.894 -0.3710 -0.1024 -1.3897
  104OSM   C15F10652   1.828   1.239   8.823 -0.2948 -0.4423 -0.4173
  104OSM   H15F10653   1.841   1.130   8.841 -0.5875 -0.7500 -1.9771
  104OSM   H15G10654   1.857   1.268   8.719  1.5623  0.1310  0.2347
  104OSM   C16F10655   1.684   1.276   8.844 -0.1219  0.0667  0.5859
  104OSM   H16F10656   1.654   1.379   8.814 -1.8184  0.3513  3.0588
  104OSM   H16G10657   1.670   1.260   8.954  0.2231  0.8877  0.7529
  104OSM   C17F10658   1.595   1.181   8.772 -0.1066  0.6882 -0.2272
  104OSM   H17F10659   1.635   1.078   8.784 -1.0582  0.5270  1.6684
  104OSM   H17G10660   1.598   1.202   8.663 -0.3823  0.4104 -0.2866
  104OSM   C18F10661   1.448   1.171   8.823  0.0869  0.5860 -0.1461
  104OSM   H18F10662   1.378   1.160   8.737 -0.1000 -1.6431  0.2449
  104OSM   H18G10663   1.420   1.272   8.861 -0.9181  0.1278  0.3675
  104OSM   H18H10664   1.427   1.089   8.895  5.3041  1.1480  2.2295
  105OSM      N10665   3.105   0.519  10.702 -0.1288 -0.6501 -0.1472
  105OSM    C1510666   3.204   0.467  10.613 -0.3388 -0.2077  0.8883
  105OSM   H15A10667   3.284   0.413  10.661  1.6450  0.0796 -1.9277
  105OSM   H15B10668   3.259   0.538  10.553 -1.4054 -0.6363 -0.6472
  105OSM   H15C10669   3.173   0.385  10.550 -0.2696  0.1775  0.3434
  105OSM    C1410670   3.050   0.422  10.800  0.5184  0.1617  0.5939
  105OSM   H14A10671   2.985   0.470  10.872 -0.5324 -1.2113  0.5684
  105OSM   H14B10672   3.135   0.375  10.847  0.6040  0.2501  0.5289
  105OSM   H14C10673   3.002   0.344  10.744 -1.3411  0.5432  1.6025
  105OSM    C1310674   3.171   0.629  10.779 -0.1462  0.0893 -0.6145
  105OSM   H13A10675   3.094   0.677  10.838 -0.4477 -3.3250  1.9298
  105OSM   H13B10676   3.222   0.695  10.710 -0.3528  0.0469 -0.8071
  105OSM   H13C10677   3.250   0.605  10.849  0.4655  1.6968 -0.7098
  105OSM    C1210678   2.987   0.577  10.631  0.2161  0.2118 -0.7257
  105OSM   H12A10679   2.919   0.619  10.703 -0.2896  1.5208 -1.9396
  105OSM   H12B10680   2.943   0.495  10.577  1.9367  0.1820 -2.1488
  105OSM    C1110681   3.013   0.703  10.543 -0.1548 -0.3721 -0.1624
  105OSM   H11A10682   2.933   0.720  10.467  1.6801 -0.7326 -2.2166
  105OSM   H11B10683   3.106   0.686  10.485 -0.1739  1.7233 -0.8621
  105OSM      P10684   2.912   0.888  10.693  0.0725 -0.0472  0.2647
  105OSM    O1310685   2.867   0.815  10.815  0.2537 -0.1968 -0.8341
  105OSM    O1410686   2.939   1.032  10.709  0.4875  0.1447 -0.3507
  105OSM    O1110687   2.795   0.878  10.588 -0.0019  0.2005 -0.2432
  105OSM    O1210688   3.031   0.821  10.625  0.0507 -0.6777  0.5487
  105OSM    C1S10689   2.766   0.964  10.479  1.1100  0.2658 -0.9743
  105OSM    H1S10690   2.862   1.011  10.451  0.7862  0.9588 -0.9439
  105OSM    H1T10691   2.696   1.046  10.508  0.4871 -0.9872  1.2056
  105OSM     NF10692   2.721   0.930  10.234 -0.0020 -0.0229 -0.4659
  105OSM    HNF10693   2.637   0.970  10.197  0.6994  2.6646  0.7000
  105OSM    C2S10694   2.709   0.872  10.367 -0.1172 -0.0796  0.7777
  105OSM    H2S10695   2.772   0.780  10.363  2.6827  1.7064  2.4755
  105OSM    C3S10696   2.565   0.840  10.411  0.6902 -0.4216 -0.2914
  105OSM    H3S10697   2.510   0.936  10.420  0.4498 -0.7393  2.1360
  105OSM     O310698   2.546   0.776  10.538  0.1953  0.5182 -0.3467
  105OSM    HO310699   2.635   0.774  10.575 -0.6981  0.6503  1.8928
  105OSM    C4S10700   2.481   0.761  10.306  0.2965  0.1358  0.2153
  105OSM    H4S10701   2.528   0.668  10.272 -1.1603  0.3004 -2.3379
  105OSM    C5S10702   2.360   0.797  10.253  0.7111 -0.2377 -0.3382
  105OSM    H5S10703   2.319   0.890  10.293 -2.3257 -1.2882 -0.8745
  105OSM    C6S10704   2.278   0.719  10.152 -0.3553  0.0815  0.3717
  105OSM    H6S10705   2.179   0.693  10.196 -1.0256 -0.2204 -1.3008
  105OSM    H6T10706   2.329   0.622  10.138 -0.7879 -0.1302  0.2509
  105OSM    C7S10707   2.260   0.777  10.015 -0.3843  0.6652 -0.0738
  105OSM    H7S10708   2.357   0.808   9.972  1.9483 -0.7851  3.9127
  105OSM    H7T10709   2.198   0.868  10.028 -3.6912 -1.8694  3.0430
  105OSM    C8S10710   2.198   0.676   9.922  0.5537 -0.0282  0.0191
  105OSM    H8S10711   2.091   0.656   9.941  0.4148  0.0993 -0.6108
  105OSM    H8T10712   2.263   0.588   9.903 -0.9449 -1.2737  0.6126
  105OSM    C9S10713   2.187   0.716   9.772 -0.3605 -0.2783 -0.0904
  105OSM    H9S10714   2.286   0.755   9.741 -0.5571  0.8622  0.7083
  105OSM    H9T10715   2.113   0.799   9.764  0.5212  0.4332 -0.9254
  105OSM   C10S10716   2.143   0.598   9.677  0.9265 -0.6353 -0.8932
  105OSM   H10S10717   2.038   0.571   9.701  1.0037 -0.8097 -0.7438
  105OSM   H10T10718   2.208   0.510   9.698  0.8163 -0.4343  0.3022
  105OSM   C11S10719   2.139   0.636   9.523  0.2058 -0.5362 -1.2866
  105OSM   H11S10720   2.239   0.674   9.494  1.0609  0.3666  2.5806
  105OSM   H11T10721   2.061   0.715   9.515  0.3173 -0.4885 -1.9098
  105OSM   C12S10722   2.096   0.520   9.437  0.0533  0.0604  0.1934
  105OSM   H12S10723   2.000   0.478   9.476 -0.1874  0.3791 -0.0535
  105OSM   H12T10724   2.163   0.432   9.445 -1.0916 -1.0332 -1.7898
  105OSM   C13S10725   2.077   0.560   9.285 -0.7833  0.1038  0.2326
  105OSM   H13S10726   2.182   0.580   9.255 -1.1975  0.6338 -0.8615
  105OSM   H13T10727   2.004   0.641   9.266  0.7592  1.4984  0.1451
  105OSM   C14S10728   2.026   0.433   9.205 -0.4459 -0.1134  0.3916
  105OSM   H14S10729   1.923   0.422   9.244 -0.9058  0.4367 -0.6400
  105OSM   H14T10730   2.084   0.341   9.226  0.9038  0.0284 -2.4466
  105OSM   C15S10731   2.032   0.461   9.053 -0.1151 -0.0855  0.3176
  105OSM   H15S10732   1.994   0.379   8.988  0.0569  0.6438 -0.7250
  105OSM   H15T10733   2.138   0.484   9.030 -0.0441  0.7872  1.4467
  105OSM   C16S10734   1.956   0.592   9.001 -0.5932 -0.1994  0.1319
  105OSM   H16S10735   2.027   0.676   8.983  0.0818 -0.4601  1.5204
  105OSM   H16T10736   1.879   0.615   9.078  0.1733  0.3991  0.7317
  105OSM   C17S10737   1.882   0.564   8.872 -0.0070  0.4709  0.1202
  105OSM   H17S10738   1.821   0.471   8.881  0.0719  0.4346  0.2738
  105OSM   H17T10739   1.961   0.552   8.795  0.1490  0.1228  0.3363
  105OSM   C18S10740   1.776   0.672   8.839 -0.6876  0.4847  0.3244
  105OSM   H18S10741   1.725   0.650   8.742 -0.4538  3.0195 -0.4331
  105OSM   H18T10742   1.826   0.768   8.816  0.4226 -0.2779 -0.4700
  105OSM   H18U10743   1.706   0.679   8.925 -1.3277  0.3814 -0.1857
  105OSM    C1F10744   2.841   0.942  10.173 -0.3270 -0.2105 -0.1500
  105OSM     OF10745   2.945   0.908  10.231  0.2536  0.0658  0.5091
  105OSM    C2F10746   2.845   0.990  10.033  0.1204 -0.1349  0.6565
  105OSM    H2F10747   2.816   1.098  10.033  1.0338  0.1273 -1.7554
  105OSM    H2G10748   2.772   0.929   9.977  0.1023  0.4140  0.0783
  105OSM    C3F10749   2.991   0.969   9.975  0.4028 -0.7897  0.3693
  105OSM    H3F10750   3.028   0.865   9.987  1.0265 -0.8063 -1.5514
  105OSM    H3G10751   3.063   1.045  10.013 -1.0376  0.8887 -0.2168
  105OSM    C4F10752   2.976   0.988   9.822 -0.1794 -0.7650 -0.1049
  105OSM    H4F10753   2.911   0.909   9.779 -1.9002  1.0275 -0.9115
  105OSM    H4G10754   3.078   0.977   9.779 -0.8202 -2.0541 -1.3211
  105OSM    C5F10755   2.899   1.120   9.798  0.5654 -0.1327 -0.4851
  105OSM    H5F10756   2.929   1.202   9.866 -0.0009 -0.2711 -0.0666
  105OSM    H5G10757   2.795   1.094   9.828  0.4060  2.1466  1.0982
  105OSM    C6F10758   2.908   1.172   9.650  0.7231 -0.0468  0.7254
  105OSM    H6F10759   2.991   1.129   9.591  0.8075  0.5047  0.4425
  105OSM    H6G10760   2.941   1.277   9.661 -1.1100  0.4116  2.1210
  105OSM    C7F10761   2.781   1.160   9.564 -0.3835  0.0729 -1.0731
  105OSM    H7F10762   2.690   1.211   9.601  0.5075  0.2017  0.9966
  105OSM    H7G10763   2.754   1.052   9.561 -0.4728 -0.0247  1.7098
  105OSM    C8F10764   2.814   1.220   9.422  0.3348  0.1222 -0.7826
  105OSM    H8F10765   2.904   1.169   9.382  0.3758 -1.5524  1.3541
  105OSM    H8G10766   2.839   1.328   9.429  0.2796  0.0714  0.2773
  105OSM    C9F10767   2.694   1.203   9.331  0.0967  0.7310 -0.3778
  105OSM    H9F10768   2.616   1.279   9.343 -0.6542  0.0241 -0.8063
  105OSM   C10F10769   2.667   1.105   9.240 -0.3369 -0.2853 -0.6640
  105OSM   H10F10770   2.573   1.094   9.184 -1.9540  1.7941  1.5269
  105OSM   C11F10771   2.757   0.983   9.203  0.6201  0.3188 -0.2153
  105OSM   H11F10772   2.702   0.887   9.191  2.1403 -0.4753 -0.8765
  105OSM   H11G10773   2.826   0.961   9.287  2.6765  0.0143 -1.9345
  105OSM   C12F10774   2.845   1.002   9.075 -0.6443 -0.1984  0.0506
  105OSM   H12F10775   2.922   0.922   9.065 -0.6691 -0.5158  2.0790
  105OSM   H12G10776   2.914   1.088   9.089  0.8439 -1.3767  0.1869
  105OSM   C13F10777   2.762   1.032   8.948  0.2405  0.2145  1.2229
  105OSM   H13F10778   2.766   1.143   8.939 -1.9434  0.2705  0.8006
  105OSM   H13G10779   2.658   1.008   8.978  0.6546  0.5828  3.0359
  105OSM   C14F10780   2.797   0.946   8.828 -0.7434  0.5779  0.1030
  105OSM   H14F10781   2.734   0.983   8.744 -1.2456  0.1349  0.2783
  105OSM   H14G10782   2.766   0.843   8.854 -2.4746  1.0190 -0.1806
  105OSM   C15F10783   2.944   0.956   8.790 -0.3518  0.5022  0.6003
  105OSM   H15F10784   2.972   0.885   8.709 -2.7175 -1.8147  1.7566
  105OSM   H15G10785   3.009   0.931   8.877 -0.6111 -1.5063  0.2404
  105OSM   C16F10786   2.985   1.099   8.747 -0.0516  0.4033  0.1745
  105OSM   H16F10787   2.961   1.160   8.837  0.8309 -1.2023  1.5382
  105OSM   H16G10788   2.927   1.129   8.658 -1.3340  0.1551  0.9194
  105OSM   C17F10789   3.132   1.125   8.702 -0.0679 -0.1514 -0.6158
  105OSM   H17F10790   3.157   1.053   8.622  3.8286 -0.2929  0.6231
  105OSM   H17G10791   3.202   1.085   8.778  1.0056 -1.0360 -2.0625
  105OSM   C18F10792   3.156   1.274   8.665  1.2328 -0.0995  0.1993
  105OSM   H18F10793   3.080   1.300   8.588  1.9072 -1.0636 -0.8187
  105OSM   H18G10794   3.261   1.281   8.629  0.5175  0.6429 -1.7966
  105OSM   H18H10795   3.148   1.339   8.754  1.6524 -1.5040  1.2797
  106OSM      N10796   4.022   5.286  10.779  0.1546  0.0318  0.2895
  106OSM    C1510797   3.922   5.256  10.881 -0.0394  0.1844 -0.6535
  106OSM   H15A10798   3.938   5.157  10.921 -1.1748  0.1046 -0.3807
  106OSM   H15B10799   3.819   5.273  10.854 -0.3729  3.4711  2.3290
  106OSM   H15C10800   3.931   5.333  10.956 -0.4882  0.3886 -0.8093
  106OSM    C1410801   4.153   5.319  10.845  0.0776 -0.6821 -0.1945
  106OSM   H14A10802   4.135   5.390  10.924  0.9543 -2.3527  1.5539
  106OSM   H14B10803   4.219   5.364  10.772 -2.0748  1.8302 -0.6631
  106OSM   H14C10804   4.199   5.231  10.888  2.5203  0.4394 -0.4454
  106OSM    C1310805   4.045   5.173  10.686 -0.6368  0.2146  0.2405
  106OSM   H13A10806   3.962   5.139  10.626 -0.2773 -1.0863  0.4748
  106OSM   H13B10807   4.087   5.089  10.738 -1.6174 -1.6808 -1.9559
  106OSM   H13C10808   4.120   5.210  10.617 -0.5349 -1.7339 -0.7414
  106OSM    C1210809   3.978   5.405  10.702  0.8380  0.3755  0.2266
  106OSM   H12A10810   3.893   5.377  10.642  0.7440  2.0826 -0.4718
  106OSM   H12B10811   4.056   5.437  10.633  0.3199 -0.4257 -0.7407
  106OSM    C1110812   3.922   5.534  10.770 -0.3082  0.3421  0.3119
  106OSM   H11A10813   3.905   5.606  10.687 -3.1464 -0.0966  0.4462
  106OSM   H11B10814   4.005   5.570  10.835 -0.3420 -0.6051  0.8867
  106OSM      P10815   3.666   5.499  10.756 -0.0739 -0.2783  0.2311
  106OSM    O1310816   3.571   5.403  10.822  0.2341  0.1282  0.6478
  106OSM    O1410817   3.611   5.634  10.729 -0.2061  0.9489  0.2392
  106OSM    O1110818   3.724   5.441  10.617  0.1115 -0.9277 -0.6505
  106OSM    O1210819   3.801   5.513  10.847  0.2026 -0.0295 -0.6826
  106OSM    C1S10820   3.667   5.475  10.489 -0.4106  0.3563  0.5230
  106OSM    H1S10821   3.684   5.583  10.469 -2.4872  0.3596 -1.4637
  106OSM    H1T10822   3.556   5.471  10.481 -0.3279 -1.6437  0.3211
  106OSM     NF10823   3.707   5.462  10.244 -0.4483  0.1834 -0.5165
  106OSM    HNF10824   3.631   5.409  10.207  0.8336 -2.9901  1.1476
  106OSM    C2S10825   3.740   5.404  10.376 -0.3512  0.4050  0.5938
  106OSM    H2S10826   3.845   5.436  10.395  0.0795  1.0169 -2.5626
  106OSM    C3S10827   3.730   5.248  10.389  0.0684 -0.2253  0.4094
  106OSM    H3S10828   3.624   5.216  10.377  0.2430 -0.3217 -0.8858
  106OSM     O310829   3.780   5.199  10.515 -0.9126  0.1454 -0.2956
  106OSM    HO310830   3.728   5.255  10.573 -0.9807 -1.2255  1.0014
  106OSM    C4S10831   3.801   5.184  10.272  0.0894  0.0981  1.2256
  106OSM    H4S10832   3.908   5.205  10.269 -0.3111  2.0583 -0.6031
  106OSM    C5S10833   3.747   5.104  10.179  0.1881 -0.1175 -0.2670
  106OSM    H5S10834   3.639   5.084  10.182 -0.1838  1.7375 -0.6583
  106OSM    C6S10835   3.813   5.033  10.069 -0.3491  0.2367 -0.4790
  106OSM    H6S10836   3.853   4.931  10.090  0.0821  0.0737 -2.0486
  106OSM    H6T10837   3.898   5.095  10.033 -1.3820  1.8576 -0.1772
  106OSM    C7S10838   3.713   5.026   9.950  0.0977  0.6581  0.2503
  106OSM    H7S10839   3.657   5.122   9.955 -0.7743  0.0877  1.7026
  106OSM    H7T10840   3.628   4.956   9.963 -0.0216  0.6221 -0.6633
  106OSM    C8S10841   3.780   5.007   9.819 -0.2977 -0.6688  0.3350
  106OSM    H8S10842   3.846   4.918   9.834 -0.2308 -0.4868  1.1457
  106OSM    H8T10843   3.853   5.090   9.810  0.3590 -1.4872 -2.3313
  106OSM    C9S10844   3.680   4.991   9.703 -0.0298  0.3028  0.0367
  106OSM    H9S10845   3.613   5.079   9.696  0.4844  0.6115 -1.1210
  106OSM    H9T10846   3.613   4.903   9.707  0.9569 -0.4256  0.8365
  106OSM   C10S10847   3.747   4.977   9.565  0.0369  0.1103 -1.1341
  106OSM   H10S10848   3.820   4.894   9.566  2.0411  1.8198  1.1836
  106OSM   H10T10849   3.808   5.069   9.553  0.9437 -0.5423 -1.5607
  106OSM   C11S10850   3.644   4.972   9.451 -0.0026 -0.3819  0.1706
  106OSM   H11S10851   3.567   5.051   9.464  0.3769 -0.1584  1.0497
  106OSM   H11T10852   3.594   4.873   9.462 -0.3502  0.0627  3.0336
  106OSM   C12S10853   3.706   4.988   9.314  0.0498  0.8202  0.3726
  106OSM   H12S10854   3.764   4.897   9.287  0.6710  1.0763  0.8251
  106OSM   H12T10855   3.783   5.068   9.303  0.5377  0.4404  0.9685
  106OSM   C13S10856   3.607   4.998   9.197 -0.1705  0.2811  0.1706
  106OSM   H13S10857   3.543   5.087   9.220  0.1241  0.6904 -0.5657
  106OSM   H13T10858   3.545   4.907   9.185  0.9093 -0.6711  1.6372
  106OSM   C14S10859   3.673   5.028   9.053 -0.0658  0.6004 -0.2371
  106OSM   H14S10860   3.736   4.938   9.038 -2.2918 -1.0623  0.0806
  106OSM   H14T10861   3.735   5.120   9.058  2.1425 -0.9095  0.7346
  106OSM   C15S10862   3.561   5.032   8.947 -0.1021  0.4067 -0.3726
  106OSM   H15S10863   3.465   5.062   8.995 -0.5013  1.6073 -1.8894
  106OSM   H15T10864   3.535   4.937   8.894  0.2414  0.2987 -0.3449
  106OSM   C16S10865   3.580   5.139   8.839 -0.0572  0.1147  1.0678
  106OSM   H16S10866   3.506   5.125   8.757  0.1364  1.2417  0.6885
  106OSM   H16T10867   3.679   5.136   8.787 -0.6752  0.8766 -0.1846
  106OSM   C17S10868   3.552   5.291   8.878  0.1543 -0.9756  0.1974
  106OSM   H17S10869   3.565   5.354   8.787 -2.9820 -2.2852 -1.2068
  106OSM   H17T10870   3.636   5.309   8.949  2.1867 -1.7916 -1.9306
  106OSM   C18S10871   3.415   5.325   8.939  0.1362 -0.1474  0.3323
  106OSM   H18S10872   3.412   5.434   8.960 -2.8953 -0.1491  0.1103
  106OSM   H18T10873   3.384   5.275   9.033  1.2027 -0.4298  0.5376
  106OSM   H18U10874   3.334   5.303   8.867  0.1726 -0.9423  0.5194
  106OSM    C1F10875   3.730   5.584  10.200  0.3717  0.4989  0.3693
  106OSM     OF10876   3.803   5.655  10.262  0.0375 -0.0355  0.3017
  106OSM    C2F10877   3.636   5.639  10.087 -0.3376 -0.0802 -0.5219
  106OSM    H2F10878   3.602   5.738  10.124  2.8938  1.0124 -0.3205
  106OSM    H2G10879   3.556   5.565  10.066 -1.2250  0.8089 -0.2938
  106OSM    C3F10880   3.703   5.679   9.955 -0.6810  0.3943  0.6373
  106OSM    H3F10881   3.777   5.609   9.911 -0.2234  1.6491 -0.6088
  106OSM    H3G10882   3.760   5.770   9.980  0.5226  0.1970 -1.3140
  106OSM    C4F10883   3.602   5.740   9.849  0.4016 -0.1232  0.9091
  106OSM    H4F10884   3.549   5.826   9.895 -1.7794 -1.2459  0.5620
  106OSM    H4G10885   3.528   5.661   9.823  0.2773 -0.2388  1.6042
  106OSM    C5F10886   3.678   5.783   9.718  0.0699  0.3194 -0.1570
  106OSM    H5F10887   3.737   5.699   9.675 -1.2355 -0.2308 -0.9205
  106OSM    H5G10888   3.743   5.872   9.731 -0.1050  0.4778 -0.3577
  106OSM    C6F10889   3.576   5.834   9.612  0.3310  0.5564  0.2099
  106OSM    H6F10890   3.626   5.902   9.540  2.6599 -2.2751 -0.9682
  106OSM    H6G10891   3.494   5.890   9.662  1.3170  1.4907  0.7801
  106OSM    C7F10892   3.492   5.724   9.554  0.1650 -0.5385  0.3362
  106OSM    H7F10893   3.432   5.676   9.634 -0.1469 -1.1328 -0.2436
  106OSM    H7G10894   3.555   5.646   9.506  0.7718 -0.2502  0.6633
  106OSM    C8F10895   3.412   5.785   9.437  0.5947  0.7521 -0.1218
  106OSM    H8F10896   3.349   5.867   9.477 -2.0552 -0.0621 -2.4726
  106OSM    H8G10897   3.351   5.698   9.404 -1.0291  1.6228  0.5627
  106OSM    C9F10898   3.483   5.819   9.305  0.3027  0.7941 -0.0200
  106OSM    H9F10899   3.577   5.767   9.282 -0.0900  0.9214 -2.0568
  106OSM   C10F10900   3.438   5.905   9.214  0.2517  0.2396 -0.5809
  106OSM   H10F10901   3.495   5.923   9.122  0.7683  1.1666 -0.0842
  106OSM   C11F10902   3.308   5.981   9.217  0.1958  0.0213 -0.4219
  106OSM   H11F10903   3.336   6.088   9.222 -0.1099  0.1923 -1.9406
  106OSM   H11G10904   3.247   5.957   9.307  1.2170 -0.6648  0.0976
  106OSM   C12F10905   3.206   5.954   9.107 -0.4400  0.0437 -0.4082
  106OSM   H12F10906   3.260   5.958   9.010 -0.0093  1.4694 -0.1169
  106OSM   H12G10907   3.136   6.040   9.109 -1.0144 -0.3682 -1.8725
  106OSM   C13F10908   3.133   5.824   9.108 -0.6152 -0.0391 -0.2673
  106OSM   H13F10909   3.061   5.816   9.193 -0.2696 -1.2039 -0.0700
  106OSM   H13G10910   3.188   5.730   9.131 -1.6045 -0.1372  1.8446
  106OSM   C14F10911   3.065   5.798   8.969 -0.5126 -0.4458 -0.2510
  106OSM   H14F10912   3.126   5.854   8.896 -0.0089 -0.9062 -0.1852
  106OSM   H14G10913   2.962   5.840   8.974  0.8119  2.9807 -0.2964
  106OSM   C15F10914   3.069   5.643   8.941  0.8103  0.9084  0.2829
  106OSM   H15F10915   3.172   5.606   8.922 -0.5523 -2.6505 -0.6438
  106OSM   H15G10916   3.013   5.630   8.846 -0.4566  1.6533  0.9242
  106OSM   C16F10917   2.992   5.562   9.048 -0.3322  0.7067 -0.3703
  106OSM   H16F10918   3.043   5.576   9.146 -1.0670 -0.2981  0.1611
  106OSM   H16G10919   2.987   5.451   9.035 -0.3380  0.7589 -0.8166
  106OSM   C17F10920   2.844   5.611   9.069 -0.3334 -0.0473 -0.3979
  106OSM   H17F10921   2.784   5.616   8.976  0.7547  0.7234 -1.0650
  106OSM   H17G10922   2.849   5.718   9.099  1.7366 -0.1113 -0.4586
  106OSM   C18F10923   2.762   5.537   9.177 -0.1611  0.3124 -0.3954
  106OSM   H18F10924   2.791   5.567   9.280 -1.1824 -0.6226  0.1818
  106OSM   H18G10925   2.772   5.426   9.171 -1.5346  0.2368 -1.6494
  106OSM   H18H10926   2.657   5.572   9.175 -0.3309 -0.2529 -2.0159
  107OSM      N10927   3.882   3.759  10.870 -1.0307  0.1366 -0.1051
  107OSM    C1510928   3.853   3.678  10.994 -0.2100  0.1016 -0.0615
  107OSM   H15A10929   3.877   3.726  11.088 -3.3594 -1.0875  1.4194
  107OSM   H15B10930   3.908   3.586  10.982 -1.2376 -0.7143  1.3410
  107OSM   H15C10931   3.748   3.655  10.990 -0.4231  1.1568 -0.7602
  107OSM    C1410932   3.828   3.686  10.752 -0.4545 -0.4783 -0.6089
  107OSM   H14A10933   3.727   3.651  10.769  0.1699 -2.4562 -0.8037
  107OSM   H14B10934   3.886   3.599  10.724 -0.3444 -1.1084  1.4805
  107OSM   H14C10935   3.825   3.762  10.676  0.6352 -0.8370 -1.0229
  107OSM    C1310936   3.814   3.891  10.874 -0.5320 -0.8047 -0.2171
  107OSM   H13A10937   3.840   3.958  10.794  2.1995  0.7200  1.8422
  107OSM   H13B10938   3.835   3.943  10.966  0.0935 -1.0324 -0.2305
  107OSM   H13C10939   3.707   3.880  10.865 -0.4594 -0.8894 -0.9525
  107OSM    C1210940   4.030   3.785  10.860 -0.0920  0.2105 -0.1364
  107OSM   H12A10941   4.069   3.852  10.935 -3.4551  2.0233  0.0642
  107OSM   H12B10942   4.048   3.849  10.775 -1.7318 -1.7733 -2.0294
  107OSM    C1110943   4.126   3.673  10.835  0.7969 -0.0400  0.0988
  107OSM   H11A10944   4.226   3.721  10.827  0.0139  1.7401  0.6909
  107OSM   H11B10945   4.107   3.623  10.738  0.8235  0.9477 -0.4183
  107OSM      P10946   4.230   3.462  10.935 -0.1723 -0.1050 -0.0963
  107OSM    O1310947   4.315   3.456  11.056  0.2755 -0.2943 -0.0731
  107OSM    O1410948   4.150   3.344  10.900  0.4238  0.4752 -0.1537
  107OSM    O1110949   4.330   3.495  10.818 -0.8299 -0.1774  0.0605
  107OSM    O1210950   4.139   3.579  10.937  0.1938 -0.3537 -0.1400
  107OSM    C1S10951   4.320   3.433  10.696 -0.4655  0.0171 -0.0347
  107OSM    H1S10952   4.220   3.455  10.653  1.1645  3.1048 -2.5718
  107OSM    H1T10953   4.335   3.324  10.710 -0.8610 -0.0214  0.0767
  107OSM     NF10954   4.383   3.481  10.456  0.0241  0.3323  0.0189
  107OSM    HNF10955   4.433   3.424  10.391 -1.0004 -0.3724 -0.1504
  107OSM    C2S10956   4.430   3.492  10.598 -0.1833  0.0078  0.2326
  107OSM    H2S10957   4.435   3.600  10.625  0.9281  0.2966 -1.0475
  107OSM    C3S10958   4.571   3.437  10.628 -0.6982  0.1316  0.4063
  107OSM    H3S10959   4.571   3.328  10.607 -1.2370  0.2834 -0.4063
  107OSM     O310960   4.604   3.451  10.763 -0.0103 -1.0942  0.1194
  107OSM    HO310961   4.524   3.488  10.801  0.1932 -2.0051  1.4782
  107OSM    C4S10962   4.679   3.499  10.544 -0.0675  0.6165 -0.4175
  107OSM    H4S10963   4.689   3.606  10.567  1.0251  1.0171 -2.6566
  107OSM    C5S10964   4.756   3.445  10.446  0.7305  0.2649 -0.0468
  107OSM    H5S10965   4.754   3.335  10.439  2.5847 -0.1412  4.5210
  107OSM    C6S10966   4.862   3.513  10.364 -0.0365  0.0516  0.0184
  107OSM    H6S10967   4.955   3.463  10.399  0.3912  0.7923 -0.0501
  107OSM    H6T10968   4.878   3.620  10.387  1.3099 -0.6711  2.7558
  107OSM    C7S10969   4.852   3.477  10.210 -0.0381  0.2704  0.3538
  107OSM    H7S10970   4.747   3.496  10.178  0.8049 -0.0638 -2.7309
  107OSM    H7T10971   4.860   3.366  10.209  0.4462  0.3133 -1.1675
  107OSM    C8S10972   4.937   3.548  10.106 -0.4928  0.0855 -0.3081
  107OSM    H8S10973   5.043   3.534  10.138 -1.2271 -0.7884  1.8828
  107OSM    H8T10974   4.923   3.657  10.117  0.3414  0.2552 -0.8937
  107OSM    C9S10975   4.954   3.499   9.958  0.4908 -0.9030  0.2511
  107OSM    H9S10976   4.854   3.490   9.909  1.0083 -0.4986 -0.8947
  107OSM    H9T10977   5.008   3.402   9.959 -0.0166 -1.1852  0.4791
  107OSM   C10S10978   5.019   3.602   9.870  0.1272  0.0721 -0.1342
  107OSM   H10S10979   5.112   3.633   9.921 -0.8621 -0.3953  2.0368
  107OSM   H10T10980   4.952   3.691   9.861 -0.0897 -0.0856 -0.0993
  107OSM   C11S10981   5.048   3.550   9.731 -0.1967  0.2875  0.2712
  107OSM   H11S10982   4.958   3.494   9.698  1.2559 -2.3399  0.6676
  107OSM   H11T10983   5.124   3.469   9.736 -0.4536 -0.0526 -1.0865
  107OSM   C12S10984   5.088   3.656   9.628 -0.3578  0.6348  0.3671
  107OSM   H12S10985   5.196   3.634   9.624 -0.5394 -0.2732  0.2068
  107OSM   H12T10986   5.062   3.755   9.671  0.2718 -0.0074  2.2974
  107OSM   C13S10987   5.018   3.649   9.493 -0.3241  0.0329 -0.2584
  107OSM   H13S10988   4.913   3.674   9.514  0.8708  4.0419  1.2661
  107OSM   H13T10989   5.026   3.544   9.455 -0.4609 -0.5231  1.2017
  107OSM   C14S10990   5.067   3.728   9.379  0.0099 -0.2069 -0.2969
  107OSM   H14S10991   4.999   3.708   9.293  0.8362 -0.5182 -0.8856
  107OSM   H14T10992   5.172   3.698   9.360  0.5522 -0.0379  2.2122
  107OSM   C15S10993   5.054   3.884   9.394  0.2901  0.2807 -0.1396
  107OSM   H15S10994   5.113   3.934   9.314  0.3037  0.8735  0.2388
  107OSM   H15T10995   5.099   3.926   9.487 -0.0989 -1.6121  0.9197
  107OSM   C16S10996   4.910   3.939   9.389 -0.0959 -0.1869 -0.3185
  107OSM   H16S10997   4.909   4.043   9.429 -0.1178 -0.7963  1.3100
  107OSM   H16T10998   4.849   3.876   9.458 -1.4982  0.3775 -1.0262
  107OSM   C17S10999   4.831   3.944   9.260 -0.1542 -0.1824 -0.3014
  107OSM   H17S11000   4.724   3.957   9.287  0.1829  1.9984  0.0543
  107OSM   H17T11001   4.835   3.841   9.218  0.5400 -0.9078  1.5192
  107OSM   C18S11002   4.882   4.046   9.165 -0.5866 -0.4703 -0.0202
  107OSM   H18S11003   4.835   4.053   9.065  1.9541  0.0727 -1.2408
  107OSM   H18T11004   4.987   4.016   9.141 -0.3254 -0.9469  1.6378
  107OSM   H18U11005   4.895   4.148   9.206 -0.8117 -0.3358 -0.2800
  107OSM    C1F11006   4.272   3.537  10.413  0.7129 -0.5145 -0.1105
  107OSM     OF11007   4.213   3.620  10.480 -0.1721 -0.2460  0.4835
  107OSM    C2F11008   4.218   3.502  10.277  1.3182  0.5843 -0.3740
  107OSM    H2F11009   4.304   3.489  10.207 -0.1864 -0.1179 -2.1469
  107OSM    H2G11010   4.148   3.574  10.229  0.6698 -0.2076 -0.6262
  107OSM    C3F11011   4.131   3.369  10.277 -0.5004 -0.4595  0.4348
  107OSM    H3F11012   4.039   3.393  10.335  0.3338  0.6703  1.2950
  107OSM    H3G11013   4.184   3.291  10.336 -1.7661 -1.8045 -0.1662
  107OSM    C4F11014   4.097   3.314  10.135  0.0800  0.7351 -0.3808
  107OSM    H4F11015   4.195   3.285  10.092  0.5180  0.9696  0.4392
  107OSM    H4G11016   4.051   3.394  10.073  3.3994  1.7395 -1.6902
  107OSM    C5F11017   3.999   3.191  10.144 -0.4440 -0.6317  0.2568
  107OSM    H5F11018   3.907   3.219  10.199  1.3301 -2.8020  4.5846
  107OSM    H5G11019   4.046   3.110  10.203  1.8409 -0.3386 -1.0750
  107OSM    C6F11020   3.962   3.147  10.002 -0.2945  0.5923  0.2734
  107OSM    H6F11021   4.043   3.100   9.943 -0.3310 -2.2723  2.3848
  107OSM    H6G11022   3.937   3.242   9.950  1.8927  2.0665  1.8448
  107OSM    C7F11023   3.830   3.067   9.992 -0.5105 -0.1178 -0.0498
  107OSM    H7F11024   3.779   3.098  10.086  2.4039  0.4138  1.4289
  107OSM    H7G11025   3.858   2.960   9.998  0.6939  0.0783 -1.8982
  107OSM    C8F11026   3.746   3.098   9.864  0.6756  0.2002  0.1408
  107OSM    H8F11027   3.749   3.209   9.855  0.1872  0.0227 -2.6989
  107OSM    H8G11028   3.641   3.069   9.888  0.5570  0.8076  0.3712
  107OSM    C9F11029   3.807   3.028   9.744  0.0849  0.5483 -0.1668
  107OSM    H9F11030   3.917   3.026   9.744  0.0845 -0.5363 -2.0388
  107OSM   C10F11031   3.743   2.957   9.651 -0.7748  0.6402  0.3173
  107OSM   H10F11032   3.793   2.923   9.559 -1.1199  2.7025 -0.6680
  107OSM   C11F11033   3.596   2.948   9.642 -0.0896 -0.4579 -0.2539
  107OSM   H11F11034   3.545   2.997   9.727  1.5759 -0.1167  0.5562
  107OSM   H11G11035   3.587   2.838   9.650  0.3993 -0.3713  1.8468
  107OSM   C12F11036   3.525   2.994   9.513 -0.1468 -0.2370 -0.4277
  107OSM   H12F11037   3.537   3.102   9.493 -1.6209 -0.1216 -0.7620
  107OSM   H12G11038   3.417   2.976   9.533  0.0279  0.7716  1.5070
  107OSM   C13F11039   3.567   2.920   9.388  0.4014 -0.4442  0.2017
  107OSM   H13F11040   3.552   2.812   9.407 -0.5202 -0.1456  1.1854
  107OSM   H13G11041   3.677   2.930   9.381  0.4051 -0.9918 -0.6964
  107OSM   C14F11042   3.494   2.964   9.260 -0.6854 -0.2357  0.4855
  107OSM   H14F11043   3.503   2.880   9.188 -0.0796 -0.1955  0.5104
  107OSM   H14G11044   3.535   3.049   9.202 -0.2590 -0.2750  0.7252
  107OSM   C15F11045   3.348   2.993   9.278 -0.3840  0.1162  0.2090
  107OSM   H15F11046   3.329   3.082   9.342  0.0571  1.3758 -1.3781
  107OSM   H15G11047   3.300   2.901   9.318  2.4890 -1.3770  0.4055
  107OSM   C16F11048   3.276   3.014   9.145 -0.1043 -0.2944 -0.2469
  107OSM   H16F11049   3.316   2.931   9.084  0.0532 -0.8004  0.5320
  107OSM   H16G11050   3.325   3.106   9.106 -2.4297  0.1308 -2.2797
  107OSM   C17F11051   3.123   3.013   9.138 -0.3122 -0.0469 -0.1378
  107OSM   H17F11052   3.087   3.110   9.179  1.0546  0.6928 -0.6330
  107OSM   H17G11053   3.087   2.934   9.207  2.3921 -0.5165  0.7995
  107OSM   C18F11054   3.070   3.007   8.997  0.0793 -0.0020  0.2777
  107OSM   H18F11055   3.134   3.069   8.930 -0.2369  0.7361  0.6508
  107OSM   H18G11056   2.965   3.043   9.002  0.0485  0.0163 -0.4006
  107OSM   H18H11057   3.069   2.904   8.956 -0.6524  0.0499  0.1618
  108OSM      N11058   1.539   1.075  11.218  0.5340 -0.0476 -0.0646
  108OSM    C1511059   1.666   1.087  11.127 -0.0144  0.2652  0.2308
  108OSM   H15A11060   1.668   1.178  11.069  1.7573 -0.0078 -0.1854
  108OSM   H15B11061   1.666   0.995  11.071 -0.2783  0.3043  0.1683
  108OSM   H15C11062   1.755   1.097  11.188  1.0245  1.0556 -1.3663
  108OSM    C1411063   1.560   0.961  11.321 -0.4359  0.1434 -0.1641
  108OSM   H14A11064   1.642   0.976  11.390 -0.1304 -1.5666 -0.1517
  108OSM   H14B11065   1.580   0.868  11.270 -1.9682 -0.3983  0.1726
  108OSM   H14C11066   1.468   0.951  11.378 -0.7939  4.7993  0.2816
  108OSM    C1311067   1.501   1.202  11.280 -0.2701 -0.4311  0.7457
  108OSM   H13A11068   1.488   1.276  11.202 -2.0907 -1.5801 -0.0448
  108OSM   H13B11069   1.578   1.243  11.345 -0.6286 -2.1859  2.3063
  108OSM   H13C11070   1.406   1.203  11.332  0.8949  1.0746  2.9668
  108OSM    C1211071   1.423   1.037  11.125 -0.6078  0.4349 -0.1979
  108OSM   H12A11072   1.431   1.096  11.036 -0.2553 -1.0400 -1.1642
  108OSM   H12B11073   1.329   1.067  11.169  1.2453  2.4172  2.6761
  108OSM    C1111074   1.402   0.883  11.083  0.4329  0.5398  0.3238
  108OSM   H11A11075   1.317   0.869  11.013  0.8290 -0.3104  0.0019
  108OSM   H11B11076   1.384   0.822  11.175  1.2753 -0.3573 -0.0927
  108OSM      P11077   1.529   0.702  10.948 -0.1611 -0.0070  0.4193
  108OSM    O1311078   1.634   0.711  10.840 -0.2481  0.2155  0.0505
  108OSM    O1411079   1.550   0.587  11.041 -0.0749  0.1187  0.1827
  108OSM    O1111080   1.380   0.689  10.890  0.0500 -0.7973  0.2818
  108OSM    O1211081   1.522   0.830  11.030  0.4785 -0.6961  0.6439
  108OSM    C1S11082   1.340   0.760  10.773  0.2420 -0.6694 -0.7464
  108OSM    H1S11083   1.389   0.859  10.775 -4.3162  1.7510 -0.9751
  108OSM    H1T11084   1.229   0.768  10.774  0.3051  0.3640  1.5193
  108OSM     NF11085   1.333   0.769  10.530 -0.4067 -0.1872 -0.4468
  108OSM    HNF11086   1.234   0.772  10.517 -0.3239  2.1162 -0.6957
  108OSM    C2S11087   1.367   0.685  10.640 -0.5115  0.2195  1.1516
  108OSM    H2S11088   1.475   0.660  10.644 -0.8376 -0.9895  3.6513
  108OSM    C3S11089   1.280   0.552  10.635  0.3713  0.4826  0.0922
  108OSM    H3S11090   1.176   0.591  10.636  0.8604  1.8077 -0.1600
  108OSM     O311091   1.301   0.466  10.743  0.2007  0.1308 -0.6537
  108OSM    HO311092   1.345   0.520  10.810  0.6037 -0.9477 -0.0390
  108OSM    C4S11093   1.303   0.479  10.505  0.1425 -0.7990 -0.5365
  108OSM    H4S11094   1.226   0.510  10.433 -0.6772  1.9347  1.4554
  108OSM    C5S11095   1.395   0.391  10.473  0.3162 -0.1006 -0.2864
  108OSM    H5S11096   1.475   0.375  10.547  1.2313 -0.4038 -1.3358
  108OSM    C6S11097   1.409   0.319  10.339  0.6681 -0.5997  0.5962
  108OSM    H6S11098   1.426   0.210  10.345 -0.0072 -0.7209  0.2967
  108OSM    H6T11099   1.504   0.361  10.300 -0.4498  0.4699 -1.0395
  108OSM    C7S11100   1.298   0.340  10.227  0.8611  0.1169  0.6311
  108OSM    H7S11101   1.301   0.449  10.202  0.5293 -0.5885 -2.7902
  108OSM    H7T11102   1.197   0.311  10.262 -0.1974  1.5211 -1.1690
  108OSM    C8S11103   1.319   0.259  10.100  0.0876  0.0854  0.1886
  108OSM    H8S11104   1.322   0.151  10.125  0.6987  0.2981  1.0813
  108OSM    H8T11105   1.417   0.292  10.060 -1.1869  2.9157 -0.7805
  108OSM    C9S11106   1.211   0.273   9.993 -0.1569  0.0332 -1.0672
  108OSM    H9S11107   1.192   0.381   9.975  0.6732  1.0393  3.5474
  108OSM    H9T11108   1.123   0.218  10.030  0.7432 -0.7452 -0.0522
  108OSM   C10S11109   1.256   0.217   9.859 -0.2320 -0.4297 -0.7128
  108OSM   H10S11110   1.267   0.106   9.861  0.8700 -0.3795 -2.5016
  108OSM   H10T11111   1.358   0.258   9.842 -0.1879 -0.7951 -1.3610
  108OSM   C11S11112   1.145   0.245   9.752  0.4273  0.3856  0.3134
  108OSM   H11S11113   1.117   0.353   9.746  3.2341  1.3373  3.1833
  108OSM   H11T11114   1.051   0.195   9.785 -0.1087  2.4340  1.9745
  108OSM   C12S11115   1.202   0.190   9.619  0.1205 -0.4143  0.4777
  108OSM   H12S11116   1.239   0.086   9.628  1.0712 -0.2766 -1.4907
  108OSM   H12T11117   1.295   0.245   9.592 -0.2384 -0.7503 -1.5263
  108OSM   C13S11118   1.112   0.212   9.499 -0.4439  0.4121  0.5283
  108OSM   H13S11119   1.081   0.318   9.488  0.9915  0.7380 -0.4254
  108OSM   H13T11120   1.015   0.159   9.513 -1.6609  2.5614  0.4385
  108OSM   C14S11121   1.178   0.168   9.367 -0.1602 -0.6226 -0.4458
  108OSM   H14S11122   1.202   0.060   9.371 -0.6774 -0.6959  1.1776
  108OSM   H14T11123   1.277   0.218   9.359 -0.3535 -0.0550  0.6191
  108OSM   C15S11124   1.090   0.191   9.247  0.5580  0.9580  0.0366
  108OSM   H15S11125   1.075   0.296   9.216 -0.5839  0.4832 -1.0499
  108OSM   H15T11126   0.985   0.158   9.260 -0.5067  4.0404 -0.3354
  108OSM   C16S11127   1.139   0.125   9.117  0.0097  0.1977  0.5093
  108OSM   H16S11128   1.128   0.017   9.137  1.2092 -0.0350 -0.0661
  108OSM   H16T11129   1.248   0.141   9.101  0.6338 -1.3894  2.9528
  108OSM   C17S11130   1.071   0.185   8.992 -0.3428  0.4056 -0.0098
  108OSM   H17S11131   1.113   0.288   8.983  2.2947 -0.5896  0.4622
  108OSM   H17T11132   0.968   0.202   9.032  0.2929  0.0893  1.8323
  108OSM   C18S11133   1.090   0.097   8.876  0.0863 -0.5709 -0.4316
  108OSM   H18S11134   1.198   0.095   8.850  0.1935 -1.1930  0.0511
  108OSM   H18T11135   1.029   0.124   8.787 -0.7803 -0.5711  0.1465
  108OSM   H18U11136   1.051  -0.004   8.901  1.1407 -0.4727  1.7500
  108OSM    C1F11137   1.416   0.850  10.471 -0.0138 -0.9233  0.2910
  108OSM     OF11138   1.532   0.864  10.509 -0.1189 -0.0897  0.0445
  108OSM    C2F11139   1.352   0.935  10.362  0.5190  0.4715 -0.5342
  108OSM    H2F11140   1.253   0.970  10.399  0.0191  1.3590 -2.6639
  108OSM    H2G11141   1.341   0.877  10.268  0.3675 -0.1733 -0.1210
  108OSM    C3F11142   1.432   1.059  10.313 -0.6406 -0.0183  0.6275
  108OSM    H3F11143   1.520   1.015  10.262 -0.0488  0.7604  0.9597
  108OSM    H3G11144   1.470   1.131  10.389  0.4154  1.0858 -0.9207
  108OSM    C4F11145   1.351   1.151  10.225 -0.1813 -0.3454  0.9690
  108OSM    H4F11146   1.425   1.214  10.172 -1.9132  0.5736 -0.4034
  108OSM    H4G11147   1.271   1.202  10.281 -1.9663 -1.4280 -0.5194
  108OSM    C5F11148   1.260   1.079  10.124  0.9650 -0.5599 -0.2935
  108OSM    H5F11149   1.178   1.035  10.185  0.2556  0.5415 -0.4320
  108OSM    H5G11150   1.321   0.992  10.092 -3.7669 -4.4866  0.7477
  108OSM    C6F11151   1.210   1.161  10.003  0.2004  0.4796 -0.0797
  108OSM    H6F11152   1.300   1.203   9.953 -0.0728 -0.1646 -1.1487
  108OSM    H6G11153   1.137   1.236  10.039  0.0981 -0.0325  0.7935
  108OSM    C7F11154   1.152   1.077   9.892 -0.2044 -0.5440  0.1118
  108OSM    H7F11155   1.069   1.016   9.933 -1.7254 -0.3725 -2.6007
  108OSM    H7G11156   1.220   1.004   9.843 -2.0358 -1.9205 -0.4338
  108OSM    C8F11157   1.097   1.161   9.776  0.0640 -0.0998  0.4435
  108OSM    H8F11158   1.182   1.222   9.740  0.0135  0.8626  1.8990
  108OSM    H8G11159   1.021   1.231   9.818 -0.1753  1.5765 -2.6385
  108OSM    C9F11160   1.040   1.071   9.666  0.7277  0.1450 -0.8299
  108OSM    H9F11161   1.101   0.980   9.656  0.0812 -0.6161  1.6112
  108OSM   C10F11162   0.942   1.095   9.584 -0.1204 -0.1644 -0.1823
  108OSM   H10F11163   0.924   1.025   9.501  0.4627 -1.6113  0.8909
  108OSM   C11F11164   0.850   1.213   9.596  0.3232 -0.0344  0.3634
  108OSM   H11F11165   0.841   1.247   9.701 -3.8636  0.9729 -0.2234
  108OSM   H11G11166   0.748   1.181   9.564 -0.3324 -1.2310  3.4843
  108OSM   C12F11167   0.903   1.332   9.511  0.6037  0.1153 -0.0858
  108OSM   H12F11168   1.012   1.345   9.496  0.4087  0.3844 -1.3103
  108OSM   H12G11169   0.876   1.428   9.561  0.7127 -0.1097  0.4102
  108OSM   C13F11170   0.852   1.328   9.369 -0.6875 -0.1070 -0.2970
  108OSM   H13F11171   0.744   1.300   9.365 -0.2881 -1.4742 -1.8252
  108OSM   H13G11172   0.895   1.240   9.315 -0.9189 -0.8419  0.6912
  108OSM   C14F11173   0.870   1.456   9.287  0.3282  0.2407  0.5004
  108OSM   H14F11174   0.974   1.492   9.299  0.3486  0.0251  1.0057
  108OSM   H14G11175   0.812   1.535   9.341 -1.0967  0.4333 -1.2630
  108OSM   C15F11176   0.827   1.465   9.145 -0.3598 -0.3240 -0.2384
  108OSM   H15F11177   0.893   1.402   9.082  0.1919 -0.3379  0.3481
  108OSM   H15G11178   0.839   1.572   9.120 -0.4272  0.0305  1.1895
  108OSM   C16F11179   0.690   1.415   9.114 -0.6101 -0.3028  0.5512
  108OSM   H16F11180   0.621   1.447   9.195 -0.8789  0.5430 -0.0056
  108OSM   H16G11181   0.689   1.304   9.109  1.1427 -0.3002 -0.3080
  108OSM   C17F11182   0.643   1.473   8.981  0.0707  0.3852  0.1162
  108OSM   H17F11183   0.648   1.584   8.989  1.7633  0.2762  0.6855
  108OSM   H17G11184   0.534   1.456   8.969  0.4217 -0.5860 -1.8913
  108OSM   C18F11185   0.715   1.427   8.858  0.3417 -0.2602  0.9465
  108OSM   H18F11186   0.716   1.316   8.853  0.2395 -0.2847  1.4575
  108OSM   H18G11187   0.822   1.450   8.841  0.1434 -1.2619 -2.1608
  108OSM   H18H11188   0.660   1.454   8.765 -0.4860 -2.7986  0.6538
  109OSM      N11189   2.563   1.632  10.648 -0.3663  0.3294  0.1174
  109OSM    C1511190   2.605   1.529  10.743 -0.3831 -0.1609 -0.5402
  109OSM   H15A11191   2.653   1.568  10.831 -0.6690 -1.7800  0.3558
  109OSM   H15B11192   2.677   1.457  10.706 -2.1318 -1.9507 -0.5515
  109OSM   H15C11193   2.516   1.475  10.772 -2.8133  3.3634 -1.2129
  109OSM    C1411194   2.680   1.710  10.596  0.3695  0.1205  0.0880
  109OSM   H14A11195   2.719   1.775  10.673 -1.2437  1.7724 -0.4748
  109OSM   H14B11196   2.658   1.779  10.516 -0.1111  0.3133  0.3882
  109OSM   H14C11197   2.759   1.641  10.569  0.7293  0.9275 -0.9371
  109OSM    C1311198   2.497   1.561  10.535  1.1295 -0.3547 -0.3438
  109OSM   H13A11199   2.457   1.621  10.455  0.9183 -0.3731 -0.2515
  109OSM   H13B11200   2.407   1.514  10.571  2.4745 -1.1621  2.0582
  109OSM   H13C11201   2.562   1.490  10.485 -0.2425 -0.9630 -1.2865
  109OSM    C1211202   2.469   1.725  10.715 -0.5550  1.2267  0.2038
  109OSM   H12A11203   2.517   1.774  10.798  2.3733 -0.1090 -0.6567
  109OSM   H12B11204   2.393   1.664  10.762 -0.3628 -0.2050 -1.2910
  109OSM    C1111205   2.399   1.830  10.627  0.2254  0.1063 -0.0633
  109OSM   H11A11206   2.340   1.788  10.543  0.3448 -2.4331  1.0578
  109OSM   H11B11207   2.477   1.900  10.590 -0.3315  0.1027 -1.2725
  109OSM      P11208   2.172   1.836  10.775 -0.0747 -0.0208  0.1156
  109OSM    O1311209   2.176   1.690  10.780  0.5852  0.3466  0.5001
  109OSM    O1411210   2.135   1.887  10.912 -0.0341 -0.5245  0.0562
  109OSM    O1111211   2.072   1.881  10.665 -0.0279  0.8481 -0.1513
  109OSM    O1211212   2.313   1.894  10.718 -0.2821  0.1328  0.0428
  109OSM    C1S11213   2.087   1.990  10.573  0.0018 -0.3133 -0.0160
  109OSM    H1S11214   2.193   2.019  10.561 -0.0215 -1.1816 -2.5859
  109OSM    H1T11215   2.039   2.080  10.618 -0.2829 -0.0012 -0.9156
  109OSM     NF11216   2.041   2.042  10.336 -0.1862 -0.1634 -0.1001
  109OSM    HNF11217   1.965   2.105  10.321  1.1273  2.7085  4.2640
  109OSM    C2S11218   2.020   1.948  10.442 -0.0827 -0.6406  0.4363
  109OSM    H2S11219   2.050   1.844  10.419  1.7095  0.1654 -0.9123
  109OSM    C3S11220   1.871   1.921  10.460  0.1888  0.1712  0.0123
  109OSM    H3S11221   1.821   2.013  10.497 -2.8552 -0.3613 -2.4956
  109OSM     O311222   1.852   1.829  10.565 -0.2613 -1.0745  0.1528
  109OSM    HO311223   1.934   1.841  10.612  0.1463  4.6443 -1.6242
  109OSM    C4S11224   1.805   1.858  10.341 -0.2135 -0.1926 -0.0131
  109OSM    H4S11225   1.823   1.750  10.328 -4.0942 -1.2054  2.2874
  109OSM    C5S11226   1.718   1.923  10.264  0.4347 -0.1152 -0.7438
  109OSM    H5S11227   1.688   2.027  10.282 -0.5608 -0.4600 -0.3368
  109OSM    C6S11228   1.640   1.872  10.139 -0.8357  0.5095  0.6250
  109OSM    H6S11229   1.566   1.950  10.110 -2.8507 -0.3739  3.1761
  109OSM    H6T11230   1.581   1.781  10.163 -0.0129 -0.0776  0.4241
  109OSM    C7S11231   1.720   1.847  10.010 -0.0698  0.0482  0.1680
  109OSM    H7S11232   1.779   1.755  10.029  0.8997 -0.3214 -4.1927
  109OSM    H7T11233   1.799   1.925   9.998  0.2224 -0.2012  0.4493
  109OSM    C8S11234   1.631   1.837   9.885  0.4500 -0.6619 -0.4020
  109OSM    H8S11235   1.587   1.935   9.855  1.2609  0.0212  0.5892
  109OSM    H8T11236   1.551   1.763   9.908  0.1010 -0.1979 -0.0885
  109OSM    C9S11237   1.715   1.779   9.768  0.5712 -0.9328  0.0945
  109OSM    H9S11238   1.745   1.675   9.791  1.0094 -0.6796  0.6665
  109OSM    H9T11239   1.799   1.841   9.732  0.8218 -1.8334 -0.9089
  109OSM   C10S11240   1.609   1.759   9.651 -0.3982 -0.0819 -0.1274
  109OSM   H10S11241   1.544   1.848   9.641  0.8980  0.8996  0.1034
  109OSM   H10T11242   1.561   1.664   9.683 -0.8941  0.0914 -0.3664
  109OSM   C11S11243   1.678   1.736   9.514  0.6850  0.9465 -0.1976
  109OSM   H11S11244   1.757   1.661   9.536 -2.7443 -1.8902  3.3954
  109OSM   H11T11245   1.733   1.825   9.480  0.0764  1.1384 -0.6872
  109OSM   C12S11246   1.581   1.688   9.404 -0.4015 -0.0678 -0.4070
  109OSM   H12S11247   1.528   1.778   9.365  2.9654  2.1915  0.0227
  109OSM   H12T11248   1.512   1.613   9.448  0.7376 -0.7723  0.1947
  109OSM   C13S11249   1.649   1.621   9.289  0.9239 -0.2157  0.0623
  109OSM   H13S11250   1.565   1.556   9.254 -0.8537  1.1343  1.6737
  109OSM   H13T11251   1.740   1.562   9.310  1.8923  1.8664  1.8882
  109OSM   C14S11252   1.684   1.727   9.180  0.6873  0.1070 -0.1665
  109OSM   H14S11253   1.767   1.787   9.222  2.1852 -2.9948  1.4718
  109OSM   H14T11254   1.593   1.789   9.161  1.5830  1.2151 -0.8676
  109OSM   C15S11255   1.722   1.659   9.049 -0.1694 -0.8491  0.5550
  109OSM   H15S11256   1.632   1.605   9.011 -0.4712  1.4792 -2.2133
  109OSM   H15T11257   1.808   1.594   9.073  2.3986  1.6508 -1.5934
  109OSM   C16S11258   1.752   1.759   8.930  0.3799 -0.4060  0.1873
  109OSM   H16S11259   1.848   1.811   8.948 -0.7610  1.2890  1.4968
  109OSM   H16T11260   1.680   1.844   8.931  2.2552  1.2718  4.3343
  109OSM   C17S11261   1.757   1.705   8.788 -0.1542  0.0666 -0.0381
  109OSM   H17S11262   1.825   1.618   8.784 -0.8568 -0.6888  3.1917
  109OSM   H17T11263   1.788   1.788   8.720 -1.3277  0.6058  0.0764
  109OSM   C18S11264   1.613   1.670   8.732  0.2161 -0.0991 -0.1723
  109OSM   H18S11265   1.543   1.624   8.806 -2.2267 -0.3296 -2.5334
  109OSM   H18T11266   1.606   1.606   8.641 -0.9845 -0.9820  0.5172
  109OSM   H18U11267   1.567   1.769   8.712 -2.8964 -1.5969 -0.8121
  109OSM    C1F11268   2.168   2.069  10.304 -0.7824 -0.6377 -0.2272
  109OSM     OF11269   2.262   1.995  10.335 -0.9012 -0.0044  0.2099
  109OSM    C2F11270   2.190   2.198  10.231  0.1489 -0.6628 -0.1842
  109OSM    H2F11271   2.256   2.266  10.290 -0.5577 -1.5625  1.6743
  109OSM    H2G11272   2.093   2.250  10.216  0.2590 -0.6042 -0.6935
  109OSM    C3F11273   2.259   2.190  10.094  0.1342  0.1729 -0.0764
  109OSM    H3F11274   2.348   2.123  10.096  0.8754  1.1432 -0.0461
  109OSM    H3G11275   2.314   2.285  10.074 -0.5745  0.3786 -1.0863
  109OSM    C4F11276   2.172   2.137   9.979 -0.5255  0.5841  0.3615
  109OSM    H4F11277   2.086   2.206   9.960 -1.2689 -0.8119 -1.5333
  109OSM    H4G11278   2.128   2.044  10.020  0.3918 -0.2760 -0.5885
  109OSM    C5F11279   2.252   2.125   9.849 -0.6016 -0.1739 -0.3152
  109OSM    H5F11280   2.334   2.050   9.854  0.4216  1.0119  1.3081
  109OSM    H5G11281   2.305   2.219   9.822 -1.3891 -0.1428 -1.8162
  109OSM    C6F11282   2.166   2.084   9.722 -0.1002  0.7818  0.6925
  109OSM    H6F11283   2.071   2.141   9.717 -2.1802 -2.6860 -0.8713
  109OSM    H6G11284   2.125   1.983   9.744 -0.9887  0.6751 -1.3553
  109OSM    C7F11285   2.245   2.088   9.587  0.1147 -0.1668  0.2693
  109OSM    H7F11286   2.353   2.094   9.611  0.2697 -0.3797 -0.3667
  109OSM    H7G11287   2.230   2.184   9.534 -1.9740 -1.8588 -2.3888
  109OSM    C8F11288   2.216   1.971   9.503  0.0751 -0.3780  0.1449
  109OSM    H8F11289   2.212   1.886   9.575  1.3782  1.3610  2.3049
  109OSM    H8G11290   2.302   1.958   9.434  0.2604  0.5068  0.2068
  109OSM    C9F11291   2.079   1.964   9.447  0.2575  0.0345  0.0644
  109OSM    H9F11292   1.995   1.994   9.513  1.0432 -2.1022  2.0920
  109OSM   C10F11293   2.047   1.953   9.320 -0.5693  0.1599  0.8122
  109OSM   H10F11294   1.945   1.930   9.285  0.3753 -1.8300 -0.7595
  109OSM   C11F11295   2.159   1.935   9.216  0.5437 -0.0865  0.5861
  109OSM   H11F11296   2.250   1.880   9.247  0.9821  1.8176  2.9057
  109OSM   H11G11297   2.184   2.041   9.196  1.0277 -0.1068  1.0585
  109OSM   C12F11298   2.091   1.872   9.087 -0.5395  0.5720 -0.4939
  109OSM   H12F11299   2.016   1.943   9.046 -0.0052  1.5316  0.1394
  109OSM   H12G11300   2.046   1.774   9.112  1.1257 -0.0693  0.0720
  109OSM   C13F11301   2.187   1.840   8.974 -0.7703  0.6369  0.6367
  109OSM   H13F11302   2.269   1.785   9.025 -1.0674 -0.6356 -0.2421
  109OSM   H13G11303   2.225   1.938   8.940  0.2678  0.1445  0.3517
  109OSM   C14F11304   2.112   1.754   8.869 -0.5075 -0.0962  0.1896
  109OSM   H14F11305   2.031   1.813   8.821  1.1758  0.6701 -1.7848
  109OSM   H14G11306   2.054   1.674   8.920  0.4616  0.0463  1.5343
  109OSM   C15F11307   2.204   1.689   8.769 -0.2931 -0.6453  0.6439
  109OSM   H15F11308   2.272   1.624   8.828  1.4211  0.2433 -0.3402
  109OSM   H15G11309   2.260   1.759   8.704  0.2963 -2.1168 -0.4683
  109OSM   C16F11310   2.126   1.586   8.673 -0.3924 -0.6903 -0.5051
  109OSM   H16F11311   2.068   1.655   8.608 -1.6504 -0.6209  0.6563
  109OSM   H16G11312   2.047   1.548   8.742 -1.5734  0.8489 -0.9757
  109OSM   C17F11313   2.214   1.498   8.601  0.1639 -0.0176  0.0946
  109OSM   H17F11314   2.246   1.420   8.673 -0.2989 -0.0799  0.2318
  109OSM   H17G11315   2.311   1.543   8.571  1.1066  0.4591  3.6199
  109OSM   C18F11316   2.149   1.436   8.477  0.5335  0.6317 -0.4654
  109OSM   H18F11317   2.086   1.349   8.504  1.2265  0.5681  0.9783
  109OSM   H18G11318   2.236   1.401   8.419 -0.5588 -0.6068 -1.3850
  109OSM   H18H11319   2.092   1.510   8.416  2.9906  2.0021 -1.1615
  110OSM      N11320   3.869   1.093  10.931 -0.5474 -0.8195 -0.0737
  110OSM    C1511321   3.979   0.996  10.890 -0.1599  0.0581  0.1002
  110OSM   H15A11322   4.039   0.973  10.977 -0.4417 -0.8186  0.0653
  110OSM   H15B11323   4.044   1.031  10.812  0.6365  1.2039  1.2582
  110OSM   H15C11324   3.935   0.902  10.861  2.3665 -0.8792 -0.7837
  110OSM    C1411325   3.826   1.058  11.068 -0.0875  0.3077 -0.6465
  110OSM   H14A11326   3.901   1.098  11.134 -2.1331 -0.0361  1.9297
  110OSM   H14B11327   3.809   0.952  11.071  2.9929 -0.2350 -0.2269
  110OSM   H14C11328   3.739   1.111  11.103 -0.5851 -0.4299 -0.7740
  110OSM    C1311329   3.918   1.233  10.934  0.2068 -0.8635 -1.1027
  110OSM   H13A11330   3.838   1.300  10.961 -0.3188 -2.3515  1.1717
  110OSM   H13B11331   3.959   1.265  10.839  1.5710 -1.3986 -0.7061
  110OSM   H13C11332   3.992   1.251  11.011 -1.1213  1.2314 -0.2858
  110OSM    C1211333   3.744   1.077  10.843  0.1215 -0.7111  0.4027
  110OSM   H12A11334   3.724   0.971  10.836 -0.2424 -0.5847 -0.5048
  110OSM   H12B11335   3.759   1.110  10.742 -1.2418 -1.7809 -0.1540
  110OSM    C1111336   3.615   1.149  10.888 -0.4272  0.1601  0.0989
  110OSM   H11A11337   3.567   1.172  10.791  1.1135  0.8854 -0.4926
  110OSM   H11B11338   3.632   1.240  10.949 -1.7356 -0.0255  0.7692
  110OSM      P11339   3.453   0.949  10.939 -0.0770  0.0043  0.2389
  110OSM    O1311340   3.482   0.827  11.010 -0.0301 -0.2159 -0.2008
  110OSM    O1411341   3.309   0.986  10.956  0.3929 -0.4988 -0.1782
  110OSM    O1111342   3.487   0.927  10.783 -0.7382  0.0726  0.2088
  110OSM    O1211343   3.546   1.067  10.982 -0.5145  0.6045  0.0866
  110OSM    C1S11344   3.378   0.971  10.696 -0.3912 -0.0485 -0.5112
  110OSM    H1S11345   3.347   1.076  10.714  2.5905  1.0456 -1.4234
  110OSM    H1T11346   3.293   0.903  10.717 -0.9066  1.3235  2.0268
  110OSM     NF11347   3.309   0.987  10.465 -0.1055 -0.7994  0.5592
  110OSM    HNF11348   3.266   0.910  10.419  0.9164 -2.3323  2.0775
  110OSM    C2S11349   3.423   0.955  10.553  0.6973  0.4761 -0.0510
  110OSM    H2S11350   3.498   1.035  10.536  1.3680 -0.2912 -0.7000
  110OSM    C3S11351   3.491   0.816  10.523 -0.3643 -0.1695  0.0413
  110OSM    H3S11352   3.421   0.733  10.546  0.5265 -0.9439 -0.0287
  110OSM     O311353   3.605   0.769  10.601 -0.5149 -0.0243 -0.0564
  110OSM    HO311354   3.597   0.823  10.679 -1.7230  0.8121 -0.7552
  110OSM    C4S11355   3.538   0.821  10.384 -0.4099 -0.4099 -0.7945
  110OSM    H4S11356   3.463   0.787  10.311 -1.5487  0.0349  0.1385
  110OSM    C5S11357   3.658   0.866  10.331  0.6566  0.0868 -0.3233
  110OSM    H5S11358   3.736   0.896  10.402  0.4763 -1.2741  0.4606
  110OSM    C6S11359   3.693   0.866  10.188  0.4442 -0.2638 -0.3478
  110OSM    H6S11360   3.790   0.812  10.174  1.8904  2.6280 -2.0955
  110OSM    H6T11361   3.725   0.965  10.148  0.5697  0.1124  0.6632
  110OSM    C7S11362   3.610   0.801  10.079 -0.0553 -0.4841  0.0154
  110OSM    H7S11363   3.510   0.849  10.070 -0.1957 -0.3011  2.2800
  110OSM    H7T11364   3.576   0.702  10.116  0.7828 -1.1068 -0.8480
  110OSM    C8S11365   3.677   0.772   9.943 -0.4767  0.4262 -0.0247
  110OSM    H8S11366   3.613   0.710   9.878  1.3287 -1.1826 -0.3189
  110OSM    H8T11367   3.765   0.708   9.967 -1.1827 -0.3988  0.3840
  110OSM    C9S11368   3.706   0.902   9.871 -0.0236  0.2195 -0.3725
  110OSM    H9S11369   3.764   0.971   9.936 -0.8115 -0.6778  1.3134
  110OSM    H9T11370   3.613   0.959   9.851 -0.0912  0.4135  0.4999
  110OSM   C10S11371   3.776   0.879   9.737 -0.1542  0.3645 -0.1327
  110OSM   H10S11372   3.842   0.790   9.740 -2.4167 -1.3334  3.1262
  110OSM   H10T11373   3.822   0.977   9.711  1.1652 -0.0598  0.5783
  110OSM   C11S11374   3.670   0.862   9.625  0.7417 -0.1150 -0.3978
  110OSM   H11S11375   3.598   0.946   9.628  2.5557  1.4417  2.7568
  110OSM   H11T11376   3.616   0.767   9.646 -0.6116  0.7960  0.3097
  110OSM   C12S11377   3.732   0.851   9.482  0.5091 -0.6397  0.8048
  110OSM   H12S11378   3.798   0.762   9.473 -0.1906 -1.0371 -0.6526
  110OSM   H12T11379   3.797   0.939   9.469  2.1064 -1.5961  2.1409
  110OSM   C13S11380   3.615   0.831   9.380 -0.0593 -0.0539 -0.0084
  110OSM   H13S11381   3.557   0.926   9.379  1.2087  0.7267 -1.4410
  110OSM   H13T11382   3.552   0.743   9.404  0.0798 -0.5228 -1.2955
  110OSM   C14S11383   3.658   0.793   9.233 -0.4289  1.0153  0.4829
  110OSM   H14S11384   3.744   0.723   9.244 -0.3834  1.1025  0.6728
  110OSM   H14T11385   3.683   0.884   9.175 -1.4853  1.1324  0.2014
  110OSM   C15S11386   3.534   0.733   9.157  0.0693 -0.6528 -0.5944
  110OSM   H15S11387   3.522   0.810   9.077  1.2032  0.3897  0.2247
  110OSM   H15T11388   3.449   0.733   9.228 -0.1796  1.7998 -0.8448
  110OSM   C16S11389   3.569   0.587   9.115  0.1158  1.1882  0.4640
  110OSM   H16S11390   3.571   0.526   9.207 -0.5375 -0.5273 -0.6332
  110OSM   H16T11391   3.670   0.579   9.069 -0.9135  2.2244 -2.1098
  110OSM   C17S11392   3.464   0.531   9.018  0.0092 -1.2159 -0.9321
  110OSM   H17S11393   3.509   0.448   8.960 -0.8507 -0.4068 -2.8073
  110OSM   H17T11394   3.442   0.616   8.949  2.5706 -2.2170 -3.0326
  110OSM   C18S11395   3.339   0.486   9.104  0.1680 -0.3544  0.2701
  110OSM   H18S11396   3.288   0.570   9.155  1.1874 -1.1304  2.6597
  110OSM   H18T11397   3.366   0.410   9.181  0.0607 -0.1538  0.5035
  110OSM   H18U11398   3.273   0.425   9.039  0.0283  1.1900 -1.0601
  110OSM    C1F11399   3.261   1.105  10.450  0.5142 -0.1379 -0.3833
  110OSM     OF11400   3.313   1.202  10.504 -0.2356  0.1400  0.9109
  110OSM    C2F11401   3.145   1.122  10.358 -0.5065 -0.0953 -0.7613
  110OSM    H2F11402   3.072   1.041  10.378  0.3241 -0.6394  0.0948
  110OSM    H2G11403   3.190   1.103  10.259  0.8303  0.6466 -0.3144
  110OSM    C3F11404   3.080   1.266  10.349 -0.0824  0.2327 -0.1515
  110OSM    H3F11405   3.147   1.347  10.312  0.9032  0.7774  2.7119
  110OSM    H3G11406   3.047   1.290  10.452 -1.1900 -0.1133 -0.4161
  110OSM    C4F11407   2.948   1.278  10.260 -0.7164  0.2331  0.2729
  110OSM    H4F11408   2.864   1.217  10.301 -2.6780  2.0332 -0.9863
  110OSM    H4G11409   2.962   1.235  10.159  0.3881  0.6592  0.2334
  110OSM    C5F11410   2.895   1.418  10.239  0.7553 -0.2059 -0.4284
  110OSM    H5F11411   2.977   1.485  10.205 -0.1826  0.4677 -1.3754
  110OSM    H5G11412   2.862   1.462  10.336  0.5652 -0.9994 -0.1228
  110OSM    C6F11413   2.787   1.426  10.135 -0.1306 -0.2140 -0.0375
  110OSM    H6F11414   2.698   1.365  10.161  0.3629 -0.2666  1.5537
  110OSM    H6G11415   2.831   1.387  10.041 -0.7413 -1.3555  0.1465
  110OSM    C7F11416   2.743   1.575  10.125  0.1357  0.7025 -0.2437
  110OSM    H7F11417   2.827   1.648  10.131  0.0332  0.7746  0.4303
  110OSM    H7G11418   2.684   1.587  10.218  2.2981 -2.3077  1.6159
  110OSM    C8F11419   2.657   1.595  10.000  0.2783 -0.4583 -0.7265
  110OSM    H8F11420   2.589   1.510  10.018 -0.3908  0.2670  0.2148
  110OSM    H8G11421   2.727   1.583   9.915  0.8229 -1.0331 -0.2034
  110OSM    C9F11422   2.585   1.729   9.993 -0.3026 -0.3234  0.0033
  110OSM    H9F11423   2.559   1.777  10.089 -2.5616 -2.2780  0.4191
  110OSM   C10F11424   2.561   1.796   9.883 -1.2237  0.5332  0.5265
  110OSM   H10F11425   2.512   1.893   9.901  0.1254  0.9372  2.2824
  110OSM   C11F11426   2.582   1.740   9.751  0.0628 -0.6261 -0.6389
  110OSM   H11F11427   2.576   1.629   9.750 -0.4686 -0.6148 -2.6242
  110OSM   H11G11428   2.674   1.774   9.699 -0.1836  0.9113 -0.0922
  110OSM   C12F11429   2.464   1.783   9.661 -0.2722 -0.6761  0.9567
  110OSM   H12F11430   2.462   1.894   9.666  0.0333 -0.5754 -0.9925
  110OSM   H12G11431   2.375   1.733   9.704 -1.1610  0.0983  0.0481
  110OSM   C13F11432   2.470   1.736   9.518  0.0374 -1.0560 -0.5585
  110OSM   H13F11433   2.544   1.794   9.459 -2.3878  0.1861 -2.4754
  110OSM   H13G11434   2.369   1.755   9.475  0.6597  0.9183 -1.1952
  110OSM   C14F11435   2.477   1.585   9.499 -0.6513 -0.4612 -0.5914
  110OSM   H14F11436   2.400   1.540   9.565  1.3783 -1.4921  1.1218
  110OSM   H14G11437   2.572   1.543   9.539  0.7974  1.6835 -1.6611
  110OSM   C15F11438   2.449   1.526   9.359  0.0270 -0.5036  0.0184
  110OSM   H15F11439   2.358   1.579   9.326 -0.3074 -2.3418 -2.1221
  110OSM   H15G11440   2.426   1.418   9.372 -0.4813 -0.4144 -0.1217
  110OSM   C16F11441   2.563   1.550   9.261  0.0863 -0.4958  0.7221
  110OSM   H16F11442   2.632   1.463   9.259  0.8245  0.1157 -1.6141
  110OSM   H16G11443   2.613   1.640   9.303  1.9170 -0.7609 -0.8428
  110OSM   C17F11444   2.518   1.588   9.116 -0.1993  0.1051  0.2907
  110OSM   H17F11445   2.608   1.608   9.053  0.0938 -0.0195  0.6676
  110OSM   H17G11446   2.460   1.682   9.121  1.4390  1.2092 -1.0157
  110OSM   C18F11447   2.445   1.477   9.042  0.0912  0.8199 -0.5303
  110OSM   H18F11448   2.508   1.385   9.032 -1.9138 -0.7838  1.1145
  110OSM   H18G11449   2.404   1.508   8.944 -2.0522 -0.8637 -0.2052
  110OSM   H18H11450   2.360   1.446   9.107  0.9280  0.5996  0.4711
  111OSM      N11451   4.413   4.662  10.952  0.1566  0.7013  0.2407
  111OSM    C1511452   4.553   4.646  11.005 -0.8469  0.7847  0.3166
  111OSM   H15A11453   4.607   4.732  10.968  1.3525 -1.3475 -1.5423
  111OSM   H15B11454   4.603   4.557  10.972 -2.8442 -0.0330 -0.5795
  111OSM   H15C11455   4.561   4.646  11.113  1.1023 -0.2719  0.1829
  111OSM    C1411456   4.315   4.597  11.045  0.7735 -0.5946  0.5713
  111OSM   H14A11457   4.322   4.638  11.144  0.4980 -3.0445  1.6373
  111OSM   H14B11458   4.317   4.489  11.031  0.2008 -0.5267 -0.0691
  111OSM   H14C11459   4.217   4.619  11.005  1.6332 -0.7753 -1.7375
  111OSM    C1311460   4.367   4.803  10.926  0.1464 -0.3862 -0.1313
  111OSM   H13A11461   4.412   4.869  10.999 -0.1385 -0.6656  0.2968
  111OSM   H13B11462   4.261   4.824  10.931  0.0365 -0.2892 -2.3650
  111OSM   H13C11463   4.409   4.851  10.838 -3.3547 -0.2907 -1.8302
  111OSM    C1211464   4.408   4.587  10.814  0.1236  0.7513 -0.0549
  111OSM   H12A11465   4.474   4.637  10.745  0.2254  0.3046 -0.2793
  111OSM   H12B11466   4.309   4.614  10.780  0.2742  1.3365 -0.0413
  111OSM    C1111467   4.430   4.425  10.808 -0.0644  0.4216 -0.0419
  111OSM   H11A11468   4.530   4.395  10.847 -0.3302  1.4745  1.5039
  111OSM   H11B11469   4.428   4.389  10.703  1.0744 -0.5687  0.2773
  111OSM      P11470   4.184   4.348  10.840  0.1201 -0.4758 -0.5287
  111OSM    O1311471   4.143   4.210  10.827 -0.2382  0.7154  0.3338
  111OSM    O1411472   4.114   4.429  10.941 -0.7116 -0.4216  0.0498
  111OSM    O1111473   4.173   4.427  10.701 -0.4068 -0.0380  0.2628
  111OSM    O1211474   4.328   4.366  10.884  0.5022 -0.0886 -0.1840
  111OSM    C1S11475   4.199   4.367  10.576 -0.0052  0.6075 -0.8520
  111OSM    H1S11476   4.203   4.256  10.586 -0.6997  0.4323 -2.3085
  111OSM    H1T11477   4.296   4.398  10.532 -0.2178 -0.3341 -2.0334
  111OSM     NF11478   4.119   4.312  10.354 -0.5524  0.7520 -0.4389
  111OSM    HNF11479   4.164   4.349  10.273 -0.5914 -2.1723 -1.8682
  111OSM    C2S11480   4.094   4.400  10.462  0.0614 -0.6478 -0.5894
  111OSM    H2S11481   3.992   4.380  10.503 -0.2689 -0.2087 -1.1819
  111OSM    C3S11482   4.112   4.555  10.429  0.1947 -0.0730  0.3844
  111OSM    H3S11483   4.206   4.572  10.372  0.3645  2.8538  1.4411
  111OSM     O311484   4.118   4.653  10.537 -0.0410 -0.1462 -0.0612
  111OSM    HO311485   4.087   4.598  10.610 -1.8542  0.8767 -0.0192
  111OSM    C4S11486   4.001   4.581  10.336  0.0660 -0.6268  0.2842
  111OSM    H4S11487   4.025   4.527  10.244 -0.2410 -0.7176  0.2556
  111OSM    C5S11488   3.894   4.665  10.351  0.1508  0.5211  0.4550
  111OSM    H5S11489   3.900   4.739  10.432 -0.5368  2.9762 -1.6576
  111OSM    C6S11490   3.780   4.700  10.264 -0.4913  0.2618 -0.0335
  111OSM    H6S11491   3.773   4.809  10.248  1.0464  0.2691 -0.7310
  111OSM    H6T11492   3.693   4.664  10.324 -1.0758  2.7228  0.6479
  111OSM    C7S11493   3.778   4.650  10.116 -0.4079  0.1800 -0.4834
  111OSM    H7S11494   3.802   4.541  10.110  3.5213  0.9656 -0.1460
  111OSM    H7T11495   3.849   4.714  10.059  1.4922  0.2422  1.8682
  111OSM    C8S11496   3.640   4.667  10.043 -0.6056  0.4725  0.1045
  111OSM    H8S11497   3.598   4.762  10.084 -0.9577 -0.3263  1.6489
  111OSM    H8T11498   3.568   4.586  10.066 -1.9341  1.0466 -1.9428
  111OSM    C9S11499   3.663   4.674   9.896 -0.5906  0.4757 -0.0224
  111OSM    H9S11500   3.754   4.733   9.871 -0.6426  1.6834  2.4809
  111OSM    H9T11501   3.570   4.720   9.857 -1.8905 -0.9765  1.3052
  111OSM   C10S11502   3.672   4.527   9.832 -0.3219 -0.1729  0.9766
  111OSM   H10S11503   3.581   4.472   9.863 -0.4348  0.4099  1.7007
  111OSM   H10T11504   3.765   4.483   9.875  0.8512  0.5711 -0.7475
  111OSM   C11S11505   3.679   4.512   9.678  0.0826  0.0005 -0.6118
  111OSM   H11S11506   3.725   4.415   9.650 -1.3217 -0.5870 -0.9708
  111OSM   H11T11507   3.744   4.592   9.637  2.1896 -0.5232  1.6443
  111OSM   C12S11508   3.545   4.526   9.608 -0.3262  0.2947 -0.0357
  111OSM   H12S11509   3.492   4.618   9.641 -1.5896 -0.7009  0.7519
  111OSM   H12T11510   3.476   4.445   9.640 -1.3544  1.5660  0.9782
  111OSM   C13S11511   3.547   4.520   9.447 -0.4003  0.1642 -0.2997
  111OSM   H13S11512   3.620   4.439   9.424 -0.2746  0.1255  0.2295
  111OSM   H13T11513   3.580   4.619   9.409 -0.8720  0.9246  1.2627
  111OSM   C14S11514   3.413   4.485   9.383 -0.3918 -0.6096 -0.6913
  111OSM   H14S11515   3.339   4.549   9.437  0.5163  0.3489 -0.5590
  111OSM   H14T11516   3.391   4.377   9.397 -0.3094 -0.5542 -0.1167
  111OSM   C15S11517   3.405   4.506   9.233  1.0876 -0.6748  0.1822
  111OSM   H15S11518   3.396   4.616   9.219 -0.1251 -0.7199  0.5530
  111OSM   H15T11519   3.311   4.460   9.195  2.2372 -4.3537  1.6044
  111OSM   C16S11520   3.519   4.457   9.156  0.2754 -0.3115  0.3920
  111OSM   H16S11521   3.535   4.350   9.180  1.3504  0.2429  2.2208
  111OSM   H16T11522   3.612   4.511   9.184 -0.0047  0.2223  0.3059
  111OSM   C17S11523   3.487   4.474   9.009 -0.2420  0.0966 -0.7320
  111OSM   H17S11524   3.458   4.581   9.006  3.1961  1.1083 -0.5423
  111OSM   H17T11525   3.393   4.420   8.986  0.1832 -1.5758  1.2217
  111OSM   C18S11526   3.602   4.448   8.922  0.3707  0.2192  0.1497
  111OSM   H18S11527   3.615   4.338   8.908 -0.7480  0.3045 -1.7025
  111OSM   H18T11528   3.696   4.482   8.971  0.6530 -0.1880 -0.1024
  111OSM   H18U11529   3.595   4.502   8.825 -2.1215  1.8801  1.2174
  111OSM    C1F11530   4.098   4.180  10.347  0.1554  0.0620 -0.0023
  111OSM     OF11531   4.051   4.120  10.440  0.0956 -0.0515 -0.1106
  111OSM    C2F11532   4.120   4.120  10.214  0.2143  0.3459  0.6187
  111OSM    H2F11533   4.228   4.119  10.190  0.8687 -0.9408  3.3919
  111OSM    H2G11534   4.060   4.173  10.137 -1.1319 -3.0008 -0.7321
  111OSM    C3F11535   4.069   3.973  10.213  0.0353  0.3779 -0.1633
  111OSM    H3F11536   3.962   3.953  10.234  0.1998 -0.0895  0.2565
  111OSM    H3G11537   4.122   3.917  10.293  0.5441  0.3376 -0.5219
  111OSM    C4F11538   4.106   3.898  10.088 -0.2714  0.4849 -0.4357
  111OSM    H4F11539   4.085   3.789  10.102  2.2740  0.2332  2.0651
  111OSM    H4G11540   4.214   3.913  10.064 -0.6409  0.8834 -1.8524
  111OSM    C5F11541   4.017   3.948   9.977  0.5293 -0.1661 -0.0547
  111OSM    H5F11542   4.048   4.049   9.943 -1.5192  0.4789 -0.0861
  111OSM    H5G11543   3.909   3.956  10.004  0.4157 -0.3654 -0.4463
  111OSM    C6F11544   4.032   3.861   9.850  0.2202 -0.0078  0.5497
  111OSM    H6F11545   4.012   3.758   9.885 -1.7415  0.1565 -0.0470
  111OSM    H6G11546   4.136   3.874   9.811 -0.8665  0.9470 -2.1887
  111OSM    C7F11547   3.942   3.902   9.733 -0.2409  0.0754  0.2790
  111OSM    H7F11548   3.971   4.000   9.688 -2.2415  0.4846 -0.1638
  111OSM    H7G11549   3.836   3.917   9.762  0.0594 -0.4439  1.7043
  111OSM    C8F11550   3.942   3.799   9.616  0.0007  0.4306  0.1815
  111OSM    H8F11551   3.865   3.843   9.549 -0.9915  1.8538  2.1740
  111OSM    H8G11552   3.904   3.699   9.643  0.5419  0.3696  0.7291
  111OSM    C9F11553   4.076   3.772   9.555 -0.3295  0.3799  0.0035
  111OSM    H9F11554   4.132   3.691   9.603 -0.1245 -0.2913 -1.3454
  111OSM   C10F11555   4.142   3.842   9.466  0.6792  1.1137  0.2747
  111OSM   H10F11556   4.240   3.799   9.443 -0.5187 -0.4668 -2.1026
  111OSM   C11F11557   4.087   3.955   9.395 -0.1623  0.4625 -0.3365
  111OSM   H11F11558   4.142   4.048   9.423  0.5888  0.0463 -0.4155
  111OSM   H11G11559   3.980   3.972   9.420 -0.5591  0.8347 -2.2332
  111OSM   C12F11560   4.078   3.948   9.240 -0.4770  0.6653 -0.1169
  111OSM   H12F11561   4.170   3.960   9.179 -0.7953  0.9796 -0.5303
  111OSM   H12G11562   4.015   4.032   9.204 -0.2869  1.0611  0.4587
  111OSM   C13F11563   3.992   3.829   9.185  0.7793 -0.4552 -0.3281
  111OSM   H13F11564   3.891   3.833   9.231 -0.2012 -1.0248 -2.3680
  111OSM   H13G11565   4.044   3.735   9.214  2.7792  0.2023 -1.6809
  111OSM   C14F11566   3.991   3.816   9.029  0.0893  0.3095 -1.2351
  111OSM   H14F11567   4.087   3.866   9.002 -0.1142  0.3855 -1.8084
  111OSM   H14G11568   3.915   3.888   8.993 -1.1911 -0.9319 -1.0268
  111OSM   C15F11569   3.971   3.678   8.977  0.2065  0.0506 -1.3780
  111OSM   H15F11570   3.927   3.606   9.048  0.6789  0.6488 -0.4728
  111OSM   H15G11571   4.074   3.641   8.956  1.2022  2.0314 -0.1226
  111OSM   C16F11572   3.903   3.680   8.840 -0.4011 -0.1257 -0.5008
  111OSM   H16F11573   3.957   3.747   8.770 -1.7176  0.5195 -0.9316
  111OSM   H16G11574   3.800   3.721   8.847 -0.1336  0.6148 -0.8827
  111OSM   C17F11575   3.902   3.539   8.769 -0.2295  0.3229 -0.3118
  111OSM   H17F11576   3.850   3.561   8.674  1.8385  3.3724 -0.8224
  111OSM   H17G11577   3.847   3.474   8.840  1.5412 -1.5999 -0.6621
  111OSM   C18F11578   4.038   3.494   8.739 -0.5228 -0.0977 -0.0921
  111OSM   H18F11579   4.037   3.395   8.688  0.4516  0.4161 -1.1312
  111OSM   H18G11580   4.097   3.480   8.833 -1.5896 -1.1777  0.4292
  111OSM   H18H11581   4.091   3.566   8.674 -0.3850 -0.8473 -0.8314
  112OSM      N11582   4.781   2.674  11.110  0.3446  0.0414 -0.8253
  112OSM    C1511583   4.637   2.625  11.128 -0.6682 -0.0849  0.4903
  112OSM   H15A11584   4.594   2.673  11.215 -2.5981  0.4490 -0.7265
  112OSM   H15B11585   4.623   2.519  11.141 -0.7913 -0.2989 -1.2930
  112OSM   H15C11586   4.579   2.657  11.043 -0.3035 -0.8632 -0.0644
  112OSM    C1411587   4.772   2.827  11.084  0.3851 -0.3712  0.3504
  112OSM   H14A11588   4.693   2.846  11.013 -1.3145  0.1457  2.3335
  112OSM   H14B11589   4.865   2.875  11.059  0.5299 -0.4899  0.6595
  112OSM   H14C11590   4.733   2.878  11.172  1.7451  0.3291  0.5517
  112OSM    C1311591   4.868   2.632  11.229 -0.8272  0.5464 -0.8687
  112OSM   H13A11592   4.971   2.660  11.215  0.6943 -3.2239  1.7986
  112OSM   H13B11593   4.869   2.527  11.255  1.6879  0.5654 -0.7585
  112OSM   H13C11594   4.825   2.681  11.316  0.9089 -1.6244  1.2846
  112OSM    C1211595   4.825   2.596  10.985  0.3567 -0.3228  0.6087
  112OSM   H12A11596   4.930   2.620  10.973  0.1905  1.0911  1.7695
  112OSM   H12B11597   4.766   2.627  10.900 -2.1649 -0.9285  2.1035
  112OSM    C1111598   4.827   2.437  10.992 -0.4734 -0.0195 -0.5020
  112OSM   H11A11599   4.890   2.403  11.077  0.5642 -0.4357 -1.4316
  112OSM   H11B11600   4.882   2.411  10.900  1.8603  0.7203  0.6516
  112OSM      P11601   4.677   2.238  11.019 -0.0674  0.0103  0.9644
  112OSM    O1311602   4.769   2.192  11.127 -0.3419 -0.1344  0.0656
  112OSM    O1411603   4.533   2.210  11.043 -0.3642  0.2144  0.3846
  112OSM    O1111604   4.722   2.188  10.875 -0.0728  0.0855 -0.2457
  112OSM    O1211605   4.699   2.387  11.001  0.6968  1.0486 -0.1576
  112OSM    C1S11606   4.664   2.258  10.767  1.1021 -0.4077 -0.1632
  112OSM    H1S11607   4.724   2.343  10.727 -1.5368  1.1800 -0.8445
  112OSM    H1T11608   4.567   2.308  10.789  1.1795  0.4991 -1.8268
  112OSM     NF11609   4.600   2.246  10.529 -0.1427 -0.6858  0.2616
  112OSM    HNF11610   4.503   2.247  10.506  0.1108 -1.5238 -0.8879
  112OSM    C2S11611   4.650   2.168  10.645 -0.0627  0.5708 -0.2771
  112OSM    H2S11612   4.751   2.132  10.618  1.1119  0.6863  3.6935
  112OSM    C3S11613   4.557   2.042  10.673 -0.8546 -0.9050 -0.8335
  112OSM    H3S11614   4.455   2.075  10.702 -0.6195  0.8678 -1.8982
  112OSM     O311615   4.607   1.956  10.781  0.6981 -0.5796  0.2646
  112OSM    HO311616   4.673   2.012  10.823  0.0925 -0.1662  0.6837
  112OSM    C4S11617   4.531   1.958  10.550 -0.3930 -0.5410  0.6623
  112OSM    H4S11618   4.427   1.926  10.538  0.0839 -2.1355  0.5653
  112OSM    C5S11619   4.619   1.912  10.457 -0.2102 -0.1723 -0.2061
  112OSM    H5S11620   4.727   1.934  10.463 -0.4854  1.9138 -2.0555
  112OSM    C6S11621   4.582   1.812  10.345  0.2617 -0.5640  0.4463
  112OSM    H6S11622   4.477   1.778  10.358 -0.3257  1.7418  2.1540
  112OSM    H6T11623   4.649   1.724  10.341  2.4909  1.1018 -0.2394
  112OSM    C7S11624   4.578   1.876  10.210  0.3911 -0.1398 -0.6158
  112OSM    H7S11625   4.680   1.911  10.184  0.2042  1.4145  0.6455
  112OSM    H7T11626   4.518   1.969  10.220 -1.3308 -1.4339  1.6103
  112OSM    C8S11627   4.525   1.784  10.094 -0.1562  0.3770 -0.1245
  112OSM    H8S11628   4.416   1.789  10.112 -0.2257 -0.8552 -0.1146
  112OSM    H8T11629   4.558   1.680  10.116 -1.9977  0.3152  2.5633
  112OSM    C9S11630   4.565   1.831   9.951 -0.4196  0.3936 -0.5484
  112OSM    H9S11631   4.673   1.815   9.930 -0.9396 -0.3182 -2.9052
  112OSM    H9T11632   4.567   1.942   9.951 -2.9764  0.4703  0.1523
  112OSM   C10S11633   4.460   1.787   9.851 -0.2372 -0.1744  0.1395
  112OSM   H10S11634   4.359   1.809   9.891 -0.4068 -2.0140  0.7442
  112OSM   H10T11635   4.454   1.677   9.846  1.9293 -0.4261  2.0476
  112OSM   C11S11636   4.494   1.833   9.711  0.3751 -0.0276  0.4323
  112OSM   H11S11637   4.602   1.816   9.692  0.2704  0.3842 -0.5936
  112OSM   H11T11638   4.472   1.941   9.696  0.2181 -0.1929 -0.5935
  112OSM   C12S11639   4.403   1.760   9.610 -0.4879 -0.0044  0.0594
  112OSM   H12S11640   4.298   1.790   9.631 -0.1276  0.8962  0.5679
  112OSM   H12T11641   4.407   1.649   9.619 -0.3880  0.0104  0.1929
  112OSM   C13S11642   4.433   1.814   9.466  0.2881  0.1716  1.3268
  112OSM   H13S11643   4.536   1.790   9.435 -0.3489  0.7736 -1.4165
  112OSM   H13T11644   4.439   1.925   9.469 -1.1858  0.3010  0.0287
  112OSM   C14S11645   4.334   1.756   9.363 -0.1100  0.2793 -0.3062
  112OSM   H14S11646   4.230   1.793   9.369 -0.4437 -0.3378 -1.9548
  112OSM   H14T11647   4.332   1.646   9.381  3.2194  0.0395 -1.0313
  112OSM   C15S11648   4.376   1.792   9.217  0.0423 -0.1277  0.3823
  112OSM   H15S11649   4.485   1.771   9.208  0.0549  0.3420 -0.6365
  112OSM   H15T11650   4.365   1.903   9.215  1.4796  0.0203  0.4304
  112OSM   C16S11651   4.299   1.725   9.106 -0.4603  0.0853  0.4033
  112OSM   H16S11652   4.190   1.727   9.129 -0.6264  0.3558 -0.3947
  112OSM   H16T11653   4.348   1.625   9.113  0.2388  0.3011 -1.1083
  112OSM   C17S11654   4.331   1.775   8.968  0.1695 -0.7184 -0.1431
  112OSM   H17S11655   4.292   1.879   8.964 -2.0798 -1.5738 -1.3545
  112OSM   H17T11656   4.261   1.708   8.914  0.8803 -0.4635 -1.3863
  112OSM   C18S11657   4.473   1.766   8.926 -0.6937  0.1046 -0.0991
  112OSM   H18S11658   4.513   1.663   8.927  0.0429  0.3736 -1.1080
  112OSM   H18T11659   4.535   1.830   8.993  0.8075  1.0621 -2.3256
  112OSM   H18U11660   4.485   1.798   8.820  0.6636  0.0535  0.0332
  112OSM    C1F11661   4.673   2.322  10.454  0.2305  0.1118 -0.4187
  112OSM     OF11662   4.796   2.320  10.455 -0.3431  1.3109 -0.8075
  112OSM    C2F11663   4.602   2.404  10.356 -0.5946  0.1339 -0.0387
  112OSM    H2F11664   4.499   2.436  10.382  0.3266  1.6241  1.8964
  112OSM    H2G11665   4.602   2.334  10.269  1.6662 -1.6749  1.3523
  112OSM    C3F11666   4.672   2.538  10.310 -0.0322  0.3432  0.3190
  112OSM    H3F11667   4.781   2.531  10.288 -0.1609  0.2876 -0.3244
  112OSM    H3G11668   4.670   2.611  10.393  0.8737  1.1293 -0.3311
  112OSM    C4F11669   4.619   2.621  10.186  0.6725  0.6991 -0.5239
  112OSM    H4F11670   4.697   2.698  10.171  0.8796  0.8242  1.0400
  112OSM    H4G11671   4.524   2.672  10.213  0.1730 -0.1344 -0.6906
  112OSM    C5F11672   4.595   2.542  10.054  0.3226  0.0229 -0.1227
  112OSM    H5F11673   4.526   2.461  10.085 -0.2044 -0.1250 -1.6281
  112OSM    H5G11674   4.692   2.493  10.030  0.1910 -0.5827  0.5384
  112OSM    C6F11675   4.540   2.620   9.940 -0.9615 -0.4819  0.1117
  112OSM    H6F11676   4.453   2.679   9.978 -0.6518 -1.1512  1.8778
  112OSM    H6G11677   4.496   2.559   9.858 -0.0330  1.3343 -1.7984
  112OSM    C7F11678   4.644   2.713   9.866 -0.3160  0.3231  0.2025
  112OSM    H7F11679   4.680   2.784   9.944  2.1449 -1.8403  1.1136
  112OSM    H7G11680   4.596   2.770   9.784 -1.4318 -2.3545 -1.0492
  112OSM    C8F11681   4.765   2.637   9.809 -0.1928 -0.4233  0.0827
  112OSM    H8F11682   4.728   2.550   9.752  0.4448 -0.7628  0.1855
  112OSM    H8G11683   4.828   2.593   9.889  1.5561 -0.0810 -1.0999
  112OSM    C9F11684   4.840   2.720   9.709  0.2739 -0.1155 -0.4197
  112OSM    H9F11685   4.913   2.791   9.750 -0.1021  0.1232 -0.1575
  112OSM   C10F11686   4.839   2.717   9.570  0.5435 -0.3885  0.0010
  112OSM   H10F11687   4.907   2.788   9.521 -0.9321  0.3157 -1.0904
  112OSM   C11F11688   4.756   2.624   9.488  0.2507  0.2894  0.3317
  112OSM   H11F11689   4.750   2.520   9.528 -0.6644 -0.7047 -2.2500
  112OSM   H11G11690   4.813   2.603   9.395  1.3922 -1.0022  1.3036
  112OSM   C12F11691   4.607   2.662   9.465 -0.2367  0.3005 -0.0386
  112OSM   H12F11692   4.545   2.636   9.554 -0.4425 -0.4676 -0.4030
  112OSM   H12G11693   4.579   2.588   9.387 -1.3167 -0.3634  0.9665
  112OSM   C13F11694   4.590   2.812   9.429  0.0005  0.9406 -0.5495
  112OSM   H13F11695   4.640   2.862   9.515 -0.6657 -1.6401  1.3961
  112OSM   H13G11696   4.482   2.833   9.438  0.1321  1.5380 -0.3501
  112OSM   C14F11697   4.653   2.852   9.293 -0.1228  0.2462 -0.5742
  112OSM   H14F11698   4.763   2.838   9.288  0.1170  2.4841 -2.0818
  112OSM   H14G11699   4.637   2.960   9.272 -2.1386 -0.2265 -1.5486
  112OSM   C15F11700   4.600   2.777   9.171 -0.4928 -0.0832  0.7014
  112OSM   H15F11701   4.597   2.667   9.189 -0.8823  0.5917  5.5447
  112OSM   H15G11702   4.675   2.798   9.092 -0.2098 -1.6394  0.5439
  112OSM   C16F11703   4.456   2.818   9.146 -0.1085 -0.5904  0.1813
  112OSM   H16F11704   4.441   2.928   9.142 -1.2218 -0.7333  0.3754
  112OSM   H16G11705   4.399   2.789   9.237  0.2726  1.1739  1.0079
  112OSM   C17F11706   4.381   2.775   9.019 -0.0218  0.3407  0.0739
  112OSM   H17F11707   4.302   2.853   9.011 -0.9703 -0.4228  1.7614
  112OSM   H17G11708   4.334   2.679   9.049 -0.2756  1.5379  3.6639
  112OSM   C18F11709   4.462   2.772   8.889  0.1512  0.1041  0.0061
  112OSM   H18F11710   4.393   2.743   8.807  0.9999 -0.6288 -0.4635
  112OSM   H18G11711   4.546   2.700   8.900  0.8122  0.8598 -0.0239
  112OSM   H18H11712   4.497   2.874   8.864  3.4877 -1.0711 -0.4163
  113OSM      N11713   1.786   5.438  11.074 -0.4533 -0.2264 -0.2655
  113OSM    C1511714   1.678   5.495  11.161 -0.6298 -0.2375  0.2426
  113OSM   H15A11715   1.658   5.430  11.244 -3.5639 -2.5876 -2.1787
  113OSM   H15B11716   1.583   5.502  11.110 -0.6396 -3.7571 -0.3692
  113OSM   H15C11717   1.715   5.590  11.197 -0.4987  0.4782 -1.7005
  113OSM    C1411718   1.916   5.403  11.152 -0.4247  0.6507 -0.7239
  113OSM   H14A11719   1.973   5.333  11.092  1.2972 -0.0568  1.6648
  113OSM   H14B11720   1.895   5.344  11.240  0.0548  1.1172 -0.2946
  113OSM   H14C11721   1.971   5.492  11.179 -1.3270  1.5114 -1.7071
  113OSM    C1311722   1.737   5.319  10.996  0.5044  0.2175 -0.2854
  113OSM   H13A11723   1.706   5.248  11.072 -2.8855  1.9624  0.0453
  113OSM   H13B11724   1.814   5.276  10.933  0.2879  0.2778 -0.5884
  113OSM   H13C11725   1.648   5.350  10.944  0.5811 -1.1406 -1.2577
  113OSM    C1211726   1.816   5.549  10.974 -0.4127 -0.1771 -0.1418
  113OSM   H12A11727   1.903   5.520  10.917 -1.0693 -2.4740 -0.0278
  113OSM   H12B11728   1.859   5.633  11.027  0.0129 -0.2365 -0.3910
  113OSM    C1111729   1.710   5.600  10.876 -0.9756 -0.3393 -0.5654
  113OSM   H11A11730   1.662   5.513  10.828  1.9306 -2.0957 -0.3537
  113OSM   H11B11731   1.759   5.659  10.795 -0.5217 -0.2671 -0.2408
  113OSM      P11732   1.630   5.819  10.991  0.2503 -0.0157 -0.5033
  113OSM    O1311733   1.549   5.829  11.116  0.2057  0.2352  0.0038
  113OSM    O1411734   1.775   5.843  11.005  0.7278 -0.0309  0.3174
  113OSM    O1111735   1.569   5.910  10.873 -0.0741 -0.5396  0.3287
  113OSM    O1211736   1.600   5.678  10.932 -0.3058 -0.2100  0.9172
  113OSM    C1S11737   1.621   5.910  10.742  0.2136  0.0594 -0.2943
  113OSM    H1S11738   1.618   5.809  10.697 -1.7690 -0.5997  1.2330
  113OSM    H1T11739   1.725   5.948  10.734  0.4289 -0.7018 -1.2044
  113OSM     NF11740   1.580   5.996  10.514 -0.1105 -0.3452  0.2828
  113OSM    HNF11741   1.620   6.081  10.481 -1.9511 -0.2872 -1.9609
  113OSM    C2S11742   1.538   6.002  10.652  0.2688 -0.3098 -0.4783
  113OSM    H2S11743   1.434   5.962  10.657  0.7152 -1.5037 -0.5780
  113OSM    C3S11744   1.539   6.138  10.718  0.1339 -0.9994 -0.4671
  113OSM    H3S11745   1.645   6.171  10.721 -0.0094 -0.5970  0.3928
  113OSM     O311746   1.505   6.147  10.856 -0.0804 -0.8806 -0.2952
  113OSM    HO311747   1.528   6.060  10.889  0.1995 -1.3639 -1.7271
  113OSM    C4S11748   1.457   6.234  10.631  0.4040  0.3267 -0.0752
  113OSM    H4S11749   1.353   6.204  10.613  0.3967  0.6737 -0.6324
  113OSM    C5S11750   1.501   6.343  10.568  0.8810  1.4085  0.1880
  113OSM    H5S11751   1.610   6.360  10.574  1.3480 -1.2728 -0.1425
  113OSM    C6S11752   1.417   6.420  10.478  0.1008 -0.9210  0.8022
  113OSM    H6S11753   1.433   6.529  10.496  0.3557 -1.0928  1.6612
  113OSM    H6T11754   1.308   6.409  10.500 -0.0230  0.2791  0.8173
  113OSM    C7S11755   1.447   6.376  10.330 -0.6493 -0.2918  0.1859
  113OSM    H7S11756   1.363   6.418  10.272  0.2634 -0.7540 -1.5070
  113OSM    H7T11757   1.449   6.266  10.314 -0.7249 -0.6627  2.5412
  113OSM    C8S11758   1.577   6.435  10.278  0.3507  0.2315 -0.0295
  113OSM    H8S11759   1.663   6.402  10.340 -1.3569 -0.1572  2.1953
  113OSM    H8T11760   1.579   6.546  10.276 -0.7388  0.2538 -0.2141
  113OSM    C9S11761   1.607   6.390  10.133  0.1044  0.0295 -0.3700
  113OSM    H9S11762   1.691   6.455  10.101  0.2441 -1.0432 -2.2344
  113OSM    H9T11763   1.516   6.399  10.070  0.9624 -0.6246 -1.7136
  113OSM   C10S11764   1.658   6.235  10.120 -0.4420 -0.8192 -0.2837
  113OSM   H10S11765   1.576   6.173  10.163 -1.9914  0.5278 -1.2276
  113OSM   H10T11766   1.743   6.219  10.189 -0.0626  0.0354 -0.5436
  113OSM   C11S11767   1.677   6.180   9.977  0.5226  0.3929 -0.1491
  113OSM   H11S11768   1.713   6.076   9.986 -0.3479 -0.0822 -2.0072
  113OSM   H11T11769   1.753   6.248   9.932 -2.1233  3.3931 -0.3159
  113OSM   C12S11770   1.554   6.181   9.879  0.8561  0.4708  0.0274
  113OSM   H12S11771   1.505   6.279   9.895  2.1350  0.6258  3.5645
  113OSM   H12T11772   1.473   6.112   9.910  1.8240 -0.0707  1.4231
  113OSM   C13S11773   1.602   6.162   9.737 -0.0763 -0.3100 -0.2219
  113OSM   H13S11774   1.679   6.083   9.732  1.8178  1.4696  0.1106
  113OSM   H13T11775   1.669   6.248   9.718  1.8098 -1.5321  0.7623
  113OSM   C14S11776   1.482   6.167   9.638 -0.1073 -0.0741 -0.2539
  113OSM   H14S11777   1.401   6.240   9.661 -0.1190  0.0498 -0.6768
  113OSM   H14T11778   1.437   6.065   9.632 -0.8109  0.3283 -2.4988
  113OSM   C15S11779   1.534   6.205   9.495 -0.5956 -0.4224  0.2772
  113OSM   H15S11780   1.623   6.144   9.467 -1.7302 -2.4183  0.8842
  113OSM   H15T11781   1.541   6.315   9.497 -0.7388 -0.4133  0.2678
  113OSM   C16S11782   1.424   6.172   9.396 -0.2503 -0.7488  0.6223
  113OSM   H16S11783   1.334   6.227   9.430  0.4739  1.0874 -0.3595
  113OSM   H16T11784   1.407   6.063   9.416  0.2820 -1.1640 -1.1431
  113OSM   C17S11785   1.467   6.202   9.256  0.3487  0.2505 -0.1577
  113OSM   H17S11786   1.572   6.171   9.238  0.9401  1.8865  0.3459
  113OSM   H17T11787   1.467   6.313   9.244 -1.4871  0.2239 -0.4545
  113OSM   C18S11788   1.387   6.142   9.140 -0.2751  0.0467  0.1373
  113OSM   H18S11789   1.283   6.161   9.173 -0.3250  0.0808 -0.0399
  113OSM   H18T11790   1.403   6.032   9.132  0.8880  0.1431  1.0263
  113OSM   H18U11791   1.418   6.202   9.052  1.2728 -0.4477  0.3305
  113OSM    C1F11792   1.579   5.897  10.420 -0.8450  0.2688  0.2244
  113OSM     OF11793   1.523   5.791  10.440 -0.1299  0.5529 -0.1275
  113OSM    C2F11794   1.658   5.920  10.291  0.3853 -0.1869  0.4784
  113OSM    H2F11795   1.738   5.997  10.295 -0.3248  0.6315 -0.6441
  113OSM    H2G11796   1.589   5.961  10.214 -0.3154  0.4830  1.4462
  113OSM    C3F11797   1.714   5.794  10.222 -0.7837 -0.0450  0.2725
  113OSM    H3F11798   1.628   5.724  10.216 -1.2577  0.6592 -1.1929
  113OSM    H3G11799   1.804   5.750  10.270 -0.5345  0.2588  0.0820
  113OSM    C4F11800   1.744   5.807  10.068 -0.3775 -0.0189 -0.6757
  113OSM    H4F11801   1.852   5.830  10.054 -0.4627  0.5137 -0.4680
  113OSM    H4G11802   1.674   5.886  10.032 -0.3835  0.0396 -0.5319
  113OSM    C5F11803   1.724   5.677   9.981  0.2693  0.0520 -0.4161
  113OSM    H5F11804   1.617   5.651   9.968 -0.1079 -0.1234  2.7599
  113OSM    H5G11805   1.784   5.600  10.033  0.6289 -0.4749 -1.5892
  113OSM    C6F11806   1.784   5.691   9.845 -0.0703  0.4960  0.5773
  113OSM    H6F11807   1.895   5.696   9.854  0.1887 -3.6575  0.7346
  113OSM    H6G11808   1.743   5.783   9.798  0.8283  0.3852 -0.4538
  113OSM    C7F11809   1.747   5.569   9.755 -0.8912 -0.6850  0.0562
  113OSM    H7F11810   1.636   5.570   9.746 -0.7141 -0.4651 -2.3747
  113OSM    H7G11811   1.772   5.480   9.816  0.0943 -1.1974 -1.0719
  113OSM    C8F11812   1.817   5.573   9.612 -0.2549 -0.3805 -0.5156
  113OSM    H8F11813   1.919   5.601   9.643 -0.5526 -1.0624  1.1192
  113OSM    H8G11814   1.774   5.658   9.555  1.9116  0.9483 -0.2223
  113OSM    C9F11815   1.811   5.449   9.530 -0.3020  1.0734 -0.4888
  113OSM    H9F11816   1.763   5.364   9.579 -0.7088  1.9640  0.7045
  113OSM   C10F11817   1.852   5.447   9.405 -0.3487 -0.0098  0.0233
  113OSM   H10F11818   1.862   5.355   9.346  0.2124 -0.2308  0.4539
  113OSM   C11F11819   1.898   5.556   9.314  0.2465  0.9010 -0.3746
  113OSM   H11F11820   1.957   5.630   9.372 -0.1255  2.0915 -1.5136
  113OSM   H11G11821   1.814   5.619   9.278 -2.7074 -1.2128  2.4617
  113OSM   C12F11822   1.971   5.497   9.194  0.3764 -0.3471 -0.0091
  113OSM   H12F11823   2.041   5.419   9.230  2.0376  2.3940  2.9455
  113OSM   H12G11824   2.036   5.578   9.155  1.0487  0.1231  2.0135
  113OSM   C13F11825   1.888   5.430   9.076  0.3791 -0.6343 -0.5115
  113OSM   H13F11826   1.832   5.512   9.026  1.0111 -0.1892 -0.4906
  113OSM   H13G11827   1.809   5.365   9.121 -0.7709  0.6425 -0.6530
  113OSM   C14F11828   1.973   5.344   8.988 -0.8796 -0.2653 -0.0041
  113OSM   H14F11829   2.023   5.259   9.040  0.9025 -0.5630 -2.0862
  113OSM   H14G11830   2.058   5.403   8.947 -0.1299 -1.3930 -0.1200
  113OSM   C15F11831   1.901   5.288   8.862 -0.0520  0.0827  0.6475
  113OSM   H15F11832   1.806   5.241   8.895  0.8089 -1.2916  1.2261
  113OSM   H15G11833   1.973   5.218   8.816 -0.4668  0.3779 -0.4527
  113OSM   C16F11834   1.871   5.396   8.750 -0.2009  0.2172  0.2145
  113OSM   H16F11835   1.945   5.427   8.673  0.2742 -0.7753  0.2688
  113OSM   H16G11836   1.847   5.490   8.806  0.7392 -0.8379  2.4500
  113OSM   C17F11837   1.743   5.362   8.679 -0.4113  0.1894  0.4269
  113OSM   H17F11838   1.718   5.432   8.596 -2.4353  0.3110  1.1304
  113OSM   H17G11839   1.658   5.370   8.750 -0.5739  0.8457  0.1665
  113OSM   C18F11840   1.724   5.224   8.616  0.0214  0.0313  0.2961
  113OSM   H18F11841   1.621   5.209   8.576  0.1975 -2.7722  0.7878
  113OSM   H18G11842   1.745   5.141   8.687  2.1875  0.0811 -0.2461
  113OSM   H18H11843   1.786   5.197   8.528  2.2800 -1.1686  2.1954
  114OSM      N11844   3.036   1.293  11.233 -0.9055 -0.1690  0.4746
  114OSM    C1511845   3.021   1.180  11.329 -0.1828 -0.5070 -0.2507
  114OSM   H15A11846   3.114   1.148  11.374 -0.6725 -1.4259  0.1133
  114OSM   H15B11847   2.978   1.099  11.272  1.0717  0.0286 -2.0082
  114OSM   H15C11848   2.958   1.215  11.409 -1.2343 -2.0526 -0.3791
  114OSM    C1411849   2.903   1.304  11.164  0.0040  0.0627 -0.7515
  114OSM   H14A11850   2.899   1.399  11.113 -0.3788  1.1271  1.1903
  114OSM   H14B11851   2.821   1.301  11.234  0.2564 -0.3942 -0.4678
  114OSM   H14C11852   2.884   1.224  11.094  0.1545  1.5269 -2.4880
  114OSM    C1311853   3.060   1.416  11.318  0.0491 -0.5151 -0.3209
  114OSM   H13A11854   3.067   1.495  11.244 -0.8828 -1.6212 -1.6096
  114OSM   H13B11855   3.155   1.432  11.366 -0.2140  0.9474 -0.2567
  114OSM   H13C11856   2.980   1.445  11.384 -0.3023  0.2425 -1.0723
  114OSM    C1211857   3.149   1.262  11.141 -0.5174  0.4987  0.2127
  114OSM   H12A11858   3.132   1.162  11.103 -1.4646  1.4972 -2.0502
  114OSM   H12B11859   3.235   1.250  11.205 -0.4495  0.4236  0.1052
  114OSM    C1111860   3.194   1.355  11.022  0.5362  0.2776  0.1836
  114OSM   H11A11861   3.109   1.354  10.950  0.3330  1.2893  0.3946
  114OSM   H11B11862   3.276   1.309  10.964 -0.6462  0.7060 -1.8649
  114OSM      P11863   3.360   1.543  11.100 -0.1710  0.3458 -0.4364
  114OSM    O1311864   3.339   1.685  11.150 -0.3036  0.3282  0.4020
  114OSM    O1411865   3.432   1.458  11.198  0.1347 -0.1794  0.0081
  114OSM    O1111866   3.440   1.562  10.962 -0.1918  0.7263  0.1683
  114OSM    O1211867   3.218   1.487  11.063  0.1325  0.3750  0.4160
  114OSM    C1S11868   3.384   1.545  10.833 -0.6477  0.2558 -0.1965
  114OSM    H1S11869   3.301   1.618  10.817  0.0311  1.1327  0.2059
  114OSM    H1T11870   3.345   1.444  10.812  1.7926 -0.9864  1.0659
  114OSM     NF11871   3.435   1.577  10.590 -0.3842  0.5506  0.5348
  114OSM    HNF11872   3.478   1.508  10.532  0.0205  2.0808 -1.0266
  114OSM    C2S11873   3.489   1.585  10.729  0.7263  0.5336 -0.6618
  114OSM    H2S11874   3.519   1.688  10.758 -0.1141  0.8570 -0.9365
  114OSM    C3S11875   3.618   1.494  10.753 -0.1825  0.1615  0.0037
  114OSM    H3S11876   3.585   1.391  10.729 -2.5277  0.7642  0.4555
  114OSM     O311877   3.669   1.485  10.882 -0.3585 -0.6804  0.5981
  114OSM    HO311878   3.592   1.508  10.934  0.7612  1.2001  1.4897
  114OSM    C4S11879   3.722   1.536  10.653 -0.3617 -0.1181 -0.2494
  114OSM    H4S11880   3.725   1.474  10.562 -2.4364  2.0933 -1.8837
  114OSM    C5S11881   3.789   1.653  10.655 -0.0793 -0.6967  0.2639
  114OSM    H5S11882   3.783   1.725  10.738  3.1582  0.0402 -0.0477
  114OSM    C6S11883   3.902   1.689  10.553 -0.1753  0.4802 -0.0668
  114OSM    H6S11884   3.996   1.704  10.610 -0.7499  1.9776  0.5229
  114OSM    H6T11885   3.873   1.794  10.527  0.3825  0.4205 -0.9164
  114OSM    C7S11886   3.908   1.609  10.428 -0.0946 -0.5362 -0.0112
  114OSM    H7S11887   3.804   1.598  10.392 -0.4671 -1.8673  1.4297
  114OSM    H7T11888   3.940   1.505  10.449  1.0758 -0.4423 -1.3072
  114OSM    C8S11889   3.996   1.662  10.308  0.6177 -0.2303 -0.1481
  114OSM    H8S11890   4.098   1.674  10.350  0.1344 -1.3633  1.4091
  114OSM    H8T11891   3.950   1.757  10.274  3.5377  2.1403  2.2782
  114OSM    C9S11892   3.995   1.570  10.188 -0.3741 -0.1880 -0.3256
  114OSM    H9S11893   3.892   1.555  10.149 -0.6216 -0.3258  0.3703
  114OSM    H9T11894   4.028   1.468  10.217 -0.2563 -0.3211 -0.9360
  114OSM   C10S11895   4.081   1.628  10.076 -0.7938 -0.2273 -0.2749
  114OSM   H10S11896   4.184   1.590  10.092 -1.2872 -1.1405  0.7455
  114OSM   H10T11897   4.073   1.737  10.096 -0.8472 -0.3266  0.2565
  114OSM   C11S11898   4.032   1.579   9.933 -0.4410  0.1700  0.4229
  114OSM   H11S11899   3.932   1.626   9.918 -0.1261  1.1311  1.2351
  114OSM   H11T11900   4.028   1.468   9.936  0.2079  0.1078 -0.9739
  114OSM   C12S11901   4.117   1.615   9.811  0.2534 -0.1267  0.1874
  114OSM   H12S11902   4.207   1.552   9.823 -1.1387 -2.3166 -0.5252
  114OSM   H12T11903   4.137   1.725   9.814 -1.1175  0.1721 -0.7458
  114OSM   C13S11904   4.049   1.590   9.680  0.2717  0.3254 -0.1871
  114OSM   H13S11905   4.126   1.615   9.604 -0.2739  0.8403 -0.5757
  114OSM   H13T11906   3.959   1.651   9.658  0.4341 -0.1839 -2.3953
  114OSM   C14S11907   4.008   1.447   9.659  0.2814 -0.2330  0.2979
  114OSM   H14S11908   3.920   1.437   9.591  1.0547  1.3326 -0.9640
  114OSM   H14T11909   3.976   1.389   9.749 -1.3505  2.3662  1.4357
  114OSM   C15S11910   4.119   1.364   9.596 -0.3690 -0.2612 -0.0728
  114OSM   H15S11911   4.201   1.357   9.670 -0.8597  1.6196  0.6779
  114OSM   H15T11912   4.153   1.415   9.503 -2.0407  2.4934  0.8001
  114OSM   C16S11913   4.088   1.222   9.543 -0.6313 -0.0849 -0.1981
  114OSM   H16S11914   3.985   1.210   9.503 -0.9516 -1.7907  1.0742
  114OSM   H16T11915   4.095   1.160   9.635 -0.1178 -0.6840 -0.6443
  114OSM   C17S11916   4.192   1.171   9.442  0.5806  0.0648 -0.2636
  114OSM   H17S11917   4.288   1.159   9.497  0.1897 -1.7935  0.0559
  114OSM   H17T11918   4.210   1.256   9.373  0.4562  0.2154 -0.1111
  114OSM   C18S11919   4.151   1.055   9.362 -0.3883  0.4285  0.5082
  114OSM   H18S11920   4.043   1.060   9.334 -0.5514 -1.4159  0.7411
  114OSM   H18T11921   4.165   0.960   9.418 -0.9404  0.2396  0.3265
  114OSM   H18U11922   4.210   1.051   9.268 -0.2136  0.8840  0.5959
  114OSM    C1F11923   3.334   1.652  10.549 -0.1038 -0.7693  0.1552
  114OSM     OF11924   3.312   1.770  10.590 -0.5631 -0.2915 -0.2981
  114OSM    C2F11925   3.245   1.579  10.457 -0.3142 -0.3876  0.3382
  114OSM    H2F11926   3.144   1.601  10.497 -1.6303 -1.9047 -2.0484
  114OSM    H2G11927   3.262   1.469  10.451 -0.2966 -0.2682 -2.0552
  114OSM    C3F11928   3.249   1.628  10.311 -0.1209 -0.4050 -0.2030
  114OSM    H3F11929   3.189   1.556  10.252  1.8402 -1.1178 -1.3936
  114OSM    H3G11930   3.352   1.628  10.269 -0.4185  2.9698 -1.1101
  114OSM    C4F11931   3.210   1.770  10.286  0.2248  0.0379 -0.2588
  114OSM    H4F11932   3.263   1.840  10.354  1.2930 -0.2318 -0.8016
  114OSM    H4G11933   3.101   1.780  10.308 -0.2532 -3.0931 -0.9338
  114OSM    C5F11934   3.227   1.809  10.139 -0.0290 -0.1487  0.9218
  114OSM    H5F11935   3.333   1.803  10.105 -0.0271 -0.6983  1.0305
  114OSM    H5G11936   3.188   1.913  10.135 -0.1594 -0.2703 -2.0379
  114OSM    C6F11937   3.136   1.742  10.035  0.2197  0.2700 -0.6325
  114OSM    H6F11938   3.132   1.816   9.953  0.2466  3.0012  1.7283
  114OSM    H6G11939   3.040   1.721  10.087  0.4627  0.8071  0.0411
  114OSM    C7F11940   3.179   1.603   9.989  0.1696  0.4097  0.4741
  114OSM    H7F11941   3.122   1.525  10.045  1.3640  0.1237  1.3170
  114OSM    H7G11942   3.287   1.587  10.011  0.3332 -0.3793 -0.8409
  114OSM    C8F11943   3.157   1.585   9.834 -0.2206 -0.7352  0.5695
  114OSM    H8F11944   3.203   1.487   9.811  1.5674 -0.6357  3.3940
  114OSM    H8G11945   3.223   1.652   9.774 -0.5073 -1.9096 -1.0612
  114OSM    C9F11946   3.009   1.602   9.809  0.4005  0.2452  0.8142
  114OSM    H9F11947   2.936   1.621   9.889 -1.2443  2.7450 -1.1692
  114OSM   C10F11948   2.960   1.643   9.693  0.0904  0.9653  0.8004
  114OSM   H10F11949   2.851   1.659   9.690  0.1375  1.1171 -0.2004
  114OSM   C11F11950   3.038   1.675   9.564 -0.8527  0.7512 -0.1507
  114OSM   H11F11951   3.145   1.646   9.561 -1.1757 -0.5266  0.5272
  114OSM   H11G11952   3.024   1.784   9.547 -0.2397  1.1231  1.6220
  114OSM   C12F11953   2.972   1.599   9.448  0.4731 -0.0602  0.8575
  114OSM   H12F11954   2.878   1.652   9.424  1.2754  0.3667 -1.4939
  114OSM   H12G11955   2.975   1.488   9.461 -0.3620 -0.2063 -0.1798
  114OSM   C13F11956   3.056   1.627   9.322  0.8230 -0.0740 -0.7108
  114OSM   H13F11957   3.162   1.599   9.342  0.5713  0.3180  1.2554
  114OSM   H13G11958   3.059   1.737   9.307 -5.3572  0.6468  2.2226
  114OSM   C14F11959   2.975   1.564   9.201 -0.1982 -0.2093 -0.5196
  114OSM   H14F11960   2.890   1.634   9.185  0.4030  0.6379 -0.1005
  114OSM   H14G11961   2.930   1.464   9.212 -0.0808 -0.2625 -0.5196
  114OSM   C15F11962   3.052   1.566   9.070 -0.0191 -0.0060 -0.4686
  114OSM   H15F11963   3.143   1.503   9.076  0.9387  1.5375  1.5532
  114OSM   H15G11964   3.082   1.673   9.071 -1.0830  0.3201 -1.3872
  114OSM   C16F11965   2.965   1.549   8.946  0.1496  0.0921 -0.9994
  114OSM   H16F11966   2.876   1.614   8.962  0.8620  0.8961 -0.2371
  114OSM   H16G11967   2.936   1.443   8.934 -1.8103  0.4599  0.1754
  114OSM   C17F11968   3.039   1.602   8.823 -0.4575  0.0734 -0.2160
  114OSM   H17F11969   3.134   1.548   8.805 -0.5732 -0.3345  0.3650
  114OSM   H17G11970   3.062   1.710   8.840 -2.0869  0.6203 -1.4655
  114OSM   C18F11971   2.965   1.607   8.694 -0.4385  0.0064  0.2737
  114OSM   H18F11972   2.935   1.502   8.675  1.5146 -0.4368 -0.5187
  114OSM   H18G11973   3.025   1.661   8.617 -0.9057  1.4364  0.9024
  114OSM   H18H11974   2.871   1.655   8.727 -0.4235 -0.0444  0.3909
  115OSM      N11975   0.715   1.029  11.136  0.2499 -0.0486 -0.4156
  115OSM    C1511976   0.688   0.985  10.998  0.1152  0.8738  0.5067
  115OSM   H15A11977   0.776   0.996  10.937  1.6832  0.9075  2.7106
  115OSM   H15B11978   0.616   1.044  10.943  0.3941  0.4055 -0.3569
  115OSM   H15C11979   0.648   0.885  10.997  0.7056  0.6379 -2.0608
  115OSM    C1411980   0.830   0.955  11.200 -0.2558  0.2759  0.4633
  115OSM   H14A11981   0.844   0.976  11.305 -3.1971  2.4581  0.4856
  115OSM   H14B11982   0.920   0.974  11.143 -0.7728 -3.2140 -1.6517
  115OSM   H14C11983   0.812   0.849  11.201 -0.7468  0.3598  0.9321
  115OSM    C1311984   0.747   1.178  11.124  0.4968 -0.1265 -0.9093
  115OSM   H13A11985   0.767   1.210  11.225  0.1532  2.7327 -1.6952
  115OSM   H13B11986   0.662   1.226  11.079 -1.8065 -0.8033  2.5237
  115OSM   H13C11987   0.839   1.191  11.070 -0.2908  1.1725 -1.9619
  115OSM    C1211988   0.590   1.014  11.227 -0.2341  0.3584 -0.1788
  115OSM   H12A11989   0.623   1.039  11.327  2.8218 -0.3836 -0.9524
  115OSM   H12B11990   0.556   0.912  11.221 -1.4180  0.5672  2.4406
  115OSM    C1111991   0.461   1.102  11.191 -0.3919 -0.1372  0.4858
  115OSM   H11A11992   0.467   1.204  11.234 -3.0664 -0.1461  0.9712
  115OSM   H11B11993   0.378   1.058  11.250 -2.8408 -0.0171 -2.7095
  115OSM      P11994   0.362   1.228  10.980  0.5905 -0.1188 -0.2550
  115OSM    O1311995   0.266   1.303  11.065 -0.0109  0.2787  0.4692
  115OSM    O1411996   0.477   1.300  10.923  0.2379  0.1757  0.0727
  115OSM    O1111997   0.272   1.172  10.868 -0.7036 -0.9103  0.1782
  115OSM    O1211998   0.413   1.093  11.055  0.0527 -0.6066 -0.6190
  115OSM    C1S11999   0.227   1.245  10.752  0.0714 -0.0290 -0.0294
  115OSM    H1S12000   0.253   1.351  10.773 -0.1012  0.0623 -0.2698
  115OSM    H1T12001   0.118   1.232  10.739 -0.0262  1.1333 -0.4387
  115OSM     NF12002   0.253   1.301  10.517 -0.2207  0.0668  0.2972
  115OSM    HNF12003   0.187   1.259  10.455 -2.2487  0.5743  2.0668
  115OSM    C2S12004   0.298   1.209  10.618 -0.2451 -0.2755  0.2161
  115OSM    H2S12005   0.408   1.218  10.635 -0.0355 -2.5298  0.2055
  115OSM    C3S12006   0.264   1.062  10.581 -0.1034 -0.1125  0.4248
  115OSM    H3S12007   0.155   1.048  10.596 -0.5514  2.4205 -0.2208
  115OSM     O312008   0.334   0.968  10.661 -0.1290  0.1257 -0.4515
  115OSM    HO312009   0.388   1.017  10.723 -1.0518  0.3477  0.1794
  115OSM    C4S12010   0.288   1.027  10.432  0.1932 -0.4421 -0.0477
  115OSM    H4S12011   0.193   1.020  10.377  0.3381  0.3653 -0.4018
  115OSM    C5S12012   0.409   1.001  10.371  0.1663 -0.7681  0.6486
  115OSM    H5S12013   0.508   1.008  10.419  0.8510 -2.0381 -0.5183
  115OSM    C6S12014   0.425   0.964  10.225 -0.6526  0.2056 -0.0894
  115OSM    H6S12015   0.485   0.870  10.219 -1.4705 -0.2522 -1.1828
  115OSM    H6T12016   0.492   1.038  10.178 -2.5649  2.0447  0.0004
  115OSM    C7S12017   0.292   0.935  10.142 -0.1244  0.1646 -0.0156
  115OSM    H7S12018   0.230   1.027  10.149  0.6881  0.6794  0.5198
  115OSM    H7T12019   0.242   0.838  10.161 -0.1628  0.2991  0.5647
  115OSM    C8S12020   0.337   0.930   9.993  0.1290 -0.2210 -0.9878
  115OSM    H8S12021   0.407   0.844   9.985 -0.7382 -0.8934 -1.4447
  115OSM    H8T12022   0.393   1.023   9.968 -0.5695  0.6431  0.5562
  115OSM    C9S12023   0.217   0.911   9.894 -0.9169 -0.6010 -0.7135
  115OSM    H9S12024   0.157   1.004   9.902  0.0791 -0.0125 -0.0708
  115OSM    H9T12025   0.154   0.828   9.933 -1.3222 -0.0078 -0.0853
  115OSM   C10S12026   0.257   0.879   9.751 -0.5090 -0.3386  0.2999
  115OSM   H10S12027   0.299   0.777   9.743 -1.7743 -0.7152 -1.8768
  115OSM   H10T12028   0.317   0.969   9.723 -0.1779  0.1085  2.3458
  115OSM   C11S12029   0.138   0.869   9.652  0.6004  0.3455 -0.6832
  115OSM   H11S12030   0.082   0.963   9.672  2.4800  0.8073  2.7264
  115OSM   H11T12031   0.070   0.783   9.671  0.6065  0.8633  1.9156
  115OSM   C12S12032   0.176   0.873   9.502  0.1319 -0.2893 -0.3246
  115OSM   H12S12033   0.233   0.781   9.475  0.5044  0.1109 -0.9289
  115OSM   H12T12034   0.249   0.954   9.482 -0.7255  1.0579  1.8251
  115OSM   C13S12035   0.053   0.879   9.412 -0.3825 -0.1707 -0.7548
  115OSM   H13S12036   0.004   0.977   9.433 -0.0362  0.0286 -0.8801
  115OSM   H13T12037  -0.011   0.793   9.441  1.1236 -1.3219 -0.7866
  115OSM   C14S12038   0.087   0.876   9.261 -0.1406  0.2965 -0.1738
  115OSM   H14S12039   0.152   0.787   9.250  1.5755  1.2910  1.5690
  115OSM   H14T12040   0.150   0.964   9.235 -0.2770  0.3294 -0.3855
  115OSM   C15S12041  -0.038   0.859   9.168  0.0689  0.3946  0.0858
  115OSM   H15S12042  -0.114   0.932   9.200 -0.6971 -0.0272 -0.7499
  115OSM   H15T12043  -0.080   0.759   9.193  1.9004 -0.3556  0.2756
  115OSM   C16S12044  -0.004   0.881   9.024  0.6371 -0.1876  0.6743
  115OSM   H16S12045  -0.063   0.809   8.963  0.0577  0.3791  0.5712
  115OSM   H16T12046   0.101   0.855   8.999  2.0244  3.0939  2.7623
  115OSM   C17S12047  -0.032   1.022   8.977  0.0627  1.0291 -0.3733
  115OSM   H17S12048   0.036   1.089   9.034 -0.6272  1.1926  0.2531
  115OSM   H17T12049  -0.138   1.052   8.989 -0.4818  0.2598 -2.8480
  115OSM   C18S12050  -0.001   1.029   8.827  0.1340 -0.4971  0.2642
  115OSM   H18S12051  -0.026   1.127   8.781  0.6743  0.1826  1.3905
  115OSM   H18T12052  -0.068   0.955   8.777 -0.9561  1.6090 -1.4587
  115OSM   H18U12053   0.105   1.000   8.809 -0.0851 -2.3554  1.7581
  115OSM    C1F12054   0.296   1.428  10.511  0.0534  0.7952 -0.5115
  115OSM     OF12055   0.353   1.478  10.607 -0.1628  0.6067 -0.0760
  115OSM    C2F12056   0.279   1.501  10.376  0.6134  0.0467 -0.2171
  115OSM    H2F12057   0.175   1.481  10.342  0.3178 -1.5371  1.5406
  115OSM    H2G12058   0.355   1.463  10.304 -0.7611 -1.2028 -1.0405
  115OSM    C3F12059   0.307   1.653  10.382  0.0324 -0.3805  0.3284
  115OSM    H3F12060   0.391   1.680  10.448 -0.2934 -0.6673  0.8675
  115OSM    H3G12061   0.209   1.688  10.421 -0.3968  0.7216 -1.6519
  115OSM    C4F12062   0.324   1.717  10.241  1.2469  0.6224  0.2294
  115OSM    H4F12063   0.421   1.684  10.199  1.4307  0.8102  0.5072
  115OSM    H4G12064   0.335   1.826  10.255  0.2841  0.8862 -0.9873
  115OSM    C5F12065   0.205   1.696  10.154 -0.3892 -0.5144  0.4390
  115OSM    H5F12066   0.120   1.728  10.218 -1.3150 -0.6024 -0.7096
  115OSM    H5G12067   0.196   1.594  10.111  1.3128 -0.2089 -0.7323
  115OSM    C6F12068   0.192   1.781  10.023 -0.4057 -0.0130  0.0420
  115OSM    H6F12069   0.258   1.738   9.945 -0.9174 -0.6936 -0.0238
  115OSM    H6G12070   0.223   1.882  10.056 -0.9999 -0.0950  0.8736
  115OSM    C7F12071   0.042   1.794   9.973 -0.1685  0.4508  0.7634
  115OSM    H7F12072  -0.008   1.872  10.035  0.5169  0.3315  1.4655
  115OSM    H7G12073   0.003   1.690   9.979  0.3228 -0.0070 -3.0270
  115OSM    C8F12074   0.011   1.829   9.827  0.0209 -0.6596 -0.0314
  115OSM    H8F12075   0.023   1.936   9.802 -1.2157 -0.4404  0.2921
  115OSM    H8G12076  -0.097   1.812   9.813 -0.1630  0.5369 -0.1208
  115OSM    C9F12077   0.095   1.760   9.723 -0.1123  0.3912 -0.2819
  115OSM    H9F12078   0.202   1.784   9.718 -0.1511  0.4447 -0.9679
  115OSM   C10F12079   0.051   1.675   9.627 -0.2898 -0.2730 -0.5583
  115OSM   H10F12080   0.126   1.631   9.561 -1.2621 -0.6767 -1.4137
  115OSM   C11F12081  -0.092   1.628   9.610 -0.1835 -0.3450 -0.4746
  115OSM   H11F12082  -0.158   1.678   9.683  2.0058 -1.1748  2.1581
  115OSM   H11G12083  -0.086   1.520   9.636 -3.1165 -0.0607  1.5093
  115OSM   C12F12084  -0.158   1.658   9.474 -0.3350  0.1451 -0.5453
  115OSM   H12F12085  -0.099   1.590   9.409  1.4033  0.9094  0.2043
  115OSM   H12G12086  -0.137   1.765   9.454 -0.0383  0.2139  0.1129
  115OSM   C13F12087  -0.307   1.629   9.453  0.0921 -0.2112 -0.2879
  115OSM   H13F12088  -0.362   1.709   9.507 -2.6080 -1.3363 -1.3008
  115OSM   H13G12089  -0.334   1.526   9.487  3.3370 -0.2421  2.4830
  115OSM   C14F12090  -0.351   1.651   9.309 -0.6260  0.3953  0.4765
  115OSM   H14F12091  -0.272   1.718   9.269 -1.0289  0.7321  0.2377
  115OSM   H14G12092  -0.452   1.698   9.313 -0.4089  1.0382 -1.0432
  115OSM   C15F12093  -0.341   1.522   9.220 -0.3492 -0.1942  0.1368
  115OSM   H15F12094  -0.394   1.437   9.270  0.7117 -0.3585  0.9929
  115OSM   H15G12095  -0.238   1.484   9.210 -0.4076 -0.0419 -1.0865
  115OSM   C16F12096  -0.397   1.536   9.077 -0.3728  0.1538  0.3910
  115OSM   H16F12097  -0.368   1.439   9.031 -0.0933  0.2022  0.4600
  115OSM   H16G12098  -0.342   1.622   9.031 -0.4042 -1.2874 -2.4854
  115OSM   C17F12099  -0.548   1.552   9.068  0.1343  0.5639  1.0126
  115OSM   H17F12100  -0.577   1.657   9.091  0.3591  0.5174  1.5311
  115OSM   H17G12101  -0.602   1.475   9.127  2.2810 -0.6386  1.4630
  115OSM   C18F12102  -0.599   1.524   8.930 -0.3941 -0.5468  0.2656
  115OSM   H18F12103  -0.561   1.592   8.851 -2.9903  0.5078 -0.1002
  115OSM   H18G12104  -0.709   1.528   8.920 -0.3204 -0.6452 -0.5995
  115OSM   H18H12105  -0.568   1.424   8.893  0.2105  0.0144 -0.7412
  116OSM      N12106   3.736   4.291  11.372 -0.1103 -0.4230  0.0551
  116OSM    C1512107   3.636   4.189  11.348  0.2159 -0.0290  0.5798
  116OSM   H15A12108   3.544   4.219  11.396 -1.4770 -1.4068 -1.6869
  116OSM   H15B12109   3.655   4.095  11.398 -0.0470  0.1647  1.0490
  116OSM   H15C12110   3.622   4.170  11.243  0.9546 -0.1029  0.4865
  116OSM    C1412111   3.745   4.314  11.519 -0.2034 -0.5784 -0.5512
  116OSM   H14A12112   3.764   4.219  11.565  1.9307 -1.3125 -2.8347
  116OSM   H14B12113   3.652   4.360  11.550 -0.4355  0.7210 -3.0222
  116OSM   H14C12114   3.830   4.379  11.533 -1.6909  1.0062  1.4501
  116OSM    C1312115   3.872   4.252  11.327  0.9323  0.3025  0.0855
  116OSM   H13A12116   3.873   4.209  11.228 -1.1377  2.5337 -0.9338
  116OSM   H13B12117   3.913   4.174  11.390  0.7820  1.0618  1.1401
  116OSM   H13C12118   3.939   4.336  11.334  2.2459 -0.7733  0.8681
  116OSM    C1212119   3.692   4.418  11.292  0.0437 -0.4303  0.1128
  116OSM   H12A12120   3.769   4.494  11.295  0.0360 -0.4563  1.5873
  116OSM   H12B12121   3.601   4.459  11.333 -1.5496 -3.8031  0.1355
  116OSM    C1112122   3.668   4.391  11.139 -0.4537  0.8715 -0.0687
  116OSM   H11A12123   3.748   4.329  11.094 -2.7043 -0.1756 -2.8002
  116OSM   H11B12124   3.671   4.490  11.088  0.5679  1.0809  0.3784
  116OSM      P12125   3.408   4.377  11.118 -0.2047 -0.3691 -0.2698
  116OSM    O1312126   3.308   4.268  11.126 -0.8642 -0.2803 -0.7764
  116OSM    O1412127   3.400   4.485  11.223 -0.0946 -0.3037  0.3368
  116OSM    O1112128   3.378   4.453  10.985  0.6556 -0.1661  0.3038
  116OSM    O1212129   3.551   4.321  11.105  0.3907  0.4463  0.1091
  116OSM    C1S12130   3.467   4.422  10.878  0.5105 -0.4037  0.2183
  116OSM    H1S12131   3.471   4.314  10.854  0.5040 -0.6155  1.1607
  116OSM    H1T12132   3.569   4.456  10.904 -0.1003  0.9303  0.9245
  116OSM     NF12133   3.541   4.461  10.644  0.3690 -0.3209 -0.7189
  116OSM    HNF12134   3.612   4.530  10.633 -0.1901  0.5603  0.9184
  116OSM    C2S12135   3.437   4.496  10.742  0.6492  0.5009  0.1502
  116OSM    H2S12136   3.341   4.467  10.693  0.0253  1.4563  0.7985
  116OSM    C3S12137   3.429   4.647  10.770  0.2286  0.0346 -0.7563
  116OSM    H3S12138   3.525   4.687  10.810 -0.8927 -1.0330  3.1960
  116OSM     O312139   3.339   4.690  10.874  0.0836  0.1201  0.1424
  116OSM    HO312140   3.311   4.604  10.907 -0.6504 -0.4497 -1.8964
  116OSM    C4S12141   3.402   4.717  10.640 -0.2763  0.3625 -0.3325
  116OSM    H4S12142   3.494   4.748  10.588 -0.1418  2.1471  0.9302
  116OSM    C5S12143   3.281   4.741  10.586  0.2796  0.4840 -0.5632
  116OSM    H5S12144   3.189   4.697  10.630 -0.2124  0.3677 -1.6899
  116OSM    C6S12145   3.257   4.815  10.451 -0.1436 -0.4178 -0.3968
  116OSM    H6S12146   3.248   4.924  10.468  0.7139 -0.4450  0.2552
  116OSM    H6T12147   3.169   4.774  10.396  2.1811 -1.4300 -3.5383
  116OSM    C7S12148   3.369   4.803  10.348 -0.0935 -0.2703  0.4996
  116OSM    H7S12149   3.386   4.694  10.336 -2.5158 -0.6342  0.1754
  116OSM    H7T12150   3.460   4.831  10.406 -0.5212 -1.5626  1.8100
  116OSM    C8S12151   3.347   4.886  10.217 -0.0883 -0.4242  0.1618
  116OSM    H8S12152   3.445   4.924  10.181 -0.7096 -0.5017 -1.6837
  116OSM    H8T12153   3.289   4.979  10.239  0.0813 -0.9185  2.8288
  116OSM    C9S12154   3.275   4.811  10.094 -0.6769 -0.4221 -0.7458
  116OSM    H9S12155   3.171   4.782  10.118 -0.9537 -0.5104 -2.0249
  116OSM    H9T12156   3.336   4.719  10.090  1.6679  0.9867  0.7341
  116OSM   C10S12157   3.287   4.892   9.962 -0.8300 -0.1227 -0.0933
  116OSM   H10S12158   3.394   4.919   9.944 -0.1509 -0.9579  2.5264
  116OSM   H10T12159   3.224   4.984   9.960  0.8027  1.0102 -0.8316
  116OSM   C11S12160   3.247   4.811   9.833  0.5624 -0.8662  0.0262
  116OSM   H11S12161   3.137   4.797   9.838  0.1919  1.0773 -1.8547
  116OSM   H11T12162   3.291   4.709   9.839  0.8957 -0.8170 -1.5720
  116OSM   C12S12163   3.276   4.889   9.704 -0.9186 -0.7300 -0.1510
  116OSM   H12S12164   3.385   4.890   9.683 -0.4714 -1.1404  2.0832
  116OSM   H12T12165   3.233   4.992   9.711 -0.5170 -0.5978  0.3812
  116OSM   C13S12166   3.213   4.810   9.592 -0.5487  0.8420  0.7886
  116OSM   H13S12167   3.106   4.800   9.621 -0.1570 -1.4975  1.4772
  116OSM   H13T12168   3.256   4.708   9.599  0.6694  1.3253  0.4368
  116OSM   C14S12169   3.213   4.879   9.457  0.3155 -0.3635  0.1862
  116OSM   H14S12170   3.312   4.917   9.426 -0.3866  2.4373  1.1691
  116OSM   H14T12171   3.157   4.976   9.457 -0.9560 -1.0847  0.4012
  116OSM   C15S12172   3.154   4.798   9.339  0.4916 -0.3279 -0.2082
  116OSM   H15S12173   3.059   4.753   9.376 -0.4278  0.7695 -1.1805
  116OSM   H15T12174   3.222   4.713   9.315  1.3728  0.3530 -0.1340
  116OSM   C16S12175   3.113   4.880   9.208  0.7009  0.1330 -1.3985
  116OSM   H16S12176   3.200   4.937   9.168  0.2495  1.1293 -0.9926
  116OSM   H16T12177   3.027   4.949   9.225 -0.3700 -1.1649 -1.5059
  116OSM   C17S12178   3.068   4.782   9.095  0.3121 -0.2256  0.5128
  116OSM   H17S12179   2.979   4.721   9.122  1.5532 -1.6833  1.3893
  116OSM   H17T12180   3.155   4.717   9.069  1.0193  0.9589 -0.1450
  116OSM   C18S12181   3.018   4.864   8.972  0.1216  0.1205 -0.2572
  116OSM   H18S12182   3.096   4.939   8.946  0.8519 -0.2940  0.7466
  116OSM   H18T12183   2.933   4.925   9.009  0.6061  0.2627  0.6370
  116OSM   H18U12184   2.999   4.803   8.881  1.7081  1.2164 -1.3502
  116OSM    C1F12185   3.552   4.332  10.604 -0.1317  0.6040  0.0548
  116OSM     OF12186   3.461   4.253  10.621  0.0241  0.4636  0.6129
  116OSM    C2F12187   3.687   4.303  10.539  0.0837  0.1975 -0.0760
  116OSM    H2F12188   3.775   4.305  10.606  1.0790 -1.1655 -1.3143
  116OSM    H2G12189   3.697   4.380  10.460 -0.3243  0.7278  0.3830
  116OSM    C3F12190   3.678   4.173  10.447  0.2918 -0.2779 -1.1917
  116OSM    H3F12191   3.647   4.084  10.506  2.6568 -1.3430 -1.4819
  116OSM    H3G12192   3.785   4.155  10.422  0.4516 -0.1441 -0.6050
  116OSM    C4F12193   3.601   4.188  10.323  0.0127 -0.1181  0.1593
  116OSM    H4F12194   3.539   4.280  10.327  0.1420 -0.0672  1.0758
  116OSM    H4G12195   3.536   4.099  10.307  0.1357 -0.1394 -0.2478
  116OSM    C5F12196   3.696   4.198  10.201 -0.6428 -0.1639 -0.1557
  116OSM    H5F12197   3.761   4.107  10.192 -0.6418 -0.1863  0.0711
  116OSM    H5G12198   3.774   4.272  10.226  0.8398 -0.5909 -3.1691
  116OSM    C6F12199   3.647   4.241  10.060 -0.5314 -0.1739  0.5700
  116OSM    H6F12200   3.725   4.294  10.001  1.1106 -2.5836  0.5012
  116OSM    H6G12201   3.564   4.311  10.079 -0.0667  0.9225 -1.3728
  116OSM    C7F12202   3.590   4.129   9.979  0.0824  0.3945 -0.3032
  116OSM    H7F12203   3.501   4.089  10.031  0.5008  1.4191  1.2357
  116OSM    H7G12204   3.663   4.050   9.951  0.7358  1.5636 -2.0631
  116OSM    C8F12205   3.540   4.161   9.835 -0.2309 -0.3912  0.4596
  116OSM    H8F12206   3.615   4.230   9.791 -0.9730 -0.4214 -0.8991
  116OSM    H8G12207   3.447   4.222   9.837 -1.0879 -1.6809  0.0511
  116OSM    C9F12208   3.542   4.036   9.753 -0.4342 -0.0999  0.0313
  116OSM    H9F12209   3.508   3.947   9.809 -1.6586  2.1040  2.8885
  116OSM   C10F12210   3.574   4.027   9.621 -0.2356  0.0056 -0.8589
  116OSM   H10F12211   3.573   3.934   9.561  2.0692 -0.2852 -0.4783
  116OSM   C11F12212   3.609   4.146   9.532  0.0031 -0.2927 -0.2321
  116OSM   H11F12213   3.699   4.196   9.572 -0.0117 -1.9106  1.9457
  116OSM   H11G12214   3.532   4.226   9.538 -2.8216 -2.9424 -0.1014
  116OSM   C12F12215   3.619   4.112   9.382  0.0445 -0.2925 -0.3058
  116OSM   H12F12216   3.691   4.028   9.377 -0.4161 -0.7392  0.4327
  116OSM   H12G12217   3.650   4.200   9.321 -0.1872  0.0192  0.0234
  116OSM   C13F12218   3.489   4.070   9.332 -0.3871  0.5104  0.4896
  116OSM   H13F12219   3.426   4.161   9.344  1.8430  2.0816  0.5765
  116OSM   H13G12220   3.445   3.979   9.379  1.0754 -0.6595 -0.3753
  116OSM   C14F12221   3.480   4.039   9.180  0.0175 -0.2309 -0.2445
  116OSM   H14F12222   3.567   3.976   9.152  0.3217  1.1136 -2.3937
  116OSM   H14G12223   3.486   4.135   9.125 -0.7273  0.7173  1.2818
  116OSM   C15F12224   3.357   3.965   9.130  0.2918 -0.1017 -0.2345
  116OSM   H15F12225   3.266   4.028   9.120  0.5132  0.2615  0.0153
  116OSM   H15G12226   3.334   3.883   9.201  1.5136 -1.5105 -1.4526
  116OSM   C16F12227   3.388   3.909   8.988  1.0509 -0.1135 -0.0988
  116OSM   H16F12228   3.482   3.851   8.992  0.7413 -0.5317  1.2311
  116OSM   H16G12229   3.397   3.981   8.903  1.8535  1.8058  1.5720
  116OSM   C17F12230   3.282   3.807   8.941 -1.0489  1.1338 -0.1177
  116OSM   H17F12231   3.177   3.843   8.944 -1.7267 -0.8633  1.0332
  116OSM   H17G12232   3.284   3.735   9.025 -0.8409  0.2470 -0.8835
  116OSM   C18F12233   3.319   3.750   8.801  0.2045 -0.0395  0.5518
  116OSM   H18F12234   3.313   3.832   8.727  3.6709  0.1346  0.3659
  116OSM   H18G12235   3.256   3.665   8.768  0.7161 -0.5792  0.9417
  116OSM   H18H12236   3.428   3.729   8.801  0.6027  1.7801 -2.6041
  117OSM      N12237   1.246   4.938  10.927  0.6026 -0.6681 -0.1401
  117OSM    C1512238   1.347   4.996  11.020 -0.7583 -0.5338 -0.6903
  117OSM   H15A12239   1.410   4.919  11.063 -0.7525 -0.0139  0.2551
  117OSM   H15B12240   1.301   5.042  11.107 -0.9190 -0.1424 -0.9808
  117OSM   H15C12241   1.404   5.075  10.975 -0.6826 -1.4957 -2.3067
  117OSM    C1412242   1.320   4.873  10.823 -0.4672  0.0885  0.1600
  117OSM   H14A12243   1.380   4.941  10.765 -1.3855 -0.0131 -0.9204
  117OSM   H14B12244   1.250   4.836  10.750  2.3604 -0.9512 -2.0848
  117OSM   H14C12245   1.382   4.800  10.872 -1.0415 -0.3002  0.3196
  117OSM    C1312246   1.163   4.837  10.990  0.3357  0.0479 -0.9944
  117OSM   H13A12247   1.096   4.792  10.918 -0.8016  0.1981 -0.0509
  117OSM   H13B12248   1.116   4.883  11.076  1.0028 -0.3352 -0.4221
  117OSM   H13C12249   1.220   4.755  11.031 -0.8174  0.3341  1.3004
  117OSM    C1212250   1.159   5.047  10.869  0.3058 -0.2175  0.6508
  117OSM   H12A12251   1.108   5.104  10.945 -0.5473  0.1188 -0.1524
  117OSM   H12B12252   1.077   5.001  10.815  1.1227 -1.8527  0.7704
  117OSM    C1112253   1.227   5.157  10.784  0.5307  0.0296  0.8278
  117OSM   H11A12254   1.140   5.225  10.776  0.3417 -0.3110 -0.0253
  117OSM   H11B12255   1.258   5.126  10.682 -0.2970  3.0629 -0.4109
  117OSM      P12256   1.310   5.348  10.936  0.2063  0.0669 -0.0942
  117OSM    O1312257   1.176   5.343  11.005 -0.1989 -0.3105 -0.0283
  117OSM    O1412258   1.422   5.372  11.025  0.1585 -0.2481 -0.2501
  117OSM    O1112259   1.287   5.446  10.820 -0.3451 -0.8462  0.0390
  117OSM    O1212260   1.336   5.213  10.855 -0.7375  0.5918  0.0347
  117OSM    C1S12261   1.396   5.480  10.731  0.1144 -0.1775 -0.0096
  117OSM    H1S12262   1.475   5.402  10.726  1.8904  1.6062  0.0686
  117OSM    H1T12263   1.449   5.567  10.775 -0.6358 -0.0507  0.6541
  117OSM     NF12264   1.463   5.515  10.494  0.3693  0.0868 -0.2133
  117OSM    HNF12265   1.510   5.602  10.479  0.5996  0.1966  1.0660
  117OSM    C2S12266   1.353   5.509  10.589  0.1050  0.0071 -0.0021
  117OSM    H2S12267   1.290   5.426  10.549  1.2108 -1.4365  1.1525
  117OSM    C3S12268   1.271   5.636  10.597 -0.1895 -0.4885  1.1819
  117OSM    H3S12269   1.344   5.708  10.641  0.4166 -0.5824  0.3423
  117OSM     O312270   1.157   5.620  10.676  0.1845 -0.3022  0.0127
  117OSM    HO312271   1.186   5.547  10.732  2.8564 -0.3677 -1.3677
  117OSM    C4S12272   1.223   5.673  10.458 -0.2923  0.2197 -0.3841
  117OSM    H4S12273   1.309   5.721  10.409 -0.4786  3.9059  2.6758
  117OSM    C5S12274   1.115   5.636  10.383 -0.0318  0.3550  0.0176
  117OSM    H5S12275   1.051   5.560  10.430 -0.7873  1.7358  1.2853
  117OSM    C6S12276   1.085   5.671  10.237 -0.4549  0.2157 -0.1959
  117OSM    H6S12277   1.044   5.774  10.245  0.7807  0.5844  1.9499
  117OSM    H6T12278   0.996   5.618  10.197 -0.5076 -0.0546  0.2719
  117OSM    C7S12279   1.199   5.647  10.140  0.1418  0.8245  0.3599
  117OSM    H7S12280   1.247   5.547  10.137 -1.0473  0.2539  0.0963
  117OSM    H7T12281   1.270   5.730  10.162 -1.2658  2.3284 -0.6512
  117OSM    C8S12282   1.149   5.673  10.002 -0.3885  0.2654 -0.2067
  117OSM    H8S12283   1.115   5.778   9.994 -2.3546 -0.3055  0.4257
  117OSM    H8T12284   1.073   5.598   9.972 -0.4360 -0.2328  1.1216
  117OSM    C9S12285   1.265   5.659   9.898  0.3990  0.2258  0.4160
  117OSM    H9S12286   1.293   5.552   9.896  0.2664  0.2093 -1.3269
  117OSM    H9T12287   1.342   5.732   9.929  0.0943  0.0974  1.4823
  117OSM   C10S12288   1.216   5.697   9.759  0.9924 -0.1656 -0.4914
  117OSM   H10S12289   1.180   5.802   9.760  0.4390 -0.3517  1.4226
  117OSM   H10T12290   1.134   5.629   9.727  0.0972  0.9018 -0.4827
  117OSM   C11S12291   1.321   5.695   9.657 -0.3800 -0.9051 -0.1544
  117OSM   H11S12292   1.342   5.589   9.633 -0.4935 -0.8947 -0.2934
  117OSM   H11T12293   1.415   5.748   9.683 -1.1354  0.8155 -0.8491
  117OSM   C12S12294   1.271   5.767   9.526  0.2671  0.6555 -0.6393
  117OSM   H12S12295   1.260   5.873   9.560  1.2900  0.1996  1.2508
  117OSM   H12T12296   1.168   5.732   9.505  0.4373 -0.8546  0.9604
  117OSM   C13S12297   1.373   5.756   9.410 -0.5027  0.4161  0.8745
  117OSM   H13S12298   1.470   5.798   9.442  0.1567  0.3731 -1.0166
  117OSM   H13T12299   1.346   5.821   9.324  0.9733 -1.3243 -0.9825
  117OSM   C14S12300   1.379   5.608   9.366 -0.1710 -0.0777  0.2106
  117OSM   H14S12301   1.282   5.555   9.379 -0.4013  0.8198  2.3388
  117OSM   H14T12302   1.449   5.562   9.439  1.4457  1.8878 -0.0634
  117OSM   C15S12303   1.413   5.588   9.220  0.8815  0.0586  0.1389
  117OSM   H15S12304   1.332   5.647   9.173  1.0922 -0.0923 -0.4190
  117OSM   H15T12305   1.416   5.480   9.198  1.9975  0.4994 -2.0172
  117OSM   C16S12306   1.544   5.651   9.183 -0.0538  0.3073  0.3196
  117OSM   H16S12307   1.622   5.596   9.240  0.2999  2.6685  2.2087
  117OSM   H16T12308   1.556   5.757   9.214  0.3467  0.5590 -0.6724
  117OSM   C17S12309   1.572   5.624   9.035  0.2544  0.1234  0.0823
  117OSM   H17S12310   1.549   5.518   9.012  1.0490  0.0962 -0.6315
  117OSM   H17T12311   1.681   5.640   9.019  0.0432  0.4684 -1.1038
  117OSM   C18S12312   1.497   5.727   8.948  0.2857 -0.3069  0.5809
  117OSM   H18S12313   1.390   5.699   8.941  0.4131 -0.5907 -0.3560
  117OSM   H18T12314   1.526   5.728   8.840  1.3114  1.6656  0.8653
  117OSM   H18U12315   1.507   5.830   8.987  0.8490  0.3835 -1.2901
  117OSM    C1F12316   1.531   5.407  10.459  0.8841 -0.1167 -0.1226
  117OSM     OF12317   1.492   5.289  10.469 -0.3946 -0.4252  0.2169
  117OSM    C2F12318   1.669   5.434  10.401  0.3932  0.6423  0.8141
  117OSM    H2F12319   1.740   5.419  10.485  0.2925 -1.4214  0.5512
  117OSM    H2G12320   1.666   5.538  10.363  0.4717  0.5240  0.4754
  117OSM    C3F12321   1.707   5.337  10.285 -0.1132  0.2708  0.4701
  117OSM    H3F12322   1.713   5.231  10.318 -1.2409  0.8293  2.5627
  117OSM    H3G12323   1.815   5.359  10.269  1.1177 -3.1372  3.3332
  117OSM    C4F12324   1.617   5.346  10.161  0.1452  0.3186  0.3953
  117OSM    H4F12325   1.604   5.454  10.138 -0.0858  0.2028 -0.0382
  117OSM    H4G12326   1.515   5.308  10.181  0.4057  0.3542  1.8337
  117OSM    C5F12327   1.694   5.283  10.038  0.0239 -0.4251 -0.2436
  117OSM    H5F12328   1.737   5.184  10.064  1.0805 -0.3937 -1.8636
  117OSM    H5G12329   1.766   5.366  10.022 -0.9285  1.1916  3.2538
  117OSM    C6F12330   1.607   5.255   9.912  0.9149  0.0905  0.3980
  117OSM    H6F12331   1.561   5.350   9.877 -0.3716 -0.1772  1.2900
  117OSM    H6G12332   1.546   5.166   9.938  1.9163 -0.2810  1.5014
  117OSM    C7F12333   1.696   5.207   9.796  0.1083  0.0933  0.5349
  117OSM    H7F12334   1.776   5.138   9.829 -0.1326 -1.2878 -1.6701
  117OSM    H7G12335   1.746   5.292   9.744 -1.4375 -0.1901 -1.4698
  117OSM    C8F12336   1.615   5.134   9.695 -1.0205 -0.0379 -0.0978
  117OSM    H8F12337   1.545   5.066   9.748 -0.1238  0.0584  1.2207
  117OSM    H8G12338   1.694   5.078   9.639 -0.8164  0.7843 -0.6492
  117OSM    C9F12339   1.532   5.222   9.601 -0.7005 -0.4545  0.4601
  117OSM    H9F12340   1.470   5.295   9.656 -2.7973 -0.1008 -2.2817
  117OSM   C10F12341   1.545   5.245   9.469  0.1994  0.2353 -0.7166
  117OSM   H10F12342   1.474   5.315   9.423 -0.8287 -0.7056 -0.5923
  117OSM   C11F12343   1.633   5.164   9.380 -0.0432  0.2784  0.0061
  117OSM   H11F12344   1.635   5.057   9.412  0.3481  0.6859  1.3438
  117OSM   H11G12345   1.737   5.205   9.380  0.7535 -1.5856  2.3484
  117OSM   C12F12346   1.597   5.160   9.233 -0.3773  1.0072 -0.1585
  117OSM   H12F12347   1.671   5.090   9.189  0.9256  1.3048  1.5277
  117OSM   H12G12348   1.616   5.258   9.184  0.8606  2.2386  2.7098
  117OSM   C13F12349   1.454   5.112   9.203 -0.6064 -0.0671 -0.3879
  117OSM   H13F12350   1.404   5.211   9.209  0.6921  0.6575 -1.2408
  117OSM   H13G12351   1.427   5.043   9.286 -1.3321  1.0108  0.2911
  117OSM   C14F12352   1.436   5.032   9.070 -0.3831  0.7658 -0.1991
  117OSM   H14F12353   1.328   5.025   9.045  0.3724  0.3780 -3.5135
  117OSM   H14G12354   1.476   4.931   9.088 -2.3189  0.0100  0.0178
  117OSM   C15F12355   1.498   5.099   8.950  0.1493 -0.1758 -0.0576
  117OSM   H15F12356   1.609   5.101   8.954  0.1785  2.5102 -1.0512
  117OSM   H15G12357   1.458   5.202   8.942 -1.1006 -0.4816  2.0024
  117OSM   C16F12358   1.467   5.026   8.812  0.4583 -0.8289 -0.3950
  117OSM   H16F12359   1.518   5.093   8.740 -0.3608  0.8674  0.5915
  117OSM   H16G12360   1.358   5.015   8.799  0.3231 -0.1135  0.1337
  117OSM   C17F12361   1.541   4.892   8.794 -0.5837 -0.5035 -0.8442
  117OSM   H17F12362   1.495   4.820   8.864  0.5163 -0.1403  0.2797
  117OSM   H17G12363   1.642   4.901   8.841 -0.7204  0.0726 -0.6610
  117OSM   C18F12364   1.550   4.843   8.653  0.5126 -0.0191  0.3818
  117OSM   H18F12365   1.603   4.746   8.654  0.9957  0.2321 -0.7038
  117OSM   H18G12366   1.616   4.910   8.594  2.0090 -0.8357  1.0926
  117OSM   H18H12367   1.447   4.838   8.611  1.8015 -4.0519 -2.6089
  118OSM      N12368   1.636   6.318  11.185 -0.4573 -0.0945 -0.0920
  118OSM    C1512369   1.680   6.183  11.221 -0.4816 -0.4989  0.3036
  118OSM   H15A12370   1.787   6.180  11.238 -0.1160 -1.2670 -1.9244
  118OSM   H15B12371   1.644   6.111  11.149 -1.0798  0.7835 -0.6976
  118OSM   H15C12372   1.632   6.155  11.313 -1.2947 -2.3953 -0.6765
  118OSM    C1412373   1.494   6.349  11.216 -0.3113  0.5333 -0.5829
  118OSM   H14A12374   1.467   6.448  11.182 -0.1087  0.8265  0.1113
  118OSM   H14B12375   1.474   6.353  11.322  3.3907  0.8063  0.1594
  118OSM   H14C12376   1.424   6.274  11.181  2.0418 -2.5135  0.9515
  118OSM    C1312377   1.712   6.421  11.264 -0.8207 -0.1985  0.2695
  118OSM   H13A12378   1.666   6.420  11.362  2.9555 -0.1741  2.1680
  118OSM   H13B12379   1.694   6.518  11.221  0.6836  0.4264  1.0240
  118OSM   H13C12380   1.818   6.399  11.266 -0.4907  1.4634  2.4934
  118OSM    C1212381   1.661   6.327  11.034 -0.5094 -0.3774  0.3939
  118OSM   H12A12382   1.602   6.256  10.978  1.3307  1.2516 -3.8584
  118OSM   H12B12383   1.766   6.313  11.014 -0.5028  0.5080 -0.2580
  118OSM    C1112384   1.614   6.462  10.971  0.1699 -0.0307  0.8513
  118OSM   H11A12385   1.509   6.477  11.004 -0.2604 -4.4965  1.8100
  118OSM   H11B12386   1.631   6.455  10.862  1.2980  3.4886  0.7402
  118OSM      P12387   1.664   6.712  10.989  0.2343 -0.2320  0.3087
  118OSM    O1312388   1.529   6.742  11.042 -0.1174  0.1762 -0.4171
  118OSM    O1412389   1.779   6.798  11.029  0.4032 -0.0314  0.6519
  118OSM    O1112390   1.657   6.710  10.838 -0.8290  0.1376 -0.1670
  118OSM    O1212391   1.706   6.561  11.017  0.4319  0.1720  0.1628
  118OSM    C1S12392   1.773   6.696  10.752 -0.0106 -0.0659  0.1010
  118OSM    H1S12393   1.820   6.598  10.775 -1.4067 -0.4706  1.3252
  118OSM    H1T12394   1.842   6.783  10.756  0.6950 -0.6068 -0.1038
  118OSM     NF12395   1.857   6.683  10.521  0.8042  0.4595 -0.0063
  118OSM    HNF12396   1.903   6.762  10.481 -1.4724  2.4241  1.1186
  118OSM    C2S12397   1.736   6.705  10.600 -0.3783 -0.1482 -0.1778
  118OSM    H2S12398   1.667   6.626  10.562 -1.2658  0.1085  0.8418
  118OSM    C3S12399   1.673   6.841  10.574  0.7643 -0.4043  0.6306
  118OSM    H3S12400   1.728   6.936  10.587  2.1595 -1.0111 -0.6298
  118OSM     O312401   1.543   6.871  10.622 -0.1028  0.4372  0.3389
  118OSM    HO312402   1.522   6.813  10.695 -0.6431  0.4880  0.2272
  118OSM    C4S12403   1.658   6.854  10.422  0.0026  0.5145 -0.3379
  118OSM    H4S12404   1.600   6.772  10.375  2.2031 -1.3194  0.0456
  118OSM    C5S12405   1.718   6.945  10.338 -0.3709  0.6767 -0.0662
  118OSM    H5S12406   1.779   7.021  10.390 -0.4064 -0.1763  1.2592
  118OSM    C6S12407   1.718   6.952  10.187  0.5405 -0.2808 -0.2096
  118OSM    H6S12408   1.825   6.969  10.162 -0.1121  3.9937 -0.5480
  118OSM    H6T12409   1.655   7.042  10.169 -0.0134 -0.7346 -0.5437
  118OSM    C7S12410   1.661   6.829  10.120 -0.2396  0.2421 -0.8689
  118OSM    H7S12411   1.554   6.802  10.135  0.9661 -5.0179 -0.7106
  118OSM    H7T12412   1.717   6.743  10.161 -0.4863  0.7110  0.4931
  118OSM    C8S12413   1.677   6.833   9.966 -0.3564 -0.3444  1.2029
  118OSM    H8S12414   1.784   6.824   9.935 -0.5919  2.7925 -0.7080
  118OSM    H8T12415   1.653   6.940   9.948 -1.3064 -0.6064  0.9341
  118OSM    C9S12416   1.584   6.752   9.885 -0.6259 -0.5027  0.5341
  118OSM    H9S12417   1.479   6.777   9.911 -1.0171 -0.3737 -1.1391
  118OSM    H9T12418   1.591   6.646   9.916  1.2940 -0.6933 -0.5066
  118OSM   C10S12419   1.607   6.764   9.729 -0.1550  0.7365  0.0863
  118OSM   H10S12420   1.712   6.732   9.709  0.9277  3.1869  1.6309
  118OSM   H10T12421   1.596   6.870   9.699  2.5740  1.3468  1.0933
  118OSM   C11S12422   1.504   6.672   9.651  0.4065 -0.5488  0.5658
  118OSM   H11S12423   1.403   6.709   9.676 -1.2537 -2.8586 -2.4356
  118OSM   H11T12424   1.508   6.562   9.667 -0.7791 -0.5740  0.7288
  118OSM   C12S12425   1.532   6.672   9.502  0.0172  0.4744  0.0464
  118OSM   H12S12426   1.500   6.580   9.449  0.3447  0.5837 -0.3413
  118OSM   H12T12427   1.641   6.680   9.484 -0.2643  1.6277 -1.3279
  118OSM   C13S12428   1.460   6.781   9.438 -0.2493  0.3111 -0.2233
  118OSM   H13S12429   1.505   6.872   9.484 -0.0425 -0.0793  0.3485
  118OSM   H13T12430   1.356   6.767   9.475 -0.3651 -1.0443 -1.0477
  118OSM   C14S12431   1.472   6.786   9.289 -0.0072 -0.4568 -0.0321
  118OSM   H14S12432   1.392   6.835   9.229  0.6554  0.1792 -0.4013
  118OSM   H14T12433   1.466   6.680   9.255 -2.4254 -1.3164  2.8830
  118OSM   C15S12434   1.594   6.858   9.232 -0.3012  0.1648 -0.1284
  118OSM   H15S12435   1.686   6.837   9.290  0.4637  3.5039 -0.0684
  118OSM   H15T12436   1.586   6.968   9.243  0.3669  0.0844  1.2280
  118OSM   C16S12437   1.632   6.834   9.091 -0.4118  0.0990 -0.3261
  118OSM   H16S12438   1.544   6.833   9.024 -2.2109  2.7401  1.8701
  118OSM   H16T12439   1.669   6.730   9.080  0.0687  0.0387  1.6209
  118OSM   C17S12440   1.737   6.940   9.037 -0.3597 -0.0915 -0.5477
  118OSM   H17S12441   1.833   6.894   9.068  0.4355  1.5556 -0.5284
  118OSM   H17T12442   1.728   7.034   9.095  0.9991  1.1685 -2.3166
  118OSM   C18S12443   1.739   6.965   8.883 -0.5821 -0.3659 -0.2061
  118OSM   H18S12444   1.741   6.866   8.832 -0.9440  0.2236 -1.3898
  118OSM   H18T12445   1.826   7.023   8.846  0.7434 -1.7411  0.7190
  118OSM   H18U12446   1.646   7.021   8.859  0.3109  0.4938 -1.7366
  118OSM    C1F12447   1.919   6.562  10.522 -0.0944  0.4235 -0.5171
  118OSM     OF12448   1.853   6.460  10.555 -0.2636  0.2120  0.2512
  118OSM    C2F12449   2.067   6.549  10.479  0.8939 -0.3541  0.5476
  118OSM    H2F12450   2.134   6.536  10.566  0.2810  1.5291  1.3323
  118OSM    H2G12451   2.098   6.644  10.431  1.6940 -1.2849 -0.7927
  118OSM    C3F12452   2.090   6.438  10.380 -0.1709  0.3378  0.6843
  118OSM    H3F12453   2.055   6.339  10.416 -1.5976  0.3247 -0.6557
  118OSM    H3G12454   2.200   6.441  10.363 -0.0779 -0.3538  1.1532
  118OSM    C4F12455   2.013   6.458  10.246  0.3077  0.1781 -0.4783
  118OSM    H4F12456   1.906   6.478  10.268  0.0857 -0.2721 -1.1415
  118OSM    H4G12457   2.017   6.367  10.183 -2.2805  0.0364 -0.4617
  118OSM    C5F12458   2.075   6.567  10.158 -0.5205 -0.2251  0.1748
  118OSM    H5F12459   2.185   6.556  10.154 -0.7267 -2.0382 -1.1172
  118OSM    H5G12460   2.062   6.665  10.209  0.4970  1.1084 -2.0145
  118OSM    C6F12461   2.020   6.591  10.024 -0.5120 -0.0252 -0.1655
  118OSM    H6F12462   2.070   6.684   9.989 -2.2854  1.9132  2.3128
  118OSM    H6G12463   1.911   6.605  10.030 -0.2898  0.7061  2.5793
  118OSM    C7F12464   2.050   6.476   9.923  0.4042 -0.4038 -0.6743
  118OSM    H7F12465   1.994   6.388   9.962 -0.0903 -0.2861 -1.1086
  118OSM    H7G12466   2.160   6.456   9.928  0.8849  2.4550  1.1397
  118OSM    C8F12467   2.008   6.499   9.780  0.3121  0.8355  0.4546
  118OSM    H8F12468   2.061   6.587   9.738 -0.6401  1.9957  1.6484
  118OSM    H8G12469   1.906   6.543   9.786 -1.0335 -1.9291 -0.8576
  118OSM    C9F12470   2.016   6.379   9.689  0.0256 -0.0924 -0.4370
  118OSM    H9F12471   1.916   6.336   9.672  0.2401 -0.4324 -0.8491
  118OSM   C10F12472   2.124   6.333   9.629 -0.0887 -0.7910  0.8366
  118OSM   H10F12473   2.120   6.238   9.574 -0.0655 -1.1088  1.3764
  118OSM   C11F12474   2.265   6.389   9.639 -0.1366 -0.1292  0.0176
  118OSM   H11F12475   2.317   6.317   9.706 -0.5756 -1.7549 -1.3476
  118OSM   H11G12476   2.281   6.486   9.692 -0.0295  0.2392 -0.6845
  118OSM   C12F12477   2.315   6.388   9.498 -0.5680 -0.0229  0.1998
  118OSM   H12F12478   2.263   6.460   9.431  0.2206  0.9802  0.6501
  118OSM   H12G12479   2.325   6.285   9.460 -2.1929 -0.2960  0.4615
  118OSM   C13F12480   2.457   6.440   9.502 -0.6012 -0.0529  0.6092
  118OSM   H13F12481   2.497   6.398   9.596 -2.3764 -1.5379  0.7306
  118OSM   H13G12482   2.462   6.550   9.518 -1.6642 -0.2257  2.2723
  118OSM   C14F12483   2.550   6.397   9.379  0.0648 -0.0541 -0.1116
  118OSM   H14F12484   2.560   6.287   9.389 -0.1581  0.0672  1.6770
  118OSM   H14G12485   2.654   6.434   9.386 -0.7984  2.2722  0.9969
  118OSM   C15F12486   2.498   6.436   9.242 -0.7674 -0.2175  0.3911
  118OSM   H15F12487   2.584   6.430   9.173  0.5708  0.5814  1.9711
  118OSM   H15G12488   2.463   6.541   9.254 -0.8402 -0.1582 -0.3062
  118OSM   C16F12489   2.378   6.352   9.187  0.0914  0.9630  0.3039
  118OSM   H16F12490   2.285   6.403   9.219  0.3279  1.3317  0.4218
  118OSM   H16G12491   2.376   6.253   9.236  0.0119  1.5198  1.4570
  118OSM   C17F12492   2.378   6.343   9.039  0.6129 -0.0438  0.1077
  118OSM   H17F12493   2.479   6.313   9.004  2.0272  3.7855  0.6618
  118OSM   H17G12494   2.346   6.444   9.006  0.0127  0.3202  1.7334
  118OSM   C18F12495   2.274   6.241   8.993  0.3770  0.5768 -0.0146
  118OSM   H18F12496   2.264   6.225   8.884  0.2913 -1.0903  0.2327
  118OSM   H18G12497   2.172   6.269   9.028  0.4916  0.3629  0.4878
  118OSM   H18H12498   2.299   6.146   9.045  1.0075  1.9155  2.1952
  119OSM      N12499   2.429   5.774  11.275 -0.4387 -0.4752 -0.4358
  119OSM    C1512500   2.494   5.899  11.212 -0.1341  0.5830  0.2535
  119OSM   H15A12501   2.560   5.946  11.283  0.9471 -0.0655 -0.3188
  119OSM   H15B12502   2.415   5.971  11.193  0.2513  1.1926  0.9275
  119OSM   H15C12503   2.545   5.886  11.118 -2.4108 -0.9645 -0.8313
  119OSM    C1412504   2.532   5.687  11.329  0.5565 -0.1386 -0.1910
  119OSM   H14A12505   2.491   5.615  11.398  0.9078 -0.3399 -0.1905
  119OSM   H14B12506   2.605   5.739  11.390  0.6236  0.8568 -1.1040
  119OSM   H14C12507   2.585   5.631  11.254 -0.0052 -0.1257 -0.6045
  119OSM    C1312508   2.345   5.832  11.389 -0.0615 -0.3357  0.1479
  119OSM   H13A12509   2.272   5.904  11.354  0.4414 -1.0052 -2.3689
  119OSM   H13B12510   2.394   5.880  11.472  2.2477 -3.0855  0.4343
  119OSM   H13C12511   2.300   5.746  11.437  2.9877 -2.5360 -0.7975
  119OSM    C1212512   2.341   5.702  11.169 -0.0619 -0.2302  0.0404
  119OSM   H12A12513   2.261   5.774  11.155  0.5367  0.6475  1.0819
  119OSM   H12B12514   2.299   5.607  11.199  0.5255 -0.6591 -0.4783
  119OSM    C1112515   2.407   5.669  11.025 -0.3641  0.3514  0.3286
  119OSM   H11A12516   2.432   5.763  10.971 -0.3909  0.0243 -0.2534
  119OSM   H11B12517   2.328   5.622  10.963  1.3270  1.2480 -2.5861
  119OSM      P12518   2.646   5.592  10.949 -0.4849  0.2046 -0.1867
  119OSM    O1312519   2.732   5.695  11.016 -0.3061 -0.1011  0.3566
  119OSM    O1412520   2.701   5.456  10.932  0.3433 -0.4865  0.3323
  119OSM    O1112521   2.599   5.637  10.808 -0.2438  0.3363 -0.1942
  119OSM    O1212522   2.513   5.576  11.027 -0.2003  0.3338  0.1033
  119OSM    C1S12523   2.524   5.545  10.726  0.0903 -0.4295  0.3180
  119OSM    H1S12524   2.426   5.519  10.770 -0.1566  1.5189  0.9731
  119OSM    H1T12525   2.586   5.455  10.707  0.2745  0.1172 -1.8904
  119OSM     NF12526   2.410   5.518  10.513 -0.6019 -0.0506  0.0490
  119OSM    HNF12527   2.439   5.430  10.475  1.9283 -0.5258  2.8521
  119OSM    C2S12528   2.501   5.601  10.585  0.6606 -0.5596  0.7917
  119OSM    H2S12529   2.460   5.704  10.579  2.1253 -0.0503 -0.7487
  119OSM    C3S12530   2.640   5.600  10.515 -0.5305  0.1168 -0.4462
  119OSM    H3S12531   2.685   5.500  10.533 -1.7755 -0.2153  0.8799
  119OSM     O312532   2.737   5.696  10.565 -0.3859  0.1996 -0.6682
  119OSM    HO312533   2.692   5.706  10.649 -1.1177 -1.4467 -0.8389
  119OSM    C4S12534   2.629   5.632  10.368  0.4254  0.2736  0.0823
  119OSM    H4S12535   2.614   5.739  10.348  2.5398  0.7359  0.8017
  119OSM    C5S12536   2.663   5.549  10.270  0.2148 -0.3178 -0.5413
  119OSM    H5S12537   2.689   5.447  10.301  0.2046 -1.2910 -3.5484
  119OSM    C6S12538   2.655   5.583  10.120  0.4260 -0.1312  0.1815
  119OSM    H6S12539   2.584   5.515  10.068 -0.3450  0.8063 -0.0078
  119OSM    H6T12540   2.753   5.553  10.080  1.2670  2.6734  0.0581
  119OSM    C7S12541   2.614   5.724  10.073  0.4949 -0.0477 -0.7031
  119OSM    H7S12542   2.690   5.801  10.099  1.6294 -1.2513 -0.4022
  119OSM    H7T12543   2.520   5.765  10.116 -1.0398 -2.9665 -1.0914
  119OSM    C8S12544   2.568   5.724   9.925 -0.2513  0.2048  0.2805
  119OSM    H8S12545   2.464   5.686   9.914  0.0100 -0.0995 -1.3049
  119OSM    H8T12546   2.628   5.653   9.865 -1.3451 -1.0062  0.6055
  119OSM    C9S12547   2.590   5.857   9.854  0.4444 -0.1617  0.1468
  119OSM    H9S12548   2.591   5.838   9.745 -0.1525  0.4127  0.0422
  119OSM    H9T12549   2.693   5.887   9.883  0.3060  2.3447 -1.8984
  119OSM   C10S12550   2.495   5.965   9.883 -0.2103 -0.1443  0.4895
  119OSM   H10S12551   2.487   5.983   9.992 -0.2337 -0.1539  0.4900
  119OSM   H10T12552   2.392   5.935   9.856  0.5998  0.0615 -3.1654
  119OSM   C11S12553   2.535   6.094   9.804  0.2405 -0.2338  0.8470
  119OSM   H11S12554   2.636   6.120   9.842  0.5654 -0.0718 -0.1049
  119OSM   H11T12555   2.463   6.174   9.831  0.7223  0.4179  0.2014
  119OSM   C12S12556   2.556   6.075   9.652  0.4663  0.7019  0.0088
  119OSM   H12S12557   2.642   6.007   9.639 -0.1802  0.3625 -2.9310
  119OSM   H12T12558   2.590   6.171   9.608  1.2849  0.8422  0.9306
  119OSM   C13S12559   2.439   6.007   9.581 -0.1872 -0.6370  0.0337
  119OSM   H13S12560   2.350   6.074   9.577 -0.1959 -0.6576 -0.0914
  119OSM   H13T12561   2.405   5.914   9.633 -1.0504 -1.2736 -1.6373
  119OSM   C14S12562   2.469   5.965   9.431  0.8331 -0.0127 -0.1277
  119OSM   H14S12563   2.534   5.875   9.435 -0.6254 -1.1574 -1.2900
  119OSM   H14T12564   2.534   6.042   9.384  3.7575 -3.1416 -1.4660
  119OSM   C15S12565   2.341   5.953   9.348 -0.1296  0.0695  0.3863
  119OSM   H15S12566   2.278   6.044   9.336 -0.4108 -0.2234 -0.3411
  119OSM   H15T12567   2.276   5.888   9.410 -1.5001  1.7419  0.7312
  119OSM   C16S12568   2.371   5.896   9.204  0.7405  0.1662  0.4059
  119OSM   H16S12569   2.420   5.796   9.207 -2.3004 -1.3593  1.7294
  119OSM   H16T12570   2.431   5.968   9.145  1.7022  0.9068  2.2558
  119OSM   C17S12571   2.248   5.861   9.122  0.1017  0.1885 -0.6983
  119OSM   H17S12572   2.197   5.957   9.101  1.2507  0.8308 -0.6242
  119OSM   H17T12573   2.180   5.791   9.175  1.9914 -0.7765  0.5455
  119OSM   C18S12574   2.289   5.792   8.998 -0.1271  0.2679  0.4715
  119OSM   H18S12575   2.197   5.751   8.951  0.7275 -1.7142  0.4874
  119OSM   H18T12576   2.355   5.704   9.008 -0.6274 -0.0547  0.9123
  119OSM   H18U12577   2.335   5.852   8.916 -0.0115 -1.1468 -0.5179
  119OSM    C1F12578   2.282   5.527  10.536  0.1729  0.1799  0.1251
  119OSM     OF12579   2.232   5.612  10.604  0.3224  0.5947  0.3897
  119OSM    C2F12580   2.203   5.417  10.473 -0.2608  0.0605  0.3179
  119OSM    H2F12581   2.175   5.350  10.557 -2.3965  0.6714  0.1184
  119OSM    H2G12582   2.266   5.350  10.411  1.3666  2.3389 -0.5550
  119OSM    C3F12583   2.075   5.456  10.395 -0.7694  0.2925 -0.1818
  119OSM    H3F12584   2.005   5.512  10.461 -0.5530  0.7534 -0.3379
  119OSM    H3G12585   2.024   5.364  10.362  0.9111 -1.2672  1.3961
  119OSM    C4F12586   2.099   5.531  10.266 -0.0084  0.5666 -0.1366
  119OSM    H4F12587   2.108   5.639  10.288 -0.2876  0.2860  1.4352
  119OSM    H4G12588   2.008   5.523  10.202  0.1779  1.3044 -0.4945
  119OSM    C5F12589   2.224   5.496  10.179  0.5117 -0.5233  0.0594
  119OSM    H5F12590   2.320   5.508  10.234  1.7492 -2.2093 -1.6807
  119OSM    H5G12591   2.218   5.559  10.087  2.0269 -0.5013 -0.0361
  119OSM    C6F12592   2.230   5.345  10.133 -0.2746  0.5636 -0.6260
  119OSM    H6F12593   2.151   5.320  10.059 -1.1667 -0.6118  0.7136
  119OSM    H6G12594   2.221   5.284  10.225  0.5326  2.6387  0.8596
  119OSM    C7F12595   2.357   5.310  10.056  0.6381 -0.3931 -0.6954
  119OSM    H7F12596   2.386   5.403  10.002 -2.6128 -0.0696 -1.9958
  119OSM    H7G12597   2.326   5.230   9.985  0.4211  0.1423 -1.2124
  119OSM    C8F12598   2.466   5.229  10.131  0.2220 -0.2398  0.4132
  119OSM    H8F12599   2.510   5.294  10.210  1.5148 -1.5795  0.8031
  119OSM    H8G12600   2.550   5.215  10.059  0.7882  1.5134  0.7003
  119OSM    C9F12601   2.412   5.098  10.186 -0.9466  0.1939  0.4144
  119OSM    H9F12602   2.352   5.121  10.275 -1.8492 -1.4777  0.2444
  119OSM   C10F12603   2.436   4.970  10.151  0.1656 -0.2476  0.2163
  119OSM   H10F12604   2.390   4.883  10.200 -0.0405 -0.1040  0.2794
  119OSM   C11F12605   2.518   4.931  10.032  0.3598 -0.9066 -0.1186
  119OSM   H11F12606   2.582   4.844  10.061  2.6131  0.4682 -0.8387
  119OSM   H11G12607   2.586   5.016  10.010  3.0436 -2.4228  2.0113
  119OSM   C12F12608   2.425   4.889   9.918 -0.1046  0.4825 -0.6154
  119OSM   H12F12609   2.353   4.811   9.951  1.9795 -2.0884 -2.0013
  119OSM   H12G12610   2.501   4.846   9.850  1.6949  1.5039  0.6817
  119OSM   C13F12611   2.353   4.993   9.839  0.3840  0.2397 -0.0175
  119OSM   H13F12612   2.413   5.085   9.824 -0.8791  1.4154  1.9345
  119OSM   H13G12613   2.261   5.022   9.894  0.9644  1.6142  0.2595
  119OSM   C14F12614   2.311   4.949   9.696  0.5064 -0.6217  0.2075
  119OSM   H14F12615   2.240   4.863   9.698  1.2471 -1.3542 -2.3244
  119OSM   H14G12616   2.402   4.909   9.647 -0.4145 -0.8741 -1.3420
  119OSM   C15F12617   2.263   5.067   9.615 -0.0726  0.1909  0.2625
  119OSM   H15F12618   2.343   5.144   9.622 -0.8407  0.9137  1.2884
  119OSM   H15G12619   2.171   5.111   9.658 -0.5059  0.2005 -0.6526
  119OSM   C16F12620   2.204   5.029   9.479 -0.1705 -0.0119 -0.4461
  119OSM   H16F12621   2.134   4.943   9.491 -0.2147  0.3618  2.3134
  119OSM   H16G12622   2.291   5.008   9.413  0.5560  2.1260 -0.2028
  119OSM   C17F12623   2.124   5.143   9.415 -0.5405  0.6548  0.2240
  119OSM   H17F12624   2.192   5.231   9.411 -0.8007  0.8207 -0.6577
  119OSM   H17G12625   2.035   5.179   9.471  0.3327  0.0199  2.0212
  119OSM   C18F12626   2.073   5.115   9.275 -0.3230  0.8779 -0.1337
  119OSM   H18F12627   2.033   5.206   9.226  2.0007  1.9920 -0.0152
  119OSM   H18G12628   2.007   5.027   9.261 -1.5974  1.7127  0.5234
  119OSM   H18H12629   2.154   5.084   9.207  0.4969  0.3658  1.0597
  120OSM      N12630   1.569   2.238  10.844  1.0522 -0.6637 -0.1960
  120OSM    C1512631   1.447   2.166  10.813  0.0483 -0.5197 -0.4025
  120OSM   H15A12632   1.401   2.185  10.717  3.2014 -0.4222 -1.9538
  120OSM   H15B12633   1.373   2.204  10.881  0.1472 -0.4514 -0.3317
  120OSM   H15C12634   1.447   2.060  10.834  1.9731 -0.2493  1.0813
  120OSM    C1412635   1.546   2.383  10.859 -0.5843 -0.0961  0.2616
  120OSM   H14A12636   1.505   2.413  10.954  0.0638  3.6032 -0.5791
  120OSM   H14B12637   1.489   2.422  10.775  0.0458 -0.4955 -0.3574
  120OSM   H14C12638   1.644   2.427  10.860 -0.3218 -0.6731  0.1575
  120OSM    C1312639   1.631   2.194  10.977 -0.9664 -0.6460 -0.5555
  120OSM   H13A12640   1.721   2.247  11.002  0.1408 -1.9932 -1.5570
  120OSM   H13B12641   1.666   2.093  10.964  0.2683 -0.3587  0.4635
  120OSM   H13C12642   1.559   2.194  11.058 -0.0069  0.4896  0.3040
  120OSM    C1212643   1.666   2.204  10.736 -0.2797 -0.1925  0.6578
  120OSM   H12A12644   1.652   2.097  10.728  0.0569 -0.1892 -0.0709
  120OSM   H12B12645   1.766   2.231  10.767 -0.4636  0.9938  0.2416
  120OSM    C1112646   1.641   2.264  10.598 -0.4439 -0.1883 -0.3334
  120OSM   H11A12647   1.534   2.246  10.570 -0.8458  0.3009  0.8611
  120OSM   H11B12648   1.701   2.219  10.516 -0.6700 -0.7533 -0.1835
  120OSM      P12649   1.800   2.480  10.602 -0.5297 -0.3663  0.3044
  120OSM    O1312650   1.788   2.626  10.622 -0.5050  0.6283  0.4325
  120OSM    O1412651   1.893   2.411  10.701  1.2233  0.2309 -0.0724
  120OSM    O1112652   1.855   2.447  10.456  0.5704  0.1646  0.2333
  120OSM    O1212653   1.662   2.412  10.602 -0.3522  0.0549  0.4442
  120OSM    C1S12654   1.796   2.534  10.355  0.2577  0.1586 -0.1512
  120OSM    H1S12655   1.858   2.627  10.350 -0.6483  0.6687 -3.1507
  120OSM    H1T12656   1.690   2.563  10.365 -0.0679 -1.0533 -0.0184
  120OSM     NF12657   1.738   2.560  10.114  0.4958 -0.0747 -0.3837
  120OSM    HNF12658   1.655   2.521  10.075 -1.6849  2.4528  1.5320
  120OSM    C2S12659   1.809   2.476  10.208 -0.7495 -1.0499  0.0479
  120OSM    H2S12660   1.919   2.480  10.192 -0.8017  1.7163  0.2834
  120OSM    C3S12661   1.768   2.324  10.195  0.0266 -0.5360 -0.3087
  120OSM    H3S12662   1.659   2.315  10.212 -0.1548 -0.4091 -1.3404
  120OSM     O312663   1.833   2.249  10.295 -0.1283  0.3863 -0.0865
  120OSM    HO312664   1.841   2.318  10.362 -2.2437  0.0363  0.5657
  120OSM    C4S12665   1.807   2.266  10.062  0.0121 -0.3417  0.5660
  120OSM    H4S12666   1.916   2.279  10.049  0.2006 -0.1927  2.2529
  120OSM    C5S12667   1.722   2.227   9.964  0.0913  0.1993 -0.2693
  120OSM    H5S12668   1.615   2.225   9.991  0.2683 -1.8668  0.3877
  120OSM    C6S12669   1.783   2.165   9.837  0.1506  0.3650  0.7975
  120OSM    H6S12670   1.739   2.065   9.813  0.2367  0.3273  0.8000
  120OSM    H6T12671   1.893   2.156   9.845  0.3759  1.2167 -1.1499
  120OSM    C7S12672   1.742   2.265   9.718 -0.2101 -0.4448  0.1256
  120OSM    H7S12673   1.747   2.374   9.738  4.3376 -0.3073 -1.1317
  120OSM    H7T12674   1.636   2.236   9.701  0.5214 -2.3536 -1.3480
  120OSM    C8S12675   1.840   2.245   9.603 -0.2202  0.7600 -0.3588
  120OSM    H8S12676   1.872   2.139   9.605  1.8421  1.3846  0.6528
  120OSM    H8T12677   1.929   2.308   9.623  0.3322 -1.0509  3.4263
  120OSM    C9S12678   1.780   2.261   9.458  0.3430  0.0744 -0.1701
  120OSM    H9S12679   1.857   2.226   9.385  1.3487 -1.7967  1.7431
  120OSM    H9T12680   1.754   2.362   9.420  3.2166  0.4935 -1.1906
  120OSM   C10S12681   1.648   2.181   9.438 -0.2835 -0.1083  0.1715
  120OSM   H10S12682   1.556   2.211   9.493  0.4126  4.9146 -1.1953
  120OSM   H10T12683   1.675   2.082   9.481 -0.0452  1.6372  4.2460
  120OSM   C11S12684   1.579   2.171   9.299 -0.3879 -0.1027 -0.3588
  120OSM   H11S12685   1.643   2.199   9.212 -0.7007 -0.6322 -0.7586
  120OSM   H11T12686   1.509   2.256   9.312  0.4798  0.6482 -0.4923
  120OSM   C12S12687   1.508   2.036   9.278 -0.3145  0.0715  0.8900
  120OSM   H12S12688   1.469   2.004   9.377 -3.7348  1.7660  0.1831
  120OSM   H12T12689   1.584   1.964   9.242 -0.9540 -0.0386 -0.2722
  120OSM   C13S12690   1.384   2.055   9.185  0.4599  0.1189  0.5015
  120OSM   H13S12691   1.318   2.131   9.231 -1.1867 -0.9916  0.0244
  120OSM   H13T12692   1.339   1.953   9.188 -0.2788  0.4256 -0.0914
  120OSM   C14S12693   1.420   2.088   9.042  0.4532 -0.0414  0.3268
  120OSM   H14S12694   1.502   2.023   9.005  1.9649  1.8694  0.2647
  120OSM   H14T12695   1.460   2.192   9.043 -0.2267  0.2304 -0.3728
  120OSM   C15S12696   1.308   2.063   8.930  0.3513  0.0738  0.5035
  120OSM   H15S12697   1.215   2.120   8.953 -0.2940 -1.4155  1.6324
  120OSM   H15T12698   1.285   1.955   8.940 -3.6326  0.5797 -2.0013
  120OSM   C16S12699   1.350   2.085   8.785  0.4183  0.4239  0.3586
  120OSM   H16S12700   1.281   2.039   8.711 -0.6084  3.8516 -0.8951
  120OSM   H16T12701   1.450   2.042   8.767 -0.6068 -1.6909 -0.3999
  120OSM   C17S12702   1.332   2.228   8.735  0.2440 -0.3871 -0.6929
  120OSM   H17S12703   1.377   2.296   8.809  0.8422 -2.8062  1.2526
  120OSM   H17T12704   1.224   2.249   8.718  0.2487  0.7769  0.6555
  120OSM   C18S12705   1.406   2.236   8.598 -0.1574  0.5299 -0.3667
  120OSM   H18S12706   1.363   2.152   8.538  1.4621  0.6921 -1.7959
  120OSM   H18T12707   1.516   2.233   8.615 -0.5545 -0.2837  2.1550
  120OSM   H18U12708   1.383   2.325   8.536  0.7528 -0.2828 -1.8947
  120OSM    C1F12709   1.781   2.685  10.098  0.0853 -0.1415  0.0801
  120OSM     OF12710   1.894   2.721  10.135  0.2854 -0.3654 -0.2239
  120OSM    C2F12711   1.696   2.777  10.010  0.0306 -0.3721 -0.0120
  120OSM    H2F12712   1.656   2.857  10.076  0.8303 -0.0465  0.0837
  120OSM    H2G12713   1.607   2.716   9.982 -1.1257  0.8124  1.0249
  120OSM    C3F12714   1.766   2.834   9.887 -0.3262  0.2097 -0.0656
  120OSM    H3F12715   1.856   2.895   9.906  0.8440 -1.3907 -0.3625
  120OSM    H3G12716   1.692   2.894   9.829 -2.0853 -2.0792 -0.2691
  120OSM    C4F12717   1.791   2.721   9.785  0.6029 -0.2636 -0.6459
  120OSM    H4F12718   1.694   2.670   9.765  0.6769 -0.3000 -0.9133
  120OSM    H4G12719   1.861   2.640   9.814  0.1282  0.7396  3.6362
  120OSM    C5F12720   1.834   2.778   9.649  0.3989  0.6114 -0.9818
  120OSM    H5F12721   1.876   2.694   9.590  1.1445 -0.1196  0.5760
  120OSM    H5G12722   1.912   2.856   9.664  0.1047  1.7038 -4.5949
  120OSM    C6F12723   1.729   2.850   9.561  0.4649  0.1060  0.0664
  120OSM    H6F12724   1.782   2.879   9.468 -0.0396 -1.8336 -0.8738
  120OSM    H6G12725   1.692   2.941   9.612  0.0176  1.2851 -2.3320
  120OSM    C7F12726   1.614   2.764   9.517  0.6563 -0.5267  0.2566
  120OSM    H7F12727   1.542   2.823   9.457  1.7676  1.0145  0.4081
  120OSM    H7G12728   1.567   2.719   9.607 -0.1963 -3.1780 -1.4625
  120OSM    C8F12729   1.663   2.651   9.417 -0.3979 -0.3678 -0.3554
  120OSM    H8F12730   1.757   2.608   9.458 -0.4872 -0.4482 -0.2365
  120OSM    H8G12731   1.692   2.700   9.322 -3.8244  4.4259  0.8518
  120OSM    C9F12732   1.556   2.547   9.395  0.5628 -0.4502 -0.2084
  120OSM    H9F12733   1.511   2.493   9.479  3.8195  1.9281  3.2318
  120OSM   C10F12734   1.493   2.533   9.277  0.5345 -0.0861  0.6851
  120OSM   H10F12735   1.409   2.462   9.267  1.4895 -1.0302 -0.7937
  120OSM   C11F12736   1.512   2.602   9.149 -0.6590  0.2765 -0.0491
  120OSM   H11F12737   1.563   2.700   9.160  1.4355 -0.9284  1.2963
  120OSM   H11G12738   1.415   2.628   9.101 -0.0696  3.3782  0.3481
  120OSM   C12F12739   1.584   2.509   9.044  0.7679  0.5674  0.0932
  120OSM   H12F12740   1.523   2.417   9.033 -0.5451  1.2315  1.6266
  120OSM   H12G12741   1.687   2.489   9.080  1.0287  1.0005 -0.4067
  120OSM   C13F12742   1.621   2.564   8.911 -0.3518 -0.3209  0.7339
  120OSM   H13F12743   1.609   2.674   8.923  0.7275  0.0203 -1.0280
  120OSM   H13G12744   1.545   2.534   8.836  1.2197 -2.9700  0.1356
  120OSM   C14F12745   1.768   2.520   8.870  0.1139  0.5897  0.0077
  120OSM   H14F12746   1.837   2.539   8.955  2.4170  1.2026 -1.9583
  120OSM   H14G12747   1.796   2.583   8.783  0.7971  1.5546  0.9081
  120OSM   C15F12748   1.785   2.377   8.823  0.6611 -0.4018 -0.5513
  120OSM   H15F12749   1.718   2.355   8.737 -1.3433 -1.1879  1.1925
  120OSM   H15G12750   1.758   2.302   8.900  0.8120 -0.5787 -0.6693
  120OSM   C16F12751   1.928   2.337   8.775 -0.3786  0.5822 -0.1929
  120OSM   H16F12752   1.992   2.362   8.862  0.9858  0.4312 -1.1452
  120OSM   H16G12753   1.950   2.399   8.686  2.9889 -0.4673 -0.1491
  120OSM   C17F12754   1.939   2.191   8.734 -0.1966 -0.5710 -0.1078
  120OSM   H17F12755   1.898   2.173   8.632  1.6278 -2.3994 -0.5466
  120OSM   H17G12756   1.865   2.133   8.793  0.8989 -0.7391  1.1092
  120OSM   C18F12757   2.087   2.134   8.725  0.3236  0.0164 -0.0884
  120OSM   H18F12758   2.107   2.042   8.667 -0.0781 -0.9651  1.3071
  120OSM   H18G12759   2.113   2.113   8.831 -0.4738  1.7317  0.4762
  120OSM   H18H12760   2.158   2.216   8.699 -0.8268  2.2822  3.4846
  121OSM      N12761   1.226   5.707  11.090  0.3231  0.0751  0.9837
  121OSM    C1512762   1.319   5.616  11.168  0.4030 -0.4909 -0.4432
  121OSM   H15A12763   1.359   5.527  11.120  5.6107  2.0177 -1.1038
  121OSM   H15B12764   1.267   5.579  11.255 -3.0020  1.2163 -1.6532
  121OSM   H15C12765   1.406   5.669  11.203  1.1180 -2.9913  1.7363
  121OSM    C1412766   1.271   5.717  10.952  0.0462 -0.2443  0.1122
  121OSM   H14A12767   1.200   5.769  10.889  1.1053 -2.2646 -2.8860
  121OSM   H14B12768   1.273   5.620  10.904  0.9397 -1.5087  2.6152
  121OSM   H14C12769   1.365   5.771  10.952  0.3313 -0.5949 -4.0294
  121OSM    C1312770   1.083   5.653  11.090 -0.6899 -0.4343 -0.2064
  121OSM   H13A12771   1.084   5.560  11.036  3.6324  0.6586 -2.2113
  121OSM   H13B12772   1.017   5.727  11.048 -1.6955  0.4836  2.8872
  121OSM   H13C12773   1.044   5.634  11.189  0.3394  2.7602  0.8804
  121OSM    C1212774   1.235   5.838  11.160  0.6481 -0.2406 -0.1644
  121OSM   H12A12775   1.340   5.860  11.170 -0.0205  3.7409 -0.7503
  121OSM   H12B12776   1.197   5.829  11.261  0.6347 -0.3229 -0.1768
  121OSM    C1112777   1.155   5.959  11.103 -0.0263 -0.5947  0.0120
  121OSM   H11A12778   1.186   5.989  11.001  3.8847 -0.9192  1.0124
  121OSM   H11B12779   1.184   6.047  11.164  0.5606 -0.6850 -0.1339
  121OSM      P12780   0.922   6.053  11.054 -0.0976 -0.5874 -0.2227
  121OSM    O1312781   0.792   6.001  11.097  0.3956  0.1214  0.7727
  121OSM    O1412782   0.975   6.179  11.109 -0.1763  0.0968  0.4071
  121OSM    O1112783   0.934   6.051  10.900 -1.0664 -0.0764  0.2417
  121OSM    O1212784   1.013   5.935  11.108 -0.3546 -0.3127  0.0840
  121OSM    C1S12785   0.925   5.921  10.840  0.2018  0.5164 -0.3596
  121OSM    H1S12786   0.821   5.882  10.845  1.1676 -2.0513  0.4983
  121OSM    H1T12787   1.001   5.846  10.867 -0.6653 -0.4134 -0.4774
  121OSM     NF12788   0.939   5.799  10.623 -0.3280  0.0990  0.4001
  121OSM    HNF12789   1.011   5.731  10.615  1.6651  2.4061 -2.4073
  121OSM    C2S12790   0.961   5.929  10.684 -0.2841  0.6924  0.0951
  121OSM    H2S12791   0.890   5.996  10.632  0.2700  1.3474  0.1823
  121OSM    C3S12792   1.105   5.996  10.655  0.1134  0.5254 -0.2388
  121OSM    H3S12793   1.189   5.923  10.657 -0.8552 -0.5854  0.7114
  121OSM     O312794   1.147   6.096  10.749  0.3072  0.4238  0.1805
  121OSM    HO312795   1.076   6.106  10.812 -0.1176  0.2218 -0.2596
  121OSM    C4S12796   1.114   6.041  10.509 -0.5580 -0.0029  0.4981
  121OSM    H4S12797   1.177   5.964  10.462  2.4691  2.5695  0.2129
  121OSM    C5S12798   1.066   6.152  10.455 -0.1125 -0.0618 -0.3898
  121OSM    H5S12799   1.020   6.225  10.523  2.3683 -1.9557  3.4833
  121OSM    C6S12800   1.078   6.189  10.304 -0.2471  0.0959  0.0887
  121OSM    H6S12801   1.095   6.297  10.285 -2.3584  0.1619 -1.6338
  121OSM    H6T12802   0.993   6.154  10.241  1.7148 -1.6532 -1.7088
  121OSM    C7S12803   1.198   6.106  10.245  0.1876 -0.1649  0.2615
  121OSM    H7S12804   1.161   6.001  10.243  2.8697 -1.1522  0.4313
  121OSM    H7T12805   1.283   6.124  10.314  0.7397 -0.1598 -0.4148
  121OSM    C8S12806   1.226   6.160  10.111 -0.3578 -0.1527  0.2771
  121OSM    H8S12807   1.318   6.109  10.075 -1.3419 -3.0518  1.6682
  121OSM    H8T12808   1.229   6.270  10.121 -1.3670 -0.0545 -0.3761
  121OSM    C9S12809   1.125   6.137  10.003 -0.3906  0.3344 -0.8499
  121OSM    H9S12810   1.034   6.190  10.038 -0.5622 -0.3879 -0.1829
  121OSM    H9T12811   1.091   6.032   9.987 -2.6243  1.2238 -2.2021
  121OSM   C10S12812   1.178   6.198   9.870  0.6706  0.5375  0.2832
  121OSM   H10S12813   1.261   6.135   9.832 -1.9203 -2.0033 -1.3457
  121OSM   H10T12814   1.208   6.303   9.891 -0.0316  1.0434 -1.2004
  121OSM   C11S12815   1.077   6.201   9.759 -0.1628 -0.7515 -0.1652
  121OSM   H11S12816   1.108   6.283   9.690 -1.4748 -0.2763 -0.2009
  121OSM   H11T12817   0.976   6.237   9.788  0.2308 -1.4715  2.2356
  121OSM   C12S12818   1.056   6.077   9.674  0.6034 -0.5002  0.1636
  121OSM   H12S12819   1.014   5.989   9.728  1.7604 -0.9689  0.2958
  121OSM   H12T12820   1.157   6.046   9.642  0.8719  0.2285  0.3040
  121OSM   C13S12821   0.968   6.100   9.554  0.0288 -1.1161  0.1070
  121OSM   H13S12822   1.002   6.188   9.496 -2.6585 -0.2998 -0.3436
  121OSM   H13T12823   0.860   6.117   9.576 -0.2038 -0.2424 -1.6514
  121OSM   C14S12824   0.970   5.978   9.457  0.1581 -0.3371 -0.1528
  121OSM   H14S12825   0.931   5.889   9.511  1.6203 -1.0062 -0.1718
  121OSM   H14T12826   1.073   5.952   9.424  0.1086  0.7960 -1.2252
  121OSM   C15S12827   0.900   6.000   9.320 -0.4393 -0.1294  0.0720
  121OSM   H15S12828   0.931   6.105   9.300 -0.2198 -0.4191 -1.1265
  121OSM   H15T12829   0.790   5.996   9.335 -0.8859 -1.4084 -3.1376
  121OSM   C16S12830   0.947   5.914   9.202 -0.5222 -0.4961  0.2741
  121OSM   H16S12831   0.926   5.807   9.223 -0.5620 -0.2302  1.6403
  121OSM   H16T12832   1.058   5.929   9.206 -0.7326  0.9205  1.2544
  121OSM   C17S12833   0.889   5.968   9.070  0.4071  0.6303 -0.3046
  121OSM   H17S12834   0.912   6.077   9.060 -1.6154  1.1448  0.5692
  121OSM   H17T12835   0.780   5.952   9.078  0.3780  0.4847 -0.9907
  121OSM   C18S12836   0.931   5.896   8.937  0.0955 -0.0932  0.0707
  121OSM   H18S12837   0.868   5.919   8.848  1.4763  0.9310 -0.6572
  121OSM   H18T12838   0.938   5.785   8.947  0.2355 -0.2577 -1.5962
  121OSM   H18U12839   1.024   5.934   8.890 -0.4525  1.2767  0.0604
  121OSM    C1F12840   0.819   5.746  10.609  0.5769  0.1498 -0.2093
  121OSM     OF12841   0.715   5.812  10.617  0.7314 -0.3027 -0.3275
  121OSM    C2F12842   0.808   5.594  10.586  0.1313  0.7986 -0.2796
  121OSM    H2F12843   0.787   5.546  10.684 -1.0092  3.1702  0.6775
  121OSM    H2G12844   0.902   5.549  10.548  0.0567 -0.2070  0.6960
  121OSM    C3F12845   0.681   5.552  10.520  0.6737 -0.2066  0.2192
  121OSM    H3F12846   0.600   5.620  10.554  0.2734 -0.2587 -0.6157
  121OSM    H3G12847   0.646   5.456  10.564  2.8748 -2.3694 -2.6148
  121OSM    C4F12848   0.684   5.545  10.366 -0.2769 -0.2775 -0.4357
  121OSM    H4F12849   0.605   5.485  10.316  2.1986 -1.5009 -3.0892
  121OSM    H4G12850   0.777   5.487  10.343 -1.8672 -2.8749 -0.5627
  121OSM    C5F12851   0.680   5.682  10.300  0.3299 -0.3106  0.1758
  121OSM    H5F12852   0.754   5.753  10.344 -0.5468 -0.1861  1.4681
  121OSM    H5G12853   0.583   5.733  10.319  1.2154  1.8774 -0.9591
  121OSM    C6F12854   0.703   5.673  10.145 -0.1916  0.2556 -0.6749
  121OSM    H6F12855   0.621   5.610  10.103 -1.4801  0.3859  1.5734
  121OSM    H6G12856   0.802   5.624  10.130 -1.6364 -3.4376  1.1810
  121OSM    C7F12857   0.690   5.815  10.077 -0.2828  0.8798  0.0042
  121OSM    H7F12858   0.771   5.882  10.113 -0.1107  2.1340 -2.5417
  121OSM    H7G12859   0.594   5.856  10.113  0.5067  0.8650  2.1796
  121OSM    C8F12860   0.688   5.795   9.924  0.4462 -0.3036 -0.8671
  121OSM    H8F12861   0.650   5.890   9.881 -0.7608 -0.0364  0.7167
  121OSM    H8G12862   0.607   5.719   9.921  1.0617 -0.9986 -0.1859
  121OSM    C9F12863   0.806   5.766   9.841 -0.3362  0.5139 -0.2557
  121OSM    H9F12864   0.893   5.804   9.897 -0.0397  0.3023 -0.5745
  121OSM   C10F12865   0.822   5.692   9.726 -0.0593 -0.2057  0.5472
  121OSM   H10F12866   0.926   5.676   9.695  0.4842  1.4780  1.4540
  121OSM   C11F12867   0.711   5.630   9.646  0.3277  0.3950  0.5495
  121OSM   H11F12868   0.612   5.656   9.689  0.1072  0.7159 -0.1424
  121OSM   H11G12869   0.703   5.519   9.647 -1.0709  0.4702 -0.3831
  121OSM   C12F12870   0.742   5.684   9.507 -0.1083  0.4147  0.4572
  121OSM   H12F12871   0.843   5.656   9.472  0.3263 -0.4502  2.3242
  121OSM   H12G12872   0.732   5.794   9.506 -0.0020  0.4219  0.0262
  121OSM   C13F12873   0.631   5.645   9.405  0.1051  0.2873  0.3303
  121OSM   H13F12874   0.531   5.675   9.443  0.1919  0.0438  0.7519
  121OSM   H13G12875   0.646   5.534   9.403 -3.4388 -0.2521  1.3143
  121OSM   C14F12876   0.655   5.704   9.259 -0.4564 -0.0757  0.2692
  121OSM   H14F12877   0.753   5.667   9.224 -0.2033  0.1994  0.6798
  121OSM   H14G12878   0.664   5.815   9.258 -0.4859 -0.0783 -1.1527
  121OSM   C15F12879   0.562   5.660   9.149 -0.0998 -0.1962  1.2165
  121OSM   H15F12880   0.460   5.699   9.171  0.1425  1.5875 -0.6070
  121OSM   H15G12881   0.535   5.553   9.155  1.1683 -0.5404  1.0353
  121OSM   C16F12882   0.613   5.697   9.008  0.5998 -0.1451 -0.6547
  121OSM   H16F12883   0.717   5.661   8.998  1.1536  1.6165 -1.3553
  121OSM   H16G12884   0.622   5.808   9.003  0.5523 -0.1238 -0.3326
  121OSM   C17F12885   0.518   5.639   8.903 -0.2663  0.1234  0.6921
  121OSM   H17F12886   0.417   5.674   8.936 -0.4921  2.0191 -1.9083
  121OSM   H17G12887   0.524   5.528   8.909  2.3362  0.1275 -1.3393
  121OSM   C18F12888   0.548   5.680   8.762 -0.1642 -0.5016 -0.2908
  121OSM   H18F12889   0.654   5.658   8.737  0.1256  0.2154  0.2985
  121OSM   H18G12890   0.527   5.789   8.757  1.9940 -0.0424  0.2709
  121OSM   H18H12891   0.478   5.633   8.689 -2.4153  1.9247  0.2447
  122OSM      N12892   0.861   3.165  10.865  0.1653 -0.1660 -0.1250
  122OSM    C1512893   0.924   3.246  10.975  0.2934  0.1397 -0.3146
  122OSM   H15A12894   0.960   3.342  10.940  0.5919  1.3887  3.1782
  122OSM   H15B12895   1.010   3.200  11.021 -1.2351 -0.0822  2.4375
  122OSM   H15C12896   0.853   3.262  11.055  1.9553  0.0493  1.2080
  122OSM    C1412897   0.817   3.026  10.921 -0.0353 -0.1076  0.3927
  122OSM   H14A12898   0.778   2.964  10.842 -0.3495 -2.2362  2.2050
  122OSM   H14B12899   0.741   3.028  10.997 -1.8180  0.4797 -1.3576
  122OSM   H14C12900   0.911   2.980  10.947  0.1744  0.4845  0.7110
  122OSM    C1312901   0.735   3.229  10.808 -0.1669  0.0867  0.0436
  122OSM   H13A12902   0.747   3.336  10.794  0.7882 -0.2038 -1.4871
  122OSM   H13B12903   0.655   3.212  10.878  0.5282 -3.6303  0.0442
  122OSM   H13C12904   0.700   3.190  10.713 -0.3340 -0.7126  0.4347
  122OSM    C1212905   0.964   3.143  10.754  0.0725 -0.5536  0.0100
  122OSM   H12A12906   0.912   3.086  10.679  0.4709 -1.1220  0.1626
  122OSM   H12B12907   1.048   3.086  10.792  2.5158  1.6827 -1.8241
  122OSM    C1112908   1.016   3.269  10.683 -0.5591 -0.5263 -0.4513
  122OSM   H11A12909   0.934   3.325  10.634 -0.1722 -0.3673 -0.9163
  122OSM   H11B12910   1.078   3.239  10.595  0.7080 -2.6570  1.1100
  122OSM      P12911   1.107   3.498  10.775 -0.6120 -0.0999  0.2327
  122OSM    O1312912   0.978   3.563  10.780  0.0724 -0.5813 -0.2044
  122OSM    O1412913   1.209   3.547  10.873 -0.2522 -0.1971 -0.1326
  122OSM    O1112914   1.161   3.523  10.625 -0.2447  0.0537 -0.1141
  122OSM    O1212915   1.098   3.342  10.776 -0.6675 -0.1830  0.2923
  122OSM    C1S12916   1.283   3.464  10.576 -1.0060  0.4876 -0.4284
  122OSM    H1S12917   1.277   3.355  10.595  1.2005  0.9045  3.1513
  122OSM    H1T12918   1.369   3.497  10.639  0.8864 -0.8791 -2.2373
  122OSM     NF12919   1.432   3.432  10.373  0.4035  0.4063  0.0422
  122OSM    HNF12920   1.487   3.499  10.323  1.1981  0.3745  0.8667
  122OSM    C2S12921   1.302   3.486  10.419 -0.7008 -0.2491 -0.2728
  122OSM    H2S12922   1.221   3.437  10.361 -1.5396 -1.5765  1.9560
  122OSM    C3S12923   1.292   3.638  10.388  0.0944 -0.0346 -0.7745
  122OSM    H3S12924   1.384   3.685  10.431  0.2435  0.0867 -1.2260
  122OSM     O312925   1.177   3.695  10.440 -0.1787  0.2727 -0.5123
  122OSM    HO312926   1.161   3.630  10.509 -0.8354  0.1450 -0.7766
  122OSM    C4S12927   1.317   3.656  10.235  0.4214  0.0942 -0.1881
  122OSM    H4S12928   1.422   3.648  10.203 -0.2131 -0.2101 -2.2666
  122OSM    C5S12929   1.220   3.683  10.143 -0.2759  0.8941 -0.4555
  122OSM    H5S12930   1.119   3.701  10.183  1.3187  0.6056  3.9204
  122OSM    C6S12931   1.248   3.695   9.995 -0.0804  0.2335  0.3412
  122OSM    H6S12932   1.336   3.762   9.984  0.5321 -0.7692 -0.9476
  122OSM    H6T12933   1.154   3.734   9.952  0.1652  1.7549  1.1634
  122OSM    C7S12934   1.279   3.555   9.926  0.6384  0.2706 -0.2328
  122OSM    H7S12935   1.185   3.495   9.926 -1.0999  2.7639 -3.6885
  122OSM    H7T12936   1.351   3.499   9.988 -0.0913  1.2617  1.5359
  122OSM    C8S12937   1.322   3.577   9.787 -0.2375  0.5206 -0.2052
  122OSM    H8S12938   1.380   3.486   9.764 -1.8690 -0.8178  0.8710
  122OSM    H8T12939   1.390   3.665   9.791  0.1605  0.2037 -0.0776
  122OSM    C9S12940   1.211   3.583   9.688  0.0375  0.2121  0.4617
  122OSM    H9S12941   1.173   3.688   9.680  0.6015  0.5552  1.9920
  122OSM    H9T12942   1.130   3.514   9.719  0.1221 -0.4156 -0.6942
  122OSM   C10S12943   1.252   3.537   9.539 -0.7265 -0.3015 -0.6138
  122OSM   H10S12944   1.311   3.444   9.550  0.6406  0.4202 -1.7710
  122OSM   H10T12945   1.324   3.609   9.494  2.4791 -2.5930  0.6957
  122OSM   C11S12946   1.140   3.521   9.434  0.2460  0.0281 -0.0864
  122OSM   H11S12947   1.083   3.616   9.427 -0.2393 -0.2444  0.0897
  122OSM   H11T12948   1.066   3.447   9.471  1.1531 -0.6568  0.3619
  122OSM   C12S12949   1.193   3.474   9.299 -0.1776  0.3203  0.5165
  122OSM   H12S12950   1.277   3.401   9.300  0.6204  1.1762  3.9517
  122OSM   H12T12951   1.242   3.564   9.256  1.1740 -0.3437  0.6243
  122OSM   C13S12952   1.077   3.419   9.208  0.0390 -0.7100 -0.3468
  122OSM   H13S12953   0.979   3.470   9.218 -0.1454 -1.1421  0.0927
  122OSM   H13T12954   1.062   3.312   9.234  1.0935 -0.7194  0.2766
  122OSM   C14S12955   1.103   3.431   9.057 -0.1221  0.1524  0.2602
  122OSM   H14S12956   1.185   3.506   9.045 -0.3879  0.1237 -1.8978
  122OSM   H14T12957   1.010   3.462   9.005  0.0705 -0.4001 -0.4188
  122OSM   C15S12958   1.152   3.304   8.979  0.6162 -0.1729  0.5439
  122OSM   H15S12959   1.069   3.232   8.992  0.7737 -0.2987  0.8673
  122OSM   H15T12960   1.244   3.263   9.026 -1.8044 -3.9855  2.2558
  122OSM   C16S12961   1.170   3.336   8.828 -0.0303 -0.1003 -0.4276
  122OSM   H16S12962   1.243   3.415   8.799  0.6058 -0.6355 -0.2945
  122OSM   H16T12963   1.073   3.360   8.779  0.1669  0.6814 -0.4482
  122OSM   C17S12964   1.221   3.207   8.757 -0.1135  0.4230 -0.4983
  122OSM   H17S12965   1.154   3.122   8.781  0.6496 -0.0710 -0.1066
  122OSM   H17T12966   1.318   3.179   8.804 -1.4575  1.0178  2.7719
  122OSM   C18S12967   1.244   3.229   8.609  0.8745 -0.4453  0.0527
  122OSM   H18S12968   1.323   3.306   8.596 -0.0224  0.4344 -0.2560
  122OSM   H18T12969   1.151   3.270   8.564  2.1762  1.9331 -0.5732
  122OSM   H18U12970   1.282   3.136   8.561  0.3610 -0.2553 -0.7470
  122OSM    C1F12971   1.471   3.309  10.374 -0.4447 -0.0726 -0.2420
  122OSM     OF12972   1.395   3.227  10.425 -0.9700  0.6068 -0.2421
  122OSM    C2F12973   1.609   3.288  10.331  0.5088  0.3323 -0.2834
  122OSM    H2F12974   1.685   3.280  10.412  2.2393  1.9600 -1.6853
  122OSM    H2G12975   1.646   3.382  10.284  2.0662  0.3184  0.8917
  122OSM    C3F12976   1.623   3.170  10.228 -0.8414  0.1918 -0.3156
  122OSM    H3F12977   1.572   3.083  10.274 -0.8697  0.6388  0.5122
  122OSM    H3G12978   1.731   3.147  10.239 -1.0865 -1.0000 -0.3565
  122OSM    C4F12979   1.577   3.199  10.081  0.3734  0.4122 -0.1022
  122OSM    H4F12980   1.466   3.205  10.087  0.4348  0.7022  0.9343
  122OSM    H4G12981   1.600   3.105  10.026 -2.2603 -0.7800  0.7473
  122OSM    C5F12982   1.629   3.316  10.012  0.0575 -0.1924  0.5522
  122OSM    H5F12983   1.729   3.348  10.049  0.2982 -0.1839 -0.1095
  122OSM    H5G12984   1.562   3.404  10.026  0.0205 -0.0074 -0.7080
  122OSM    C6F12985   1.650   3.285   9.860 -0.6916 -0.2942 -0.3530
  122OSM    H6F12986   1.553   3.261   9.812 -1.6092  0.7460  0.9267
  122OSM    H6G12987   1.700   3.186   9.860 -1.7649 -0.8577  0.7084
  122OSM    C7F12988   1.737   3.384   9.789 -0.6485  0.0655  0.1116
  122OSM    H7F12989   1.838   3.387   9.836 -0.9142  0.0940  0.6857
  122OSM    H7G12990   1.704   3.488   9.809  2.5928  1.1133  0.2698
  122OSM    C8F12991   1.755   3.363   9.634  0.1575  0.2464 -0.3813
  122OSM    H8F12992   1.801   3.263   9.621  1.9327  1.0162 -0.2217
  122OSM    H8G12993   1.834   3.433   9.600  0.1806 -0.7330 -2.3865
  122OSM    C9F12994   1.625   3.388   9.566 -0.8376 -0.1325  0.5098
  122OSM    H9F12995   1.566   3.472   9.607 -2.2955 -0.2555 -1.2934
  122OSM   C10F12996   1.582   3.314   9.462  0.0768  0.1107 -0.1201
  122OSM   H10F12997   1.484   3.338   9.418  0.5413  0.7697 -0.8230
  122OSM   C11F12998   1.654   3.204   9.400  0.0445 -0.5440  0.1887
  122OSM   H11F12999   1.639   3.116   9.466 -1.7845 -0.7275 -0.4541
  122OSM   H11G13000   1.764   3.221   9.403 -0.1802  1.4555 -1.7011
  122OSM   C12F13001   1.610   3.160   9.261 -0.5483  0.9027  0.0750
  122OSM   H12F13002   1.634   3.236   9.184 -0.0709  1.0584  0.3810
  122OSM   H12G13003   1.502   3.134   9.252 -0.9699  1.9776  1.9578
  122OSM   C13F13004   1.694   3.032   9.214  0.0411 -0.4790 -0.3545
  122OSM   H13F13005   1.672   2.938   9.269 -0.0890 -1.1599 -1.5489
  122OSM   H13G13006   1.802   3.055   9.217  0.0762 -0.6560 -0.2470
  122OSM   C14F13007   1.655   2.995   9.066  0.3160  0.3828 -0.2120
  122OSM   H14F13008   1.545   3.013   9.063  0.5987  2.2194  0.0645
  122OSM   H14G13009   1.688   2.891   9.043  0.4969  0.2154  0.7822
  122OSM   C15F13010   1.717   3.086   8.952 -0.4520  0.3526 -0.0232
  122OSM   H15F13011   1.820   3.044   8.944 -0.7053 -0.3489  0.2736
  122OSM   H15G13012   1.739   3.190   8.982 -0.8476  0.9914 -1.8703
  122OSM   C16F13013   1.647   3.076   8.821  0.2173 -0.1474  0.8941
  122OSM   H16F13014   1.718   3.108   8.741 -1.1057  0.6335  0.0240
  122OSM   H16G13015   1.552   3.134   8.823  0.6242  0.4934  1.9605
  122OSM   C17F13016   1.615   2.929   8.780  0.1603  0.4171  0.2391
  122OSM   H17F13017   1.526   2.884   8.830 -0.5196 -1.0975 -2.2047
  122OSM   H17G13018   1.700   2.862   8.805  0.6019  0.3177 -1.4364
  122OSM   C18F13019   1.581   2.927   8.629 -0.3756 -0.2567  0.0243
  122OSM   H18F13020   1.531   2.836   8.590  0.1693 -0.5086 -0.0878
  122OSM   H18G13021   1.677   2.947   8.577  0.9003  1.3383  2.8531
  122OSM   H18H13022   1.516   3.013   8.599  2.0475  2.1097  1.3322
  123OSM      N13023   6.081   1.757   6.250 -0.4323  0.0272  0.1164
  123OSM    C1513024   6.114   1.643   6.155 -0.5117  0.8161 -0.0605
  123OSM   H15A13025   6.057   1.645   6.063 -0.6976  0.1345  0.0342
  123OSM   H15B13026   6.102   1.544   6.197 -1.2499  2.3089  3.3863
  123OSM   H15C13027   6.221   1.648   6.139 -0.7549 -1.0030 -2.7383
  123OSM    C1413028   5.938   1.770   6.277 -0.1917  0.4265  0.9537
  123OSM   H14A13029   5.891   1.810   6.188 -0.3456 -1.1438  0.3161
  123OSM   H14B13030   5.921   1.837   6.360  0.9823  0.5703  1.0807
  123OSM   H14C13031   5.893   1.675   6.302 -0.4375  0.3927  0.3905
  123OSM    C1313032   6.165   1.723   6.368  0.2466 -0.8849  0.2218
  123OSM   H13A13033   6.269   1.707   6.343  0.4788  1.8278 -0.7977
  123OSM   H13B13034   6.122   1.633   6.409  0.0024 -2.5233 -3.4914
  123OSM   H13C13035   6.168   1.803   6.441  1.6931 -0.3163 -0.4318
  123OSM    C1213036   6.131   1.880   6.194 -0.0125 -0.0485  0.6352
  123OSM   H12A13037   6.236   1.890   6.221 -0.1656  2.9873  0.3599
  123OSM   H12B13038   6.088   1.958   6.255 -1.7976 -0.9822  0.5861
  123OSM    C1113039   6.104   1.913   6.045  0.5390 -0.2094 -0.4248
  123OSM   H11A13040   6.165   1.836   5.995  0.2960 -0.0329 -0.9893
  123OSM   H11B13041   6.149   2.011   6.018 -0.6621  1.5151  3.3387
  123OSM      P13042   5.876   2.030   6.009  0.1855 -0.2709 -0.3134
  123OSM    O1313043   5.929   2.112   5.905  0.1737 -0.6816  0.7457
  123OSM    O1413044   5.732   1.988   5.997 -0.6087 -0.7553  0.5152
  123OSM    O1113045   5.906   2.095   6.151 -0.1208 -0.4767 -0.2118
  123OSM    O1213046   5.965   1.900   6.009 -0.0913  0.5518  0.5096
  123OSM    C1S13047   5.815   2.078   6.255 -0.1124  0.2532 -0.5007
  123OSM    H1S13048   5.805   1.969   6.271 -1.5489  0.2263 -1.4432
  123OSM    H1T13049   5.717   2.122   6.227  0.4023  2.5259  1.0763
  123OSM     NF13050   5.771   2.124   6.489  0.1920  0.5703 -0.0357
  123OSM    HNF13051   5.714   2.205   6.499  2.3993  2.0331  1.3326
  123OSM    C2S13052   5.868   2.138   6.385 -0.1338  0.7547 -0.3353
  123OSM    H2S13053   5.960   2.080   6.405 -2.0334 -2.6577 -1.1527
  123OSM    C3S13054   5.918   2.284   6.374  0.2457 -0.1937 -0.1010
  123OSM    H3S13055   5.836   2.354   6.351  0.5697  0.2493  0.0875
  123OSM     O313056   6.000   2.304   6.259 -0.1602 -0.0772 -0.1241
  123OSM    HO313057   6.003   2.214   6.227  0.4179  0.7481 -2.5130
  123OSM    C4S13058   5.989   2.325   6.505  0.6630 -0.2778  0.0523
  123OSM    H4S13059   6.097   2.307   6.521  1.4452  2.5851 -1.6790
  123OSM    C5S13060   5.936   2.393   6.607  0.4434 -0.1207  0.1578
  123OSM    H5S13061   5.835   2.433   6.590  1.8847  3.1033 -1.2908
  123OSM    C6S13062   6.004   2.435   6.737  0.0668 -0.5020  0.1762
  123OSM    H6S13063   5.940   2.395   6.818 -1.3040  1.6067  0.1446
  123OSM    H6T13064   6.015   2.545   6.731 -2.9924 -0.0317  2.0971
  123OSM    C7S13065   6.145   2.382   6.770 -0.2139  0.0863  0.2054
  123OSM    H7S13066   6.224   2.434   6.711  0.6273 -0.8733  0.4625
  123OSM    H7T13067   6.156   2.278   6.733 -0.6836  1.0208 -2.7130
  123OSM    C8S13068   6.185   2.397   6.916  0.4871  0.2086 -0.0687
  123OSM    H8S13069   6.140   2.309   6.967  0.3691 -0.3180 -1.0723
  123OSM    H8T13070   6.138   2.484   6.966 -0.4772 -0.0551 -0.5125
  123OSM    C9S13071   6.332   2.394   6.950  0.0077  0.2017  0.6151
  123OSM    H9S13072   6.390   2.468   6.891 -1.2132  0.5954 -0.1060
  123OSM    H9T13073   6.364   2.294   6.913  1.9008  0.4527  1.5035
  123OSM   C10S13074   6.365   2.408   7.096  0.2782 -0.8230  0.2863
  123OSM   H10S13075   6.323   2.324   7.155  1.3308 -1.8457 -0.4041
  123OSM   H10T13076   6.312   2.498   7.134  2.9677  1.9563 -2.2766
  123OSM   C11S13077   6.513   2.410   7.118  1.0768  0.7016 -0.5999
  123OSM   H11S13078   6.566   2.486   7.057  1.2815  2.3722  1.6309
  123OSM   H11T13079   6.549   2.305   7.102 -1.4600 -0.5254  1.4260
  123OSM   C12S13080   6.541   2.420   7.273 -0.3499  0.4448  0.6081
  123OSM   H12S13081   6.637   2.369   7.298  0.3313  0.7466 -1.2594
  123OSM   H12T13082   6.460   2.365   7.325 -0.7683  0.3201 -0.1586
  123OSM   C13S13083   6.556   2.564   7.318  0.2082  0.0282  0.3646
  123OSM   H13S13084   6.469   2.623   7.284  0.0260 -0.6772 -0.3936
  123OSM   H13T13085   6.649   2.613   7.281 -0.6223 -0.4470 -2.4599
  123OSM   C14S13086   6.547   2.572   7.470  0.4976 -0.8381  0.3088
  123OSM   H14S13087   6.615   2.495   7.513 -1.7333 -1.9686  1.8961
  123OSM   H14T13088   6.441   2.544   7.486 -0.5827  1.5549 -2.2115
  123OSM   C15S13089   6.589   2.714   7.523  0.4914  0.2313 -0.0458
  123OSM   H15S13090   6.518   2.784   7.475  0.3734  1.8781  2.4527
  123OSM   H15T13091   6.689   2.730   7.478  0.4475  0.6769  0.0167
  123OSM   C16S13092   6.574   2.731   7.675 -0.4404 -0.1128 -0.4606
  123OSM   H16S13093   6.648   2.665   7.726 -0.4898  0.5519  0.4727
  123OSM   H16T13094   6.475   2.697   7.710 -0.9892  1.6613 -0.2656
  123OSM   C17S13095   6.601   2.874   7.716 -1.0697 -0.5950 -0.3399
  123OSM   H17S13096   6.517   2.947   7.709  1.1354  1.8512 -2.1229
  123OSM   H17T13097   6.683   2.914   7.653 -0.8720 -0.5059 -0.0228
  123OSM   C18S13098   6.654   2.891   7.865  0.7502 -0.2583 -0.3008
  123OSM   H18S13099   6.759   2.857   7.877  0.4274 -1.2054 -0.1470
  123OSM   H18T13100   6.593   2.832   7.937  0.0834  1.2182  0.3662
  123OSM   H18U13101   6.648   2.997   7.899  0.5687 -0.3893  0.0729
  123OSM    C1F13102   5.752   2.010   6.551  0.7298 -0.3830  0.0966
  123OSM     OF13103   5.823   1.912   6.524 -0.2125  0.1850  0.4677
  123OSM    C2F13104   5.642   2.009   6.661  0.2493 -0.0668 -0.2225
  123OSM    H2F13105   5.550   1.967   6.614 -1.9665  2.2336  1.9427
  123OSM    H2G13106   5.622   2.112   6.699 -0.2097 -0.8923  1.8335
  123OSM    C3F13107   5.697   1.906   6.769 -0.2568 -0.2235 -0.1850
  123OSM    H3F13108   5.727   1.810   6.722  1.2499  0.3803 -0.5181
  123OSM    H3G13109   5.607   1.893   6.833 -0.2417  4.3932  0.9512
  123OSM    C4F13110   5.819   1.955   6.850  0.6854 -0.4176  0.1427
  123OSM    H4F13111   5.912   1.963   6.790 -0.1936 -2.2745 -1.5240
  123OSM    H4G13112   5.853   1.894   6.936  0.0543  0.0384  0.7196
  123OSM    C5F13113   5.806   2.094   6.919  1.0959  0.1241 -0.4125
  123OSM    H5F13114   5.722   2.081   6.991  1.0439 -0.4414 -0.5762
  123OSM    H5G13115   5.783   2.164   6.836  0.8857  0.4551 -0.0794
  123OSM    C6F13116   5.939   2.131   6.998  0.2197  1.0915  0.4149
  123OSM    H6F13117   5.932   2.242   7.009 -0.3939  1.2316 -1.1706
  123OSM    H6G13118   6.030   2.110   6.938 -0.7763  3.0399 -1.9038
  123OSM    C7F13119   5.954   2.085   7.138  0.1993 -0.4318  0.1878
  123OSM    H7F13120   5.989   1.980   7.132 -2.1611 -1.2586  0.3290
  123OSM    H7G13121   5.849   2.094   7.175  0.6329  1.4150  1.0439
  123OSM    C8F13122   6.074   2.161   7.202 -0.0582  0.5447 -0.4263
  123OSM    H8F13123   6.035   2.254   7.250 -1.1509  0.0746 -0.3762
  123OSM    H8G13124   6.158   2.181   7.132  0.0362 -2.2590 -1.1511
  123OSM    C9F13125   6.132   2.072   7.314  0.4287  0.0324  0.2192
  123OSM    H9F13126   6.191   1.985   7.281  0.5869  0.3182 -0.2397
  123OSM   C10F13127   6.105   2.084   7.442 -0.7187 -0.3327  0.0024
  123OSM   H10F13128   6.147   2.017   7.519  0.0601 -0.0566 -0.1720
  123OSM   C11F13129   6.020   2.196   7.504 -0.3901 -0.1202 -0.0882
  123OSM   H11F13130   5.913   2.193   7.475  0.0101 -1.0027 -1.5087
  123OSM   H11G13131   6.050   2.297   7.468  0.1872 -0.3742 -0.3308
  123OSM   C12F13132   6.015   2.205   7.657  0.4271 -1.1956 -0.3927
  123OSM   H12F13133   6.110   2.164   7.699  0.0521  0.8083  2.5932
  123OSM   H12G13134   5.944   2.133   7.703 -0.1108  0.4109  1.3616
  123OSM   C13F13135   6.003   2.340   7.733 -0.2423 -0.0523 -0.3189
  123OSM   H13F13136   6.000   2.315   7.842 -0.6547 -1.9369 -0.7446
  123OSM   H13G13137   5.923   2.411   7.704  0.8021  0.3465 -2.2473
  123OSM   C14F13138   6.134   2.420   7.712 -0.1307 -0.0713  0.0674
  123OSM   H14F13139   6.128   2.457   7.608 -1.5845 -0.6275 -0.0562
  123OSM   H14G13140   6.206   2.336   7.728  0.7020  0.8474  1.2334
  123OSM   C15F13141   6.163   2.522   7.828 -0.4861  0.3459  0.8529
  123OSM   H15F13142   6.080   2.596   7.824 -0.8906 -0.2042 -1.6555
  123OSM   H15G13143   6.260   2.565   7.796 -0.4339 -0.9582 -0.7855
  123OSM   C16F13144   6.171   2.463   7.964 -0.1714  0.1695 -0.6098
  123OSM   H16F13145   6.248   2.384   7.976 -0.7401 -0.2449  0.4528
  123OSM   H16G13146   6.078   2.417   8.002  1.2412 -2.5194 -0.3260
  123OSM   C17F13147   6.212   2.578   8.064  0.1509 -0.5540 -0.8171
  123OSM   H17F13148   6.190   2.537   8.165 -0.4340  2.0524  0.1444
  123OSM   H17G13149   6.145   2.666   8.054 -1.0018 -1.1348  1.4448
  123OSM   C18F13150   6.352   2.635   8.049 -0.0178  0.1479  0.2235
  123OSM   H18F13151   6.368   2.662   7.942 -1.2668  1.5750  0.3745
  123OSM   H18G13152   6.421   2.555   8.083 -0.5910 -0.9668 -1.1732
  123OSM   H18H13153   6.360   2.729   8.107 -2.5787 -0.3214  1.3876
  124OSM      N13154   2.089   0.865   5.897  0.2571  0.1685  0.5860
  124OSM    C1513155   2.056   0.872   5.750  0.3469 -0.0580  0.4516
  124OSM   H15A13156   2.003   0.783   5.719  1.4290  0.2985 -2.6923
  124OSM   H15B13157   2.137   0.890   5.681  0.4327 -0.7267  0.3726
  124OSM   H15C13158   2.000   0.964   5.737  0.3715 -0.1483 -0.3312
  124OSM    C1413159   2.179   0.737   5.918 -0.2326 -0.2224  0.3101
  124OSM   H14A13160   2.254   0.739   5.841  0.1152  0.1389  0.6551
  124OSM   H14B13161   2.119   0.647   5.920 -0.2088 -0.3803 -3.1920
  124OSM   H14C13162   2.225   0.748   6.015 -2.0616 -0.6592  1.2547
  124OSM    C1313163   2.175   0.978   5.929  0.7068 -0.2227  0.0614
  124OSM   H13A13164   2.139   1.079   5.913  0.5979 -0.4807 -1.3233
  124OSM   H13B13165   2.265   0.964   5.870  1.3659 -1.0082  1.2370
  124OSM   H13C13166   2.199   0.969   6.034 -0.4307 -1.8161  0.1940
  124OSM    C1213167   1.965   0.865   5.983 -0.8225  0.1787 -0.6470
  124OSM   H12A13168   1.893   0.796   5.942 -1.2650 -0.5989  1.3790
  124OSM   H12B13169   1.913   0.959   5.968  0.5526  1.2475  1.1163
  124OSM    C1113170   1.996   0.840   6.135 -0.3987 -0.6926 -0.0419
  124OSM   H11A13171   2.062   0.753   6.155 -0.4927 -0.6361  0.5238
  124OSM   H11B13172   1.909   0.808   6.196 -0.2796 -0.7374  0.1052
  124OSM      P13173   2.159   0.976   6.294  0.0218 -0.1165  0.6016
  124OSM    O1313174   2.280   0.984   6.210  0.3624 -0.6516  0.5211
  124OSM    O1413175   2.141   1.080   6.399  0.2621 -0.2552 -0.0124
  124OSM    O1113176   2.157   0.832   6.361 -0.5235  0.2135  0.3546
  124OSM    O1213177   2.031   0.965   6.202 -0.0562 -0.1883  0.2324
  124OSM    C1S13178   2.206   0.816   6.494  0.7406  0.5423  0.0898
  124OSM    H1S13179   2.263   0.906   6.527  1.5723  0.0653 -0.0293
  124OSM    H1T13180   2.268   0.723   6.490  3.3942  2.2113  0.8415
  124OSM     NF13181   2.111   0.817   6.734  0.2938  0.3127  0.2326
  124OSM    HNF13182   2.136   0.733   6.780  0.1294 -0.5905 -1.3020
  124OSM    C2S13183   2.079   0.800   6.589 -0.0095  0.3860  0.4470
  124OSM    H2S13184   2.012   0.879   6.550  0.7072  0.6906 -0.1693
  124OSM    C3S13185   2.015   0.667   6.553  0.6749 -0.7196  0.2583
  124OSM    H3S13186   2.090   0.585   6.560 -0.0479 -1.3918  0.1335
  124OSM     O313187   1.964   0.659   6.420 -0.0862 -0.0557 -0.1126
  124OSM    HO313188   2.031   0.716   6.381  1.0040 -2.2790 -1.5707
  124OSM    C4S13189   1.901   0.647   6.652 -0.0261 -0.3931 -0.4554
  124OSM    H4S13190   1.846   0.738   6.681 -1.4834 -0.6249 -2.3920
  124OSM    C5S13191   1.867   0.529   6.710  0.4148 -0.7075  0.5772
  124OSM    H5S13192   1.899   0.443   6.650  0.4580  0.7719 -1.6004
  124OSM    C6S13193   1.752   0.496   6.803  0.1445 -0.2364  0.7774
  124OSM    H6S13194   1.775   0.414   6.874  1.0075 -1.4090 -0.8317
  124OSM    H6T13195   1.670   0.467   6.734  0.0447  0.8115  0.4482
  124OSM    C7S13196   1.692   0.610   6.881  0.3651 -0.1066  0.5978
  124OSM    H7S13197   1.668   0.689   6.807 -1.8573 -2.3159 -1.1295
  124OSM    H7T13198   1.768   0.656   6.948 -0.5874 -0.6638  2.0902
  124OSM    C8S13199   1.557   0.569   6.946 -0.7339  0.0461  0.0302
  124OSM    H8S13200   1.585   0.499   7.027  1.7624 -1.3736 -2.0026
  124OSM    H8T13201   1.503   0.514   6.866  1.5172  0.3929 -1.7785
  124OSM    C9S13202   1.474   0.687   6.994  0.1099 -0.1326 -0.5430
  124OSM    H9S13203   1.452   0.757   6.911 -0.0148  2.2731  1.4591
  124OSM    H9T13204   1.531   0.750   7.066 -1.6859  1.1202 -0.1789
  124OSM   C10S13205   1.338   0.654   7.062  1.0547 -0.4205  0.2427
  124OSM   H10S13206   1.273   0.599   6.990 -0.9893  0.2708  1.4890
  124OSM   H10T13207   1.284   0.748   7.087  0.8206 -0.0194 -1.7563
  124OSM   C11S13208   1.340   0.567   7.186 -0.1136  0.3065  0.2808
  124OSM   H11S13209   1.397   0.473   7.169  1.4934  1.0743  1.2616
  124OSM   H11T13210   1.236   0.542   7.214  0.1102  0.4738  1.2735
  124OSM   C12S13211   1.414   0.639   7.305 -0.6980 -0.2486  0.1992
  124OSM   H12S13212   1.390   0.748   7.303 -1.4249 -0.3973  0.5916
  124OSM   H12T13213   1.524   0.623   7.296 -0.2368  2.8707 -0.4111
  124OSM   C13S13214   1.384   0.580   7.440 -0.1724  0.2851  0.4718
  124OSM   H13S13215   1.420   0.476   7.432  1.2452  0.6762  1.5718
  124OSM   H13T13216   1.274   0.569   7.457 -0.2761 -1.5601 -1.2566
  124OSM   C14S13217   1.451   0.652   7.557 -0.3714 -0.3114  0.7413
  124OSM   H14S13218   1.427   0.760   7.563 -2.5728 -0.7200 -0.0709
  124OSM   H14T13219   1.560   0.641   7.542 -0.6778 -2.5312  0.0188
  124OSM   C15S13220   1.399   0.592   7.694  0.8049 -0.3069  0.0208
  124OSM   H15S13221   1.289   0.603   7.687  0.7998  0.1477  0.7847
  124OSM   H15T13222   1.437   0.659   7.774  2.4657  0.2492 -1.1982
  124OSM   C16S13223   1.445   0.447   7.721  0.6488  0.5920 -0.3846
  124OSM   H16S13224   1.554   0.431   7.729  0.8952  1.8074 -1.1455
  124OSM   H16T13225   1.395   0.384   7.645  2.6853 -0.1031 -1.1569
  124OSM   C17S13226   1.394   0.411   7.859  0.9707 -0.0125  0.7470
  124OSM   H17S13227   1.283   0.407   7.856  1.0655 -2.9543 -0.2683
  124OSM   H17T13228   1.436   0.491   7.923  0.7772 -0.1970  1.1074
  124OSM   C18S13229   1.445   0.274   7.907 -0.3363 -0.2064  0.2861
  124OSM   H18S13230   1.421   0.264   8.015  1.6035  1.2121  0.8793
  124OSM   H18T13231   1.555   0.266   7.894 -0.5249  0.9929 -2.5724
  124OSM   H18U13232   1.406   0.189   7.847  1.1682  0.5082 -1.7701
  124OSM    C1F13233   2.161   0.935   6.776  0.7699  0.5836 -0.5573
  124OSM     OF13234   2.139   1.038   6.713 -0.4098  0.5687 -0.3051
  124OSM    C2F13235   2.239   0.929   6.901  0.5293  0.9188 -0.2153
  124OSM    H2F13236   2.280   0.830   6.928  1.5174  1.1566 -0.8147
  124OSM    H2G13237   2.153   0.944   6.970  1.4889  1.6181  0.8604
  124OSM    C3F13238   2.345   1.040   6.905 -0.5909 -0.1850  0.1221
  124OSM    H3F13239   2.299   1.138   6.878 -3.0644 -1.2571  0.2917
  124OSM    H3G13240   2.427   1.035   6.831 -1.4627 -0.4820 -0.8466
  124OSM    C4F13241   2.414   1.056   7.038  0.3565  0.4038  0.4800
  124OSM    H4F13242   2.490   1.137   7.029 -1.5476  2.1026 -0.8285
  124OSM    H4G13243   2.468   0.962   7.059  0.9829  0.5977 -0.2338
  124OSM    C5F13244   2.315   1.075   7.145  0.7458  0.6986 -0.4345
  124OSM    H5F13245   2.269   0.975   7.161 -0.5164  1.0865 -1.5484
  124OSM    H5G13246   2.241   1.158   7.135 -1.7541 -1.3270  0.8142
  124OSM    C6F13247   2.384   1.107   7.274  0.0513 -0.3027  0.2936
  124OSM    H6F13248   2.446   1.199   7.263  1.3307 -0.5604  4.4472
  124OSM    H6G13249   2.459   1.027   7.290 -0.9299 -1.6520 -1.6414
  124OSM    C7F13250   2.301   1.102   7.399  1.0463 -0.5372 -0.1266
  124OSM    H7F13251   2.226   1.020   7.389  2.5616 -2.2698  2.1332
  124OSM    H7G13252   2.236   1.192   7.388  0.9260 -0.7207 -0.9134
  124OSM    C8F13253   2.376   1.100   7.531  0.7104  0.1134 -0.5094
  124OSM    H8F13254   2.434   1.005   7.524  0.3902 -0.0820 -0.5368
  124OSM    H8G13255   2.306   1.082   7.616  1.4954 -3.6637 -0.5680
  124OSM    C9F13256   2.467   1.210   7.552  0.1400 -0.3222 -0.3590
  124OSM    H9F13257   2.482   1.276   7.466  0.1851 -1.5361 -1.2831
  124OSM   C10F13258   2.526   1.245   7.670  0.0919  0.4841  0.5287
  124OSM   H10F13259   2.572   1.345   7.671  2.6072 -0.6504  2.1464
  124OSM   C11F13260   2.511   1.173   7.803 -0.6446 -0.7746 -0.0326
  124OSM   H11F13261   2.607   1.119   7.817 -0.6159 -1.0174 -1.1094
  124OSM   H11G13262   2.437   1.091   7.790 -0.6090 -0.5991 -1.4100
  124OSM   C12F13263   2.469   1.269   7.917 -0.4216  0.0538  0.3848
  124OSM   H12F13264   2.556   1.333   7.941 -0.1081 -0.0411 -0.4667
  124OSM   H12G13265   2.444   1.209   8.007 -1.0055 -1.5013 -0.7881
  124OSM   C13F13266   2.336   1.335   7.889  0.2380  0.5012 -0.9320
  124OSM   H13F13267   2.259   1.257   7.868 -0.7350  1.1959 -0.0243
  124OSM   H13G13268   2.345   1.403   7.801 -1.9097  2.3650  0.2310
  124OSM   C14F13269   2.267   1.405   8.006  0.0451  0.0472  0.6548
  124OSM   H14F13270   2.302   1.365   8.103 -0.6395 -2.4561 -0.0917
  124OSM   H14G13271   2.156   1.407   8.006  0.0602  1.2778 -0.3381
  124OSM   C15F13272   2.305   1.562   8.013  0.3567 -0.8236 -0.5274
  124OSM   H15F13273   2.255   1.612   7.927 -0.2004  1.2597  0.9610
  124OSM   H15G13274   2.415   1.574   8.000  0.4468 -1.0786 -0.0334
  124OSM   C16F13275   2.269   1.620   8.158 -0.5313 -0.1233 -0.4195
  124OSM   H16F13276   2.319   1.564   8.239  1.8513  0.1500 -1.6575
  124OSM   H16G13277   2.161   1.607   8.181 -0.4074 -0.8591 -0.2259
  124OSM   C17F13278   2.312   1.766   8.175  0.0760 -0.0600  0.5295
  124OSM   H17F13279   2.274   1.829   8.092  1.0725 -0.4918 -0.2606
  124OSM   H17G13280   2.422   1.764   8.157  0.0442  2.9829 -0.3659
  124OSM   C18F13281   2.285   1.823   8.311 -0.0031 -0.5243  0.0203
  124OSM   H18F13282   2.178   1.845   8.328  1.1076  3.3420  2.4085
  124OSM   H18G13283   2.341   1.916   8.334 -1.8914  1.6056 -3.5330
  124OSM   H18H13284   2.325   1.750   8.385  0.8216 -0.5431 -0.4288
  125OSM      N13285   2.169   2.764   6.167  0.1991 -0.7187 -0.0818
  125OSM    C1513286   2.190   2.789   6.020 -0.9220  0.2548  0.8890
  125OSM   H15A13287   2.097   2.782   5.965 -0.6195 -0.0958  0.4284
  125OSM   H15B13288   2.266   2.724   5.979  0.6379  1.4500  1.8091
  125OSM   H15C13289   2.232   2.889   6.014 -1.0789  0.2066 -1.4544
  125OSM    C1413290   2.304   2.753   6.221 -0.0160  0.8770 -0.0990
  125OSM   H14A13291   2.301   2.722   6.324 -1.1045  0.7454 -0.1626
  125OSM   H14B13292   2.360   2.845   6.212  0.6133  0.7149  2.0837
  125OSM   H14C13293   2.359   2.675   6.170 -0.8300 -1.0788  1.8984
  125OSM    C1313294   2.099   2.881   6.234  0.3017 -0.6451  0.1555
  125OSM   H13A13295   2.141   2.973   6.197 -1.4077 -0.2594 -0.9036
  125OSM   H13B13296   2.108   2.874   6.341 -2.0838 -1.9522  0.3232
  125OSM   H13C13297   1.993   2.877   6.214  0.1604  1.0855  0.5084
  125OSM    C1213298   2.075   2.646   6.184  0.3065  0.6829 -0.2733
  125OSM   H12A13299   2.124   2.570   6.125  1.5380  0.3957  1.0779
  125OSM   H12B13300   1.983   2.651   6.128 -0.8318  0.0909  1.5184
  125OSM    C1113301   2.051   2.592   6.318 -0.1317  0.3127  0.0016
  125OSM   H11A13302   1.989   2.501   6.303  2.8080 -1.3629 -2.7097
  125OSM   H11B13303   1.990   2.654   6.387 -2.5509 -0.8591 -1.0266
  125OSM      P13304   2.244   2.428   6.380 -0.2625 -0.1410  0.3487
  125OSM    O1313305   2.186   2.354   6.267 -0.4217  0.6926  0.0321
  125OSM    O1413306   2.392   2.465   6.376  0.0686 -0.0695  0.3420
  125OSM    O1113307   2.221   2.348   6.513  0.3413  0.5794 -0.1102
  125OSM    O1213308   2.162   2.557   6.399 -0.6385 -0.0645 -0.0223
  125OSM    C1S13309   2.176   2.410   6.631  0.4442  0.3096  0.0379
  125OSM    H1S13310   2.202   2.517   6.642  0.4909  0.0505  2.8454
  125OSM    H1T13311   2.240   2.370   6.712 -1.2996 -1.7542  0.4488
  125OSM     NF13312   2.009   2.443   6.806 -0.6832  0.0307 -0.0061
  125OSM    HNF13313   2.032   2.387   6.885  0.7731  1.7886  0.8476
  125OSM    C2S13314   2.028   2.380   6.677 -0.2521 -0.2085 -0.1937
  125OSM    H2S13315   1.961   2.422   6.599 -1.0510 -0.2255  0.4890
  125OSM    C3S13316   2.010   2.226   6.675 -0.5888  0.1973  0.2728
  125OSM    H3S13317   2.094   2.185   6.735  0.6826 -0.5973 -1.9991
  125OSM     O313318   2.014   2.169   6.545 -0.2613  0.8873 -0.0200
  125OSM    HO313319   2.073   2.230   6.500 -0.9659  1.1569 -0.5871
  125OSM    C4S13320   1.872   2.184   6.733 -0.6095  0.4004  1.1525
  125OSM    H4S13321   1.792   2.257   6.715 -1.4444 -0.3464  1.7885
  125OSM    C5S13322   1.850   2.072   6.805  0.9349  0.1511  0.0223
  125OSM    H5S13323   1.935   2.006   6.825 -0.3763 -2.2924 -2.2417
  125OSM    C6S13324   1.717   2.024   6.875 -0.4470 -0.2734 -0.2086
  125OSM    H6S13325   1.697   1.914   6.874 -1.4604 -0.1287  1.8698
  125OSM    H6T13326   1.635   2.074   6.820  1.2485  0.5231 -2.0476
  125OSM    C7S13327   1.713   2.061   7.028  0.3379  0.1939  0.4254
  125OSM    H7S13328   1.723   2.171   7.026 -0.7675  0.2860 -0.5182
  125OSM    H7T13329   1.800   2.019   7.083 -2.3441 -2.1849  2.9933
  125OSM    C8S13330   1.580   2.025   7.094 -0.1864 -0.1915 -0.8945
  125OSM    H8S13331   1.537   1.926   7.069  0.7924  0.0929 -3.9918
  125OSM    H8T13332   1.500   2.094   7.056  0.3887  0.8949 -0.1628
  125OSM    C9S13333   1.593   2.050   7.248 -0.1001 -0.2507  0.4686
  125OSM    H9S13334   1.662   2.136   7.261 -0.1803 -0.2292  0.7484
  125OSM    H9T13335   1.648   1.965   7.293  0.0996  0.1211  0.9258
  125OSM   C10S13336   1.466   2.077   7.315  0.6650  0.0732 -0.9689
  125OSM   H10S13337   1.402   1.989   7.296  0.8969 -0.4815  0.7898
  125OSM   H10T13338   1.427   2.168   7.264  0.2519  0.1050 -0.5944
  125OSM   C11S13339   1.470   2.098   7.472  0.0957  0.1713  0.4347
  125OSM   H11S13340   1.372   2.130   7.512  0.3244  0.6818  0.5856
  125OSM   H11T13341   1.538   2.185   7.462  0.9391 -0.6297 -1.0783
  125OSM   C12S13342   1.529   1.990   7.559 -0.7223  0.1007  0.1313
  125OSM   H12S13343   1.543   2.042   7.656 -0.6474  1.5121 -0.6280
  125OSM   H12T13344   1.629   1.967   7.515 -1.3168  0.4506 -1.4476
  125OSM   C13S13345   1.445   1.864   7.574  0.3576  0.2386 -0.0428
  125OSM   H13S13346   1.432   1.802   7.483  2.1565  2.3245 -1.7848
  125OSM   H13T13347   1.342   1.892   7.604 -0.1383 -0.7301 -0.7793
  125OSM   C14S13348   1.494   1.762   7.678  0.3503 -0.4801 -0.0445
  125OSM   H14S13349   1.598   1.725   7.662  0.5745 -0.2492  0.8228
  125OSM   H14T13350   1.427   1.674   7.673  0.5519 -0.7147  1.2264
  125OSM   C15S13351   1.489   1.810   7.822 -0.8490  0.3637  0.4826
  125OSM   H15S13352   1.382   1.819   7.851 -0.7520 -0.3468  1.0836
  125OSM   H15T13353   1.545   1.904   7.842  0.2495 -0.4274  1.1661
  125OSM   C16S13354   1.568   1.701   7.905 -0.5154  0.4008 -0.0779
  125OSM   H16S13355   1.675   1.732   7.900 -0.9732  1.9485 -0.4412
  125OSM   H16T13356   1.566   1.598   7.864  3.4716 -0.0171  0.5185
  125OSM   C17S13357   1.514   1.704   8.052  0.5563 -0.3492 -0.7983
  125OSM   H17S13358   1.493   1.807   8.089 -2.9221 -1.2972  0.0579
  125OSM   H17T13359   1.599   1.661   8.109 -0.6757  0.1799  1.5080
  125OSM   C18S13360   1.387   1.616   8.064 -0.2723 -0.0473  0.4177
  125OSM   H18S13361   1.318   1.639   7.980  0.2231 -0.8410 -0.2040
  125OSM   H18T13362   1.329   1.633   8.158  1.8049 -0.5553  1.8203
  125OSM   H18U13363   1.403   1.507   8.056  2.4269  0.3814 -0.4796
  125OSM    C1F13364   2.010   2.570   6.809  0.4233  0.6954  0.0556
  125OSM     OF13365   1.974   2.639   6.711 -0.1028  0.0419  0.2895
  125OSM    C2F13366   2.048   2.635   6.942  0.3756 -0.5835 -0.0116
  125OSM    H2F13367   2.149   2.597   6.967  1.4232  1.6361 -0.7068
  125OSM    H2G13368   1.975   2.588   7.011  0.9612 -1.7768 -0.1952
  125OSM    C3F13369   2.040   2.790   6.941  0.3817 -1.0277  0.1065
  125OSM    H3F13370   1.948   2.818   6.887 -0.0427  0.6796  1.6796
  125OSM    H3G13371   2.117   2.826   6.869  0.0199 -2.0398 -0.8022
  125OSM    C4F13372   2.055   2.854   7.076 -0.3522 -0.5073 -0.4342
  125OSM    H4F13373   2.028   2.962   7.066 -0.2361 -0.4573 -0.2250
  125OSM    H4G13374   2.157   2.853   7.119 -0.3533 -2.2315 -0.4511
  125OSM    C5F13375   1.968   2.812   7.191  0.6094 -0.3296 -0.0280
  125OSM    H5F13376   2.013   2.724   7.241  1.6071  0.1243 -0.1192
  125OSM    H5G13377   1.869   2.780   7.153  0.5902  0.9592 -1.0989
  125OSM    C6F13378   1.944   2.920   7.303 -0.2305  0.3947 -0.1215
  125OSM    H6F13379   1.904   3.016   7.265 -0.8910 -1.4191 -4.3208
  125OSM    H6G13380   2.043   2.945   7.345  0.9935 -0.8139 -2.1913
  125OSM    C7F13381   1.852   2.868   7.411 -0.5715  0.2952 -0.1734
  125OSM    H7F13382   1.885   2.776   7.463  0.6008 -0.6957 -2.5825
  125OSM    H7G13383   1.748   2.858   7.372 -0.4379  1.6174 -0.9225
  125OSM    C8F13384   1.837   2.979   7.517 -0.4967 -0.1494  0.8556
  125OSM    H8F13385   1.795   3.065   7.460 -1.7193 -0.7116  0.8882
  125OSM    H8G13386   1.931   3.010   7.567  0.0442 -2.2585  1.1897
  125OSM    C9F13387   1.740   2.940   7.624 -0.8108  0.3900 -0.6540
  125OSM    H9F13388   1.648   2.916   7.568 -0.2515  0.7562 -1.7449
  125OSM   C10F13389   1.749   2.913   7.758 -0.3430 -0.1196  0.0659
  125OSM   H10F13390   1.662   2.886   7.819 -2.0204 -0.0266 -2.2021
  125OSM   C11F13391   1.870   2.926   7.848 -0.4961  0.0924  0.5651
  125OSM   H11F13392   1.845   2.938   7.955 -0.6135  0.4707  0.4956
  125OSM   H11G13393   1.933   3.015   7.828  0.3925 -0.3524  1.3682
  125OSM   C12F13394   1.963   2.803   7.826  0.2394  0.9961 -0.0085
  125OSM   H12F13395   2.050   2.820   7.894 -0.8733  4.1875  0.6981
  125OSM   H12G13396   1.991   2.794   7.719 -3.1812  0.3440 -0.9029
  125OSM   C13F13397   1.899   2.664   7.860  0.1649  0.3443  0.0508
  125OSM   H13F13398   1.961   2.591   7.804 -0.0223 -0.2095  0.5510
  125OSM   H13G13399   1.792   2.648   7.831  0.2648  0.3768 -0.3377
  125OSM   C14F13400   1.921   2.633   8.005  0.0132 -0.7495 -0.0692
  125OSM   H14F13401   1.905   2.730   8.056 -2.5716 -1.0778 -0.1654
  125OSM   H14G13402   2.026   2.608   8.030  0.1300 -1.1713 -0.9499
  125OSM   C15F13403   1.823   2.534   8.057 -0.1666  0.4404 -0.3691
  125OSM   H15F13404   1.831   2.441   7.997 -1.0667 -1.2692  2.0512
  125OSM   H15G13405   1.717   2.568   8.049 -0.4863  0.1064  1.9762
  125OSM   C16F13406   1.861   2.498   8.204  0.3206  0.0922 -0.2265
  125OSM   H16F13407   1.869   2.598   8.253 -0.0451 -0.7274  1.5365
  125OSM   H16G13408   1.966   2.462   8.198  0.8499  1.8850 -2.8650
  125OSM   C17F13409   1.773   2.404   8.278 -0.0547  0.0106  0.2785
  125OSM   H17F13410   1.812   2.399   8.382 -1.9867  1.0224  1.0953
  125OSM   H17G13411   1.785   2.302   8.236 -0.3356 -0.6570  1.8123
  125OSM   C18F13412   1.622   2.430   8.287  0.2156 -0.0468 -0.1092
  125OSM   H18F13413   1.580   2.458   8.188 -1.0674 -0.5992  0.2703
  125OSM   H18G13414   1.606   2.501   8.371  0.5681 -0.8279  0.6242
  125OSM   H18H13415   1.571   2.335   8.315  1.5948 -0.2332  1.8406
  126OSM      N13416   6.035   0.991   6.165  0.2023 -0.2011 -0.7216
  126OSM    C1513417   5.936   0.885   6.187 -0.3208 -0.2200  0.2772
  126OSM   H15A13418   5.893   0.883   6.286  1.5286 -1.0552  1.0955
  126OSM   H15B13419   5.963   0.781   6.174 -1.1636 -0.4358  0.2543
  126OSM   H15C13420   5.856   0.903   6.117  0.4176  1.2020 -0.2226
  126OSM    C1413421   6.087   0.977   6.026 -0.6162  0.3692 -0.2184
  126OSM   H14A13422   6.187   1.016   6.018 -0.8487  1.0307  0.1005
  126OSM   H14B13423   6.028   1.029   5.952  0.3201 -0.5841 -1.6557
  126OSM   H14C13424   6.069   0.875   5.996 -2.0310  0.0947  1.4580
  126OSM    C1313425   5.959   1.125   6.175  0.4875  0.2193  0.3944
  126OSM   H13A13426   6.020   1.206   6.140  1.4191 -0.4948  0.3478
  126OSM   H13B13427   5.944   1.140   6.280 -1.3193 -2.2159  0.5347
  126OSM   H13C13428   5.860   1.129   6.130  0.5258  1.4170  0.4146
  126OSM    C1213429   6.157   0.995   6.255 -0.9942 -0.1957  0.5750
  126OSM   H12A13430   6.219   1.082   6.237 -1.4152 -0.2251 -1.1234
  126OSM   H12B13431   6.213   0.903   6.249 -1.4310 -0.4950  0.9967
  126OSM    C1113432   6.130   0.992   6.405  0.7253 -0.3369 -0.8401
  126OSM   H11A13433   6.063   1.074   6.440 -1.7698 -3.0784  1.1047
  126OSM   H11B13434   6.222   1.014   6.464  1.4115  2.5744 -2.8973
  126OSM      P13435   6.162   0.749   6.465  0.1008  0.3864 -0.2753
  126OSM    O1313436   6.073   0.637   6.508  0.3226 -0.3515  0.4691
  126OSM    O1413437   6.248   0.728   6.346  0.0296  1.1712 -0.0614
  126OSM    O1113438   6.252   0.783   6.593  0.3066 -0.3362 -0.1564
  126OSM    O1213439   6.069   0.872   6.449 -0.9018 -0.2926 -0.0197
  126OSM    C1S13440   6.220   0.873   6.700  0.1514 -0.5845 -1.2507
  126OSM    H1S13441   6.146   0.949   6.666 -0.9498 -1.2909 -0.4723
  126OSM    H1T13442   6.312   0.929   6.727 -0.8288  1.0934 -1.3101
  126OSM     NF13443   6.114   0.908   6.927  0.7559  0.2833 -0.7773
  126OSM    HNF13444   6.161   0.915   7.014 -0.3223  1.7306 -0.2919
  126OSM    C2S13445   6.159   0.805   6.833  0.4258  0.1782  0.1627
  126OSM    H2S13446   6.072   0.756   6.785  1.3564  1.3672 -2.8669
  126OSM    C3S13447   6.266   0.712   6.886  0.0862 -0.3698 -0.0822
  126OSM    H3S13448   6.365   0.761   6.898  0.4289 -0.8591 -0.9222
  126OSM     O313449   6.305   0.610   6.795  0.0297 -0.1938 -0.5105
  126OSM    HO313450   6.254   0.620   6.715  1.0958 -0.9513 -1.3013
  126OSM    C4S13451   6.221   0.654   7.015  0.2208 -0.1750 -0.4506
  126OSM    H4S13452   6.262   0.711   7.099 -1.4194  0.0407  0.2235
  126OSM    C5S13453   6.150   0.537   7.042 -0.0566  0.6769  0.4054
  126OSM    H5S13454   6.113   0.479   6.956  3.7920 -0.5688 -0.5495
  126OSM    C6S13455   6.121   0.485   7.180  0.0537 -0.6798 -0.2210
  126OSM    H6S13456   6.186   0.402   7.216  0.3448 -0.5696 -0.4930
  126OSM    H6T13457   6.019   0.441   7.174 -0.6258  0.9445 -1.0206
  126OSM    C7S13458   6.136   0.590   7.291  0.6224  0.0754  0.2513
  126OSM    H7S13459   6.071   0.676   7.263 -0.1089 -0.2683  0.9009
  126OSM    H7T13460   6.243   0.622   7.295  0.4449  0.7312 -0.1050
  126OSM    C8S13461   6.092   0.535   7.425 -0.3807  0.5190  0.0832
  126OSM    H8S13462   6.125   0.430   7.444  0.3488  0.4199 -1.6282
  126OSM    H8T13463   5.982   0.539   7.430 -0.4364  1.0832 -1.4456
  126OSM    C9S13464   6.131   0.629   7.540  0.3203  0.2071 -0.2522
  126OSM    H9S13465   6.094   0.732   7.522  2.2008  1.3852  2.4172
  126OSM    H9T13466   6.241   0.633   7.548  0.4506 -1.3560 -1.0274
  126OSM   C10S13467   6.073   0.573   7.674  0.5317 -0.8005 -0.4130
  126OSM   H10S13468   6.136   0.482   7.689 -1.6125 -2.6751 -2.4466
  126OSM   H10T13469   5.965   0.554   7.654 -0.0704  2.6980 -0.7014
  126OSM   C11S13470   6.082   0.663   7.797 -0.3063 -0.9558  0.0490
  126OSM   H11S13471   6.030   0.756   7.766  0.6584  0.0203  1.3119
  126OSM   H11T13472   6.185   0.693   7.826 -0.0773 -1.3049 -0.3927
  126OSM   C12S13473   6.008   0.607   7.922  0.2771 -0.3036  0.2465
  126OSM   H12S13474   6.053   0.513   7.960 -0.5025 -0.1276  1.6277
  126OSM   H12T13475   5.906   0.576   7.891 -0.6283 -0.7168  3.5065
  126OSM   C13S13476   6.009   0.717   8.027  0.1023  0.4515 -0.1602
  126OSM   H13S13477   5.956   0.803   7.981 -2.3235 -2.6168 -3.3980
  126OSM   H13T13478   6.117   0.742   8.037 -0.4539  2.6253  0.6232
  126OSM   C14S13479   5.960   0.684   8.166  0.0216  0.3447  0.2088
  126OSM   H14S13480   6.033   0.622   8.222  0.5009  0.1833 -0.5912
  126OSM   H14T13481   5.866   0.625   8.157 -1.2591  2.4138 -0.3425
  126OSM   C15S13482   5.949   0.804   8.241 -0.4261 -0.2153  0.0162
  126OSM   H15S13483   5.877   0.871   8.189  3.0409  1.5231 -2.7566
  126OSM   H15T13484   6.044   0.861   8.253 -1.3197  0.9236  1.8067
  126OSM   C16S13485   5.893   0.773   8.381  0.3285  0.2477 -0.8029
  126OSM   H16S13486   5.954   0.693   8.427 -0.7224  0.3507  0.8098
  126OSM   H16T13487   5.801   0.711   8.379  1.4840 -1.5164 -0.4027
  126OSM   C17S13488   5.888   0.884   8.490 -0.0979  0.1139 -0.7669
  126OSM   H17S13489   5.991   0.923   8.503 -0.4266  0.6772  0.2580
  126OSM   H17T13490   5.873   0.835   8.589  1.7596  1.6679  0.3233
  126OSM   C18S13491   5.783   0.990   8.470 -0.6032  0.5321 -0.5770
  126OSM   H18S13492   5.812   1.049   8.381 -1.2360 -2.7021 -3.0007
  126OSM   H18T13493   5.774   1.056   8.559  0.3812 -1.3904  0.9991
  126OSM   H18U13494   5.681   0.948   8.455 -0.4363  0.4996 -1.6529
  126OSM    C1F13495   6.013   0.990   6.897  0.6980 -0.3499  0.0666
  126OSM     OF13496   5.948   0.977   6.793  0.2014 -0.0933 -0.1452
  126OSM    C2F13497   5.976   1.111   6.980 -0.5816  0.4922 -0.3155
  126OSM    H2F13498   5.976   1.193   6.904  2.2211  0.6669 -0.1793
  126OSM    H2G13499   6.054   1.134   7.056 -1.2658 -0.8691  0.8073
  126OSM    C3F13500   5.843   1.094   7.057 -0.1084 -0.3577 -0.1362
  126OSM    H3F13501   5.851   1.007   7.127  4.4278 -0.7903 -1.0417
  126OSM    H3G13502   5.763   1.083   6.981 -0.3608 -0.2357  0.1122
  126OSM    C4F13503   5.799   1.228   7.135  0.0523  0.5301  0.2255
  126OSM    H4F13504   5.694   1.226   7.172  0.4451 -4.0176  1.3272
  126OSM    H4G13505   5.805   1.314   7.065  1.1519  0.0797 -0.2293
  126OSM    C5F13506   5.893   1.249   7.253 -0.2775 -0.2793 -0.7021
  126OSM    H5F13507   5.999   1.257   7.222 -0.0436 -0.5236  0.0096
  126OSM    H5G13508   5.886   1.158   7.317 -3.1922  0.1580 -0.3650
  126OSM    C6F13509   5.864   1.364   7.342  0.2433 -0.0207 -0.4589
  126OSM    H6F13510   5.760   1.366   7.382  0.3769 -3.0245  0.1100
  126OSM    H6G13511   5.888   1.460   7.292  0.1016  0.3815  0.2271
  126OSM    C7F13512   5.951   1.359   7.473 -0.3805 -0.1948  0.1008
  126OSM    H7F13513   6.039   1.424   7.454  0.2726 -0.6301  1.5348
  126OSM    H7G13514   5.997   1.260   7.494  4.0383  1.6865 -0.0954
  126OSM    C8F13515   5.899   1.418   7.608  0.4806  0.4645 -0.2085
  126OSM    H8F13516   5.871   1.524   7.590 -1.9112  0.4157  2.7770
  126OSM    H8G13517   5.979   1.418   7.685 -0.7554  0.1015  1.0861
  126OSM    C9F13518   5.784   1.335   7.648 -0.0410  0.4129 -0.3658
  126OSM    H9F13519   5.747   1.267   7.569 -2.4015  0.0345  1.0225
  126OSM   C10F13520   5.732   1.335   7.768 -0.0607 -0.4087 -0.0330
  126OSM   H10F13521   5.648   1.274   7.803 -0.1307 -0.9188 -1.0515
  126OSM   C11F13522   5.778   1.422   7.880 -0.0759  0.0856  0.7945
  126OSM   H11F13523   5.691   1.491   7.889  1.0939  1.7915 -0.6537
  126OSM   H11G13524   5.871   1.480   7.864 -0.1123  0.3654  1.5391
  126OSM   C12F13525   5.808   1.322   8.002  0.3587  0.0001  0.2511
  126OSM   H12F13526   5.888   1.250   7.975  1.0371  1.0720 -0.6429
  126OSM   H12G13527   5.717   1.260   8.022  0.0007  0.9516  1.6630
  126OSM   C13F13528   5.861   1.410   8.115 -0.0373  0.1860 -0.2894
  126OSM   H13F13529   5.788   1.489   8.143  0.9328 -0.1639  3.5081
  126OSM   H13G13530   5.955   1.461   8.084  0.0903  1.5241  2.1033
  126OSM   C14F13531   5.888   1.330   8.242  0.5590  0.1246 -0.0380
  126OSM   H14F13532   5.954   1.244   8.218 -2.3310 -1.7857 -1.5438
  126OSM   H14G13533   5.787   1.303   8.282 -0.6423  2.5392 -1.3344
  126OSM   C15F13534   5.957   1.415   8.351  0.5634 -0.3807  0.6005
  126OSM   H15F13535   5.900   1.509   8.361  1.3680  0.1343  0.4266
  126OSM   H15G13536   6.053   1.440   8.300  0.2381 -2.0479 -0.8872
  126OSM   C16F13537   5.970   1.347   8.484  0.3431  0.5199 -0.5923
  126OSM   H16F13538   6.026   1.252   8.470 -1.4527 -0.6486  0.0635
  126OSM   H16G13539   5.875   1.311   8.526 -0.1938  3.3874  0.7885
  126OSM   C17F13540   6.041   1.442   8.578  0.4038  0.5817 -0.5905
  126OSM   H17F13541   6.142   1.479   8.549  1.1410 -0.5001  0.5093
  126OSM   H17G13542   6.050   1.398   8.680 -0.0198  0.2838 -0.6802
  126OSM   C18F13543   5.955   1.572   8.600 -0.2776  0.6036  0.4814
  126OSM   H18F13544   5.850   1.539   8.614  0.2908 -2.1499 -1.3767
  126OSM   H18G13545   5.956   1.634   8.508  0.9243 -0.3457 -0.1495
  126OSM   H18H13546   5.966   1.636   8.691  2.4315 -0.3174  0.8329
  127OSM      N13547   0.547   6.262   6.386 -0.6924  0.2761 -0.2263
  127OSM    C1513548   0.522   6.210   6.523  0.4112 -0.0060  0.7513
  127OSM   H15A13549   0.509   6.286   6.599  1.6885  0.0800  0.8793
  127OSM   H15B13550   0.612   6.157   6.548  0.7109 -0.4865 -1.2165
  127OSM   H15C13551   0.435   6.146   6.533  0.8060 -0.8763 -1.1612
  127OSM    C1413552   0.424   6.347   6.351 -0.5630  0.0626 -0.5273
  127OSM   H14A13553   0.336   6.286   6.365 -0.9664  0.8199  0.2556
  127OSM   H14B13554   0.425   6.388   6.251 -0.3642 -1.6804 -1.2681
  127OSM   H14C13555   0.415   6.419   6.430  1.4928 -0.8915  0.6176
  127OSM    C1313556   0.663   6.358   6.390 -0.2197 -0.1881 -0.1337
  127OSM   H13A13557   0.761   6.312   6.385  0.2058  0.7352 -0.3011
  127OSM   H13B13558   0.647   6.425   6.473 -0.4625 -0.9919  0.4783
  127OSM   H13C13559   0.658   6.431   6.310 -0.4639 -0.5925 -0.4932
  127OSM    C1213560   0.559   6.161   6.276  0.2890  0.2871 -0.2591
  127OSM   H12A13561   0.571   6.215   6.183  1.0023  1.2084  0.3500
  127OSM   H12B13562   0.464   6.111   6.268 -0.1122  1.0450 -0.2904
  127OSM    C1113563   0.672   6.057   6.294 -0.4167 -0.2944 -0.7290
  127OSM   H11A13564   0.652   5.981   6.215 -0.0744 -0.1970 -0.9109
  127OSM   H11B13565   0.658   6.017   6.396  0.3143 -0.5938 -0.7445
  127OSM      P13566   0.938   6.045   6.284 -0.3886  0.1119 -0.1684
  127OSM    O1313567   0.920   5.905   6.238 -0.1687  0.5796 -0.2220
  127OSM    O1413568   1.038   6.116   6.207 -0.6904 -0.2533 -0.9318
  127OSM    O1113569   0.973   6.052   6.437 -0.8638  0.7063 -0.2762
  127OSM    O1213570   0.800   6.125   6.283  0.0238  0.0442 -0.0774
  127OSM    C1S13571   0.918   6.152   6.521 -0.2633  0.4851  0.1494
  127OSM    H1S13572   0.809   6.134   6.535  0.4063 -3.0499  1.3827
  127OSM    H1T13573   0.947   6.251   6.482  2.6214 -0.1031  0.6681
  127OSM     NF13574   0.896   6.227   6.759 -0.0462  0.1275  0.2429
  127OSM    HNF13575   0.958   6.294   6.799 -0.8119  1.4612 -0.7467
  127OSM    C2S13576   0.964   6.130   6.674  0.7059  0.8364  0.3876
  127OSM    H2S13577   0.913   6.033   6.691 -3.0342  2.7984  0.8849
  127OSM    C3S13578   1.114   6.120   6.696 -0.5648 -0.6812 -0.0168
  127OSM    H3S13579   1.151   6.225   6.696  0.3053 -0.9857 -0.3105
  127OSM     O313580   1.184   6.049   6.594 -0.3758  0.0840  0.3863
  127OSM    HO313581   1.113   6.039   6.530  0.7311 -1.5211 -0.6115
  127OSM    C4S13582   1.145   6.061   6.827  0.3504  0.0542 -0.3198
  127OSM    H4S13583   1.153   5.952   6.820 -3.1674 -0.3880  1.5401
  127OSM    C5S13584   1.166   6.124   6.944 -0.2487  0.0438  0.2761
  127OSM    H5S13585   1.166   6.233   6.958 -0.5380  0.0848 -0.0322
  127OSM    C6S13586   1.190   6.049   7.066 -0.4430 -0.3342  0.5416
  127OSM    H6S13587   1.279   6.084   7.123 -1.2545 -0.0869  1.6625
  127OSM    H6T13588   1.213   5.942   7.047 -0.7058 -0.4135  0.6686
  127OSM    C7S13589   1.063   6.060   7.160 -0.5804 -0.1297  0.2196
  127OSM    H7S13590   0.965   6.032   7.117 -0.3112  0.0237 -0.5146
  127OSM    H7T13591   1.050   6.166   7.190 -2.2125 -0.4850  0.7922
  127OSM    C8S13592   1.098   5.991   7.286  0.2389  0.4619 -0.3448
  127OSM    H8S13593   1.181   6.044   7.338 -0.1999 -0.1900  1.0499
  127OSM    H8T13594   1.127   5.884   7.271  0.7929  0.6969 -0.9526
  127OSM    C9S13595   0.983   5.985   7.384  0.0934 -0.8652  0.1069
  127OSM    H9S13596   0.898   5.936   7.332  0.8058 -0.5210 -1.3912
  127OSM    H9T13597   0.949   6.088   7.410  1.3618 -0.5556  0.6002
  127OSM   C10S13598   1.022   5.928   7.520  0.5602  0.2873 -0.1761
  127OSM   H10S13599   1.108   5.983   7.564  0.8154  0.0113 -0.3226
  127OSM   H10T13600   1.048   5.820   7.510  0.5574  0.2701  0.0042
  127OSM   C11S13601   0.909   5.916   7.619 -0.2091  0.6499 -0.0193
  127OSM   H11S13602   0.837   5.853   7.563  0.4467 -0.9707  0.9347
  127OSM   H11T13603   0.852   6.006   7.652 -0.3533  0.4744  0.2096
  127OSM   C12S13604   0.948   5.835   7.749  0.3403 -0.4282 -0.3189
  127OSM   H12S13605   1.039   5.883   7.793  0.4829  0.0974 -1.1845
  127OSM   H12T13606   0.976   5.728   7.740  1.4439  0.0315 -2.7145
  127OSM   C13S13607   0.829   5.835   7.851 -0.1365 -0.6892  0.7268
  127OSM   H13S13608   0.744   5.792   7.793 -0.7819  0.2371  0.9857
  127OSM   H13T13609   0.799   5.939   7.875  1.6023  0.1908 -0.8227
  127OSM   C14S13610   0.854   5.758   7.982 -0.1922  0.8254  0.0329
  127OSM   H14S13611   0.878   5.652   7.962 -0.6193  0.3177  2.1692
  127OSM   H14T13612   0.751   5.744   8.021  0.5702  1.2659  2.2859
  127OSM   C15S13613   0.950   5.825   8.083 -0.2474  0.0366 -0.0287
  127OSM   H15S13614   0.900   5.922   8.101 -1.2271 -0.4896  0.1300
  127OSM   H15T13615   1.051   5.840   8.038  0.3532  0.0466  1.2872
  127OSM   C16S13616   0.971   5.753   8.214 -0.4441  0.8199 -0.3468
  127OSM   H16S13617   1.046   5.672   8.200 -3.6608 -2.2337 -0.7738
  127OSM   H16T13618   0.884   5.702   8.261 -1.3149  0.3820 -2.3862
  127OSM   C17S13619   1.039   5.851   8.305  0.3731 -0.2667 -0.6591
  127OSM   H17S13620   1.100   5.910   8.233 -1.7449 -1.5697 -3.5981
  127OSM   H17T13621   1.104   5.803   8.381  1.3784  1.2973 -0.5146
  127OSM   C18S13622   0.941   5.955   8.370 -0.2197  0.3326 -0.8917
  127OSM   H18S13623   0.878   5.895   8.439  1.0390 -1.0251 -0.9031
  127OSM   H18T13624   0.875   5.991   8.288 -2.7387 -0.4020  0.7765
  127OSM   H18U13625   1.002   6.031   8.422  0.9295 -0.3692 -1.1966
  127OSM    C1F13626   0.769   6.246   6.780  0.4505 -0.6537 -0.3709
  127OSM     OF13627   0.691   6.157   6.747 -0.2947 -0.0634 -0.1321
  127OSM    C2F13628   0.736   6.374   6.840 -0.0249  0.2464 -0.1987
  127OSM    H2F13629   0.650   6.422   6.787  0.7704  0.7186 -1.0788
  127OSM    H2G13630   0.824   6.441   6.839  1.0131 -1.1038 -1.6213
  127OSM    C3F13631   0.679   6.349   6.983  0.3946 -0.7897  0.1399
  127OSM    H3F13632   0.580   6.300   6.971 -0.3383  1.0937 -1.9179
  127OSM    H3G13633   0.651   6.450   7.017 -1.5153 -0.7210 -1.5322
  127OSM    C4F13634   0.771   6.280   7.085  0.3516  0.2331 -0.3388
  127OSM    H4F13635   0.875   6.318   7.075  0.1551  1.6930  2.7276
  127OSM    H4G13636   0.781   6.172   7.060 -1.8751 -0.1899  0.4436
  127OSM    C5F13637   0.729   6.282   7.233 -0.6160  0.0534 -0.0993
  127OSM    H5F13638   0.755   6.379   7.280  2.2339 -0.1481 -1.1508
  127OSM    H5G13639   0.784   6.202   7.288 -1.5085 -1.5253 -1.4426
  127OSM    C6F13640   0.579   6.269   7.254  0.5874 -0.0929  0.0442
  127OSM    H6F13641   0.538   6.198   7.179 -0.3288 -0.6811  1.0964
  127OSM    H6G13642   0.530   6.367   7.237 -0.6714 -0.6057  0.6168
  127OSM    C7F13643   0.546   6.221   7.397 -0.4614  0.3131 -0.7157
  127OSM    H7F13644   0.588   6.303   7.458  0.2785  0.4763 -1.4322
  127OSM    H7G13645   0.596   6.127   7.430 -2.4572 -0.7582 -0.6756
  127OSM    C8F13646   0.401   6.194   7.424 -0.0685  0.2894  0.2853
  127OSM    H8F13647   0.369   6.099   7.377  0.5698  1.0542 -1.7587
  127OSM    H8G13648   0.350   6.280   7.375 -2.5150 -1.9844 -1.2750
  127OSM    C9F13649   0.365   6.187   7.571 -0.5633  0.1659  0.5137
  127OSM    H9F13650   0.395   6.098   7.627  1.1947 -0.4255 -1.3252
  127OSM   C10F13651   0.298   6.283   7.639  0.9027 -0.3674  0.3453
  127OSM   H10F13652   0.280   6.269   7.747 -0.2543  0.0977  0.2174
  127OSM   C11F13653   0.242   6.414   7.588 -0.3015  0.1413 -0.1982
  127OSM   H11F13654   0.132   6.401   7.590 -0.3928  0.1573 -3.1635
  127OSM   H11G13655   0.269   6.428   7.481  3.5584 -3.0430  0.2645
  127OSM   C12F13656   0.275   6.529   7.676  0.0711  0.5185 -0.4065
  127OSM   H12F13657   0.260   6.623   7.618  2.1048  0.9791 -0.1959
  127OSM   H12G13658   0.381   6.536   7.709  0.5635 -2.1973 -1.3099
  127OSM   C13F13659   0.189   6.536   7.797 -0.1101 -0.1209  0.2547
  127OSM   H13F13660   0.151   6.433   7.816  1.2702 -0.4179  1.5065
  127OSM   H13G13661   0.107   6.609   7.779  2.4100  2.5662 -0.7070
  127OSM   C14F13662   0.256   6.575   7.931 -0.5932 -0.2761  0.4128
  127OSM   H14F13663   0.282   6.683   7.923  1.8638 -0.9638 -1.5979
  127OSM   H14G13664   0.351   6.518   7.945 -0.4563 -0.4843 -1.1861
  127OSM   C15F13665   0.175   6.553   8.058 -0.1124  0.3741  0.4597
  127OSM   H15F13666   0.078   6.606   8.049 -0.7348 -1.0162 -1.2986
  127OSM   H15G13667   0.215   6.608   8.146  1.6869  0.2102 -0.2326
  127OSM   C16F13668   0.138   6.409   8.102  0.2332 -0.8037 -0.2249
  127OSM   H16F13669   0.127   6.350   8.009  1.4109 -1.5460  0.0876
  127OSM   H16G13670   0.038   6.413   8.149  1.4307  1.2237  2.2933
  127OSM   C17F13671   0.256   6.351   8.185 -0.2312  0.7298 -0.3499
  127OSM   H17F13672   0.271   6.409   8.279 -0.8869  0.6295 -0.1814
  127OSM   H17G13673   0.341   6.359   8.113  1.0815 -2.2901  0.7742
  127OSM   C18F13674   0.252   6.202   8.229 -0.2439  0.2920 -0.3258
  127OSM   H18F13675   0.155   6.183   8.280 -1.2991  1.2178 -1.9142
  127OSM   H18G13676   0.334   6.163   8.292 -0.0835 -1.8084 -1.7919
  127OSM   H18H13677   0.265   6.138   8.139 -0.7929 -1.1830  0.6380
  128OSM      N13678   3.430   3.573   6.223  0.7513  0.7666  0.5118
  128OSM    C1513679   3.535   3.574   6.107  0.5126 -0.6924  0.0526
  128OSM   H15A13680   3.494   3.590   6.008  3.8363  0.8121 -1.1632
  128OSM   H15B13681   3.587   3.480   6.117  1.9543 -0.0271 -1.0717
  128OSM   H15C13682   3.607   3.653   6.123 -1.7423  0.9827  2.2993
  128OSM    C1413683   3.503   3.548   6.357  0.5253 -0.1368  0.4022
  128OSM   H14A13684   3.583   3.477   6.348 -1.4755 -2.4807  0.5623
  128OSM   H14B13685   3.430   3.521   6.431  0.5561  2.0493  1.2651
  128OSM   H14C13686   3.554   3.639   6.384 -1.7582  1.3120  0.0461
  128OSM    C1313687   3.356   3.698   6.223 -0.4119  0.7946  0.7735
  128OSM   H13A13688   3.416   3.788   6.235  0.2732  0.5076 -0.4406
  128OSM   H13B13689   3.278   3.698   6.297  0.9754  3.0454  2.3134
  128OSM   H13C13690   3.305   3.718   6.130 -0.3168 -1.3964  0.2414
  128OSM    C1213691   3.332   3.455   6.208  0.5668  0.1877 -0.3591
  128OSM   H12A13692   3.251   3.465   6.279  0.6845  3.0708 -0.5587
  128OSM   H12B13693   3.392   3.368   6.231  0.2232 -0.0923 -0.5177
  128OSM    C1113694   3.252   3.441   6.070  0.0372 -0.7040 -0.3245
  128OSM   H11A13695   3.201   3.342   6.075 -0.2319 -0.4964  1.4661
  128OSM   H11B13696   3.325   3.431   5.987  0.6526  2.3350 -0.1891
  128OSM      P13697   3.021   3.543   6.113  0.0587 -0.5388 -0.0195
  128OSM    O1313698   2.934   3.659   6.085  0.4895 -0.2230  0.4489
  128OSM    O1413699   2.960   3.409   6.084 -0.1461  1.0368 -0.1140
  128OSM    O1113700   3.064   3.557   6.266  0.5146  0.2479 -0.0949
  128OSM    O1213701   3.159   3.552   6.039  0.2996  0.1335  0.9774
  128OSM    C1S13702   2.977   3.495   6.365  0.5790 -0.2533  0.8541
  128OSM    H1S13703   2.996   3.385   6.357  0.0836 -0.3040  0.3320
  128OSM    H1T13704   2.869   3.503   6.344  0.9914  0.9140 -0.9516
  128OSM     NF13705   2.991   3.408   6.594 -0.1678  0.0614 -0.2443
  128OSM    HNF13706   2.907   3.407   6.647 -0.3013  0.3062 -0.4533
  128OSM    C2S13707   3.014   3.521   6.515 -0.5674 -0.0203  1.0712
  128OSM    H2S13708   3.123   3.540   6.519 -0.2978 -1.1672 -0.4641
  128OSM    C3S13709   2.944   3.647   6.569 -0.9185  0.2074  0.2773
  128OSM    H3S13710   2.834   3.628   6.577 -0.9409 -0.7378 -1.9767
  128OSM     O313711   2.954   3.757   6.484 -0.4007  0.2250 -0.3759
  128OSM    HO313712   2.995   3.722   6.404  0.1557  1.6213 -0.7129
  128OSM    C4S13713   3.004   3.683   6.703  0.1017 -0.2978  0.5472
  128OSM    H4S13714   2.922   3.658   6.772 -0.3568  0.4462  0.2694
  128OSM    C5S13715   3.119   3.735   6.751  0.0801 -0.3937 -0.3486
  128OSM    H5S13716   3.202   3.743   6.679  1.0637  3.7717  1.0984
  128OSM    C6S13717   3.147   3.750   6.902  0.0806  0.3804 -0.6432
  128OSM    H6S13718   3.143   3.855   6.939  1.2165 -0.4044  1.8218
  128OSM    H6T13719   3.256   3.730   6.912 -0.7101 -3.1479  2.0611
  128OSM    C7S13720   3.066   3.653   6.992  0.1992  1.1442 -0.2995
  128OSM    H7S13721   3.064   3.550   6.952  0.8599  2.0914 -2.8282
  128OSM    H7T13722   2.962   3.692   6.994  0.0943  0.8499  1.4975
  128OSM    C8S13723   3.115   3.639   7.134  0.8117  0.6218  0.7399
  128OSM    H8S13724   3.103   3.737   7.185 -1.0817 -0.4345  2.3963
  128OSM    H8T13725   3.222   3.611   7.140  0.6461  0.3530  2.6540
  128OSM    C9S13726   3.044   3.532   7.227  0.4221 -0.3471 -0.3612
  128OSM    H9S13727   3.060   3.429   7.186 -0.4287 -0.7718  0.3367
  128OSM    H9T13728   2.935   3.550   7.243  1.2715  2.7857  2.2609
  128OSM   C10S13729   3.102   3.525   7.370  0.0648  0.0666 -0.0560
  128OSM   H10S13730   3.073   3.623   7.414 -1.4671 -1.2564  1.9646
  128OSM   H10T13731   3.213   3.519   7.367  0.0833 -0.1479  0.8446
  128OSM   C11S13732   3.043   3.415   7.455  0.0321  0.0587 -0.0357
  128OSM   H11S13733   3.068   3.316   7.411  0.9682 -0.6976  2.1431
  128OSM   H11T13734   2.932   3.420   7.463 -0.1149 -0.5725 -1.4851
  128OSM   C12S13735   3.094   3.428   7.600 -0.4615 -0.0635  0.4374
  128OSM   H12S13736   3.091   3.534   7.634  2.1146  0.5097 -0.9903
  128OSM   H12T13737   3.203   3.409   7.585 -0.1578  0.9482  1.3115
  128OSM   C13S13738   3.027   3.322   7.688 -0.5650 -0.3645  0.3353
  128OSM   H13S13739   3.054   3.220   7.652 -0.5242 -1.1131  2.3977
  128OSM   H13T13740   2.918   3.346   7.685 -0.3331  0.9576  1.5734
  128OSM   C14S13741   3.076   3.328   7.833  0.6961  0.4323 -0.0781
  128OSM   H14S13742   3.060   3.433   7.866 -0.8432 -0.0598  0.8167
  128OSM   H14T13743   3.185   3.316   7.843  0.7230 -0.0950 -0.9804
  128OSM   C15S13744   2.996   3.248   7.939 -0.5924  0.1860 -0.5149
  128OSM   H15S13745   3.032   3.144   7.951 -4.2564 -1.0973 -0.0258
  128OSM   H15T13746   2.889   3.228   7.916 -0.0653 -2.5463 -0.7330
  128OSM   C16S13747   3.029   3.302   8.077  0.2164  0.0992 -0.1821
  128OSM   H16S13748   2.986   3.404   8.089  1.8105  0.7563  0.0049
  128OSM   H16T13749   3.139   3.299   8.093  0.4264 -1.0944 -1.7135
  128OSM   C17S13750   2.959   3.221   8.187  0.3442 -1.4001  0.0834
  128OSM   H17S13751   3.010   3.256   8.279 -0.1170  0.7276 -0.4432
  128OSM   H17T13752   2.988   3.115   8.172  1.1151 -1.1394 -0.2933
  128OSM   C18S13753   2.803   3.226   8.201 -0.8042  0.0121  0.1183
  128OSM   H18S13754   2.766   3.178   8.294  1.8256 -1.2367  0.5433
  128OSM   H18T13755   2.751   3.190   8.109 -0.5787 -0.3530  0.1337
  128OSM   H18U13756   2.774   3.332   8.221  2.5942  1.0741 -0.2470
  128OSM    C1F13757   3.059   3.297   6.579  0.0747 -0.9763 -0.2410
  128OSM     OF13758   3.171   3.304   6.525 -0.4814  0.5781 -0.0740
  128OSM    C2F13759   3.004   3.168   6.639  0.3569 -0.1689  0.8353
  128OSM    H2F13760   2.980   3.098   6.556  2.3411 -1.0728  0.9912
  128OSM    H2G13761   2.908   3.191   6.690  0.2526 -1.8918  1.4500
  128OSM    C3F13762   3.106   3.101   6.726 -0.5999 -0.0288  0.0086
  128OSM    H3F13763   3.144   3.168   6.805 -2.0764  2.1092 -1.0624
  128OSM    H3G13764   3.190   3.061   6.665  1.1138  0.9963  1.6409
  128OSM    C4F13765   3.054   2.976   6.798 -0.3751 -0.1338 -0.3170
  128OSM    H4F13766   3.133   2.901   6.820  0.1393  0.8925  1.4468
  128OSM    H4G13767   2.990   2.911   6.736 -0.2257 -2.4135  1.8135
  128OSM    C5F13768   2.975   3.011   6.926 -0.2638 -0.4241 -1.2025
  128OSM    H5F13769   2.902   3.091   6.901  0.3096  0.0610 -1.3422
  128OSM    H5G13770   3.056   3.054   6.990 -1.5739  0.1395  0.1095
  128OSM    C6F13771   2.904   2.898   6.990  0.3670 -0.7103 -0.8003
  128OSM    H6F13772   2.969   2.811   7.012  2.2917  0.7042 -0.8202
  128OSM    H6G13773   2.838   2.867   6.906  0.1010  0.3477 -0.9845
  128OSM    C7F13774   2.827   2.940   7.114 -0.9597  0.5944  0.4543
  128OSM    H7F13775   2.736   2.884   7.144 -1.2076  0.0823 -1.2221
  128OSM    H7G13776   2.794   3.044   7.095  1.7089  0.9686 -2.5868
  128OSM    C8F13777   2.916   2.936   7.245  0.4084  0.0199  0.6741
  128OSM    H8F13778   3.017   2.976   7.217  0.7361  0.5535  2.5676
  128OSM    H8G13779   2.929   2.828   7.267  1.3884 -0.1784 -0.7421
  128OSM    C9F13780   2.881   3.019   7.361  0.6445 -0.5258  0.0354
  128OSM    H9F13781   2.803   3.092   7.331  2.3408  1.1753 -0.3343
  128OSM   C10F13782   2.921   3.005   7.488  0.2594 -0.2988 -0.2763
  128OSM   H10F13783   2.881   3.078   7.559 -0.1215 -2.3999  1.7502
  128OSM   C11F13784   3.021   2.902   7.537 -0.1071 -0.2575 -0.0435
  128OSM   H11F13785   3.119   2.948   7.561 -0.3149  1.3241 -2.1299
  128OSM   H11G13786   3.032   2.838   7.447  0.8966 -0.0428 -0.0806
  128OSM   C12F13787   2.965   2.833   7.656  0.4626  0.3929 -0.2909
  128OSM   H12F13788   3.032   2.747   7.677  1.6734  1.4559  0.2865
  128OSM   H12G13789   2.876   2.776   7.622  0.6316 -0.3821  0.5411
  128OSM   C13F13790   2.942   2.919   7.775  0.7380  0.4289 -0.2788
  128OSM   H13F13791   2.863   2.994   7.752 -0.2610 -1.1203 -2.0348
  128OSM   H13G13792   3.040   2.962   7.807  1.0897 -0.4190 -0.2034
  128OSM   C14F13793   2.889   2.829   7.896  0.1864  0.0347  0.4395
  128OSM   H14F13794   2.906   2.891   7.987  2.5086 -2.1967  1.5817
  128OSM   H14G13795   2.966   2.749   7.901  0.4593  0.1868 -0.9818
  128OSM   C15F13796   2.743   2.776   7.898  0.2682 -0.3298  0.2597
  128OSM   H15F13797   2.715   2.745   7.795  1.7510 -0.5618 -0.0839
  128OSM   H15G13798   2.670   2.857   7.920 -0.3709 -0.8547  0.0825
  128OSM   C16F13799   2.716   2.664   7.991 -0.2552  0.0364  0.2851
  128OSM   H16F13800   2.755   2.569   7.948 -0.8905 -0.3959  0.6683
  128OSM   H16G13801   2.606   2.651   8.001 -0.4234  1.8660  1.0638
  128OSM   C17F13802   2.794   2.681   8.119 -0.3342  0.7720 -0.1249
  128OSM   H17F13803   2.785   2.783   8.160  2.3837  0.4717  1.3317
  128OSM   H17G13804   2.903   2.674   8.101 -0.2620  0.6931  0.3331
  128OSM   C18F13805   2.759   2.577   8.237 -1.0497 -0.2311 -0.2158
  128OSM   H18F13806   2.816   2.603   8.329  1.2585 -2.7292 -0.8733
  128OSM   H18G13807   2.782   2.470   8.216  1.5696  0.5059 -1.4143
  128OSM   H18H13808   2.651   2.581   8.262 -1.2386  0.3436 -1.0884
  129OSM      N13809   0.064   5.414   6.391 -0.4175  0.0005 -0.3101
  129OSM    C1513810   0.144   5.368   6.273 -0.1832  0.3274 -0.1593
  129OSM   H15A13811   0.207   5.450   6.242  1.6931 -1.0923 -0.1851
  129OSM   H15B13812   0.088   5.349   6.183  0.2521  0.8529 -0.5525
  129OSM   H15C13813   0.202   5.281   6.301  1.6539  1.7938  0.8033
  129OSM    C1413814  -0.032   5.520   6.345 -0.8616  0.9591 -0.2143
  129OSM   H14A13815  -0.094   5.469   6.273 -0.5825  0.6004 -0.1994
  129OSM   H14B13816   0.026   5.601   6.302 -0.6079  2.2959  2.5179
  129OSM   H14C13817  -0.107   5.561   6.412 -0.2240  0.5264  0.7718
  129OSM    C1313818  -0.017   5.300   6.447  0.8516 -1.0623  0.5782
  129OSM   H13A13819  -0.072   5.327   6.536  1.6730  0.7493  0.5567
  129OSM   H13B13820   0.051   5.228   6.489  1.6865 -1.5139 -1.4503
  129OSM   H13C13821  -0.082   5.256   6.372  0.7696 -1.2173  0.7394
  129OSM    C1213822   0.156   5.468   6.497  0.5227 -0.8164 -0.3496
  129OSM   H12A13823   0.189   5.391   6.565  0.6751  1.3358  2.1208
  129OSM   H12B13824   0.094   5.530   6.560 -1.1332 -2.2730 -0.5045
  129OSM    C1113825   0.276   5.555   6.447 -0.3644  0.1778 -0.5513
  129OSM   H11A13826   0.345   5.480   6.403 -0.0908  0.0059  0.1585
  129OSM   H11B13827   0.321   5.587   6.544 -2.0814  0.6244  0.1221
  129OSM      P13828   0.350   5.743   6.298 -0.2062  0.2038 -0.1162
  129OSM    O1313829   0.408   5.660   6.189  0.0761 -0.4430  0.4893
  129OSM    O1413830   0.293   5.874   6.259 -0.1992 -0.0986 -0.2044
  129OSM    O1113831   0.457   5.757   6.418  0.8398  0.8882 -0.6671
  129OSM    O1213832   0.235   5.656   6.363 -0.1800 -0.6885  0.3767
  129OSM    C1S13833   0.440   5.851   6.522  0.5702 -0.4396  0.1713
  129OSM    H1S13834   0.333   5.846   6.553  0.3875 -3.7728 -0.7731
  129OSM    H1T13835   0.456   5.956   6.491  0.5110 -0.5010 -0.0694
  129OSM     NF13836   0.494   5.929   6.750  0.4581  0.1557  0.0467
  129OSM    HNF13837   0.557   6.006   6.748  1.2215 -0.4795 -0.4291
  129OSM    C2S13838   0.523   5.830   6.653 -0.1698  0.0213  0.2591
  129OSM    H2S13839   0.497   5.731   6.694 -0.8379  0.0920  0.0064
  129OSM    C3S13840   0.677   5.828   6.607  0.1071 -0.2200  0.3045
  129OSM    H3S13841   0.705   5.929   6.570 -0.0021  0.2672  1.5301
  129OSM     O313842   0.712   5.732   6.509  0.0102  0.4843 -0.3471
  129OSM    HO313843   0.627   5.714   6.470  0.4463 -0.5806 -0.8321
  129OSM    C4S13844   0.766   5.813   6.728  0.9565  0.1733  0.7138
  129OSM    H4S13845   0.757   5.912   6.775  1.3958  1.5284 -1.9363
  129OSM    C5S13846   0.839   5.706   6.773  0.4116 -0.5039 -0.4761
  129OSM    H5S13847   0.842   5.614   6.714  1.2606 -0.8897  0.1529
  129OSM    C6S13848   0.915   5.690   6.899 -0.2935  0.3534  0.3649
  129OSM    H6S13849   1.019   5.725   6.879 -0.5233 -0.0755 -1.7224
  129OSM    H6T13850   0.914   5.582   6.921 -2.1222  0.5440  1.3389
  129OSM    C7S13851   0.860   5.763   7.025  0.3218  0.6166 -0.3445
  129OSM    H7S13852   0.846   5.873   7.010  1.0153  0.7271 -0.2103
  129OSM    H7T13853   0.926   5.744   7.112  0.8173  1.4815 -0.5205
  129OSM    C8S13854   0.724   5.708   7.067  0.3675  0.4109 -0.1357
  129OSM    H8S13855   0.728   5.598   7.080  0.4957  0.4501  0.1565
  129OSM    H8T13856   0.658   5.714   6.978  0.6987 -3.7680 -0.7725
  129OSM    C9S13857   0.666   5.765   7.196 -0.3381 -0.2008 -0.5374
  129OSM    H9S13858   0.675   5.873   7.220  0.9718 -0.5030  0.3529
  129OSM    H9T13859   0.709   5.707   7.280  0.7652  1.3163 -0.0579
  129OSM   C10S13860   0.517   5.753   7.185  0.5866 -0.6148  0.5691
  129OSM   H10S13861   0.494   5.645   7.184 -0.7608 -0.3350 -1.0205
  129OSM   H10T13862   0.491   5.796   7.086  1.7907  0.4220  0.6911
  129OSM   C11S13863   0.443   5.812   7.307 -0.5470 -0.0668  0.1704
  129OSM   H11S13864   0.337   5.796   7.279 -0.2412  1.1060 -1.8074
  129OSM   H11T13865   0.464   5.921   7.320 -1.3737  0.2061 -0.6824
  129OSM   C12S13866   0.486   5.731   7.434  0.1971 -0.4910 -0.2744
  129OSM   H12S13867   0.595   5.715   7.444  0.0720 -2.5389 -1.7115
  129OSM   H12T13868   0.450   5.626   7.426  0.9983 -0.6345 -2.3457
  129OSM   C13S13869   0.432   5.820   7.556 -0.0419 -0.7182 -0.0803
  129OSM   H13S13870   0.331   5.852   7.523  0.7689  0.5845 -1.3521
  129OSM   H13T13871   0.498   5.909   7.558 -0.0479 -0.5359 -4.5152
  129OSM   C14S13872   0.429   5.747   7.690  0.2023  0.1937 -0.0795
  129OSM   H14S13873   0.533   5.715   7.712  0.6565  1.4327 -0.3932
  129OSM   H14T13874   0.366   5.656   7.684  0.2897 -0.0162  2.0232
  129OSM   C15S13875   0.365   5.825   7.805 -0.1409 -0.3032 -0.2869
  129OSM   H15S13876   0.329   5.768   7.894  1.1944  0.5659  0.8256
  129OSM   H15T13877   0.270   5.872   7.770  0.0323  0.8467  0.7450
  129OSM   C16S13878   0.459   5.924   7.876  0.1636 -0.3132  0.0388
  129OSM   H16S13879   0.417   6.021   7.842 -0.0191 -0.8849 -1.4068
  129OSM   H16T13880   0.559   5.924   7.828  0.2670 -0.3980  0.2494
  129OSM   C17S13881   0.450   5.900   8.031 -0.2966 -0.0898 -0.2999
  129OSM   H17S13882   0.440   5.789   8.038 -3.0338  0.2028  1.4240
  129OSM   H17T13883   0.358   5.941   8.078  1.7502  1.8428  2.1762
  129OSM   C18S13884   0.569   5.956   8.107  0.0656 -0.2162 -0.4307
  129OSM   H18S13885   0.568   6.067   8.102 -2.2649 -0.1900 -0.0058
  129OSM   H18T13886   0.665   5.914   8.070  1.0591  1.4497  0.1886
  129OSM   H18U13887   0.567   5.927   8.215  0.0091 -0.1710 -0.4188
  129OSM    C1F13888   0.382   5.928   6.820  0.3576 -0.4428 -0.0466
  129OSM     OF13889   0.295   5.843   6.804  0.8188  0.1019  0.3208
  129OSM    C2F13890   0.373   6.031   6.920  0.2655  0.2986 -0.9958
  129OSM    H2F13891   0.472   6.071   6.949  0.6196 -0.2838 -1.3946
  129OSM    H2G13892   0.317   5.981   7.003 -0.3285  1.4358 -0.6990
  129OSM    C3F13893   0.282   6.142   6.873  0.2703 -0.1151  0.2423
  129OSM    H3F13894   0.181   6.108   6.841  1.1471 -0.0720 -2.7807
  129OSM    H3G13895   0.327   6.187   6.782 -0.1092 -1.0418 -0.4213
  129OSM    C4F13896   0.257   6.240   6.987  0.4310  0.1318 -0.3679
  129OSM    H4F13897   0.358   6.273   7.020  2.4601 -1.9739 -4.0505
  129OSM    H4G13898   0.210   6.178   7.066 -1.4238  2.1006  0.1261
  129OSM    C5F13899   0.166   6.357   6.941  0.1821 -0.1329  0.3183
  129OSM    H5F13900   0.088   6.323   6.870 -0.8773 -0.9900  1.8702
  129OSM    H5G13901   0.221   6.434   6.882  0.1138  0.8673  1.5334
  129OSM    C6F13902   0.095   6.443   7.053 -0.1484  0.2979  0.6810
  129OSM    H6F13903   0.028   6.390   7.125 -0.7451 -1.0436 -0.8246
  129OSM    H6G13904   0.024   6.508   6.998  0.1575  0.0938  0.0470
  129OSM    C7F13905   0.196   6.515   7.141  0.1314 -0.2633 -0.6679
  129OSM    H7F13906   0.275   6.570   7.086  0.7664  0.2654  0.7482
  129OSM    H7G13907   0.260   6.444   7.197 -0.2340 -2.3612 -2.8232
  129OSM    C8F13908   0.144   6.601   7.259  0.2146 -0.2828  0.9157
  129OSM    H8F13909   0.231   6.659   7.296  1.7353 -2.5347  1.0204
  129OSM    H8G13910   0.104   6.528   7.332 -0.6285  0.9875  1.7373
  129OSM    C9F13911   0.028   6.688   7.220 -0.4553 -0.2860  0.0868
  129OSM    H9F13912   0.026   6.727   7.117 -0.6537  0.2162  0.2754
  129OSM   C10F13913  -0.068   6.722   7.306 -0.3505  0.2785 -0.4459
  129OSM   H10F13914  -0.149   6.783   7.262 -0.3978  0.5342 -0.0084
  129OSM   C11F13915  -0.089   6.690   7.450 -0.7105  0.2793  0.0896
  129OSM   H11F13916  -0.117   6.785   7.500  0.1249  1.9223 -2.4436
  129OSM   H11G13917   0.010   6.669   7.495 -0.3641 -0.6463 -1.0614
  129OSM   C12F13918  -0.178   6.568   7.485  0.6793 -0.9613 -0.2975
  129OSM   H12F13919  -0.144   6.477   7.431  2.1946 -1.0577  0.7933
  129OSM   H12G13920  -0.278   6.591   7.443 -0.5623 -0.2663  2.8740
  129OSM   C13F13921  -0.190   6.541   7.640  0.1481 -0.4044 -0.3057
  129OSM   H13F13922  -0.091   6.505   7.677  0.4374  0.4173 -0.2732
  129OSM   H13G13923  -0.273   6.467   7.645 -0.8612  0.7305 -0.1505
  129OSM   C14F13924  -0.229   6.673   7.714 -0.3785  0.4612  0.2901
  129OSM   H14F13925  -0.308   6.720   7.651  0.3431 -0.0753 -1.0435
  129OSM   H14G13926  -0.143   6.740   7.730  2.2052 -2.2971 -1.3525
  129OSM   C15F13927  -0.301   6.642   7.849  0.3017  0.2003  0.2029
  129OSM   H15F13928  -0.410   6.627   7.836  0.4249 -0.6086  0.0955
  129OSM   H15G13929  -0.293   6.731   7.915  0.5559  1.4872 -1.5268
  129OSM   C16F13930  -0.246   6.521   7.920 -0.1914  0.1670  0.5534
  129OSM   H16F13931  -0.136   6.528   7.936 -0.3773 -1.6926  2.8461
  129OSM   H16G13932  -0.269   6.426   7.868 -1.1930  0.7780 -0.1365
  129OSM   C17F13933  -0.304   6.508   8.061  0.0698  0.2307 -0.2551
  129OSM   H17F13934  -0.413   6.490   8.062  0.0835  0.1314 -0.5823
  129OSM   H17G13935  -0.288   6.596   8.127 -1.6951  1.9399 -2.0723
  129OSM   C18F13936  -0.244   6.392   8.148  0.0422  0.5183  1.0010
  129OSM   H18F13937  -0.325   6.316   8.151 -0.0958  0.5845 -0.6328
  129OSM   H18G13938  -0.214   6.422   8.251  2.1560 -1.8011  1.0957
  129OSM   H18H13939  -0.161   6.353   8.085 -1.4881  2.3819 -2.2945
  130OSM      N13940   3.671   1.845   6.354 -0.3717 -0.1380  0.0559
  130OSM    C1513941   3.537   1.778   6.381  0.1845  0.6733  0.0917
  130OSM   H15A13942   3.463   1.825   6.318 -0.0613 -1.0235 -0.9049
  130OSM   H15B13943   3.507   1.812   6.479 -2.2618  0.9598 -0.7458
  130OSM   H15C13944   3.543   1.670   6.375 -1.6431  0.2735  3.7944
  130OSM    C1413945   3.752   1.805   6.473  0.3452 -0.2487  0.8107
  130OSM   H14A13946   3.789   1.704   6.476  1.0560 -0.1809 -2.6544
  130OSM   H14B13947   3.698   1.815   6.565 -0.5728  0.9044  0.1620
  130OSM   H14C13948   3.826   1.883   6.484 -2.1914  2.2564  0.6149
  130OSM    C1313949   3.739   1.789   6.227  0.3900 -0.4343  0.1268
  130OSM   H13A13950   3.674   1.807   6.143 -0.8838 -0.0188  1.1824
  130OSM   H13B13951   3.769   1.689   6.253  1.0589  0.3288  2.5000
  130OSM   H13C13952   3.821   1.857   6.208  0.5878 -0.1489  1.8689
  130OSM    C1213953   3.648   1.997   6.347 -0.0489 -0.1065 -1.1893
  130OSM   H12A13954   3.738   2.056   6.341  0.8549 -1.3486 -0.1402
  130OSM   H12B13955   3.600   2.026   6.439  1.0305 -1.7654 -0.0769
  130OSM    C1113956   3.551   2.051   6.230  0.0678 -0.0150  0.1076
  130OSM   H11A13957   3.591   2.015   6.133 -0.5647  0.2259 -0.2451
  130OSM   H11B13958   3.545   2.162   6.239 -1.8658 -0.0326 -0.6194
  130OSM      P13959   3.289   2.082   6.258 -0.0202  0.2161 -0.2520
  130OSM    O1313960   3.249   2.138   6.124  0.2990  0.0823 -0.7654
  130OSM    O1413961   3.181   2.006   6.325  0.2245 -0.3300  0.2168
  130OSM    O1113962   3.324   2.192   6.363 -0.5220 -0.6088 -0.2128
  130OSM    O1213963   3.421   2.001   6.250 -0.0489  0.1674 -0.1733
  130OSM    C1S13964   3.234   2.272   6.440 -0.6944  0.4581  1.0544
  130OSM    H1S13965   3.131   2.259   6.401  0.5145 -2.3725 -1.3961
  130OSM    H1T13966   3.268   2.377   6.428 -0.3093  0.0106 -2.2093
  130OSM     NF13967   3.163   2.341   6.669  0.2540 -0.5817  0.2479
  130OSM    HNF13968   3.223   2.416   6.696 -1.1744  0.8119 -0.3712
  130OSM    C2S13969   3.233   2.243   6.591 -0.4097  0.0067 -0.3801
  130OSM    H2S13970   3.183   2.147   6.611  0.2253 -0.1020  0.6883
  130OSM    C3S13971   3.383   2.225   6.642 -0.2682  1.2012  0.5009
  130OSM    H3S13972   3.424   2.327   6.629  1.8645  0.2982 -0.2036
  130OSM     O313973   3.463   2.128   6.573  0.3445  0.0403  0.0088
  130OSM    HO313974   3.417   2.128   6.488  0.6476  1.8507 -0.1638
  130OSM    C4S13975   3.372   2.191   6.785  0.5965 -0.1102  0.2129
  130OSM    H4S13976   3.371   2.289   6.836 -1.8913 -0.3321  0.6336
  130OSM    C5S13977   3.375   2.073   6.843 -0.0341  0.3800  0.4783
  130OSM    H5S13978   3.387   1.990   6.772 -1.7340  0.3410  0.2118
  130OSM    C6S13979   3.390   2.043   6.993  0.4510 -0.6175  0.1188
  130OSM    H6S13980   3.481   1.981   7.008 -0.0832 -1.8153 -1.4971
  130OSM    H6T13981   3.305   1.978   7.022  0.2249  0.2439  1.4364
  130OSM    C7S13982   3.390   2.149   7.104 -0.4790  0.0153 -0.4106
  130OSM    H7S13983   3.303   2.216   7.086  0.8529  2.1196  0.8354
  130OSM    H7T13984   3.476   2.209   7.067  1.8342 -1.4832  2.3914
  130OSM    C8S13985   3.414   2.106   7.243 -0.0805  0.1677 -0.3885
  130OSM    H8S13986   3.521   2.079   7.256 -0.5633 -0.0294  3.5005
  130OSM    H8T13987   3.346   2.022   7.269 -1.1758  1.2496  0.2644
  130OSM    C9S13988   3.376   2.221   7.340  0.9160 -0.5410 -0.4946
  130OSM    H9S13989   3.275   2.256   7.309  1.4310 -0.8422 -2.6010
  130OSM    H9T13990   3.452   2.301   7.325  1.2504 -0.7845 -0.1197
  130OSM   C10S13991   3.377   2.191   7.491  0.1197 -0.0570 -0.3180
  130OSM   H10S13992   3.361   2.275   7.562 -2.1588 -0.0356 -0.8233
  130OSM   H10T13993   3.478   2.152   7.514  0.7380 -0.3429 -3.2425
  130OSM   C11S13994   3.278   2.081   7.533  0.2943 -0.2689  0.3179
  130OSM   H11S13995   3.296   1.984   7.483 -0.4418 -0.8450  1.1709
  130OSM   H11T13996   3.181   2.118   7.492 -0.6231 -0.5465  2.1985
  130OSM   C12S13997   3.258   2.051   7.681  0.6000  0.0054 -0.1822
  130OSM   H12S13998   3.195   2.124   7.737  1.8830  0.4347  0.7285
  130OSM   H12T13999   3.354   2.043   7.736 -0.6280 -0.3291  1.9612
  130OSM   C13S14000   3.188   1.911   7.702 -0.3113  0.5635 -0.2981
  130OSM   H13S14001   3.254   1.828   7.669 -0.8568 -0.3713  0.9194
  130OSM   H13T14002   3.096   1.916   7.641 -0.2203  0.3062 -0.4575
  130OSM   C14S14003   3.133   1.877   7.839 -0.7871  0.1183  0.0581
  130OSM   H14S14004   3.091   1.775   7.825  0.7805 -0.3587 -1.2742
  130OSM   H14T14005   3.046   1.942   7.864 -0.2975  0.8596 -0.1535
  130OSM   C15S14006   3.232   1.902   7.951 -0.4252 -0.0887 -0.0175
  130OSM   H15S14007   3.274   2.005   7.954  0.8324 -0.5528 -1.1082
  130OSM   H15T14008   3.312   1.828   7.935 -0.9604 -0.3086 -1.8671
  130OSM   C16S14009   3.188   1.868   8.091 -0.9123 -0.3494  0.2900
  130OSM   H16S14010   3.170   1.760   8.112  0.4329 -0.5643  0.3536
  130OSM   H16T14011   3.099   1.928   8.119 -0.9297 -0.0802 -0.3435
  130OSM   C17S14012   3.299   1.898   8.198  0.2367 -0.5533  0.0513
  130OSM   H17S14013   3.325   2.005   8.182 -3.4884  0.5909  0.9525
  130OSM   H17T14014   3.390   1.837   8.182  0.7325  0.3865 -0.7427
  130OSM   C18S14015   3.254   1.896   8.341 -0.1867  0.0888  0.6006
  130OSM   H18S14016   3.250   1.788   8.366  1.5217  0.1842  1.3758
  130OSM   H18T14017   3.160   1.952   8.356  0.1635  1.1678 -1.1023
  130OSM   H18U14018   3.337   1.931   8.406 -1.5206  2.5187  1.0214
  130OSM    C1F14019   3.034   2.363   6.683 -0.3854  0.7788  0.0143
  130OSM     OF14020   2.958   2.277   6.639  0.4763  0.4483  0.5266
  130OSM    C2F14021   2.987   2.485   6.762 -0.6366  0.2506 -0.2215
  130OSM    H2F14022   2.985   2.581   6.705  1.5122 -0.3255 -1.3070
  130OSM    H2G14023   3.060   2.501   6.844  1.1240 -0.6158 -1.5965
  130OSM    C3F14024   2.850   2.469   6.846  0.5981 -0.3338  0.4985
  130OSM    H3F14025   2.766   2.464   6.774  2.7403 -0.1329 -2.1139
  130OSM    H3G14026   2.837   2.560   6.907 -4.2192  0.1907 -1.0918
  130OSM    C4F14027   2.846   2.352   6.950 -0.5331  0.0304 -0.1735
  130OSM    H4F14028   2.900   2.267   6.905 -0.1924  1.3629 -2.3649
  130OSM    H4G14029   2.743   2.312   6.965 -0.8175  0.6198 -0.5013
  130OSM    C5F14030   2.923   2.384   7.079 -0.3484  0.1142  1.1256
  130OSM    H5F14031   2.930   2.495   7.086 -1.8205  0.5318 -2.6585
  130OSM    H5G14032   3.020   2.331   7.087 -1.3144 -1.6051  1.8013
  130OSM    C6F14033   2.856   2.333   7.210 -1.0192  0.1098  0.3515
  130OSM    H6F14034   2.866   2.224   7.224  0.8133  0.5700  2.8854
  130OSM    H6G14035   2.747   2.346   7.196 -0.9562 -0.4215 -0.6882
  130OSM    C7F14036   2.900   2.413   7.335 -0.5453  0.0601 -0.2677
  130OSM    H7F14037   2.885   2.520   7.307  2.3174 -0.1654 -2.9284
  130OSM    H7G14038   3.007   2.385   7.339 -0.4457  0.6398  1.1875
  130OSM    C8F14039   2.821   2.371   7.455  0.2169 -0.3360  0.3207
  130OSM    H8F14040   2.867   2.272   7.476 -0.0744 -0.4143  0.5919
  130OSM    H8G14041   2.712   2.358   7.438  0.4739 -0.7692 -1.0561
  130OSM    C9F14042   2.847   2.467   7.570 -0.2318  0.1346  0.7181
  130OSM    H9F14043   2.838   2.575   7.550  1.2950  0.0814 -0.3615
  130OSM   C10F14044   2.904   2.440   7.685 -0.5114 -0.1980 -0.0278
  130OSM   H10F14045   2.923   2.527   7.749  0.3089 -0.0073 -0.5222
  130OSM   C11F14046   2.956   2.301   7.720  0.1945 -0.0813 -0.1540
  130OSM   H11F14047   3.067   2.295   7.720  0.0997 -2.0811  0.5960
  130OSM   H11G14048   2.926   2.222   7.648 -0.4161  1.0472 -1.1499
  130OSM   C12F14049   2.898   2.255   7.852 -0.3027  1.1807  0.5859
  130OSM   H12F14050   2.916   2.147   7.871  1.2757  1.5730  1.4376
  130OSM   H12G14051   2.788   2.269   7.855 -0.3788  0.8148 -0.2393
  130OSM   C13F14052   2.960   2.330   7.970  0.2866  0.2950 -0.0250
  130OSM   H13F14053   2.893   2.314   8.058  1.8183  0.0029  1.0973
  130OSM   H13G14054   2.960   2.439   7.949  1.5497  0.4305  0.6323
  130OSM   C14F14055   3.098   2.274   8.010  0.7968 -0.1612  0.3483
  130OSM   H14F14056   3.165   2.284   7.921 -2.1629 -1.1930 -2.0978
  130OSM   H14G14057   3.092   2.165   8.029  0.6956 -0.3940 -0.9260
  130OSM   C15F14058   3.164   2.337   8.127  0.4686 -0.4789  0.1690
  130OSM   H15F14059   3.193   2.444   8.119 -0.9884  0.2291  3.7925
  130OSM   H15G14060   3.250   2.279   8.166 -0.9175 -0.9719  2.5569
  130OSM   C16F14061   3.068   2.353   8.247 -0.0846 -0.2358  0.2415
  130OSM   H16F14062   3.009   2.259   8.254 -0.9956  0.3664  0.7020
  130OSM   H16G14063   3.002   2.442   8.239 -0.6872 -0.3281  3.3139
  130OSM   C17F14064   3.144   2.374   8.381 -0.2528 -0.1492  0.2436
  130OSM   H17F14065   3.218   2.292   8.394 -1.6245 -1.2920  1.0428
  130OSM   H17G14066   3.059   2.355   8.451 -1.4547  0.2104 -1.1064
  130OSM   C18F14067   3.214   2.510   8.404 -0.3628  0.0878  0.9415
  130OSM   H18F14068   3.305   2.519   8.341  0.7950 -3.5589  2.0050
  130OSM   H18G14069   3.243   2.525   8.511  2.9222 -2.1244  0.4262
  130OSM   H18H14070   3.155   2.602   8.384 -0.4686  0.2228  1.8404
  131OSM      N14071   1.219   5.489   5.743  0.2696  0.4815  0.0688
  131OSM    C1514072   1.137   5.570   5.843 -0.7180 -0.4671 -0.4898
  131OSM   H15A14073   1.167   5.542   5.943 -0.4669  2.2042  0.2126
  131OSM   H15B14074   1.029   5.571   5.840 -0.8339  0.7675  2.5970
  131OSM   H15C14075   1.183   5.667   5.847 -0.4568 -0.6146  0.1375
  131OSM    C1414076   1.199   5.538   5.601 -0.4713 -0.7072 -1.0765
  131OSM   H14A14077   1.096   5.543   5.571 -0.8558  4.3126  0.6571
  131OSM   H14B14078   1.258   5.475   5.536  1.5320  0.8078 -0.7913
  131OSM   H14C14079   1.235   5.640   5.594 -2.3150  0.1290  0.9391
  131OSM    C1314080   1.365   5.504   5.792 -0.1429  0.1083 -0.7378
  131OSM   H13A14081   1.387   5.609   5.809  0.5969  0.2781 -2.6317
  131OSM   H13B14082   1.433   5.476   5.713 -0.1596  2.4154 -1.6001
  131OSM   H13C14083   1.383   5.449   5.884 -1.3937  0.3031 -0.3725
  131OSM    C1214084   1.175   5.340   5.741 -0.9114  0.1209 -0.2915
  131OSM   H12A14085   1.237   5.290   5.668 -1.4567 -1.7094  0.4612
  131OSM   H12B14086   1.071   5.327   5.712 -1.2768 -0.2507  1.1699
  131OSM    C1114087   1.187   5.270   5.877 -0.1673 -0.6848  0.0347
  131OSM   H11A14088   1.123   5.312   5.957 -3.1397 -0.5287 -2.3281
  131OSM   H11B14089   1.292   5.269   5.913 -0.9610 -1.7049  2.4397
  131OSM      P14090   1.016   5.084   5.889  0.3195  0.0331  0.0454
  131OSM    O1314091   0.917   5.169   5.821  0.4871  0.6896  0.1141
  131OSM    O1414092   1.015   4.939   5.861  0.3794 -0.0986  0.1884
  131OSM    O1114093   1.000   5.104   6.048  0.3026  0.1304  0.3592
  131OSM    O1214094   1.159   5.130   5.854 -0.0458  0.3166 -0.5206
  131OSM    C1S14095   1.114   5.055   6.121 -0.3847 -0.4371  0.9577
  131OSM    H1S14096   1.166   5.152   6.137  0.8025 -0.5756 -1.8427
  131OSM    H1T14097   1.180   4.985   6.064 -0.7073  0.8486 -1.0286
  131OSM     NF14098   1.209   4.932   6.317  0.1796  0.2552  0.4922
  131OSM    HNF14099   1.217   4.832   6.312 -0.6746  0.1777  0.6929
  131OSM    C2S14100   1.089   4.993   6.263  0.2842  0.8770  0.3531
  131OSM    H2S14101   1.051   5.069   6.333  0.2687  1.7930 -0.6336
  131OSM    C3S14102   0.980   4.884   6.253 -0.7209 -0.2132  0.1649
  131OSM    H3S14103   1.027   4.799   6.200  0.1213  0.4312 -0.1315
  131OSM     O314104   0.863   4.907   6.178 -0.4297  0.0549  0.1716
  131OSM    HO314105   0.900   4.970   6.115 -1.4804 -1.0263 -1.5964
  131OSM    C4S14106   0.941   4.841   6.398  0.1408 -0.3225  0.1226
  131OSM    H4S14107   0.918   4.927   6.463 -0.9628 -0.6598  0.1852
  131OSM    C5S14108   0.920   4.713   6.441  0.4661  0.4155 -0.2075
  131OSM    H5S14109   0.929   4.629   6.371 -0.8441 -0.5940  0.8041
  131OSM    C6S14110   0.870   4.685   6.580  0.3414 -0.5626  0.2969
  131OSM    H6S14111   0.938   4.605   6.617  1.4969 -0.3594 -1.3505
  131OSM    H6T14112   0.768   4.642   6.580 -0.6207  1.6179  1.5317
  131OSM    C7S14113   0.872   4.806   6.678 -0.4883  0.2638  0.5052
  131OSM    H7S14114   0.808   4.890   6.644  0.5156  1.3978  1.3791
  131OSM    H7T14115   0.973   4.847   6.698 -0.4616  0.4219  0.0444
  131OSM    C8S14116   0.823   4.770   6.816 -0.3454 -0.4720  0.3054
  131OSM    H8S14117   0.726   4.722   6.792 -0.5816  0.5117 -0.7322
  131OSM    H8T14118   0.799   4.864   6.870 -0.9926  0.4342 -1.5379
  131OSM    C9S14119   0.917   4.681   6.898 -0.2812 -0.3294 -0.0387
  131OSM    H9S14120   1.004   4.738   6.935  0.2419  0.8215 -2.9302
  131OSM    H9T14121   0.966   4.602   6.837 -0.9711  0.0303 -1.0828
  131OSM   C10S14122   0.855   4.620   7.027 -0.6342 -0.0353  0.1493
  131OSM   H10S14123   0.937   4.556   7.065  0.0006  0.2032 -0.7930
  131OSM   H10T14124   0.767   4.558   7.001  2.4792 -4.6742  0.1388
  131OSM   C11S14125   0.819   4.728   7.134 -0.6488 -0.3171  0.7210
  131OSM   H11S14126   0.716   4.767   7.126 -0.4883  0.1838  1.0944
  131OSM   H11T14127   0.886   4.816   7.120  0.6777 -0.9135  2.9560
  131OSM   C12S14128   0.820   4.668   7.277 -0.5744 -0.1866  0.0118
  131OSM   H12S14129   0.917   4.626   7.311 -1.5184 -1.3685  1.3091
  131OSM   H12T14130   0.754   4.579   7.269 -0.1749 -0.6927  2.0258
  131OSM   C13S14131   0.759   4.764   7.380 -0.1264  0.7335  0.2210
  131OSM   H13S14132   0.667   4.810   7.337  0.6310  1.0418 -1.1130
  131OSM   H13T14133   0.825   4.849   7.405 -0.6878  1.5758 -1.0549
  131OSM   C14S14134   0.717   4.703   7.511  0.1067 -0.0489  0.1723
  131OSM   H14S14135   0.810   4.667   7.561  0.3522 -0.5125 -0.6032
  131OSM   H14T14136   0.657   4.615   7.478  0.5745  0.0668 -1.0267
  131OSM   C15S14137   0.630   4.796   7.596  0.8791 -0.9469 -0.5608
  131OSM   H15S14138   0.609   4.748   7.694 -1.0405  0.2962 -0.3439
  131OSM   H15T14139   0.536   4.817   7.541  0.1133 -1.5344  0.5023
  131OSM   C16S14140   0.683   4.930   7.649  0.1395 -1.0146 -0.0789
  131OSM   H16S14141   0.593   4.975   7.695  0.4575 -1.3311  0.8759
  131OSM   H16T14142   0.715   4.990   7.562 -2.4528  0.0702 -0.3334
  131OSM   C17S14143   0.792   4.916   7.759 -0.2423  0.0430  0.0701
  131OSM   H17S14144   0.870   4.845   7.725  1.5213  0.7130  2.5434
  131OSM   H17T14145   0.750   4.859   7.845 -1.2014 -1.0248 -1.1002
  131OSM   C18S14146   0.849   5.039   7.821  0.1954  0.0208  0.1515
  131OSM   H18S14147   0.772   5.092   7.882 -1.7491 -2.2500 -0.2508
  131OSM   H18T14148   0.897   5.106   7.746  1.0315  0.6916  1.2589
  131OSM   H18U14149   0.920   5.026   7.905 -2.1855  1.4935  2.4929
  131OSM    C1F14150   1.311   4.996   6.362  0.1587 -0.1322 -0.3298
  131OSM     OF14151   1.317   5.120   6.360  0.4852 -0.2157 -0.1415
  131OSM    C2F14152   1.421   4.913   6.424 -0.2965  0.0970 -0.0710
  131OSM    H2F14153   1.514   4.928   6.366 -1.5319  0.2169 -2.0873
  131OSM    H2G14154   1.400   4.804   6.427 -1.5153  0.3320  0.2782
  131OSM    C3F14155   1.423   4.944   6.576  0.2198 -0.1433  0.5987
  131OSM    H3F14156   1.476   5.041   6.584  1.4465 -0.7688  0.1600
  131OSM    H3G14157   1.486   4.863   6.617  0.4642 -0.6061 -0.6757
  131OSM    C4F14158   1.283   4.932   6.639 -0.4988  0.0450  0.0690
  131OSM    H4F14159   1.239   4.833   6.613 -0.7151  0.4279 -1.0529
  131OSM    H4G14160   1.221   5.014   6.597 -0.9233 -0.3314 -0.0471
  131OSM    C5F14161   1.285   4.957   6.790  0.1882 -0.4534  0.0613
  131OSM    H5F14162   1.361   4.889   6.834 -0.9095 -1.2920  0.6799
  131OSM    H5G14163   1.190   4.933   6.842  0.1634  0.6315  0.5256
  131OSM    C6F14164   1.317   5.098   6.829 -1.1630  0.0553 -0.1768
  131OSM    H6F14165   1.240   5.165   6.785 -1.2135  1.6317  2.2521
  131OSM    H6G14166   1.408   5.125   6.771  0.9755 -1.8590  2.1860
  131OSM    C7F14167   1.361   5.116   6.979 -0.8559  0.0437  0.7216
  131OSM    H7F14168   1.465   5.078   6.987 -0.9635 -0.0638  1.5844
  131OSM    H7G14169   1.302   5.059   7.053 -1.0695 -0.0246  0.5001
  131OSM    C8F14170   1.370   5.268   7.020  0.3754  0.5633 -0.1112
  131OSM    H8F14171   1.269   5.312   7.032 -0.2801 -1.2360  1.2029
  131OSM    H8G14172   1.408   5.325   6.932 -0.3127  1.4323  0.1494
  131OSM    C9F14173   1.451   5.286   7.149  0.5829  0.3284  0.0549
  131OSM    H9F14174   1.537   5.219   7.163  1.3927  1.5439  1.0570
  131OSM   C10F14175   1.430   5.376   7.241 -0.1072 -0.0227  0.0354
  131OSM   H10F14176   1.493   5.377   7.331 -0.4865 -1.3262  0.3288
  131OSM   C11F14177   1.315   5.473   7.237 -0.0906 -0.2383 -0.4931
  131OSM   H11F14178   1.261   5.486   7.141 -0.1810  3.1774 -0.0405
  131OSM   H11G14179   1.360   5.574   7.249  0.3184 -0.5402  0.6347
  131OSM   C12F14180   1.206   5.435   7.351 -0.3938 -0.0568 -0.2324
  131OSM   H12F14181   1.200   5.324   7.355 -1.8783 -0.0286 -1.1255
  131OSM   H12G14182   1.111   5.475   7.309 -0.0585 -0.4241 -1.3687
  131OSM   C13F14183   1.244   5.487   7.485  0.1456  0.2902 -0.3571
  131OSM   H13F14184   1.247   5.598   7.483 -2.8356  0.4600  1.2773
  131OSM   H13G14185   1.340   5.439   7.513  0.1266 -0.6790 -1.9088
  131OSM   C14F14186   1.132   5.456   7.586  0.7444  0.1012 -0.5386
  131OSM   H14F14187   1.115   5.346   7.582  2.0559 -0.0339 -3.3467
  131OSM   H14G14188   1.045   5.521   7.560 -1.0310 -1.1800  1.9760
  131OSM   C15F14189   1.174   5.504   7.728  0.3576  0.1553 -0.2800
  131OSM   H15F14190   1.157   5.614   7.737 -0.6075  0.1900 -2.2390
  131OSM   H15G14191   1.279   5.481   7.753  0.6664  0.8917 -0.8767
  131OSM   C16F14192   1.076   5.428   7.828  0.1951  0.1633 -0.4436
  131OSM   H16F14193   1.092   5.318   7.821 -0.2204  0.0328  0.5644
  131OSM   H16G14194   0.970   5.457   7.816 -0.0237 -0.8973 -1.1454
  131OSM   C17F14195   1.103   5.471   7.973 -0.2276  0.7349  0.2852
  131OSM   H17F14196   1.014   5.461   8.039  0.4051  2.7279  1.4944
  131OSM   H17G14197   1.121   5.580   7.981 -1.5743  1.0201 -0.4012
  131OSM   C18F14198   1.216   5.404   8.044 -0.5443 -0.2475 -0.0066
  131OSM   H18F14199   1.318   5.430   8.008  1.5920 -1.8203  4.5860
  131OSM   H18G14200   1.215   5.293   8.050 -0.9292 -0.3918 -2.3211
  131OSM   H18H14201   1.209   5.433   8.151 -2.4427 -0.2958 -0.0949
  132OSM      N14202   2.672   6.525   6.020  1.0027  0.3090 -0.3450
  132OSM    C1514203   2.535   6.460   6.015  0.4056 -0.3377 -0.2284
  132OSM   H15A14204   2.477   6.486   5.927  1.0621 -0.0270 -0.5708
  132OSM   H15B14205   2.469   6.488   6.096 -2.7606  0.5886 -2.9869
  132OSM   H15C14206   2.542   6.353   6.014 -0.9111 -0.4653  2.0438
  132OSM    C1414207   2.760   6.482   5.912 -0.5524  0.0388  0.4947
  132OSM   H14A14208   2.781   6.376   5.908  2.6723  0.6322  0.3807
  132OSM   H14B14209   2.855   6.533   5.911 -0.5299 -0.0102 -0.3144
  132OSM   H14C14210   2.715   6.496   5.815 -0.8917  0.0982  0.6608
  132OSM    C1314211   2.645   6.671   6.004 -0.8084  0.1762 -1.3118
  132OSM   H13A14212   2.732   6.733   6.018 -1.0079  0.5146 -1.5550
  132OSM   H13B14213   2.586   6.710   6.086  3.6229  0.9444  1.7107
  132OSM   H13C14214   2.583   6.688   5.917 -1.8598 -1.2295 -0.8570
  132OSM    C1214215   2.741   6.506   6.156  0.1908  0.3645 -0.1710
  132OSM   H12A14216   2.681   6.555   6.230 -1.6094 -1.2893 -0.4815
  132OSM   H12B14217   2.838   6.554   6.154  0.7002 -0.5187  1.9455
  132OSM    C1114218   2.772   6.358   6.203 -0.0358 -0.8470  0.8140
  132OSM   H11A14219   2.833   6.363   6.296  0.9059 -0.3539  0.1648
  132OSM   H11B14220   2.841   6.311   6.130  0.9470  0.5529  0.8325
  132OSM      P14221   2.590   6.253   6.359 -0.3704  0.1336  0.0075
  132OSM    O1314222   2.452   6.289   6.330  0.7699  0.8889 -0.9776
  132OSM    O1414223   2.608   6.119   6.420 -0.2501 -0.2033  0.3701
  132OSM    O1114224   2.659   6.360   6.442 -0.4726  0.4637 -0.2525
  132OSM    O1214225   2.666   6.268   6.221 -0.0686 -0.3295 -0.0919
  132OSM    C1S14226   2.712   6.335   6.569 -0.5530  0.3354  0.5911
  132OSM    H1S14227   2.813   6.291   6.562 -1.5851 -1.8780 -0.8961
  132OSM    H1T14228   2.637   6.279   6.629  1.0529 -0.6452  1.7130
  132OSM     NF14229   2.761   6.434   6.783 -0.6441 -0.6514 -0.9306
  132OSM    HNF14230   2.679   6.423   6.839  0.1400 -2.4140 -0.0836
  132OSM    C2S14231   2.728   6.468   6.647  0.0307 -0.1274  0.3290
  132OSM    H2S14232   2.816   6.519   6.602 -0.0849 -1.3940 -1.3963
  132OSM    C3S14233   2.608   6.566   6.636  0.2033  0.6297 -0.3974
  132OSM    H3S14234   2.512   6.533   6.682  1.5238 -1.6914  0.7306
  132OSM     O314235   2.563   6.596   6.499 -0.2811  0.0092 -0.3371
  132OSM    HO314236   2.597   6.525   6.444 -0.6117 -0.7902  0.4635
  132OSM    C4S14237   2.636   6.700   6.703 -0.1332 -0.7053  0.1434
  132OSM    H4S14238   2.718   6.747   6.647 -0.2503  0.1538  0.6790
  132OSM    C5S14239   2.556   6.761   6.798 -0.8668 -0.2566  0.0251
  132OSM    H5S14240   2.459   6.724   6.832 -0.6949  0.9115  1.8670
  132OSM    C6S14241   2.593   6.896   6.854 -0.1403  0.2584 -0.9345
  132OSM    H6S14242   2.553   6.977   6.789 -1.0443  2.4662  2.2752
  132OSM    H6T14243   2.703   6.896   6.846  0.0251 -0.8407  1.1143
  132OSM    C7S14244   2.539   6.917   6.996  0.0969  0.2870  0.1935
  132OSM    H7S14245   2.577   6.828   7.051 -0.8073 -0.9202 -1.0790
  132OSM    H7T14246   2.428   6.913   6.991  0.1194 -0.0047 -0.1225
  132OSM    C8S14247   2.584   7.041   7.061 -0.2389 -1.3966  0.2603
  132OSM    H8S14248   2.554   7.130   7.002  0.1936 -1.3852  0.0503
  132OSM    H8T14249   2.694   7.049   7.079 -0.4990 -1.1097  1.7988
  132OSM    C9S14250   2.522   7.065   7.198 -0.3556 -0.2242  0.2644
  132OSM    H9S14251   2.412   7.054   7.185 -0.0151 -3.4066 -0.4738
  132OSM    H9T14252   2.539   7.167   7.238  1.4095 -1.0128  1.6109
  132OSM   C10S14253   2.573   6.962   7.308 -0.6153 -0.2302  0.0800
  132OSM   H10S14254   2.682   6.946   7.318  0.0692  0.3585 -4.9314
  132OSM   H10T14255   2.537   6.858   7.296  0.7118 -0.5305 -1.5114
  132OSM   C11S14256   2.523   7.001   7.448  0.2935  0.4741  0.0803
  132OSM   H11S14257   2.413   6.991   7.460  0.2948  0.1570 -0.1662
  132OSM   H11T14258   2.530   7.112   7.445  0.3496  0.4739  0.2185
  132OSM   C12S14259   2.602   6.942   7.572 -0.1476  0.1859  0.2672
  132OSM   H12S14260   2.711   6.963   7.567 -0.6754  3.3756  0.8870
  132OSM   H12T14261   2.584   6.833   7.587  1.8958 -0.1158  0.5743
  132OSM   C13S14262   2.558   7.006   7.705  0.1049 -0.2335 -0.2110
  132OSM   H13S14263   2.450   6.983   7.716 -0.7022  3.1331 -0.6835
  132OSM   H13T14264   2.568   7.116   7.711  1.3400 -0.4218  1.6928
  132OSM   C14S14265   2.630   6.950   7.827 -0.3785  0.0723 -0.4050
  132OSM   H14S14266   2.728   7.001   7.829  0.9413 -2.3982 -0.2167
  132OSM   H14T14267   2.636   6.839   7.820  0.8202  0.0228  1.0785
  132OSM   C15S14268   2.560   6.971   7.957  0.4415  0.0026  1.0671
  132OSM   H15S14269   2.454   6.942   7.941  1.2740 -2.4873 -0.3795
  132OSM   H15T14270   2.566   7.076   7.991 -0.1430  0.9672 -1.6838
  132OSM   C16S14271   2.617   6.879   8.065 -0.3453  0.6276 -0.7670
  132OSM   H16S14272   2.727   6.893   8.067 -0.0986 -1.0323  3.9485
  132OSM   H16T14273   2.600   6.769   8.054  3.4038 -0.0507 -0.4831
  132OSM   C17S14274   2.565   6.925   8.203  1.1172 -0.1453 -0.2730
  132OSM   H17S14275   2.552   7.035   8.206 -0.2052 -0.3100  0.3524
  132OSM   H17T14276   2.637   6.890   8.280  1.4522  1.4920  0.1781
  132OSM   C18S14277   2.425   6.872   8.244  0.4305 -0.0636  0.3574
  132OSM   H18S14278   2.436   6.762   8.258 -0.5903 -0.8401 -4.2573
  132OSM   H18T14279   2.352   6.873   8.161 -0.2436 -1.8762  0.8996
  132OSM   H18U14280   2.384   6.923   8.334 -3.1510 -2.1189 -0.0076
  132OSM    C1F14281   2.871   6.366   6.813  0.0336 -0.6635  0.3796
  132OSM     OF14282   2.969   6.374   6.748  0.4180 -0.0673  0.1028
  132OSM    C2F14283   2.852   6.281   6.930 -0.1010  0.1636  0.2358
  132OSM    H2F14284   2.808   6.183   6.900  1.9561 -0.6243 -0.2594
  132OSM    H2G14285   2.784   6.324   7.007 -2.9345 -3.0195 -0.3473
  132OSM    C3F14286   2.989   6.253   6.994  0.0380 -0.3217 -0.7274
  132OSM    H3F14287   3.037   6.346   7.029 -1.8948 -0.1608  1.6331
  132OSM    H3G14288   3.052   6.188   6.929 -0.0907 -0.4495 -0.7253
  132OSM    C4F14289   2.982   6.188   7.135 -0.3705  0.2113  0.9047
  132OSM    H4F14290   3.090   6.168   7.155  1.0506  3.6673 -2.5710
  132OSM    H4G14291   2.942   6.086   7.116 -0.0692  0.6394 -2.2555
  132OSM    C5F14292   2.925   6.271   7.251  0.5811  0.7622 -0.5388
  132OSM    H5F14293   2.814   6.266   7.255  0.5955  1.7288  2.1307
  132OSM    H5G14294   2.951   6.378   7.242 -0.2421  1.0619  0.6279
  132OSM    C6F14295   2.986   6.219   7.387 -0.5310 -0.0147 -0.6340
  132OSM    H6F14296   3.093   6.248   7.383 -0.8509  1.2789 -0.2034
  132OSM    H6G14297   2.975   6.109   7.383 -0.7837  0.0226 -0.9960
  132OSM    C7F14298   2.930   6.277   7.514 -0.9125  0.0139  0.4074
  132OSM    H7F14299   2.820   6.271   7.510 -0.9104 -0.3382  0.8056
  132OSM    H7G14300   2.952   6.386   7.516 -2.3938  0.3369 -0.6765
  132OSM    C8F14301   2.971   6.210   7.643  0.0592  0.3181 -0.3950
  132OSM    H8F14302   3.074   6.168   7.638 -1.1719 -2.9349  0.3637
  132OSM    H8G14303   2.906   6.121   7.647  2.9369 -1.8266  0.2728
  132OSM    C9F14304   2.945   6.293   7.765 -0.5318 -0.2169  0.9265
  132OSM    H9F14305   2.960   6.399   7.741  2.5402 -0.8232 -0.1532
  132OSM   C10F14306   2.899   6.250   7.888 -0.7256 -0.2905 -0.6262
  132OSM   H10F14307   2.872   6.319   7.969  1.9794 -0.5727  0.5538
  132OSM   C11F14308   2.856   6.109   7.921 -0.4084 -0.0173  0.1437
  132OSM   H11F14309   2.864   6.043   7.832 -2.4429  0.5974 -0.5301
  132OSM   H11G14310   2.748   6.109   7.947 -0.6309 -0.5669 -0.7712
  132OSM   C12F14311   2.947   6.065   8.038 -0.0751 -0.9655  0.0771
  132OSM   H12F14312   3.055   6.073   8.012 -0.3708  3.6973 -0.1068
  132OSM   H12G14313   2.927   5.958   8.061  0.9993 -0.4515  3.6232
  132OSM   C13F14314   2.915   6.136   8.173 -0.5349  0.7376 -0.2039
  132OSM   H13F14315   2.806   6.141   8.193 -0.8887  0.3429 -1.9300
  132OSM   H13G14316   2.953   6.239   8.153  1.6835  0.4018  1.9615
  132OSM   C14F14317   3.005   6.066   8.280 -0.2417 -0.0965  0.1305
  132OSM   H14F14318   3.102   6.026   8.242  0.7014  1.3125  1.0280
  132OSM   H14G14319   2.952   5.978   8.323  0.8514  0.4223  2.6313
  132OSM   C15F14320   3.072   6.152   8.387  0.4003 -0.6163 -0.0948
  132OSM   H15F14321   2.988   6.193   8.447  0.4424 -0.2215 -0.3047
  132OSM   H15G14322   3.134   6.231   8.340 -1.0109 -1.4090 -3.3702
  132OSM   C16F14323   3.169   6.077   8.479 -0.2226 -0.7430  0.0781
  132OSM   H16F14324   3.252   6.031   8.422  1.9202  2.0105  0.8431
  132OSM   H16G14325   3.110   5.997   8.529  0.6563 -0.2295  1.9965
  132OSM   C17F14326   3.233   6.161   8.592  0.0213 -0.4538 -0.2076
  132OSM   H17F14327   3.151   6.226   8.630 -2.0529 -2.2091 -1.5836
  132OSM   H17G14328   3.306   6.237   8.559 -2.0379  1.3378 -0.7234
  132OSM   C18F14329   3.311   6.090   8.707 -0.3391 -0.5009  0.2117
  132OSM   H18F14330   3.398   6.036   8.663 -1.2227 -1.0033 -0.9378
  132OSM   H18G14331   3.250   6.019   8.766 -0.3869 -0.1249  0.6184
  132OSM   H18H14332   3.350   6.170   8.773 -0.2955 -0.7073  0.4336
  133OSM      N14333   3.670   5.876   6.150  0.8154 -0.5459  0.3516
  133OSM    C1514334   3.652   5.763   6.253  0.1905 -0.0542  0.2710
  133OSM   H15A14335   3.746   5.711   6.263  1.0490  1.4652  0.1342
  133OSM   H15B14336   3.576   5.696   6.214 -1.0397  0.3907  1.8696
  133OSM   H15C14337   3.629   5.797   6.353  0.8507  0.1680  0.3452
  133OSM    C1414338   3.784   5.962   6.193  0.4865  0.3700 -0.0570
  133OSM   H14A14339   3.783   6.047   6.126  0.8823 -0.1375 -0.7110
  133OSM   H14B14340   3.880   5.913   6.200  0.1929 -0.1475  0.4049
  133OSM   H14C14341   3.761   5.996   6.293  1.5902  2.3434 -0.4428
  133OSM    C1314342   3.716   5.806   6.025 -0.2617  0.4980  0.0039
  133OSM   H13A14343   3.635   5.744   5.990 -0.4723  0.2421  0.9170
  133OSM   H13B14344   3.801   5.747   6.056  0.1800 -0.0148 -2.1560
  133OSM   H13C14345   3.744   5.870   5.943  1.0457 -2.7876 -2.1897
  133OSM    C1214346   3.551   5.964   6.125  0.2613  0.4515 -0.6080
  133OSM   H12A14347   3.471   5.907   6.081  0.7212 -2.5105  2.2111
  133OSM   H12B14348   3.579   6.024   6.039  1.4112 -0.2251 -0.7170
  133OSM    C1114349   3.493   6.047   6.234  0.1647  0.2491 -0.4564
  133OSM   H11A14350   3.550   6.142   6.248  1.4541 -0.1583 -2.6792
  133OSM   H11B14351   3.498   5.987   6.328 -1.0724 -2.2134 -1.9134
  133OSM      P14352   3.309   6.165   6.092  0.3745  0.5040  0.3166
  133OSM    O1314353   3.420   6.250   6.044 -0.5292 -0.8493  0.1196
  133OSM    O1414354   3.233   6.084   5.994 -0.6716  0.1493  0.7151
  133OSM    O1114355   3.204   6.250   6.174 -0.3213  0.2535  0.2248
  133OSM    O1214356   3.358   6.066   6.207  0.2131 -0.4067 -0.5576
  133OSM    C1S14357   3.115   6.209   6.283  0.0365 -0.2916 -0.3618
  133OSM    H1S14358   3.104   6.098   6.280 -0.7983 -0.2050 -0.8289
  133OSM    H1T14359   3.014   6.256   6.277 -0.3966 -0.9755  1.4380
  133OSM     NF14360   3.085   6.196   6.531 -0.1296 -0.4248 -0.7474
  133OSM    HNF14361   3.037   6.265   6.584 -0.5756 -1.2418 -0.0853
  133OSM    C2S14362   3.176   6.242   6.423 -0.1172  0.2864  0.5346
  133OSM    H2S14363   3.271   6.187   6.436  0.3912  1.3368  1.3567
  133OSM    C3S14364   3.209   6.393   6.430 -0.6739 -0.0845  0.1124
  133OSM    H3S14365   3.111   6.439   6.403  0.0870  0.1902 -2.2495
  133OSM     O314366   3.300   6.442   6.334  0.5014 -0.1786  0.2979
  133OSM    HO314367   3.287   6.377   6.264  2.4550 -0.5422  0.2455
  133OSM    C4S14368   3.252   6.444   6.566  0.9790 -1.3464 -0.2403
  133OSM    H4S14369   3.167   6.471   6.631  1.4343 -1.4774  0.4235
  133OSM    C5S14370   3.376   6.465   6.619 -1.0252 -0.5574 -0.6778
  133OSM    H5S14371   3.465   6.439   6.559 -1.5828  0.8585 -2.1583
  133OSM    C6S14372   3.395   6.520   6.757 -0.2511 -0.0157  0.3990
  133OSM    H6S14373   3.354   6.623   6.760 -2.3437 -0.8545  2.8120
  133OSM    H6T14374   3.504   6.537   6.763 -0.2879  0.5571 -0.4220
  133OSM    C7S14375   3.331   6.431   6.863  0.1365 -0.2758 -0.3407
  133OSM    H7S14376   3.376   6.329   6.872 -0.7500 -0.6635 -0.2921
  133OSM    H7T14377   3.227   6.416   6.828  0.4958 -0.1319 -1.4801
  133OSM    C8S14378   3.348   6.493   7.001 -0.1101  0.1552 -0.1075
  133OSM    H8S14379   3.283   6.582   7.010  1.2404  1.1206  0.2508
  133OSM    H8T14380   3.453   6.527   7.017  0.2136 -0.7426 -0.2571
  133OSM    C9S14381   3.322   6.402   7.118 -0.2499  0.3333 -0.9131
  133OSM    H9S14382   3.339   6.296   7.090 -0.6903  0.0230 -0.0232
  133OSM    H9T14383   3.215   6.416   7.145 -0.1538  0.8937 -0.8295
  133OSM   C10S14384   3.400   6.450   7.239  0.4770 -0.4275  0.7619
  133OSM   H10S14385   3.364   6.552   7.262  3.1611  0.3691  1.6665
  133OSM   H10T14386   3.510   6.446   7.220 -0.0542 -1.7998 -2.2616
  133OSM   C11S14387   3.372   6.363   7.361  0.3232 -0.1023  0.0246
  133OSM   H11S14388   3.412   6.262   7.340 -0.6753 -0.3302 -0.7808
  133OSM   H11T14389   3.262   6.349   7.370  0.3409  0.5066  1.3935
  133OSM   C12S14390   3.431   6.419   7.488 -0.2405  0.6504 -0.6363
  133OSM   H12S14391   3.388   6.520   7.505 -0.7060  0.2956  0.3660
  133OSM   H12T14392   3.542   6.417   7.478 -0.1522 -2.2177  0.5557
  133OSM   C13S14393   3.392   6.334   7.599  0.1002  0.2483 -0.0137
  133OSM   H13S14394   3.406   6.229   7.565 -0.8858  0.0016  0.3115
  133OSM   H13T14395   3.284   6.341   7.623  0.3158  2.2969  0.4299
  133OSM   C14S14396   3.474   6.352   7.728 -0.4034 -0.3882  0.9675
  133OSM   H14S14397   3.445   6.449   7.775  0.1983  0.9217 -1.2729
  133OSM   H14T14398   3.582   6.349   7.702  0.1346 -1.9535  3.2937
  133OSM   C15S14399   3.441   6.254   7.836  0.2357 -0.6252  0.4405
  133OSM   H15S14400   3.483   6.152   7.823  0.7115 -0.6588  2.1218
  133OSM   H15T14401   3.333   6.230   7.842 -0.7430  3.2825  0.0746
  133OSM   C16S14402   3.499   6.309   7.977  0.3432  0.3535  0.4670
  133OSM   H16S14403   3.444   6.400   8.009 -0.8440 -0.1446 -0.1383
  133OSM   H16T14404   3.604   6.346   7.980  0.4098  0.1630  0.5277
  133OSM   C17S14405   3.491   6.201   8.087  0.3633 -0.1545  0.0622
  133OSM   H17S14406   3.543   6.237   8.178  2.1023 -0.0258 -0.9498
  133OSM   H17T14407   3.539   6.104   8.063 -1.8493 -1.2083 -0.2021
  133OSM   C18S14408   3.347   6.167   8.140 -0.1762 -0.4356 -0.4474
  133OSM   H18S14409   3.281   6.149   8.053 -1.6542  1.2589  0.2825
  133OSM   H18T14410   3.314   6.252   8.203  0.6026 -0.8436  0.5310
  133OSM   H18U14411   3.355   6.086   8.216 -0.7047  0.2625  0.3629
  133OSM    C1F14412   3.073   6.067   6.564 -0.1998 -0.5760 -0.1687
  133OSM     OF14413   3.136   5.982   6.508  0.2285 -0.3794 -0.4851
  133OSM    C2F14414   2.967   6.038   6.674 -0.3710  0.2969  0.4785
  133OSM    H2F14415   2.877   6.065   6.615  0.5742 -1.7594 -1.9663
  133OSM    H2G14416   2.974   6.096   6.768  0.3601 -0.7423  1.0746
  133OSM    C3F14417   2.961   5.889   6.704 -0.2205 -0.2259 -0.2954
  133OSM    H3F14418   3.065   5.872   6.740  0.9177  3.5853 -1.5599
  133OSM    H3G14419   2.950   5.824   6.614  2.0549  1.0640 -1.5338
  133OSM    C4F14420   2.861   5.858   6.814  0.3112  0.1242 -0.1231
  133OSM    H4F14421   2.757   5.886   6.785  0.1908 -0.8122 -0.6244
  133OSM    H4G14422   2.884   5.906   6.912  0.3998 -1.6812  0.7740
  133OSM    C5F14423   2.856   5.711   6.859 -0.5980 -0.0887  0.6761
  133OSM    H5F14424   2.962   5.681   6.873 -0.3594  0.9886  1.2632
  133OSM    H5G14425   2.819   5.651   6.774 -1.2342  0.8735  0.2607
  133OSM    C6F14426   2.765   5.688   6.976  0.2524  0.8848 -0.4525
  133OSM    H6F14427   2.660   5.709   6.944 -0.6559  2.0205  3.0341
  133OSM    H6G14428   2.779   5.763   7.057 -0.3074 -1.1244  1.5446
  133OSM    C7F14429   2.786   5.547   7.029  0.2106 -0.0788 -0.7353
  133OSM    H7F14430   2.882   5.527   7.083 -0.4402 -0.7933  0.1747
  133OSM    H7G14431   2.754   5.477   6.949 -3.3832  0.4319  0.1759
  133OSM    C8F14432   2.684   5.526   7.143  0.0259 -0.3653  0.1039
  133OSM    H8F14433   2.578   5.536   7.110 -0.6275  0.3313  2.3242
  133OSM    H8G14434   2.700   5.601   7.223 -1.6055  0.6666 -0.4979
  133OSM    C9F14435   2.696   5.392   7.207 -0.2159  0.7179  0.3500
  133OSM    H9F14436   2.748   5.325   7.138 -0.4406  0.0879  0.7869
  133OSM   C10F14437   2.683   5.359   7.335 -0.4772 -0.7333 -0.5823
  133OSM   H10F14438   2.688   5.250   7.347  1.3131 -0.5608  0.2780
  133OSM   C11F14439   2.636   5.458   7.435 -0.6463  0.5145 -0.0394
  133OSM   H11F14440   2.526   5.468   7.420 -0.4754  0.5125 -1.3230
  133OSM   H11G14441   2.687   5.556   7.431  0.3362 -0.0134 -0.6806
  133OSM   C12F14442   2.663   5.423   7.585  0.8537 -0.0019  0.5850
  133OSM   H12F14443   2.604   5.331   7.605 -0.1428  0.3614 -0.5676
  133OSM   H12G14444   2.632   5.515   7.639 -1.0347  0.0475 -0.5386
  133OSM   C13F14445   2.808   5.397   7.620 -0.2947  0.5850 -0.3927
  133OSM   H13F14446   2.872   5.483   7.592  1.6591 -0.5819  0.3683
  133OSM   H13G14447   2.838   5.296   7.583 -1.7115 -0.8172  2.1777
  133OSM   C14F14448   2.817   5.386   7.778 -0.0962 -0.7561 -0.4820
  133OSM   H14F14449   2.726   5.327   7.798 -0.7895  0.5273  0.1893
  133OSM   H14G14450   2.811   5.489   7.819 -1.6636 -1.0336 -0.0077
  133OSM   C15F14451   2.943   5.303   7.820 -0.7059  0.0318 -0.9591
  133OSM   H15F14452   3.029   5.349   7.768  0.8297 -1.1512  0.4907
  133OSM   H15G14453   2.925   5.203   7.775 -0.1503 -0.1892 -0.6954
  133OSM   C16F14454   2.975   5.290   7.963  0.1667 -0.6054  0.5407
  133OSM   H16F14455   2.990   5.393   8.000  0.8709 -0.5982  0.2454
  133OSM   H16G14456   3.064   5.233   7.997  0.4817 -1.7732 -2.1020
  133OSM   C17F14457   2.864   5.220   8.036 -0.1739  0.1941 -0.1355
  133OSM   H17F14458   2.841   5.129   7.977 -1.5804  1.0191 -0.8881
  133OSM   H17G14459   2.767   5.273   8.036 -0.1482  0.2573 -1.0275
  133OSM   C18F14460   2.908   5.202   8.184 -0.1323  0.0745 -0.2366
  133OSM   H18F14461   2.857   5.279   8.245  1.2223  1.6437 -1.0486
  133OSM   H18G14462   3.017   5.215   8.200 -0.3830  1.1135  0.6429
  133OSM   H18H14463   2.872   5.105   8.224  0.1955  0.4260  0.9315
  134OSM      N14464   4.120   2.753   6.333  0.1505  0.4906  0.6922
  134OSM    C1514465   4.105   2.805   6.188 -0.0408 -0.0408  0.6851
  134OSM   H15A14466   4.018   2.870   6.191 -0.6859 -0.8565 -0.0922
  134OSM   H15B14467   4.091   2.721   6.122 -0.7758  2.0775 -1.9796
  134OSM   H15C14468   4.194   2.860   6.163 -0.4313  0.6171  0.7198
  134OSM    C1414469   4.233   2.650   6.342 -0.1515 -0.2741 -0.4266
  134OSM   H14A14470   4.243   2.619   6.445  2.1355  1.2790 -0.1550
  134OSM   H14B14471   4.323   2.682   6.292  0.2239 -0.5307  0.0761
  134OSM   H14C14472   4.188   2.556   6.311  0.8090 -0.2887 -1.8565
  134OSM    C1314473   4.137   2.875   6.412 -0.0894 -1.1525 -0.0782
  134OSM   H13A14474   4.168   2.851   6.513 -1.6138 -0.9942  0.4384
  134OSM   H13B14475   4.051   2.940   6.421  1.3011  0.7831 -0.5234
  134OSM   H13C14476   4.211   2.939   6.369  1.4642 -1.5098  1.9549
  134OSM    C1214477   3.987   2.678   6.374 -0.2438  0.7089  0.1113
  134OSM   H12A14478   3.979   2.585   6.320 -0.8158 -0.0933  1.5747
  134OSM   H12B14479   3.914   2.754   6.352 -0.3151  0.3640 -0.8616
  134OSM    C1114480   3.955   2.649   6.522  0.7581  0.3652  0.4927
  134OSM   H11A14481   3.849   2.621   6.540  1.1099 -0.6618  1.0124
  134OSM   H11B14482   3.956   2.744   6.580 -0.4605  0.1041  0.9473
  134OSM      P14483   4.011   2.407   6.532  0.4832 -0.0864 -0.0938
  134OSM    O1314484   3.991   2.396   6.386 -0.3274  0.0890  0.3363
  134OSM    O1414485   4.116   2.316   6.578 -0.1080 -0.4937 -0.2923
  134OSM    O1114486   3.881   2.371   6.603  0.2526 -0.7563 -0.0663
  134OSM    O1214487   4.056   2.562   6.576  0.6749  0.5589 -0.0971
  134OSM    C1S14488   3.856   2.372   6.743 -0.8196  0.0205  0.9981
  134OSM    H1S14489   3.819   2.472   6.772 -0.4522  0.3961  0.1983
  134OSM    H1T14490   3.952   2.360   6.799 -0.5467 -1.8116  0.1984
  134OSM     NF14491   3.768   2.233   6.934  0.5405  0.6844  0.3467
  134OSM    HNF14492   3.829   2.159   6.962 -0.0861 -0.0183 -0.1203
  134OSM    C2S14493   3.763   2.252   6.783  0.1032 -0.0917  1.0903
  134OSM    H2S14494   3.658   2.272   6.755 -0.3715 -2.1395  1.3359
  134OSM    C3S14495   3.795   2.113   6.710  0.3919  0.0792  0.1778
  134OSM    H3S14496   3.897   2.081   6.742 -0.2477 -1.0534  1.0994
  134OSM     O314497   3.793   2.112   6.569 -0.0477  0.4221 -0.2354
  134OSM    HO314498   3.812   2.203   6.547 -2.1625  1.3999  1.7486
  134OSM    C4S14499   3.701   1.998   6.754  0.5019 -0.2029 -0.6540
  134OSM    H4S14500   3.595   2.024   6.744  0.1712  0.9556  4.2746
  134OSM    C5S14501   3.736   1.880   6.808  0.0863  0.1714 -0.3943
  134OSM    H5S14502   3.842   1.863   6.833  0.1638  1.6255  0.2774
  134OSM    C6S14503   3.644   1.775   6.864  0.0891  0.1190 -0.4382
  134OSM    H6S14504   3.633   1.697   6.786 -0.4549  0.8651 -1.1227
  134OSM    H6T14505   3.548   1.825   6.890  0.0075 -1.3301  2.1468
  134OSM    C7S14506   3.685   1.722   7.002 -0.1517 -0.9970 -0.0422
  134OSM    H7S14507   3.702   1.817   7.058  1.6558 -1.9344  1.0268
  134OSM    H7T14508   3.780   1.667   6.991  1.0191  0.4252  2.4321
  134OSM    C8S14509   3.574   1.632   7.066  0.4913  0.1866  0.1461
  134OSM    H8S14510   3.552   1.551   6.993 -0.7874 -0.2063  0.9449
  134OSM    H8T14511   3.484   1.696   7.078  0.4496  0.5628 -2.0036
  134OSM    C9S14512   3.626   1.581   7.204  0.1795 -0.4922 -0.3900
  134OSM    H9S14513   3.665   1.674   7.251 -1.5837  0.8529 -1.5482
  134OSM    H9T14514   3.708   1.506   7.196  0.5937 -0.4286  2.5739
  134OSM   C10S14515   3.509   1.548   7.298 -0.6793 -0.7020 -0.1228
  134OSM   H10S14516   3.458   1.464   7.245 -0.0781  0.5945 -2.8223
  134OSM   H10T14517   3.437   1.632   7.307  0.9887  0.8646 -1.0411
  134OSM   C11S14518   3.565   1.510   7.436 -0.5885 -0.1052  0.1709
  134OSM   H11S14519   3.628   1.594   7.472  0.9158 -1.4994  0.8556
  134OSM   H11T14520   3.628   1.418   7.429 -1.3144 -0.5038 -1.6149
  134OSM   C12S14521   3.453   1.458   7.526 -0.3626  0.0360  0.2024
  134OSM   H12S14522   3.396   1.383   7.467  1.8569 -1.7454  0.2502
  134OSM   H12T14523   3.379   1.540   7.536 -1.3578 -0.7426 -0.6336
  134OSM   C13S14524   3.472   1.402   7.673 -0.4768  0.2372 -0.4633
  134OSM   H13S14525   3.543   1.317   7.679  1.8085  2.1769  0.5326
  134OSM   H13T14526   3.372   1.357   7.693 -0.7928  0.8347 -0.6850
  134OSM   C14S14527   3.504   1.511   7.776  0.1114  0.2427 -0.0587
  134OSM   H14S14528   3.426   1.590   7.782  1.4122  1.3698  2.4943
  134OSM   H14T14529   3.593   1.571   7.747  0.2261  0.1924  0.1854
  134OSM   C15S14530   3.520   1.448   7.916  0.4174  0.5012  0.2168
  134OSM   H15S14531   3.604   1.377   7.899  0.1383  0.1113  0.4552
  134OSM   H15T14532   3.440   1.381   7.955 -0.3888  1.3351 -0.0008
  134OSM   C16S14533   3.558   1.555   8.022  0.3038  0.5189  0.5244
  134OSM   H16S14534   3.471   1.624   8.037  0.6869  0.8206  1.4316
  134OSM   H16T14535   3.653   1.599   7.987  1.4425 -1.4001  1.1326
  134OSM   C17S14536   3.576   1.504   8.164  0.3154 -0.8988 -0.9149
  134OSM   H17S14537   3.665   1.437   8.170  0.4253 -0.7118 -0.4978
  134OSM   H17T14538   3.490   1.447   8.205 -1.4581  1.3971 -1.3363
  134OSM   C18S14539   3.610   1.625   8.262  0.5507 -0.4675  1.0255
  134OSM   H18S14540   3.633   1.585   8.363  2.2231  1.6338  1.5115
  134OSM   H18T14541   3.521   1.691   8.273  1.8403  1.5608 -0.3114
  134OSM   H18U14542   3.703   1.681   8.240  0.5078 -1.1252 -0.8834
  134OSM    C1F14543   3.717   2.322   7.016 -0.9542 -1.0741  0.5980
  134OSM     OF14544   3.638   2.406   6.974 -0.5080  0.0794 -0.3234
  134OSM    C2F14545   3.758   2.319   7.153  0.2744 -0.0284  0.4590
  134OSM    H2F14546   3.862   2.296   7.184  0.6801 -0.6161 -1.2512
  134OSM    H2G14547   3.692   2.244   7.201 -1.6506  1.2490 -0.1178
  134OSM    C3F14548   3.736   2.454   7.230  0.5337 -0.5377  0.1797
  134OSM    H3F14549   3.637   2.500   7.207  1.6361  1.0779 -1.4127
  134OSM    H3G14550   3.811   2.527   7.193  1.8967 -2.8369 -1.6747
  134OSM    C4F14551   3.769   2.431   7.378  0.5346  0.2751  0.0784
  134OSM    H4F14552   3.877   2.407   7.383  0.8003  0.7859 -2.4129
  134OSM    H4G14553   3.703   2.347   7.410 -0.4301  0.6249 -0.9355
  134OSM    C5F14554   3.742   2.557   7.475 -0.2635 -0.4911 -0.0472
  134OSM    H5F14555   3.634   2.579   7.461 -0.3916 -0.3409  1.1052
  134OSM    H5G14556   3.790   2.645   7.428 -3.0237  1.2759  0.3134
  134OSM    C6F14557   3.779   2.541   7.626  0.1161  0.9815  0.1984
  134OSM    H6F14558   3.752   2.637   7.675  1.0647  1.5219 -0.3246
  134OSM    H6G14559   3.889   2.530   7.635  0.1491  0.8222 -0.4072
  134OSM    C7F14560   3.703   2.420   7.680 -0.1248 -0.6519 -0.4958
  134OSM    H7F14561   3.742   2.320   7.654  1.6075 -0.3188  0.7569
  134OSM    H7G14562   3.601   2.438   7.639 -1.3996  2.0627  3.4826
  134OSM    C8F14563   3.681   2.421   7.834 -0.1088 -0.1038  0.0121
  134OSM    H8F14564   3.625   2.327   7.851  0.6535 -0.7717 -1.0639
  134OSM    H8G14565   3.611   2.500   7.868  0.6497  0.1129  1.0811
  134OSM    C9F14566   3.808   2.432   7.905  0.5779  0.1651 -0.3589
  134OSM    H9F14567   3.860   2.335   7.905 -0.5714 -0.4561 -0.5513
  134OSM   C10F14568   3.870   2.541   7.956 -0.0517  0.1450  0.5322
  134OSM   H10F14569   3.971   2.525   7.997 -0.9318 -0.2644  2.6518
  134OSM   C11F14570   3.812   2.677   7.966 -0.3373 -0.4918 -0.3986
  134OSM   H11F14571   3.712   2.677   7.919 -0.0501  0.2139 -1.0139
  134OSM   H11G14572   3.869   2.745   7.899 -0.2869 -2.3178 -2.2712
  134OSM   C12F14573   3.813   2.734   8.109  0.8373 -0.0832 -0.8281
  134OSM   H12F14574   3.785   2.841   8.102  0.0311 -0.3480 -1.7817
  134OSM   H12G14575   3.912   2.729   8.158  0.8548  0.7114 -0.7754
  134OSM   C13F14576   3.712   2.657   8.197 -0.1675 -0.3490  0.4839
  134OSM   H13F14577   3.758   2.556   8.198 -0.3923 -0.4694 -1.0431
  134OSM   H13G14578   3.618   2.663   8.139 -0.1649  0.3754  0.5460
  134OSM   C14F14579   3.704   2.696   8.347 -0.2671 -0.3742  0.3880
  134OSM   H14F14580   3.700   2.807   8.352 -0.1832 -0.1722 -2.8113
  134OSM   H14G14581   3.796   2.669   8.404 -0.2263  0.0034  0.4998
  134OSM   C15F14582   3.581   2.643   8.427  0.6143  0.6604  0.3134
  134OSM   H15F14583   3.612   2.542   8.461 -1.6852 -0.2057 -0.0988
  134OSM   H15G14584   3.489   2.653   8.367 -1.3107  1.6031  3.3122
  134OSM   C16F14585   3.570   2.716   8.564 -0.5424 -0.2450 -0.1831
  134OSM   H16F14586   3.569   2.827   8.551 -0.7315 -0.3174 -0.7859
  134OSM   H16G14587   3.664   2.688   8.617 -0.0254 -1.7069 -1.8265
  134OSM   C17F14588   3.437   2.670   8.639  0.1181 -0.5474  0.3094
  134OSM   H17F14589   3.438   2.559   8.645 -0.7068 -0.4800  2.2197
  134OSM   H17G14590   3.352   2.701   8.575  0.3350 -0.9913 -0.1898
  134OSM   C18F14591   3.422   2.724   8.781  0.1031  0.5034  0.5246
  134OSM   H18F14592   3.390   2.830   8.772 -2.4420 -0.1564  1.3054
  134OSM   H18G14593   3.516   2.702   8.835 -0.4076 -0.6309  0.9598
  134OSM   H18H14594   3.331   2.676   8.823 -0.0969 -0.2864 -0.7860
  135OSM      N14595   3.700   2.471   6.076  0.1204 -0.4899  0.0818
  135OSM    C1514596   3.778   2.603   6.085  0.5652  0.1783  0.9842
  135OSM   H15A14597   3.723   2.691   6.054  1.3271  0.8096  1.4048
  135OSM   H15B14598   3.872   2.597   6.033  0.0448  1.9229 -0.1913
  135OSM   H15C14599   3.801   2.620   6.190 -0.6980 -2.4430  1.7407
  135OSM    C1414600   3.660   2.448   5.931  0.0628 -0.4392 -0.6692
  135OSM   H14A14601   3.588   2.522   5.900  0.3676  0.5587  0.9023
  135OSM   H14B14602   3.621   2.348   5.921 -1.3755  0.1500 -1.1062
  135OSM   H14C14603   3.752   2.457   5.875  1.3771  0.1279  1.4845
  135OSM    C1314604   3.795   2.367   6.123  0.2554  0.3874  0.9496
  135OSM   H13A14605   3.882   2.366   6.060 -0.1412 -0.2580  0.4053
  135OSM   H13B14606   3.756   2.267   6.108 -0.1391  0.2506  2.6862
  135OSM   H13C14607   3.822   2.385   6.226 -1.7530 -1.3182  1.8164
  135OSM    C1214608   3.587   2.465   6.173 -0.4773  0.0100  0.1328
  135OSM   H12A14609   3.555   2.362   6.163  0.8988 -0.4593  0.4669
  135OSM   H12B14610   3.506   2.529   6.141 -0.9412 -0.7155 -0.1616
  135OSM    C1114611   3.606   2.492   6.323  0.0726  0.4573 -0.6553
  135OSM   H11A14612   3.694   2.440   6.367  0.2028 -0.4073 -1.9161
  135OSM   H11B14613   3.524   2.446   6.382  0.9740 -1.4432 -0.8554
  135OSM      P14614   3.504   2.724   6.375  0.3824  0.4348 -0.3746
  135OSM    O1314615   3.561   2.860   6.362 -0.2625 -0.3713 -1.0243
  135OSM    O1414616   3.384   2.685   6.303 -0.1553 -0.2463 -0.0385
  135OSM    O1114617   3.479   2.689   6.534  0.7125 -0.3889 -0.3080
  135OSM    O1214618   3.626   2.629   6.345 -0.1747  0.1262  0.2682
  135OSM    C1S14619   3.596   2.674   6.619 -0.1353 -0.7302  0.1463
  135OSM    H1S14620   3.674   2.748   6.593  0.6151 -1.3179  0.6813
  135OSM    H1T14621   3.642   2.574   6.600  0.5646 -0.6992  1.5827
  135OSM     NF14622   3.652   2.691   6.860  0.3092 -0.2999  0.3412
  135OSM    HNF14623   3.659   2.606   6.912 -0.4356  0.1919  1.2508
  135OSM    C2S14624   3.545   2.692   6.763  0.2402 -0.3987 -1.3682
  135OSM    H2S14625   3.510   2.797   6.766  2.3374  0.2759  0.5834
  135OSM    C3S14626   3.432   2.592   6.807  0.1132 -0.5741  0.0275
  135OSM    H3S14627   3.451   2.483   6.801  3.0437  0.0078 -1.8096
  135OSM     O314628   3.320   2.598   6.717 -0.0943  0.5579 -0.1154
  135OSM    HO314629   3.359   2.633   6.636  1.7946 -0.4691  0.3146
  135OSM    C4S14630   3.392   2.627   6.956 -0.8785 -0.1077 -0.2008
  135OSM    H4S14631   3.459   2.587   7.033  0.2510 -0.6806 -1.4619
  135OSM    C5S14632   3.292   2.698   7.006  0.0315 -0.1438 -0.0534
  135OSM    H5S14633   3.212   2.734   6.940  0.4989 -1.1785 -1.2056
  135OSM    C6S14634   3.256   2.716   7.153  0.7561  0.4677  0.1746
  135OSM    H6S14635   3.150   2.713   7.185  1.1772 -1.0009  1.5277
  135OSM    H6T14636   3.274   2.817   7.196 -0.2222  1.1249 -0.9470
  135OSM    C7S14637   3.329   2.612   7.247 -0.3234 -0.3747 -0.4373
  135OSM    H7S14638   3.440   2.613   7.242 -0.2924 -1.2383  0.0939
  135OSM    H7T14639   3.295   2.509   7.224  1.8005 -1.2424  0.1686
  135OSM    C8S14640   3.297   2.642   7.389  0.1657  0.9177 -0.4067
  135OSM    H8S14641   3.187   2.659   7.392 -0.1301 -0.8960 -0.6353
  135OSM    H8T14642   3.360   2.730   7.416  1.2070  0.3104 -0.8209
  135OSM    C9S14643   3.316   2.533   7.497 -0.1270  0.5708  0.6535
  135OSM    H9S14644   3.408   2.474   7.476  0.1751  1.1782  0.2789
  135OSM    H9T14645   3.231   2.461   7.494 -1.3127  1.9281  0.8861
  135OSM   C10S14646   3.325   2.599   7.627  0.4166 -0.2120  0.1296
  135OSM   H10S14647   3.233   2.661   7.628 -1.2236 -2.4925 -2.2010
  135OSM   H10T14648   3.415   2.665   7.634 -0.3751  0.7413  1.5102
  135OSM   C11S14649   3.320   2.510   7.751 -0.4558  0.1581 -0.1221
  135OSM   H11S14650   3.420   2.461   7.758  0.0464  1.2712  0.6870
  135OSM   H11T14651   3.253   2.421   7.750 -0.4950  0.1765  0.6825
  135OSM   C12S14652   3.280   2.574   7.886 -0.1997 -0.2520  0.5732
  135OSM   H12S14653   3.309   2.499   7.962 -0.5389 -0.4411  0.5117
  135OSM   H12T14654   3.170   2.581   7.893 -0.4478 -1.9109 -1.3444
  135OSM   C13S14655   3.371   2.702   7.914  0.1114  0.6336 -0.0427
  135OSM   H13S14656   3.346   2.776   7.835 -2.6518 -1.5350 -1.3030
  135OSM   H13T14657   3.474   2.668   7.888 -1.2560 -2.0028 -2.3585
  135OSM   C14S14658   3.371   2.761   8.057  0.2089  0.5552 -0.3396
  135OSM   H14S14659   3.461   2.823   8.073  1.9655 -2.1469  0.6051
  135OSM   H14T14660   3.362   2.675   8.127  0.2875 -0.9374 -2.1169
  135OSM   C15S14661   3.253   2.859   8.069  0.6776 -0.6690  0.3120
  135OSM   H15S14662   3.164   2.818   8.017  0.6741  1.8429 -1.7635
  135OSM   H15T14663   3.268   2.950   8.007  1.7923 -1.5571 -0.7505
  135OSM   C16S14664   3.211   2.912   8.203  0.2912 -0.2849 -0.0036
  135OSM   H16S14665   3.168   2.836   8.271  2.0981 -1.2531  0.1013
  135OSM   H16T14666   3.131   2.987   8.187  0.9993 -0.0969 -2.9983
  135OSM   C17S14667   3.329   2.971   8.281 -0.2470  0.2336 -0.4670
  135OSM   H17S14668   3.357   3.063   8.225 -1.3017  0.3885 -0.7514
  135OSM   H17T14669   3.414   2.900   8.282  1.1798  1.9073  1.7097
  135OSM   C18S14670   3.294   3.016   8.418  0.2052 -0.1194 -0.0548
  135OSM   H18S14671   3.230   3.107   8.416 -0.8008 -0.8351 -0.8077
  135OSM   H18T14672   3.385   3.050   8.473 -0.5623 -0.2766  1.3234
  135OSM   H18U14673   3.254   2.932   8.478  0.4455 -1.3088 -1.5528
  135OSM    C1F14674   3.748   2.778   6.863  0.2498  0.3930 -0.8240
  135OSM     OF14675   3.759   2.871   6.784 -0.3045 -1.1864  0.8329
  135OSM    C2F14676   3.846   2.758   6.975 -0.2645 -0.7051  0.6444
  135OSM    H2F14677   3.928   2.693   6.938 -1.3934 -1.2153 -1.0028
  135OSM    H2G14678   3.788   2.718   7.060  0.9165 -0.0455  1.7850
  135OSM    C3F14679   3.902   2.892   7.004 -0.1365 -0.8761  0.0781
  135OSM    H3F14680   3.834   2.976   7.030  3.0952  2.1854 -0.9535
  135OSM    H3G14681   3.953   2.936   6.916  1.2689 -1.2817  0.6842
  135OSM    C4F14682   4.018   2.882   7.113  0.3659  0.4744 -0.0348
  135OSM    H4F14683   4.067   2.978   7.087  0.5538  0.2083 -0.6927
  135OSM    H4G14684   4.091   2.803   7.085 -1.4637 -0.9704 -0.8527
  135OSM    C5F14685   3.976   2.870   7.261  0.3815 -0.8984  0.1559
  135OSM    H5F14686   3.914   2.779   7.279  1.2458 -1.5949 -0.3639
  135OSM    H5G14687   3.911   2.955   7.290  1.0747 -0.8271  1.5161
  135OSM    C6F14688   4.097   2.871   7.352 -0.3469 -0.0379  0.7071
  135OSM    H6F14689   4.132   2.977   7.356 -1.4591  0.7700 -5.2113
  135OSM    H6G14690   4.176   2.807   7.307 -0.6414 -0.3679  0.6550
  135OSM    C7F14691   4.079   2.805   7.487  0.0019 -0.0730  0.3607
  135OSM    H7F14692   4.176   2.774   7.531 -0.2530  0.1175  1.0629
  135OSM    H7G14693   4.013   2.719   7.460 -3.3420  2.7058 -0.7423
  135OSM    C8F14694   4.009   2.898   7.596 -0.2072  0.0408  0.0957
  135OSM    H8F14695   3.993   2.818   7.672 -0.6570 -0.1721 -0.2184
  135OSM    H8G14696   3.918   2.938   7.546 -0.2162  0.5859  0.5486
  135OSM    C9F14697   4.102   3.002   7.652 -0.9048 -0.3722  0.4370
  135OSM    H9F14698   4.151   3.071   7.582  0.2756  0.0405  1.6578
  135OSM   C10F14699   4.128   3.025   7.782  0.0611 -0.4667  0.4347
  135OSM   H10F14700   4.201   3.102   7.811 -0.2580 -0.3586  0.9654
  135OSM   C11F14701   4.070   2.950   7.900 -0.1692 -0.4766 -0.3529
  135OSM   H11F14702   4.137   2.862   7.914  1.7468  0.7376 -1.6030
  135OSM   H11G14703   3.965   2.917   7.880 -1.0097  1.8187  0.0856
  135OSM   C12F14704   4.069   3.035   8.031 -0.1649 -0.3926 -0.2399
  135OSM   H12F14705   3.998   2.994   8.106 -0.6658 -0.9082 -0.9955
  135OSM   H12G14706   4.033   3.138   8.014 -1.4977 -0.7719  0.2603
  135OSM   C13F14707   4.211   3.044   8.090  0.5237 -0.1606  0.0930
  135OSM   H13F14708   4.283   3.042   8.006 -2.0331 -3.2690 -2.1579
  135OSM   H13G14709   4.228   2.946   8.139  0.0868  0.4932  1.6233
  135OSM   C14F14710   4.248   3.158   8.197  0.2476 -0.4693  0.1547
  135OSM   H14F14711   4.258   3.249   8.134 -0.7288 -3.2433 -4.2499
  135OSM   H14G14712   4.347   3.125   8.236  1.1782 -0.8385 -2.4264
  135OSM   C15F14713   4.143   3.179   8.312 -0.1646  0.2698 -0.3230
  135OSM   H15F14714   4.118   3.075   8.343 -1.8442  1.0196  0.9253
  135OSM   H15G14715   4.054   3.227   8.265  0.0571  2.9276  1.8593
  135OSM   C16F14716   4.201   3.262   8.432 -0.6953  0.3049 -0.5294
  135OSM   H16F14717   4.264   3.197   8.495 -1.0061 -0.0996 -0.6319
  135OSM   H16G14718   4.122   3.294   8.503  1.2576  1.3345  1.2145
  135OSM   C17F14719   4.284   3.389   8.396 -0.2946 -0.2269 -0.2351
  135OSM   H17F14720   4.231   3.455   8.323 -0.7153  0.0577  0.3191
  135OSM   H17G14721   4.367   3.342   8.340 -0.0294  0.3090 -0.2883
  135OSM   C18F14722   4.343   3.472   8.514 -0.5878 -0.7634  0.7995
  135OSM   H18F14723   4.290   3.461   8.611  0.0949 -2.5383  1.0003
  135OSM   H18G14724   4.340   3.579   8.486  1.4143 -1.3223 -1.7860
  135OSM   H18H14725   4.452   3.457   8.533 -0.1034 -0.2745 -1.4774
  136OSM      N14726   1.311   3.682   6.007  0.2139 -0.6067  0.6715
  136OSM    C1514727   1.439   3.712   5.952 -0.1909 -0.0416  0.4560
  136OSM   H15A14728   1.523   3.671   6.006  1.3992  1.5119 -0.7452
  136OSM   H15B14729   1.451   3.819   5.945  0.5352 -0.0914  0.9165
  136OSM   H15C14730   1.451   3.668   5.854  2.9849 -2.6639  1.9227
  136OSM    C1414731   1.215   3.740   5.908  0.2173 -0.4123  0.8463
  136OSM   H14A14732   1.212   3.848   5.910  0.1059 -0.3835 -0.5757
  136OSM   H14B14733   1.115   3.704   5.930  0.7860 -1.8111  1.1324
  136OSM   H14C14734   1.237   3.705   5.809 -1.0711 -1.2412  0.8327
  136OSM    C1314735   1.304   3.529   6.014 -0.0291  0.0642 -0.0398
  136OSM   H13A14736   1.306   3.502   5.910  1.3813 -1.6301  0.4239
  136OSM   H13B14737   1.206   3.506   6.053  0.0258 -0.0280  0.0436
  136OSM   H13C14738   1.387   3.502   6.077 -0.1380 -1.2333 -0.4418
  136OSM    C1214739   1.293   3.750   6.143  0.6957 -0.0546 -0.4050
  136OSM   H12A14740   1.188   3.751   6.165  0.3949  0.1898 -1.7950
  136OSM   H12B14741   1.327   3.852   6.138  1.5958 -0.3767 -1.1080
  136OSM    C1114742   1.377   3.693   6.266 -0.6814 -0.4107 -0.5753
  136OSM   H11A14743   1.341   3.588   6.271  1.3326 -1.2611 -2.7606
  136OSM   H11B14744   1.342   3.751   6.354 -3.9192 -2.1082 -0.6805
  136OSM      P14745   1.603   3.842   6.247 -0.0162  0.2716 -0.2547
  136OSM    O1314746   1.747   3.819   6.216 -0.0270 -0.5348  0.1865
  136OSM    O1414747   1.539   3.954   6.175 -0.3840 -0.0227 -0.1897
  136OSM    O1114748   1.593   3.873   6.399 -0.3706  0.3586 -0.0691
  136OSM    O1214749   1.520   3.705   6.239  0.0367  0.4601  0.1821
  136OSM    C1S14750   1.613   3.787   6.517  0.1865 -0.5852  0.5446
  136OSM    H1S14751   1.708   3.732   6.503  1.5899  1.5738  1.3840
  136OSM    H1T14752   1.531   3.712   6.529  1.5056 -1.9011  1.5385
  136OSM     NF14753   1.629   3.767   6.768  0.7305  0.3873 -0.2145
  136OSM    HNF14754   1.541   3.743   6.809  0.3396  0.2850 -1.0937
  136OSM    C2S14755   1.604   3.856   6.652  0.6905  0.1245 -0.5058
  136OSM    H2S14756   1.681   3.936   6.652  0.8002  0.0966  2.8126
  136OSM    C3S14757   1.471   3.938   6.658  0.4072  0.8813  0.5900
  136OSM    H3S14758   1.383   3.872   6.638  0.5964  0.7409  0.2226
  136OSM     O314759   1.468   4.041   6.560  0.1018  0.2308  0.3805
  136OSM    HO314760   1.530   4.008   6.495 -0.4719  1.5492 -0.8669
  136OSM    C4S14761   1.452   3.983   6.799  0.2290  0.5778  1.1330
  136OSM    H4S14762   1.537   4.047   6.827  1.3047  0.5609 -1.9520
  136OSM    C5S14763   1.349   3.945   6.879 -0.3597 -0.1870  0.8989
  136OSM    H5S14764   1.266   3.878   6.852 -2.2406  1.9834  1.1374
  136OSM    C6S14765   1.328   4.005   7.013  0.0710  0.1119 -0.2011
  136OSM    H6S14766   1.387   4.097   7.030  0.8390 -0.5818  0.9793
  136OSM    H6T14767   1.356   3.935   7.095 -2.0521  1.1378  1.4267
  136OSM    C7S14768   1.184   4.055   7.051  0.6664  0.2463 -0.2509
  136OSM    H7S14769   1.131   3.970   7.101  1.9313  0.1780  1.0079
  136OSM    H7T14770   1.133   4.081   6.956  1.1738 -0.1112 -0.6228
  136OSM    C8S14771   1.195   4.175   7.143  0.0861 -0.6907  0.5043
  136OSM    H8S14772   1.098   4.229   7.143  1.0392  1.0632 -0.9339
  136OSM    H8T14773   1.259   4.258   7.107  1.2641 -1.4322  0.8534
  136OSM    C9S14774   1.253   4.137   7.279  0.2013  0.2527 -0.7440
  136OSM    H9S14775   1.356   4.096   7.278  0.3179  0.5599 -1.3939
  136OSM    H9T14776   1.182   4.060   7.316  1.0370 -0.6161 -0.9427
  136OSM   C10S14777   1.260   4.257   7.382  0.3342 -0.0834 -0.7995
  136OSM   H10S14778   1.159   4.303   7.373 -0.4484 -1.1260  2.1513
  136OSM   H10T14779   1.338   4.329   7.349  0.2025 -0.9850 -3.1738
  136OSM   C11S14780   1.282   4.216   7.529  0.4406  0.8467 -0.0500
  136OSM   H11S14781   1.353   4.131   7.532  0.2246  0.6633 -0.1028
  136OSM   H11T14782   1.190   4.170   7.569  1.1209 -1.7348 -1.3967
  136OSM   C12S14783   1.320   4.330   7.622 -0.3547  0.4510 -0.5307
  136OSM   H12S14784   1.233   4.396   7.643  0.8426  2.3357 -1.2694
  136OSM   H12T14785   1.399   4.397   7.583 -0.3598 -0.3587 -1.9494
  136OSM   C13S14786   1.347   4.281   7.766  0.2493  0.4942  0.1802
  136OSM   H13S14787   1.457   4.290   7.779  0.7644 -2.9570 -1.1787
  136OSM   H13T14788   1.328   4.174   7.790 -0.4269  0.7762  0.9586
  136OSM   C14S14789   1.280   4.364   7.876  0.3500  0.0287 -0.2059
  136OSM   H14S14790   1.328   4.347   7.975  1.4777 -2.5465 -1.1253
  136OSM   H14T14791   1.171   4.350   7.865  0.3040  0.4173 -0.2455
  136OSM   C15S14792   1.298   4.516   7.851  0.6127 -0.2059  0.1814
  136OSM   H15S14793   1.244   4.553   7.761  0.9445 -0.7054 -0.2253
  136OSM   H15T14794   1.405   4.541   7.835  0.3595  0.8623  0.0843
  136OSM   C16S14795   1.227   4.593   7.960  0.1731  0.2210 -0.8277
  136OSM   H16S14796   1.294   4.586   8.049 -1.0079  3.6497  0.4109
  136OSM   H16T14797   1.133   4.546   7.996  1.0517  0.8820  2.5434
  136OSM   C17S14798   1.203   4.735   7.919  0.5006  0.6413  0.1109
  136OSM   H17S14799   1.128   4.742   7.838 -1.8622  2.3768  2.3579
  136OSM   H17T14800   1.302   4.774   7.887 -0.3339  1.9568 -0.9002
  136OSM   C18S14801   1.144   4.820   8.034 -0.1525  0.1195 -0.9852
  136OSM   H18S14802   1.204   4.815   8.128 -1.4732 -0.4853 -0.1618
  136OSM   H18T14803   1.045   4.778   8.063  0.1196 -1.3365 -2.1242
  136OSM   H18U14804   1.145   4.929   8.015  0.3895  0.6295  1.7000
  136OSM    C1F14805   1.740   3.702   6.789 -0.0112 -0.1966  1.0754
  136OSM     OF14806   1.835   3.722   6.711 -0.0548 -0.5713  0.1550
  136OSM    C2F14807   1.739   3.604   6.898 -0.4995 -0.8657 -0.1227
  136OSM    H2F14808   1.804   3.518   6.874  1.1246 -0.2174  1.7743
  136OSM    H2G14809   1.634   3.576   6.921 -0.2769 -1.6143 -0.0283
  136OSM    C3F14810   1.803   3.670   7.018  0.2891  0.0008  0.2676
  136OSM    H3F14811   1.890   3.729   6.982  0.6621 -0.2181  0.8063
  136OSM    H3G14812   1.841   3.587   7.081 -0.3807 -1.4985 -1.2830
  136OSM    C4F14813   1.712   3.750   7.120 -0.1001  0.3856  0.0251
  136OSM    H4F14814   1.641   3.673   7.158  2.7257 -1.9117  0.8552
  136OSM    H4G14815   1.657   3.831   7.068  0.4427  1.0284  0.4285
  136OSM    C5F14816   1.807   3.810   7.218  0.5630  0.4436  0.0090
  136OSM    H5F14817   1.876   3.864   7.149 -2.1624  3.3033 -0.6090
  136OSM    H5G14818   1.858   3.733   7.280 -1.1688 -0.0940  0.7957
  136OSM    C6F14819   1.750   3.923   7.300  0.2004  0.4252  0.4220
  136OSM    H6F14820   1.708   3.997   7.228 -1.9266  1.3141  2.5314
  136OSM    H6G14821   1.827   3.969   7.365  2.0833  0.3038 -1.6600
  136OSM    C7F14822   1.633   3.878   7.386 -0.1982 -0.0819  0.1867
  136OSM    H7F14823   1.547   3.845   7.325 -0.2053  2.3210 -1.1904
  136OSM    H7G14824   1.593   3.967   7.441  1.4247  1.2860 -0.7953
  136OSM    C8F14825   1.665   3.765   7.496  0.0709  0.1401  0.0829
  136OSM    H8F14826   1.755   3.806   7.546  0.8897  1.6026 -2.4992
  136OSM    H8G14827   1.682   3.681   7.425  2.0027  0.2126  0.4347
  136OSM    C9F14828   1.545   3.744   7.581  0.7537 -0.4020 -0.2634
  136OSM    H9F14829   1.450   3.733   7.527  1.2351  0.3147 -1.2844
  136OSM   C10F14830   1.550   3.755   7.711  0.4198 -0.2289  0.2357
  136OSM   H10F14831   1.451   3.752   7.760  1.9817 -2.8129  3.3618
  136OSM   C11F14832   1.669   3.793   7.806  0.6962 -0.2493 -0.4716
  136OSM   H11F14833   1.761   3.733   7.789  1.7178  1.3555 -0.6172
  136OSM   H11G14834   1.648   3.769   7.913 -2.0127 -1.1043 -1.1466
  136OSM   C12F14835   1.718   3.943   7.810  0.6675 -0.0656 -0.0238
  136OSM   H12F14836   1.754   3.967   7.708 -0.8367  0.4715 -0.4419
  136OSM   H12G14837   1.797   3.954   7.888 -0.6236 -1.5504  1.5461
  136OSM   C13F14838   1.605   4.042   7.848 -0.0138  0.6248 -0.8474
  136OSM   H13F14839   1.532   4.033   7.765  0.8300  2.6833 -1.8481
  136OSM   H13G14840   1.660   4.138   7.838 -0.5560  1.1883  1.2363
  136OSM   C14F14841   1.534   4.014   7.975 -0.2113  0.2378 -0.2285
  136OSM   H14F14842   1.495   3.910   7.979 -0.2142  0.2756  0.9941
  136OSM   H14G14843   1.437   4.068   7.979  0.1009  0.6624  2.4071
  136OSM   C15F14844   1.609   4.035   8.108  0.3824 -0.4006 -0.8046
  136OSM   H15F14845   1.657   4.135   8.116  1.3654 -0.9852  0.7236
  136OSM   H15G14846   1.690   3.958   8.107  0.3189 -0.5084  0.7937
  136OSM   C16F14847   1.511   4.021   8.219  0.0922 -0.9591  0.5567
  136OSM   H16F14848   1.441   3.937   8.198 -0.6656 -0.9518  2.8935
  136OSM   H16G14849   1.457   4.117   8.211  2.2486  0.3692  1.5110
  136OSM   C17F14850   1.570   4.018   8.357  0.8522  0.2432 -0.2251
  136OSM   H17F14851   1.639   4.104   8.372  0.8830  0.2737 -0.5291
  136OSM   H17G14852   1.636   3.929   8.366  0.0950 -0.3112 -0.1017
  136OSM   C18F14853   1.477   4.035   8.476  0.7946  0.2816  0.4471
  136OSM   H18F14854   1.427   4.134   8.484 -0.4680 -0.4053  1.3338
  136OSM   H18G14855   1.534   4.007   8.567  0.6969 -1.0550  0.1111
  136OSM   H18H14856   1.395   3.961   8.464  0.3622  1.2576 -3.2717
  137OSM      N14857   4.059   0.928   6.331  0.8610  0.1102  0.3770
  137OSM    C1514858   4.059   1.080   6.322 -0.4529  0.2861 -0.5790
  137OSM   H15A14859   4.157   1.125   6.327 -1.5958  2.9082 -0.9704
  137OSM   H15B14860   4.003   1.120   6.406 -0.0397 -0.4287  0.0418
  137OSM   H15C14861   4.006   1.117   6.235 -4.0400 -1.8117  0.6108
  137OSM    C1414862   3.928   0.867   6.313 -0.1225 -0.4631 -0.7476
  137OSM   H14A14863   3.864   0.900   6.394  1.6806 -1.9257  1.3274
  137OSM   H14B14864   3.943   0.760   6.307  0.4090 -0.7289  3.6820
  137OSM   H14C14865   3.884   0.907   6.223 -0.1175 -0.5556 -0.7908
  137OSM    C1314866   4.143   0.887   6.213 -0.0650 -0.2866 -0.4682
  137OSM   H13A14867   4.120   0.945   6.125 -1.2899  2.1484  1.4006
  137OSM   H13B14868   4.122   0.782   6.194 -1.5966  0.0921 -0.9348
  137OSM   H13C14869   4.246   0.904   6.238 -0.3902 -1.5259  1.8341
  137OSM    C1214870   4.121   0.901   6.465  0.7664 -0.0721 -0.1135
  137OSM   H12A14871   4.154   0.799   6.451 -0.1489 -0.6751  1.9636
  137OSM   H12B14872   4.050   0.907   6.546  1.7819  1.2013  0.6995
  137OSM    C1114873   4.245   0.975   6.502  0.7860 -0.3309  0.5470
  137OSM   H11A14874   4.281   0.925   6.594 -0.5252 -0.1639  1.1577
  137OSM   H11B14875   4.233   1.084   6.513  2.4514 -0.1964  1.0585
  137OSM      P14876   4.471   0.859   6.408  0.3273  0.2815  0.2967
  137OSM    O1314877   4.441   0.720   6.362  0.3051  0.0473 -0.1445
  137OSM    O1414878   4.571   0.924   6.328  0.1217  0.5390  0.4371
  137OSM    O1114879   4.514   0.859   6.557 -0.2080 -0.0258  0.4701
  137OSM    O1214880   4.342   0.952   6.404  0.2173 -0.0764  0.3734
  137OSM    C1S14881   4.555   0.976   6.627  0.5034  0.2021 -0.5474
  137OSM    H1S14882   4.492   1.064   6.604  0.7824 -0.1046 -2.5455
  137OSM    H1T14883   4.655   1.005   6.588  1.0940  0.6240  1.2276
  137OSM     NF14884   4.576   1.087   6.864 -0.3446 -0.6548 -0.3415
  137OSM    HNF14885   4.665   1.096   6.909 -0.7834 -0.7614  0.5752
  137OSM    C2S14886   4.558   0.957   6.792  0.3303 -0.1258 -0.6869
  137OSM    H2S14887   4.453   0.925   6.810 -0.3982  0.6115 -3.3886
  137OSM    C3S14888   4.653   0.842   6.833  0.7160  0.3023 -0.1339
  137OSM    H3S14889   4.756   0.875   6.810  0.3879  0.0866 -2.0354
  137OSM     O314890   4.641   0.722   6.753  0.2310 -0.2907 -0.0426
  137OSM    HO314891   4.589   0.762   6.683  0.7572  1.3703  0.5017
  137OSM    C4S14892   4.641   0.812   6.978  0.7153 -0.3720  0.5624
  137OSM    H4S14893   4.725   0.847   7.041  0.5791  0.5212  0.2641
  137OSM    C5S14894   4.542   0.739   7.033  0.0612  0.8409  0.1548
  137OSM    H5S14895   4.462   0.695   6.972 -1.8514  0.9598  2.5179
  137OSM    C6S14896   4.530   0.720   7.179 -0.1947 -0.5683  0.0442
  137OSM    H6S14897   4.527   0.610   7.196  0.8380 -0.5656  0.2835
  137OSM    H6T14898   4.430   0.761   7.206 -1.0293 -2.8131  0.4454
  137OSM    C7S14899   4.638   0.779   7.276 -0.0744 -0.2159  0.1786
  137OSM    H7S14900   4.614   0.887   7.280 -1.7036 -0.5068 -0.9799
  137OSM    H7T14901   4.744   0.776   7.244  0.1714  1.7843  0.7643
  137OSM    C8S14902   4.618   0.730   7.422  0.0575  0.5644 -1.1374
  137OSM    H8S14903   4.633   0.620   7.430  0.0852  0.4391 -2.7465
  137OSM    H8T14904   4.513   0.756   7.447 -0.1119 -0.6249 -0.5575
  137OSM    C9S14905   4.719   0.795   7.519 -0.0602 -0.1967 -0.0910
  137OSM    H9S14906   4.814   0.825   7.471  0.4104  1.5422  1.8273
  137OSM    H9T14907   4.728   0.737   7.613 -2.7693  1.4412  1.2728
  137OSM   C10S14908   4.666   0.928   7.589 -0.5058  0.4056  0.0285
  137OSM   H10S14909   4.560   0.920   7.621 -0.3645  0.8518  0.6042
  137OSM   H10T14910   4.658   1.010   7.515  1.0210  1.0254  0.5343
  137OSM   C11S14911   4.761   0.977   7.702  1.2316 -0.4525 -0.6001
  137OSM   H11S14912   4.867   0.976   7.670  1.2911  3.1303 -0.7308
  137OSM   H11T14913   4.757   0.909   7.790 -1.8967  1.7620  1.0594
  137OSM   C12S14914   4.739   1.123   7.744 -0.5593  0.1745 -0.1314
  137OSM   H12S14915   4.735   1.197   7.661  1.9738  1.9041  1.2126
  137OSM   H12T14916   4.833   1.154   7.795  1.0845 -2.7280 -1.2442
  137OSM   C13S14917   4.616   1.145   7.842 -0.7881 -0.1012  0.0114
  137OSM   H13S14918   4.609   1.057   7.909 -0.6779 -0.8293 -0.9160
  137OSM   H13T14919   4.518   1.168   7.795  0.5942 -1.7614 -3.8972
  137OSM   C14S14920   4.654   1.258   7.937  0.4094 -0.1498 -0.2258
  137OSM   H14S14921   4.676   1.347   7.875  0.9959  0.4818  0.8795
  137OSM   H14T14922   4.731   1.220   8.008  1.5314  2.7679  0.1743
  137OSM   C15S14923   4.540   1.295   8.028  0.0966  0.8760 -0.8318
  137OSM   H15S14924   4.488   1.210   8.078  1.6142 -1.4643 -3.1137
  137OSM   H15T14925   4.458   1.351   7.979  0.0938  0.3054 -1.4831
  137OSM   C16S14926   4.578   1.375   8.153  0.4682  0.0917 -0.5996
  137OSM   H16S14927   4.625   1.468   8.115  1.5632 -0.8307 -1.5819
  137OSM   H16T14928   4.657   1.322   8.211 -0.1793  1.5581  1.6906
  137OSM   C17S14929   4.457   1.404   8.245 -0.1378 -0.1800 -0.6114
  137OSM   H17S14930   4.429   1.303   8.283 -2.3841  0.6226 -0.0749
  137OSM   H17T14931   4.379   1.451   8.181 -0.9680  0.3765  0.8012
  137OSM   C18S14932   4.485   1.500   8.362  1.0077 -0.3169 -0.2504
  137OSM   H18S14933   4.454   1.604   8.337  0.0317 -0.4265  0.5055
  137OSM   H18T14934   4.594   1.512   8.381  0.9971 -2.4558  1.2448
  137OSM   H18U14935   4.427   1.481   8.454  3.5890 -1.4976  1.1649
  137OSM    C1F14936   4.495   1.189   6.856 -0.6616  0.3511  1.1960
  137OSM     OF14937   4.398   1.177   6.782  0.0323 -0.3234  0.6426
  137OSM    C2F14938   4.517   1.306   6.937 -0.4510  0.0404  0.5055
  137OSM    H2F14939   4.457   1.390   6.896 -0.8642 -0.2373  0.5403
  137OSM    H2G14940   4.624   1.337   6.931  0.7520 -3.6500  1.3248
  137OSM    C3F14941   4.477   1.296   7.086  0.3798 -0.1916  0.3951
  137OSM    H3F14942   4.522   1.201   7.123 -0.0016 -0.0348  1.2822
  137OSM    H3G14943   4.366   1.296   7.093  0.4996 -0.3951  2.6022
  137OSM    C4F14944   4.530   1.398   7.185  0.1169  0.7443 -0.4211
  137OSM    H4F14945   4.496   1.503   7.178  1.1156  0.9760 -2.1668
  137OSM    H4G14946   4.641   1.395   7.194 -0.0700 -0.8845  1.8366
  137OSM    C5F14947   4.479   1.353   7.315 -0.2280 -0.3500 -0.0452
  137OSM    H5F14948   4.505   1.246   7.327 -1.0127 -0.5710 -0.2825
  137OSM    H5G14949   4.368   1.362   7.322 -0.1882 -0.0044  0.1652
  137OSM    C6F14950   4.544   1.446   7.426  0.0443 -0.0185 -0.1891
  137OSM    H6F14951   4.531   1.549   7.387  1.6207  0.0218 -0.6278
  137OSM    H6G14952   4.649   1.416   7.443  0.5988  0.7818 -2.0965
  137OSM    C7F14953   4.468   1.414   7.554  0.4865 -0.0952 -0.0750
  137OSM    H7F14954   4.473   1.306   7.578  0.7488 -0.0809 -0.0599
  137OSM    H7G14955   4.359   1.431   7.539  0.1562  1.4689  3.6056
  137OSM    C8F14956   4.513   1.496   7.682 -0.4733  0.6829 -1.3121
  137OSM    H8F14957   4.620   1.473   7.702 -1.1091 -0.8332  0.4998
  137OSM    H8G14958   4.450   1.469   7.770  0.5148  0.4857 -0.6544
  137OSM    C9F14959   4.500   1.645   7.653 -0.4135  1.0749 -0.7853
  137OSM    H9F14960   4.545   1.673   7.557  3.8974  0.3577  0.9346
  137OSM   C10F14961   4.458   1.739   7.735  0.1051  0.1169 -0.4092
  137OSM   H10F14962   4.462   1.841   7.693  0.3284 -0.3318 -1.4971
  137OSM   C11F14963   4.392   1.721   7.874 -0.8760 -0.7616 -0.1400
  137OSM   H11F14964   4.425   1.802   7.942 -2.3696 -0.1573 -0.1315
  137OSM   H11G14965   4.412   1.621   7.919 -1.4532 -0.2554  1.2450
  137OSM   C12F14966   4.234   1.744   7.870 -0.3963  0.3804 -0.0383
  137OSM   H12F14967   4.178   1.653   7.837  1.0271  0.2936 -2.3166
  137OSM   H12G14968   4.213   1.822   7.794  1.4588 -0.3184 -1.2903
  137OSM   C13F14969   4.183   1.799   8.002  0.4048 -0.5365  0.3038
  137OSM   H13F14970   4.072   1.792   7.998  0.3557  0.5378 -0.7081
  137OSM   H13G14971   4.203   1.908   8.010  0.2170 -0.5838  1.4612
  137OSM   C14F14972   4.232   1.732   8.135  0.7099 -0.2551 -0.6971
  137OSM   H14F14973   4.341   1.756   8.141  0.6336 -0.5536  2.5085
  137OSM   H14G14974   4.215   1.622   8.134  1.4457 -0.3970  0.9071
  137OSM   C15F14975   4.162   1.797   8.259 -0.1997 -0.3439  0.3928
  137OSM   H15F14976   4.061   1.751   8.261 -1.2949  1.9046 -1.2290
  137OSM   H15G14977   4.137   1.903   8.236 -2.3995 -0.4555  2.0754
  137OSM   C16F14978   4.234   1.792   8.389  0.8612  0.2872  0.1970
  137OSM   H16F14979   4.337   1.829   8.368  0.1243  2.2195 -0.0988
  137OSM   H16G14980   4.238   1.686   8.420 -2.2336  0.1113  0.1410
  137OSM   C17F14981   4.160   1.875   8.494  0.4890  0.8379 -0.1642
  137OSM   H17F14982   4.075   1.813   8.530 -0.0955  0.3065 -2.4282
  137OSM   H17G14983   4.121   1.974   8.462  1.0686  0.5665 -1.7266
  137OSM   C18F14984   4.252   1.900   8.616  0.2619  0.2279 -0.3222
  137OSM   H18F14985   4.324   1.984   8.607  1.5991 -0.8314  0.2623
  137OSM   H18G14986   4.305   1.802   8.620 -1.8372 -0.8764  3.7251
  137OSM   H18H14987   4.190   1.918   8.706  1.6340 -1.5750  1.0250
  138OSM      N14988   5.401   3.780   5.706  0.0691  0.5917  0.5679
  138OSM    C1514989   5.261   3.792   5.670  0.4715  0.0234 -0.2113
  138OSM   H15A14990   5.218   3.891   5.680 -0.3939 -0.5431  2.0764
  138OSM   H15B14991   5.204   3.742   5.747  1.0544  0.1068  0.2707
  138OSM   H15C14992   5.233   3.776   5.567 -2.0625 -2.1310  0.7365
  138OSM    C1414993   5.442   3.635   5.703  0.5227 -0.4774 -0.0946
  138OSM   H14A14994   5.382   3.574   5.768  1.4120 -1.7162 -0.4243
  138OSM   H14B14995   5.548   3.620   5.712  1.2934  2.3442 -3.2604
  138OSM   H14C14996   5.424   3.598   5.603  0.3311 -0.0408 -0.2232
  138OSM    C1314997   5.465   3.867   5.596 -0.0253  0.3207 -0.5749
  138OSM   H13A14998   5.413   3.858   5.502 -0.7840  1.7102 -0.3105
  138OSM   H13B14999   5.568   3.845   5.573  0.8461 -1.0324  3.9940
  138OSM   H13C15000   5.468   3.971   5.628  1.4297  0.5337 -1.3866
  138OSM    C1215001   5.426   3.847   5.840  0.6904  0.0685  0.3033
  138OSM   H12A15002   5.383   3.946   5.841 -0.7423 -0.5130 -1.0506
  138OSM   H12B15003   5.531   3.851   5.863  0.8545  0.1294 -0.4215
  138OSM    C1115004   5.358   3.782   5.969  0.7345  0.2552  0.3821
  138OSM   H11A15005   5.247   3.782   5.968  0.7129 -1.5758  1.2280
  138OSM   H11B15006   5.378   3.850   6.055 -0.9722  2.3974 -0.8689
  138OSM      P15007   5.542   3.610   6.059 -0.0110  0.1174  0.0965
  138OSM    O1315008   5.578   3.475   6.024  0.7069 -0.2609  0.3273
  138OSM    O1415009   5.651   3.703   6.022 -0.0116 -0.3269  0.4785
  138OSM    O1115010   5.518   3.621   6.211  0.1458 -0.2729 -0.6336
  138OSM    O1215011   5.408   3.653   5.989 -0.2474  0.4017 -0.0827
  138OSM    C1S15012   5.429   3.545   6.294  0.0359  0.1242  0.2102
  138OSM    H1S15013   5.467   3.441   6.307  0.0712  0.0368 -0.5629
  138OSM    H1T15014   5.332   3.528   6.243 -2.0468  1.4635  3.5911
  138OSM     NF15015   5.311   3.532   6.500  0.0181 -0.2220  0.4008
  138OSM    HNF15016   5.213   3.548   6.489  0.3285  2.7195  1.3248
  138OSM    C2S15017   5.408   3.619   6.426  0.0818  0.6670 -0.1528
  138OSM    H2S15018   5.496   3.608   6.493  0.3770 -2.2814 -0.9512
  138OSM    C3S15019   5.364   3.774   6.413 -0.3186 -0.8396  0.4912
  138OSM    H3S15020   5.255   3.776   6.391 -0.4103  1.5411  0.9955
  138OSM     O315021   5.422   3.849   6.306 -0.0124  0.1020  0.4033
  138OSM    HO315022   5.477   3.782   6.266  0.9827  0.0631  1.7771
  138OSM    C4S15023   5.380   3.854   6.542 -0.5309 -0.4225  0.1818
  138OSM    H4S15024   5.281   3.843   6.589 -0.7899  1.0265  0.0244
  138OSM    C5S15025   5.483   3.920   6.593 -0.6010  0.2785 -0.3932
  138OSM    H5S15026   5.576   3.932   6.535  0.6168  3.7015  2.0973
  138OSM    C6S15027   5.491   3.987   6.728 -0.4553 -0.0981 -0.4010
  138OSM    H6S15028   5.393   4.006   6.777  0.0735 -0.8855  0.9805
  138OSM    H6T15029   5.525   4.092   6.716 -2.4767  0.5125 -1.0830
  138OSM    C7S15030   5.584   3.912   6.823 -0.6680 -0.3197  0.2632
  138OSM    H7S15031   5.685   3.909   6.777 -0.2564  1.2315  1.0398
  138OSM    H7T15032   5.566   3.806   6.851  1.2946 -1.1204 -1.3369
  138OSM    C8S15033   5.594   3.982   6.960 -0.3091  0.6095 -0.1368
  138OSM    H8S15034   5.496   3.971   7.011 -0.0237  0.9706  0.4883
  138OSM    H8T15035   5.623   4.085   6.931 -0.9932  0.7336 -0.3865
  138OSM    C9S15036   5.694   3.911   7.047  0.0336 -0.3795  0.5386
  138OSM    H9S15037   5.798   3.921   7.009  0.1930 -2.8418  0.2951
  138OSM    H9T15038   5.681   3.802   7.065  1.3403 -0.6628 -0.1981
  138OSM   C10S15039   5.699   3.984   7.187  0.0826  0.2990 -0.4476
  138OSM   H10S15040   5.684   4.093   7.178  2.2800  0.6884  0.3974
  138OSM   H10T15041   5.805   3.974   7.220  0.2107  1.3198 -0.5424
  138OSM   C11S15042   5.600   3.941   7.291 -0.3283 -0.0816  0.2215
  138OSM   H11S15043   5.599   3.832   7.314 -0.9904 -0.1594 -0.1598
  138OSM   H11T15044   5.496   3.957   7.255 -0.9284  2.8508  3.0037
  138OSM   C12S15045   5.611   4.009   7.430 -1.0161 -0.9191 -0.2688
  138OSM   H12S15046   5.550   3.960   7.509  2.6999 -3.2236  1.3306
  138OSM   H12T15047   5.573   4.112   7.415 -0.0831 -0.4929  0.2038
  138OSM   C13S15048   5.754   4.019   7.482  0.4504  0.3314  0.2339
  138OSM   H13S15049   5.810   4.096   7.424 -1.8733  1.7118 -0.2407
  138OSM   H13T15050   5.803   3.922   7.457  1.0905  0.5860  0.4814
  138OSM   C14S15051   5.775   4.036   7.638  0.1181 -0.8574  0.5732
  138OSM   H14S15052   5.723   3.954   7.691 -3.7532  1.1006  0.0311
  138OSM   H14T15053   5.728   4.130   7.675  1.6458 -0.0154  0.4497
  138OSM   C15S15054   5.925   4.035   7.667  0.4221 -1.1669  0.2403
  138OSM   H15S15055   5.976   4.105   7.597 -1.5655 -1.3841 -1.4802
  138OSM   H15T15056   5.972   3.940   7.632 -0.5643 -1.4462 -0.3500
  138OSM   C16S15057   5.965   4.042   7.816  0.1677 -0.9104  0.9303
  138OSM   H16S15058   6.067   4.002   7.835  1.7242  1.7696 -1.3918
  138OSM   H16T15059   5.896   3.970   7.865 -1.5583  0.2617  0.2505
  138OSM   C17S15060   5.951   4.182   7.866  0.2140 -1.0310  0.8771
  138OSM   H17S15061   5.855   4.231   7.838 -0.3618 -1.8652  1.3737
  138OSM   H17T15062   6.020   4.259   7.825 -2.3833  1.7324  1.5159
  138OSM   C18S15063   5.965   4.186   8.016 -0.3860 -0.0461 -0.4258
  138OSM   H18S15064   6.057   4.139   8.055 -0.6861 -0.9147 -0.7678
  138OSM   H18T15065   5.881   4.135   8.068  1.2789 -1.5086  0.8794
  138OSM   H18U15066   5.970   4.293   8.047  0.6281  0.2597 -1.5960
  138OSM    C1F15067   5.349   3.413   6.549  0.2919 -0.3844  0.2666
  138OSM     OF15068   5.465   3.394   6.574 -0.0118 -0.7550 -0.5626
  138OSM    C2F15069   5.241   3.314   6.581  0.2054 -0.5501  0.0523
  138OSM    H2F15070   5.178   3.304   6.489  2.0327 -0.4527 -1.2408
  138OSM    H2G15071   5.172   3.355   6.657 -0.4372  1.1803 -1.4205
  138OSM    C3F15072   5.297   3.175   6.603 -0.5542 -0.1598 -0.5635
  138OSM    H3F15073   5.360   3.140   6.518 -0.5387 -1.9458  0.1552
  138OSM    H3G15074   5.221   3.094   6.595  0.3388 -1.1362  0.6375
  138OSM    C4F15075   5.368   3.143   6.738 -0.5868 -0.4762 -0.0895
  138OSM    H4F15076   5.307   3.189   6.818 -1.0360 -1.6243  0.2448
  138OSM    H4G15077   5.470   3.184   6.747 -1.1345  0.5631  1.5019
  138OSM    C5F15078   5.382   2.990   6.762  0.6126  0.7894  0.9730
  138OSM    H5F15079   5.456   2.943   6.694 -2.5459 -2.0535 -0.5960
  138OSM    H5G15080   5.282   2.948   6.740  1.9308 -0.7870 -2.4058
  138OSM    C6F15081   5.411   2.953   6.907 -0.2094 -0.0664  0.1338
  138OSM    H6F15082   5.418   2.844   6.922  1.5660  0.0126 -0.0464
  138OSM    H6G15083   5.333   2.988   6.978  1.5362  0.7630  1.6756
  138OSM    C7F15084   5.546   3.012   6.955 -0.4475  0.1257  0.2120
  138OSM    H7F15085   5.578   3.111   6.915  0.9449  0.4170  1.9770
  138OSM    H7G15086   5.619   2.939   6.915 -0.4933  0.5592 -0.6823
  138OSM    C8F15087   5.567   3.010   7.105 -0.5127 -0.1451 -0.4147
  138OSM    H8F15088   5.675   3.025   7.127 -1.0453 -0.9466  3.0031
  138OSM    H8G15089   5.539   2.905   7.126  0.3731 -0.5966 -1.4764
  138OSM    C9F15090   5.479   3.106   7.186 -0.1768  0.7341  0.3778
  138OSM    H9F15091   5.450   3.195   7.128 -0.2543  0.0140 -0.6999
  138OSM   C10F15092   5.446   3.084   7.313  0.6599 -0.2223 -0.0919
  138OSM   H10F15093   5.389   3.164   7.361  0.0954 -1.1305  0.7671
  138OSM   C11F15094   5.486   2.969   7.404 -1.2127 -0.1671 -0.4567
  138OSM   H11F15095   5.577   2.920   7.364 -0.4505  0.4526  0.5093
  138OSM   H11G15096   5.403   2.896   7.386 -0.0994 -0.6729 -3.7589
  138OSM   C12F15097   5.496   3.009   7.553  0.7854  0.1381 -0.3694
  138OSM   H12F15098   5.473   2.928   7.624  2.0586 -0.1858 -0.3078
  138OSM   H12G15099   5.408   3.073   7.576 -0.3621 -1.3290 -0.6377
  138OSM   C13F15100   5.630   3.068   7.603 -0.2333 -0.0369  0.0769
  138OSM   H13F15101   5.673   3.149   7.541 -3.3455 -0.0017 -2.1399
  138OSM   H13G15102   5.697   2.980   7.593  1.2091  1.1011 -0.4574
  138OSM   C14F15103   5.623   3.109   7.751 -0.0172 -0.2333  0.3862
  138OSM   H14F15104   5.594   3.017   7.807  2.7441 -1.8499 -0.6863
  138OSM   H14G15105   5.550   3.190   7.769 -0.5058 -0.4330 -0.6804
  138OSM   C15F15106   5.760   3.145   7.806 -0.0718 -0.4858  0.2552
  138OSM   H15F15107   5.795   3.240   7.760  0.4050 -0.4053  0.7881
  138OSM   H15G15108   5.842   3.072   7.785  2.0789  1.6491  0.9830
  138OSM   C16F15109   5.750   3.179   7.957 -0.2467  0.4019  0.9767
  138OSM   H16F15110   5.681   3.267   7.956  2.0275  2.2227  0.5697
  138OSM   H16G15111   5.847   3.220   7.992 -0.6538  2.9738 -0.7465
  138OSM   C17F15112   5.731   3.062   8.049  1.0223  0.2403 -0.0057
  138OSM   H17F15113   5.797   2.979   8.017 -0.8694 -1.1399 -0.4377
  138OSM   H17G15114   5.633   3.024   8.012  1.0173  0.0670  0.1815
  138OSM   C18F15115   5.729   3.093   8.193  0.8187  0.7407 -0.7488
  138OSM   H18F15116   5.830   3.129   8.221  1.3727 -0.1721 -1.5203
  138OSM   H18G15117   5.720   3.012   8.268  0.4312 -0.0736 -1.6574
  138OSM   H18H15118   5.657   3.175   8.213 -0.0580 -0.3041  0.4569
  139OSM      N15119   5.414   4.242   6.174 -0.1676  0.0287  0.4461
  139OSM    C1515120   5.513   4.223   6.058  0.7209 -0.5904 -0.2570
  139OSM   H15A15121   5.594   4.295   6.064  0.4657 -0.4651  2.3547
  139OSM   H15B15122   5.466   4.234   5.962 -1.2116 -0.7965  0.6410
  139OSM   H15C15123   5.554   4.124   6.069 -0.6155 -1.1847 -0.5720
  139OSM    C1415124   5.311   4.134   6.160  0.4466  0.1632 -0.5190
  139OSM   H14A15125   5.353   4.049   6.210  2.5467  0.2918 -1.9956
  139OSM   H14B15126   5.268   4.116   6.062 -0.7155  1.0419 -0.1832
  139OSM   H14C15127   5.221   4.165   6.211  0.4605  0.4009 -0.6363
  139OSM    C1315128   5.493   4.227   6.302  0.7735  0.6035 -0.4233
  139OSM   H13A15129   5.528   4.124   6.294 -0.0439  0.4690 -2.6814
  139OSM   H13B15130   5.442   4.228   6.397  2.0102 -2.7955  0.3630
  139OSM   H13C15131   5.569   4.303   6.313  0.4798  0.5783  1.9170
  139OSM    C1215132   5.350   4.377   6.154 -0.2765 -0.5037  0.0157
  139OSM   H12A15133   5.318   4.401   6.054 -1.0292  2.2970  0.8754
  139OSM   H12B15134   5.428   4.451   6.164 -0.6352 -0.2072  0.6353
  139OSM    C1115135   5.237   4.412   6.252  0.0206 -0.1937 -0.2998
  139OSM   H11A15136   5.218   4.520   6.232 -2.6462  0.0510  3.1995
  139OSM   H11B15137   5.272   4.408   6.357  0.5981  0.2663 -0.4706
  139OSM      P15138   4.991   4.403   6.168 -0.4492  0.6092 -0.2547
  139OSM    O1315139   5.004   4.551   6.144  0.0328  0.0987 -0.6069
  139OSM    O1415140   4.935   4.318   6.062  0.1805 -0.0313 -0.1454
  139OSM    O1115141   4.892   4.397   6.288 -0.0364 -0.4089 -0.1612
  139OSM    O1215142   5.115   4.339   6.234 -0.1060  0.8184 -0.4199
  139OSM    C1S15143   4.928   4.422   6.420  0.1504  0.0494 -0.4687
  139OSM    H1S15144   4.998   4.508   6.427 -1.3861  1.6593 -3.8601
  139OSM    H1T15145   4.982   4.334   6.462 -0.7654  0.0687  0.7788
  139OSM     NF15146   4.865   4.484   6.643  0.5036  0.1585 -0.0401
  139OSM    HNF15147   4.874   4.404   6.701 -0.5019 -0.9967 -1.4365
  139OSM    C2S15148   4.809   4.453   6.510  0.2476 -0.4287  0.2800
  139OSM    H2S15149   4.752   4.542   6.477  0.5524 -0.8388 -1.3655
  139OSM    C3S15150   4.707   4.340   6.514 -1.1530 -0.4466  0.6983
  139OSM    H3S15151   4.775   4.259   6.550  0.3972 -0.7698 -2.7354
  139OSM     O315152   4.667   4.306   6.381  0.2339  0.1387 -0.8559
  139OSM    HO315153   4.744   4.334   6.331  1.9383 -3.3919 -0.3172
  139OSM    C4S15154   4.596   4.361   6.603 -0.4958  0.4348  0.1442
  139OSM    H4S15155   4.539   4.453   6.583 -1.5863 -0.5735 -1.4491
  139OSM    C5S15156   4.558   4.284   6.706  0.2225 -0.1834  0.0928
  139OSM    H5S15157   4.627   4.201   6.726  1.1425  0.3524 -0.7650
  139OSM    C6S15158   4.447   4.309   6.801 -0.0472  0.5162 -0.0911
  139OSM    H6S15159   4.367   4.359   6.742  1.1541 -0.6485 -2.7658
  139OSM    H6T15160   4.491   4.368   6.885 -0.9315 -1.5704  1.8827
  139OSM    C7S15161   4.395   4.179   6.865  0.4384  0.5131 -0.1829
  139OSM    H7S15162   4.366   4.111   6.782 -0.9205  1.2284 -0.3149
  139OSM    H7T15163   4.299   4.200   6.917 -0.4072 -2.0468 -0.6708
  139OSM    C8S15164   4.485   4.121   6.965 -0.0792 -0.1433  0.3407
  139OSM    H8S15165   4.595   4.130   6.951 -0.1276 -0.4406 -0.2328
  139OSM    H8T15166   4.474   4.011   6.958  1.6485 -0.2873 -0.2543
  139OSM    C9S15167   4.449   4.160   7.108 -0.8175  0.6344 -0.5222
  139OSM    H9S15168   4.342   4.143   7.136 -1.0721  1.1744 -1.1451
  139OSM    H9T15169   4.452   4.271   7.114  1.4823  0.4395  2.5254
  139OSM   C10S15170   4.542   4.101   7.217  0.5576  0.5683  0.3530
  139OSM   H10S15171   4.643   4.136   7.187  0.1454  1.8154  0.4056
  139OSM   H10T15172   4.543   3.990   7.216 -0.8629  0.5388  0.8363
  139OSM   C11S15173   4.508   4.149   7.359 -0.1119 -0.1515 -0.4887
  139OSM   H11S15174   4.415   4.103   7.400  0.8247 -1.0161  0.6743
  139OSM   H11T15175   4.492   4.259   7.355  1.0686  0.0531  0.2954
  139OSM   C12S15176   4.618   4.110   7.458 -0.7307  0.2307  0.4447
  139OSM   H12S15177   4.708   4.173   7.440  0.4306 -1.2498  0.9571
  139OSM   H12T15178   4.659   4.008   7.440  0.6734  0.7739  0.4445
  139OSM   C13S15179   4.554   4.119   7.601  0.3882 -0.2966  0.0811
  139OSM   H13S15180   4.478   4.039   7.600  0.7088 -0.6039  0.2123
  139OSM   H13T15181   4.491   4.211   7.597  0.7757 -0.0508 -0.3995
  139OSM   C14S15182   4.641   4.102   7.725  0.2380 -0.5452 -0.5035
  139OSM   H14S15183   4.718   4.182   7.733 -1.0232  0.7009 -0.5427
  139OSM   H14T15184   4.711   4.017   7.718  1.3081 -0.1544  3.8821
  139OSM   C15S15185   4.570   4.084   7.864  0.1284 -0.4739 -0.2770
  139OSM   H15S15186   4.527   3.982   7.863 -1.8840  0.3142  1.5170
  139OSM   H15T15187   4.485   4.156   7.870  0.6045  0.0469  0.2511
  139OSM   C16S15188   4.656   4.090   7.985  0.1650  0.2516 -0.4544
  139OSM   H16S15189   4.588   4.074   8.071  0.6532 -0.4376 -0.1974
  139OSM   H16T15190   4.703   4.189   8.002 -1.5579  1.1378 -0.6960
  139OSM   C17S15191   4.759   3.975   7.992  0.0570  0.2482 -0.0317
  139OSM   H17S15192   4.813   3.984   7.895 -0.2954  0.6387 -0.1962
  139OSM   H17T15193   4.712   3.876   8.010  1.2288 -0.3949 -0.4708
  139OSM   C18S15194   4.858   3.999   8.105 -0.1481 -0.4581 -0.1877
  139OSM   H18S15195   4.795   4.006   8.196 -0.3024 -0.1714 -0.3192
  139OSM   H18T15196   4.914   4.094   8.094 -0.1932 -0.1012  2.2506
  139OSM   H18U15197   4.934   3.919   8.124 -0.7735 -0.4171  2.8183
  139OSM    C1F15198   4.928   4.601   6.669  0.1608 -0.8113 -0.0264
  139OSM     OF15199   4.934   4.688   6.586 -0.4853 -0.3424 -0.0192
  139OSM    C2F15200   4.994   4.595   6.812  0.0624 -0.0089  0.0478
  139OSM    H2F15201   5.016   4.487   6.829 -1.6057 -0.2999  0.4434
  139OSM    H2G15202   4.925   4.640   6.886  2.5643  0.8141  1.9306
  139OSM    C3F15203   5.115   4.690   6.812  0.3142 -0.0116 -0.3497
  139OSM    H3F15204   5.078   4.792   6.787 -2.4483 -0.8354  0.2264
  139OSM    H3G15205   5.192   4.652   6.742  0.6257  2.2590 -1.3066
  139OSM    C4F15206   5.175   4.694   6.946 -0.0604  0.1127 -0.5167
  139OSM    H4F15207   5.280   4.728   6.959 -0.0892 -0.8028  2.5619
  139OSM    H4G15208   5.178   4.592   6.991 -2.2967  0.6044  0.8350
  139OSM    C5F15209   5.116   4.793   7.037  0.1933  0.4231 -0.3110
  139OSM    H5F15210   5.005   4.785   7.044  0.2744  0.2329  0.7814
  139OSM    H5G15211   5.146   4.897   7.012  2.7637 -0.7184 -2.2206
  139OSM    C6F15212   5.169   4.763   7.179  0.1385 -0.1300 -0.1112
  139OSM    H6F15213   5.279   4.753   7.178  0.1428 -0.1176  0.2627
  139OSM    H6G15214   5.138   4.660   7.210  0.5594 -0.7450 -1.6550
  139OSM    C7F15215   5.120   4.868   7.281 -0.0327  0.2607 -0.3754
  139OSM    H7F15216   5.014   4.849   7.308 -0.2327 -1.1254 -2.0204
  139OSM    H7G15217   5.137   4.969   7.237  0.1305  0.4932  0.2238
  139OSM    C8F15218   5.193   4.849   7.411  0.0501  0.0930 -0.9954
  139OSM    H8F15219   5.303   4.837   7.407  0.2743  1.5754  0.4094
  139OSM    H8G15220   5.162   4.752   7.456 -1.0372 -0.0111 -1.9292
  139OSM    C9F15221   5.158   4.963   7.499  0.2345 -0.0001 -0.9713
  139OSM    H9F15222   5.213   5.054   7.470 -0.7277  0.7637 -0.4276
  139OSM   C10F15223   5.092   4.964   7.612 -0.0372  0.4180  0.0061
  139OSM   H10F15224   5.080   5.060   7.665 -1.0854  0.0980  0.3595
  139OSM   C11F15225   5.030   4.848   7.680  0.5092 -0.3053 -0.4156
  139OSM   H11F15226   5.031   4.747   7.634 -2.5798 -1.4959  1.9398
  139OSM   H11G15227   4.922   4.875   7.674 -0.1380 -2.7131 -0.2201
  139OSM   C12F15228   5.077   4.812   7.821  0.3090  0.2921 -0.5335
  139OSM   H12F15229   5.025   4.734   7.880 -2.8680  0.6665 -2.7304
  139OSM   H12G15230   5.063   4.903   7.884 -0.7269  1.7402 -2.7942
  139OSM   C13F15231   5.228   4.778   7.816 -0.3214 -0.1554  0.2434
  139OSM   H13F15232   5.286   4.845   7.749 -0.1824  0.7988  1.2964
  139OSM   H13G15233   5.233   4.679   7.766 -0.4936 -0.3241  0.5644
  139OSM   C14F15234   5.296   4.775   7.955  0.0584 -0.6006  0.4967
  139OSM   H14F15235   5.285   4.871   8.010  1.1658  0.6598 -1.4365
  139OSM   H14G15236   5.405   4.761   7.934  0.4293  0.8248  1.4263
  139OSM   C15F15237   5.248   4.653   8.033 -0.6312 -0.5076  0.7625
  139OSM   H15F15238   5.346   4.620   8.074 -0.2028  2.3016  2.1030
  139OSM   H15G15239   5.219   4.582   7.952  0.5243  4.3141 -4.1971
  139OSM   C16F15240   5.137   4.665   8.141  0.3515 -0.0293  0.5140
  139OSM   H16F15241   5.052   4.723   8.098  0.3369  0.2344  0.9038
  139OSM   H16G15242   5.171   4.724   8.228 -0.6247 -0.5231  1.2524
  139OSM   C17F15243   5.078   4.525   8.184 -0.3677  0.2543  0.5347
  139OSM   H17F15244   5.153   4.465   8.239 -0.9072 -0.1904  0.7858
  139OSM   H17G15245   5.047   4.481   8.087  0.9177 -1.0285  0.6896
  139OSM   C18F15246   4.960   4.541   8.276  0.6215 -0.1943  0.4042
  139OSM   H18F15247   4.911   4.638   8.256  0.5030 -0.6520 -1.6381
  139OSM   H18G15248   4.992   4.548   8.382  0.4632  2.2051  0.3080
  139OSM   H18H15249   4.889   4.457   8.263  0.7612 -0.1632 -0.6775
  140OSM      N15250   5.313   6.735   6.534 -0.1921  0.3770 -0.2081
  140OSM    C1515251   5.290   6.798   6.399 -0.3364 -0.8010 -0.0749
  140OSM   H15A15252   5.299   6.905   6.405 -2.1860 -0.4325 -2.7957
  140OSM   H15B15253   5.191   6.778   6.361 -0.5029 -0.3065  0.1048
  140OSM   H15C15254   5.352   6.770   6.315  2.1352 -0.7029  1.6809
  140OSM    C1415255   5.450   6.784   6.574 -0.5382 -0.1220 -0.7713
  140OSM   H14A15256   5.451   6.891   6.563  0.4744 -0.1653 -1.1471
  140OSM   H14B15257   5.526   6.728   6.522  0.7658  0.8295  0.0895
  140OSM   H14C15258   5.468   6.765   6.679  2.2231 -0.3227 -1.2328
  140OSM    C1315259   5.203   6.801   6.619 -0.2984  0.3662  0.0854
  140OSM   H13A15260   5.202   6.751   6.715  1.7324  0.0907 -0.0198
  140OSM   H13B15261   5.116   6.763   6.569 -1.0176  1.4678  0.4906
  140OSM   H13C15262   5.221   6.907   6.610  1.9273  0.0645  0.5367
  140OSM    C1215263   5.303   6.586   6.523  0.4168 -0.1142 -0.1780
  140OSM   H12A15264   5.327   6.533   6.614 -2.5269 -0.9531  0.1637
  140OSM   H12B15265   5.383   6.555   6.458  0.2138  0.5757 -0.7731
  140OSM    C1115266   5.161   6.533   6.474 -0.1740 -0.7984 -0.3918
  140OSM   H11A15267   5.158   6.422   6.463 -0.4968 -1.1106  2.5536
  140OSM   H11B15268   5.166   6.577   6.372 -2.9941  0.7267  0.1027
  140OSM      P15269   4.913   6.596   6.466 -0.5263  0.1244  0.5171
  140OSM    O1315270   4.849   6.719   6.512  0.0988 -0.3459  0.0696
  140OSM    O1415271   4.943   6.588   6.319 -0.3080  0.1759 -0.3850
  140OSM    O1115272   4.817   6.472   6.506 -0.1085  0.0819  0.1417
  140OSM    O1215273   5.048   6.584   6.540  0.0707  0.0827  0.0819
  140OSM    C1S15274   4.853   6.360   6.597  0.0419 -0.3658  0.0339
  140OSM    H1S15275   4.953   6.381   6.640 -0.0232  0.0275 -0.0048
  140OSM    H1T15276   4.867   6.265   6.541 -1.9944 -0.4731 -0.3340
  140OSM     NF15277   4.785   6.233   6.792 -0.4301  0.4531  0.4180
  140OSM    HNF15278   4.738   6.146   6.785  2.7552 -1.1800 -1.5733
  140OSM    C2S15279   4.743   6.339   6.709  0.6369  0.3664  1.2961
  140OSM    H2S15280   4.721   6.434   6.762 -0.7841  0.8126 -0.0556
  140OSM    C3S15281   4.601   6.313   6.636 -0.1827 -0.1261 -0.1185
  140OSM    H3S15282   4.621   6.222   6.577 -0.8703 -0.5861  0.3428
  140OSM     O315283   4.550   6.412   6.549  0.1130 -0.3218  0.2746
  140OSM    HO315284   4.613   6.484   6.544  1.0494 -1.3342 -3.3296
  140OSM    C4S15285   4.490   6.282   6.740  0.3898 -0.7544  0.5922
  140OSM    H4S15286   4.492   6.176   6.769 -5.1497 -0.8235  1.2891
  140OSM    C5S15287   4.401   6.364   6.800  0.5019  0.0390  0.2167
  140OSM    H5S15288   4.396   6.472   6.784 -0.3701 -0.0580 -0.1927
  140OSM    C6S15289   4.313   6.299   6.911  0.4293  0.4600  0.2576
  140OSM    H6S15290   4.321   6.189   6.908 -0.8235  0.3681 -0.3884
  140OSM    H6T15291   4.204   6.323   6.905  0.1848 -0.4458  1.0463
  140OSM    C7S15292   4.363   6.343   7.053 -0.0376 -0.2384 -0.1311
  140OSM    H7S15293   4.378   6.452   7.066  1.1602 -0.3166 -0.7758
  140OSM    H7T15294   4.460   6.297   7.081  0.9243  1.7841 -0.0980
  140OSM    C8S15295   4.266   6.288   7.158 -0.5938  0.0841  0.0516
  140OSM    H8S15296   4.246   6.181   7.137 -1.4942  0.0368  1.1001
  140OSM    H8T15297   4.164   6.331   7.154  0.4398  2.6198  0.1756
  140OSM    C9S15298   4.322   6.324   7.304 -0.4706 -0.3573 -0.0548
  140OSM    H9S15299   4.319   6.434   7.319  1.6047 -0.0880 -1.5037
  140OSM    H9T15300   4.430   6.303   7.313 -0.3071  0.3943 -0.2860
  140OSM   C10S15301   4.242   6.254   7.420  0.2455  0.0466  0.0805
  140OSM   H10S15302   4.222   6.148   7.394 -1.3873  0.1003  1.1243
  140OSM   H10T15303   4.153   6.319   7.426 -1.0294 -1.2206 -3.4767
  140OSM   C11S15304   4.311   6.255   7.550  0.0353  0.1018  0.2535
  140OSM   H11S15305   4.334   6.352   7.600 -1.7221 -0.2501  1.8047
  140OSM   H11T15306   4.411   6.207   7.547  1.2459  2.4482  1.3904
  140OSM   C12S15307   4.228   6.187   7.663  0.5595 -0.5272 -0.3185
  140OSM   H12S15308   4.231   6.076   7.659 -1.1236 -0.5088 -2.6078
  140OSM   H12T15309   4.120   6.206   7.645  0.8903  1.5715 -0.1773
  140OSM   C13S15310   4.275   6.234   7.808  0.4965  0.0415 -0.4319
  140OSM   H13S15311   4.244   6.341   7.810 -2.8021 -0.8628  0.1254
  140OSM   H13T15312   4.385   6.217   7.807  0.1532 -2.1606 -1.8607
  140OSM   C14S15313   4.200   6.181   7.935 -0.1772  0.1131 -0.2104
  140OSM   H14S15314   4.187   6.070   7.932 -2.8070  0.3984 -0.7123
  140OSM   H14T15315   4.093   6.210   7.926  0.0419  0.3760 -2.3893
  140OSM   C15S15316   4.262   6.228   8.069 -1.0317  0.5548 -0.2632
  140OSM   H15S15317   4.189   6.228   8.153  1.0535 -1.9583  1.6096
  140OSM   H15T15318   4.286   6.337   8.062  3.0140 -0.3267 -1.0113
  140OSM   C16S15319   4.382   6.137   8.119  0.0717 -0.8890 -0.0024
  140OSM   H16S15320   4.478   6.173   8.077 -1.2452  0.0700 -2.2146
  140OSM   H16T15321   4.359   6.032   8.092  1.6043 -1.6425  1.4502
  140OSM   C17S15322   4.403   6.143   8.271  0.3319 -0.2384  0.1436
  140OSM   H17S15323   4.312   6.097   8.315 -1.3548  1.1416 -1.7804
  140OSM   H17T15324   4.420   6.248   8.305 -1.5827 -0.0504  0.6019
  140OSM   C18S15325   4.529   6.071   8.303  0.2616 -0.0564 -0.5364
  140OSM   H18S15326   4.570   6.092   8.404 -0.9872 -1.8161  0.3715
  140OSM   H18T15327   4.611   6.114   8.242  0.3488  0.6743  0.0785
  140OSM   H18U15328   4.531   5.962   8.285  0.5077 -0.5272  2.0692
  140OSM    C1F15329   4.900   6.250   6.871 -0.0541 -0.2831  0.0821
  140OSM     OF15330   4.971   6.348   6.863  0.0961 -0.5449  0.5987
  140OSM    C2F15331   4.932   6.146   6.970  0.6753 -0.4121  0.5749
  140OSM    H2F15332   4.937   6.046   6.921  2.9519 -1.5950  3.0992
  140OSM    H2G15333   4.859   6.153   7.054  1.5378 -0.9182  1.3773
  140OSM    C3F15334   5.083   6.173   7.010  0.1637 -1.0809  0.6624
  140OSM    H3F15335   5.077   6.272   7.060 -1.5143 -0.5613 -0.5143
  140OSM    H3G15336   5.154   6.164   6.925  1.1737  0.6888  1.2792
  140OSM    C4F15337   5.131   6.074   7.116  0.2725 -0.4359  0.0695
  140OSM    H4F15338   5.220   6.121   7.164 -1.6717  2.4131  0.9609
  140OSM    H4G15339   5.161   5.978   7.069  0.0246 -1.1691  1.3967
  140OSM    C5F15340   5.033   6.037   7.236 -0.0366  0.2803  0.7784
  140OSM    H5F15341   5.078   5.965   7.309 -2.7354  0.4596  2.6812
  140OSM    H5G15342   4.940   5.990   7.198  1.8141 -3.0456  0.1521
  140OSM    C6F15343   4.991   6.151   7.323 -0.3782 -0.3002 -0.6573
  140OSM    H6F15344   4.966   6.244   7.268 -2.2591  0.2081  1.0021
  140OSM    H6G15345   5.071   6.179   7.395  0.6693  0.3946 -2.0842
  140OSM    C7F15346   4.873   6.105   7.416  0.4903  0.6964  0.6808
  140OSM    H7F15347   4.900   6.007   7.462 -1.0106  1.3187  2.9131
  140OSM    H7G15348   4.785   6.081   7.354  4.5581 -0.9473 -4.9036
  140OSM    C8F15349   4.838   6.188   7.534  0.2349 -0.0325 -0.2108
  140OSM    H8F15350   4.797   6.283   7.494 -0.6063  0.1359  1.0280
  140OSM    H8G15351   4.926   6.220   7.594  0.2524 -3.7413  1.9454
  140OSM    C9F15352   4.731   6.140   7.626  1.1633 -0.0905  0.1741
  140OSM    H9F15353   4.627   6.165   7.601  0.0013 -4.3402  0.2823
  140OSM   C10F15354   4.748   6.090   7.754  0.4358 -0.0634 -0.1886
  140OSM   H10F15355   4.654   6.065   7.804  0.8702 -0.6065  0.3640
  140OSM   C11F15356   4.875   6.053   7.816  0.0050  0.1154  0.1207
  140OSM   H11F15357   4.907   6.132   7.888 -0.9987 -0.6662  1.4328
  140OSM   H11G15358   4.956   6.036   7.742 -0.8314  0.5207 -0.9089
  140OSM   C12F15359   4.840   5.922   7.889 -0.6334  0.0557 -0.4934
  140OSM   H12F15360   4.940   5.874   7.893 -0.9452 -0.6155 -0.7534
  140OSM   H12G15361   4.772   5.855   7.832  0.1865 -2.4176  1.3370
  140OSM   C13F15362   4.797   5.926   8.030 -0.0967  0.4799  0.8318
  140OSM   H13F15363   4.692   5.962   8.030 -1.2147 -2.6341  1.3926
  140OSM   H13G15364   4.857   5.999   8.089 -1.1041  1.6141  0.4645
  140OSM   C14F15365   4.818   5.795   8.111 -0.0782  0.2711 -0.1607
  140OSM   H14F15366   4.918   5.806   8.157 -0.9115  1.3170  1.4586
  140OSM   H14G15367   4.812   5.710   8.040  2.0996  0.0415 -0.1011
  140OSM   C15F15368   4.708   5.757   8.216 -1.1972  0.2848 -1.0134
  140OSM   H15F15369   4.609   5.766   8.168 -0.7563  1.5844 -1.6863
  140OSM   H15G15370   4.709   5.828   8.302 -1.4532 -1.7270  0.7063
  140OSM   C16F15371   4.716   5.607   8.265  0.3302 -0.4351 -0.3053
  140OSM   H16F15372   4.722   5.542   8.175 -0.4601  0.7475 -1.2275
  140OSM   H16G15373   4.616   5.591   8.310  0.9510  0.3552  1.3929
  140OSM   C17F15374   4.835   5.566   8.362  0.7391 -0.6288 -0.3491
  140OSM   H17F15375   4.798   5.481   8.424 -0.9805 -0.1845 -0.7291
  140OSM   H17G15376   4.858   5.636   8.445  0.2401 -1.2208  0.3008
  140OSM   C18F15377   4.965   5.514   8.295 -0.2864  0.2450 -0.1736
  140OSM   H18F15378   5.024   5.598   8.254 -1.2966  0.3274 -1.4889
  140OSM   H18G15379   4.930   5.445   8.215 -1.4119  0.1399  0.4019
  140OSM   H18H15380   5.025   5.447   8.361 -1.3038 -3.3281 -2.6979
  141OSM      N15381   4.405   1.603   6.040  0.0057 -0.0576  0.2244
  141OSM    C1515382   4.494   1.677   5.939 -0.8792 -0.5292  0.1316
  141OSM   H15A15383   4.451   1.773   5.915  0.1912  0.3349  1.5884
  141OSM   H15B15384   4.511   1.624   5.847  0.8210 -1.2979  0.8648
  141OSM   H15C15385   4.582   1.692   6.000 -1.7016 -0.2261  1.2519
  141OSM    C1415386   4.272   1.561   5.980 -0.1832 -0.4702  0.1556
  141OSM   H14A15387   4.209   1.504   6.047  0.7012  0.9504  2.2338
  141OSM   H14B15388   4.297   1.492   5.900 -2.6030 -1.3406  0.1133
  141OSM   H14C15389   4.225   1.647   5.936 -0.9581 -0.8953  0.1415
  141OSM    C1315390   4.478   1.487   6.095  0.5237 -1.6847  0.7486
  141OSM   H13A15391   4.497   1.414   6.018 -0.5065 -1.0553 -0.1272
  141OSM   H13B15392   4.427   1.437   6.175 -0.9431  1.6147  1.9819
  141OSM   H13C15393   4.573   1.514   6.139  0.3654  2.0846 -1.0281
  141OSM    C1215394   4.363   1.694   6.147  0.3631  0.1482 -0.0923
  141OSM   H12A15395   4.303   1.774   6.105  1.0728  1.5693  1.5514
  141OSM   H12B15396   4.451   1.743   6.186  0.7807 -0.2014 -0.5885
  141OSM    C1115397   4.287   1.633   6.268  0.2538  0.2101 -0.8717
  141OSM   H11A15398   4.343   1.554   6.322  0.7811  1.3130  0.1931
  141OSM   H11B15399   4.193   1.593   6.224 -1.3694  0.7624  2.0342
  141OSM      P15400   4.106   1.792   6.355 -0.1703 -0.1026 -0.3074
  141OSM    O1315401   4.107   1.919   6.430  0.2272  0.3255 -0.4786
  141OSM    O1415402   4.065   1.810   6.218 -0.4088  0.1592  0.3401
  141OSM    O1115403   4.018   1.687   6.425 -0.5540  0.2765  0.3418
  141OSM    O1215404   4.254   1.738   6.357 -0.5866  0.4734 -0.2889
  141OSM    C1S15405   4.075   1.597   6.522 -0.3369 -0.4870 -0.2354
  141OSM    H1S15406   4.152   1.657   6.575 -2.7285  4.2992 -1.8886
  141OSM    H1T15407   4.131   1.514   6.476 -1.7058 -2.9331  2.3320
  141OSM     NF15408   4.037   1.491   6.732  0.5467  0.0653 -0.5208
  141OSM    HNF15409   4.026   1.393   6.744  0.2819 -0.0997 -1.9958
  141OSM    C2S15410   3.970   1.548   6.617 -0.6649  0.2428  0.4379
  141OSM    H2S15411   3.895   1.624   6.649  0.3455  0.9145  1.2405
  141OSM    C3S15412   3.881   1.439   6.552  0.0467 -0.0025 -0.5708
  141OSM    H3S15413   3.955   1.362   6.522 -2.4045 -2.3436 -0.8206
  141OSM     O315414   3.812   1.483   6.440 -0.1586 -0.3851  0.3720
  141OSM    HO315415   3.874   1.548   6.407  0.6167 -0.5966  1.3784
  141OSM    C4S15416   3.777   1.383   6.648 -0.7022  0.1783  0.6130
  141OSM    H4S15417   3.817   1.286   6.682 -0.4712 -0.2909 -0.9820
  141OSM    C5S15418   3.656   1.418   6.682 -0.1801  0.9667 -0.3988
  141OSM    H5S15419   3.605   1.495   6.623 -1.4210  3.2521  3.4883
  141OSM    C6S15420   3.577   1.335   6.771  0.1876 -0.0996 -0.0178
  141OSM    H6S15421   3.517   1.266   6.708 -0.9414  0.9996 -0.1658
  141OSM    H6T15422   3.501   1.397   6.824 -0.2236  1.0056 -1.8634
  141OSM    C7S15423   3.643   1.244   6.875  0.2278  0.2107 -0.6991
  141OSM    H7S15424   3.729   1.299   6.919 -0.4742  1.2320 -0.5808
  141OSM    H7T15425   3.700   1.164   6.823 -2.8194  0.0608 -4.0523
  141OSM    C8S15426   3.563   1.197   6.991 -0.2315  0.0464 -0.3636
  141OSM    H8S15427   3.477   1.132   6.964 -0.2647 -0.9609  2.1062
  141OSM    H8T15428   3.511   1.280   7.043 -0.5722 -1.4679  1.7726
  141OSM    C9S15429   3.649   1.123   7.097  0.3406  0.6322  0.3151
  141OSM    H9S15430   3.737   1.184   7.128  1.1940 -0.4034 -0.0247
  141OSM    H9T15431   3.694   1.029   7.060  0.8931  1.0047  0.0344
  141OSM   C10S15432   3.562   1.102   7.222  0.8234  0.4708  0.6484
  141OSM   H10S15433   3.504   1.009   7.203  0.9557  0.3446  0.8635
  141OSM   H10T15434   3.498   1.190   7.242  1.6581  0.8704  1.6094
  141OSM   C11S15435   3.637   1.064   7.345 -0.7777 -0.1840  0.0166
  141OSM   H11S15436   3.727   1.128   7.352 -1.3641  0.7485 -0.8470
  141OSM   H11T15437   3.689   0.970   7.314  1.7573  1.2329 -0.1696
  141OSM   C12S15438   3.561   1.067   7.471 -0.3117 -0.6524 -0.2617
  141OSM   H12S15439   3.471   1.003   7.463 -0.9740 -0.1049  2.4265
  141OSM   H12T15440   3.539   1.172   7.499  0.9801 -0.5578  0.4456
  141OSM   C13S15441   3.652   1.022   7.594  0.3859 -0.7852  0.9762
  141OSM   H13S15442   3.732   1.093   7.621 -0.7648  0.8567  0.1483
  141OSM   H13T15443   3.692   0.924   7.560 -1.1124 -0.6003 -1.4615
  141OSM   C14S15444   3.566   1.004   7.726  0.3450  0.1720  0.6941
  141OSM   H14S15445   3.474   0.942   7.715 -0.2858  1.3606 -0.9728
  141OSM   H14T15446   3.549   1.106   7.767  1.0115  1.3260 -1.7923
  141OSM   C15S15447   3.642   0.923   7.837  0.1214 -0.1609  0.4818
  141OSM   H15S15448   3.749   0.945   7.822 -0.3126  1.2146 -0.7876
  141OSM   H15T15449   3.621   0.815   7.819  2.8614 -1.0336  2.2331
  141OSM   C16S15450   3.600   0.946   7.989 -0.8928 -0.2629 -0.3746
  141OSM   H16S15451   3.668   0.879   8.047 -0.3773  0.2139 -0.4316
  141OSM   H16T15452   3.503   0.895   8.006 -0.6418 -1.2277 -1.6979
  141OSM   C17S15453   3.621   1.092   8.032  0.0694  0.4195 -0.4560
  141OSM   H17S15454   3.546   1.151   7.975  1.5178  0.5546 -2.2518
  141OSM   H17T15455   3.711   1.136   7.985  0.0891  1.3302  0.4131
  141OSM   C18S15456   3.615   1.112   8.177  0.5095  0.2686  0.2420
  141OSM   H18S15457   3.670   1.037   8.236  1.1782  0.9165  0.4436
  141OSM   H18T15458   3.509   1.117   8.209  0.6392 -0.1305  0.7228
  141OSM   H18U15459   3.651   1.213   8.206 -1.4038  1.2241 -0.5837
  141OSM    C1F15460   4.085   1.564   6.835  0.1659 -1.3400 -0.4662
  141OSM     OF15461   4.099   1.684   6.828 -0.1759  0.0186 -0.0978
  141OSM    C2F15462   4.135   1.489   6.964  0.5008 -0.2989 -0.2807
  141OSM    H2F15463   4.204   1.558   7.017  1.1786 -1.6644  0.6018
  141OSM    H2G15464   4.198   1.402   6.936  0.2634 -0.7724  0.6606
  141OSM    C3F15465   4.013   1.448   7.064 -0.6439  0.0869  0.2586
  141OSM    H3F15466   3.958   1.364   7.017 -0.4934 -0.7741  1.5721
  141OSM    H3G15467   3.953   1.541   7.075 -1.1094 -0.2833  0.9118
  141OSM    C4F15468   4.061   1.425   7.201 -0.3133 -0.1386  0.4217
  141OSM    H4F15469   4.084   1.517   7.259 -1.3954  0.2218  0.2950
  141OSM    H4G15470   4.148   1.356   7.197 -1.4072 -1.5468  0.3248
  141OSM    C5F15471   3.954   1.351   7.289 -0.3569 -0.2854  0.1684
  141OSM    H5F15472   3.967   1.241   7.280  0.2966 -0.0554 -1.8614
  141OSM    H5G15473   3.852   1.378   7.254 -1.1131 -1.3938  1.4655
  141OSM    C6F15474   3.961   1.397   7.441 -0.1756 -0.0315 -0.1291
  141OSM    H6F15475   3.910   1.495   7.447 -0.3811 -0.0990 -0.7971
  141OSM    H6G15476   4.068   1.415   7.462 -0.0735  0.1189 -0.7812
  141OSM    C7F15477   3.894   1.304   7.547 -0.1207 -0.5166 -0.1252
  141OSM    H7F15478   3.961   1.217   7.565 -0.9986 -1.3919 -1.0296
  141OSM    H7G15479   3.792   1.274   7.514 -0.0190 -0.2141 -0.7172
  141OSM    C8F15480   3.885   1.376   7.684 -0.2368  0.0800 -0.0005
  141OSM    H8F15481   3.826   1.301   7.742  1.5577 -0.9260  0.5472
  141OSM    H8G15482   3.829   1.472   7.676  0.6051  0.5693  0.0010
  141OSM    C9F15483   4.018   1.411   7.748  0.0049 -0.3130  0.0835
  141OSM    H9F15484   4.081   1.466   7.677 -2.1985  1.6547 -0.4158
  141OSM   C10F15485   4.062   1.383   7.872 -0.5504 -0.5568  0.8991
  141OSM   H10F15486   4.165   1.413   7.899 -0.5835 -1.2644  1.8373
  141OSM   C11F15487   3.983   1.317   7.975  0.0508 -0.2392  0.2277
  141OSM   H11F15488   4.034   1.220   7.996 -0.6822 -0.3147  1.6711
  141OSM   H11G15489   3.879   1.295   7.942  1.2694 -2.9351 -2.0352
  141OSM   C12F15490   3.998   1.403   8.102  0.7418 -0.5780 -0.6209
  141OSM   H12F15491   3.936   1.495   8.094  1.2514 -0.1859 -0.1192
  141OSM   H12G15492   4.100   1.442   8.123  0.5056 -0.3861  0.1859
  141OSM   C13F15493   3.947   1.350   8.232 -0.0584 -0.3392 -0.2604
  141OSM   H13F15494   4.006   1.262   8.265 -0.9346 -0.3857  1.1877
  141OSM   H13G15495   3.840   1.321   8.231  0.8963 -4.1336 -1.8814
  141OSM   C14F15496   3.971   1.457   8.342 -0.0454 -0.8001  0.2142
  141OSM   H14F15497   3.902   1.541   8.320  1.5929  0.1999 -1.2693
  141OSM   H14G15498   4.068   1.510   8.330 -0.6364  0.4473  0.8942
  141OSM   C15F15499   3.953   1.408   8.491  0.8925  0.0604  0.1274
  141OSM   H15F15500   4.042   1.351   8.524  0.8946  0.8665  1.5462
  141OSM   H15G15501   3.860   1.348   8.501 -0.7901  2.3581 -1.2078
  141OSM   C16F15502   3.929   1.527   8.589 -0.7218  0.1895  0.1817
  141OSM   H16F15503   3.832   1.581   8.579 -0.6679  0.7274  2.4188
  141OSM   H16G15504   4.008   1.604   8.576 -2.3431  1.9615  0.5516
  141OSM   C17F15505   3.945   1.480   8.733  0.2915 -0.0197  0.2416
  141OSM   H17F15506   4.040   1.423   8.724 -0.9009 -1.5539 -3.6011
  141OSM   H17G15507   3.862   1.408   8.749  2.8090 -2.6109  1.9964
  141OSM   C18F15508   3.956   1.596   8.828  0.0383 -0.8929  0.2415
  141OSM   H18F15509   3.855   1.626   8.863 -1.1080 -2.7754 -1.3550
  141OSM   H18G15510   3.999   1.690   8.786 -1.1922 -1.3681 -2.1483
  141OSM   H18H15511   4.016   1.570   8.918 -0.4486 -3.0533 -0.0290
  142OSM      N15512   4.779   2.460   6.143 -0.6705 -0.1366 -0.5535
  142OSM    C1515513   4.786   2.582   6.057 -0.0464  0.8528  0.3559
  142OSM   H15A15514   4.839   2.657   6.114  1.2725 -0.4716  0.9132
  142OSM   H15B15515   4.697   2.634   6.026 -0.4822  0.1836  0.4833
  142OSM   H15C15516   4.843   2.563   5.967 -0.0116 -2.3087  0.9863
  142OSM    C1415517   4.730   2.356   6.055 -0.3173  0.4617  0.1292
  142OSM   H14A15518   4.629   2.372   6.021 -0.6203 -2.4492 -0.4443
  142OSM   H14B15519   4.744   2.258   6.100 -1.4776  0.5372  0.6692
  142OSM   H14C15520   4.778   2.361   5.959 -0.5551 -3.0483 -0.2390
  142OSM    C1315521   4.918   2.428   6.189  0.2583 -0.3784 -0.4940
  142OSM   H13A15522   4.989   2.431   6.108  2.5202  0.1832  1.4843
  142OSM   H13B15523   4.917   2.324   6.218 -2.2524  0.0132  1.0265
  142OSM   H13C15524   4.963   2.494   6.262  0.1004 -0.8676  0.0494
  142OSM    C1215525   4.673   2.468   6.261  0.1202 -0.7009 -0.2746
  142OSM   H12A15526   4.671   2.372   6.310 -1.4637 -0.8354 -0.5943
  142OSM   H12B15527   4.579   2.500   6.220 -0.3080 -1.6518 -0.0532
  142OSM    C1115528   4.712   2.551   6.385 -0.2331 -0.9927  0.4594
  142OSM   H11A15529   4.809   2.509   6.420  1.6347  0.9269 -2.2499
  142OSM   H11B15530   4.635   2.556   6.465 -2.9229  2.2128 -2.1878
  142OSM      P15531   4.629   2.790   6.303 -0.4269  0.0708 -0.7437
  142OSM    O1315532   4.690   2.918   6.256 -0.3360 -0.0231 -0.3692
  142OSM    O1415533   4.518   2.735   6.224  0.3206 -0.1720  0.1995
  142OSM    O1115534   4.568   2.827   6.447  0.6592  0.5986 -0.2884
  142OSM    O1215535   4.737   2.686   6.337 -0.1520  0.7064 -0.1008
  142OSM    C1S15536   4.678   2.866   6.539 -0.4346  0.2959 -0.1703
  142OSM    H1S15537   4.729   2.961   6.511 -0.3935  0.4010  0.2541
  142OSM    H1T15538   4.752   2.785   6.557 -0.6093  0.8592  3.3735
  142OSM     NF15539   4.755   2.951   6.764  0.3242  0.3540 -0.0296
  142OSM    HNF15540   4.784   2.908   6.850  0.0457 -3.3618 -1.7054
  142OSM    C2S15541   4.632   2.907   6.690  0.0059  0.8427 -0.4942
  142OSM    H2S15542   4.563   2.993   6.679 -2.5598 -0.9705  0.9491
  142OSM    C3S15543   4.538   2.799   6.757  0.0973 -0.2547 -0.3594
  142OSM    H3S15544   4.593   2.704   6.776  0.4624  0.0508  0.1352
  142OSM     O315545   4.425   2.764   6.674  0.3420 -1.0781 -0.1800
  142OSM    HO315546   4.452   2.809   6.594 -0.5738  1.4594  0.8957
  142OSM    C4S15547   4.493   2.855   6.885  0.2135 -0.6417  0.7606
  142OSM    H4S15548   4.455   2.959   6.885  0.0882 -0.6876  0.8210
  142OSM    C5S15549   4.481   2.783   6.996 -0.1929 -0.1489 -0.4734
  142OSM    H5S15550   4.509   2.677   6.994  1.0539  0.1620  0.2225
  142OSM    C6S15551   4.426   2.840   7.127 -0.0050  0.5444  0.2889
  142OSM    H6S15552   4.351   2.770   7.171  0.9709 -1.0621 -0.5884
  142OSM    H6T15553   4.410   2.949   7.111  1.8588  0.9182  0.8598
  142OSM    C7S15554   4.541   2.868   7.231 -0.1530  0.3780 -0.1487
  142OSM    H7S15555   4.615   2.933   7.179 -0.1835 -0.8395 -1.7430
  142OSM    H7T15556   4.598   2.777   7.258  0.5845  1.8807  3.7707
  142OSM    C8S15557   4.499   2.925   7.371 -0.2867  0.6554 -0.0817
  142OSM    H8S15558   4.436   2.849   7.422 -1.7477  3.5501  2.5902
  142OSM    H8T15559   4.423   3.003   7.349 -2.2386 -0.8532  1.1514
  142OSM    C9S15560   4.606   2.969   7.466 -0.6731 -0.5980  0.6356
  142OSM    H9S15561   4.642   3.072   7.445 -1.7991 -0.0097  1.5852
  142OSM    H9T15562   4.688   2.894   7.456  0.5183  0.6160  1.1058
  142OSM   C10S15563   4.560   2.971   7.618  0.2507 -0.4389  0.2374
  142OSM   H10S15564   4.519   2.871   7.640 -0.9920  0.3523  1.5360
  142OSM   H10T15565   4.480   3.047   7.628  0.3367 -0.5659  1.8992
  142OSM   C11S15566   4.675   3.003   7.717 -0.5946  0.2046  0.4736
  142OSM   H11S15567   4.701   3.111   7.716 -0.2400  0.1481  2.0114
  142OSM   H11T15568   4.766   2.943   7.695  0.2453  0.7358  2.4142
  142OSM   C12S15569   4.648   2.953   7.856  0.5237 -0.8890 -0.4802
  142OSM   H12S15570   4.629   2.844   7.856 -0.9201 -0.6635  1.3989
  142OSM   H12T15571   4.556   3.006   7.889  0.9069  0.0551 -0.9005
  142OSM   C13S15572   4.764   2.982   7.951 -0.5982  0.1582 -0.0896
  142OSM   H13S15573   4.811   3.082   7.934 -0.9039  0.4928  0.9737
  142OSM   H13T15574   4.847   2.911   7.932  0.3987  0.5436  2.6085
  142OSM   C14S15575   4.724   2.978   8.102 -0.1385  0.1910  0.8694
  142OSM   H14S15576   4.689   2.876   8.127 -1.2603  0.6324  1.1072
  142OSM   H14T15577   4.639   3.045   8.123 -0.8224 -1.1509  2.4736
  142OSM   C15S15578   4.842   3.015   8.189  0.1606 -0.0156 -0.2688
  142OSM   H15S15579   4.921   2.946   8.153  0.4888  0.4533 -0.4436
  142OSM   H15T15580   4.823   2.981   8.293 -0.9384 -0.2162 -0.5257
  142OSM   C16S15581   4.881   3.162   8.187  0.0282 -0.9378 -0.5011
  142OSM   H16S15582   4.934   3.169   8.090 -0.8830 -1.6856 -1.0683
  142OSM   H16T15583   4.954   3.173   8.270 -1.2921  0.8115  0.4605
  142OSM   C17S15584   4.764   3.260   8.194  0.3597  0.1609 -0.1854
  142OSM   H17S15585   4.714   3.264   8.095  0.1445 -2.0213 -0.1745
  142OSM   H17T15586   4.807   3.362   8.190  0.1844  0.2650  0.4755
  142OSM   C18S15587   4.681   3.240   8.324 -0.1796 -0.0499  0.2057
  142OSM   H18S15588   4.750   3.239   8.411 -1.7140  0.4039  1.4330
  142OSM   H18T15589   4.623   3.146   8.311  0.6326 -0.5727  0.3007
  142OSM   H18U15590   4.612   3.325   8.339  0.3035  0.5361 -0.7978
  142OSM    C1F15591   4.825   3.057   6.735  0.2540  0.2951 -0.4464
  142OSM     OF15592   4.779   3.144   6.660  0.2404  0.6364 -0.0342
  142OSM    C2F15593   4.969   3.060   6.768 -0.5949  0.2509  0.0149
  142OSM    H2F15594   5.012   3.089   6.669 -1.7894  0.1556 -0.5476
  142OSM    H2G15595   5.012   2.965   6.806  1.0438  0.2374 -1.7679
  142OSM    C3F15596   5.002   3.182   6.863  0.3426  0.1554 -0.0072
  142OSM    H3F15597   4.984   3.282   6.816  1.8411  0.6660  0.4912
  142OSM    H3G15598   5.110   3.184   6.887 -0.0809 -0.7985  2.0739
  142OSM    C4F15599   4.915   3.182   6.996  0.4245 -0.0229  0.4905
  142OSM    H4F15600   4.908   3.085   7.050  1.0502 -1.3906 -1.8111
  142OSM    H4G15601   4.808   3.211   6.988  0.4097 -0.3632 -0.6094
  142OSM    C5F15602   4.978   3.290   7.087 -0.0289 -0.0944  0.3413
  142OSM    H5F15603   4.942   3.388   7.048  0.5757 -0.6337 -1.6224
  142OSM    H5G15604   5.089   3.282   7.079 -0.0092 -0.2191  0.7117
  142OSM    C6F15605   4.921   3.283   7.230  0.5157 -0.2542 -0.1004
  142OSM    H6F15606   4.812   3.262   7.241  0.5408  0.2312  1.1382
  142OSM    H6G15607   4.948   3.369   7.294  0.2636 -1.0331  1.0614
  142OSM    C7F15608   4.999   3.171   7.300 -0.0035 -0.3429  0.9463
  142OSM    H7F15609   5.106   3.179   7.270 -0.1331  1.0723  0.8468
  142OSM    H7G15610   4.960   3.075   7.261 -1.0045 -0.8741  3.2335
  142OSM    C8F15611   4.984   3.166   7.453 -0.2301  0.2564  0.1328
  142OSM    H8F15612   4.878   3.162   7.486  0.0468  2.2692  1.3315
  142OSM    H8G15613   5.027   3.258   7.497  1.2566 -1.0939  1.6022
  142OSM    C9F15614   5.048   3.044   7.511  0.2918  0.1520  0.1879
  142OSM    H9F15615   5.069   2.960   7.443 -0.5381  1.3725 -1.6170
  142OSM   C10F15616   5.086   3.031   7.639  0.2444  0.0151 -0.3841
  142OSM   H10F15617   5.127   2.934   7.671  1.5144  0.4940 -0.5619
  142OSM   C11F15618   5.070   3.134   7.747 -0.5390 -0.1798  0.1170
  142OSM   H11F15619   4.970   3.100   7.782 -0.6091 -1.0618 -0.9266
  142OSM   H11G15620   5.071   3.239   7.710 -1.5734 -1.0807 -2.6378
  142OSM   C12F15621   5.179   3.130   7.859  0.7922  0.8840 -0.5881
  142OSM   H12F15622   5.154   3.219   7.921  3.6774  0.2476  1.5898
  142OSM   H12G15623   5.273   3.149   7.803  0.5835  1.3712 -0.7736
  142OSM   C13F15624   5.178   3.010   7.947 -0.2266 -0.8221 -0.5023
  142OSM   H13F15625   5.186   2.912   7.895 -3.2016 -1.8065  0.7829
  142OSM   H13G15626   5.079   2.996   7.997  1.7143 -0.3807  3.6724
  142OSM   C14F15627   5.290   3.022   8.054  0.3419  1.0732 -0.8881
  142OSM   H14F15628   5.262   3.111   8.114 -1.0643  0.6330 -0.8812
  142OSM   H14G15629   5.383   3.049   8.000 -0.1701 -1.4881 -3.1678
  142OSM   C15F15630   5.314   2.898   8.139 -0.1872 -0.0829 -0.5195
  142OSM   H15F15631   5.412   2.912   8.188  0.2120  0.6244 -1.4923
  142OSM   H15G15632   5.326   2.809   8.073  1.4311  0.0746 -0.4434
  142OSM   C16F15633   5.201   2.868   8.241  0.5819  0.2671  0.0258
  142OSM   H16F15634   5.208   2.760   8.265 -1.1541  0.0169 -0.4875
  142OSM   H16G15635   5.102   2.874   8.190 -1.5262  0.2766  3.9844
  142OSM   C17F15636   5.209   2.952   8.371 -0.0644 -0.6812 -0.6388
  142OSM   H17F15637   5.195   3.061   8.353  0.4659 -0.4973  0.0457
  142OSM   H17G15638   5.309   2.958   8.419 -0.3290  0.1916 -0.1764
  142OSM   C18F15639   5.104   2.900   8.479 -0.9654  0.1231 -0.4372
  142OSM   H18F15640   5.112   2.791   8.498 -1.8362 -0.0997 -1.3247
  142OSM   H18G15641   5.006   2.911   8.428 -0.6661 -0.3750 -1.1361
  142OSM   H18H15642   5.102   2.957   8.574  2.2769 -0.5653  0.0941
  143OSM      N15643   6.025   5.282   6.154  0.1926 -0.7946 -0.0223
  143OSM    C1515644   6.024   5.354   6.282  0.9739  0.6097 -0.1522
  143OSM   H15A15645   6.065   5.299   6.366  0.3709  1.3538  0.6471
  143OSM   H15B15646   5.919   5.373   6.303  0.3536 -0.2578 -2.3294
  143OSM   H15C15647   6.085   5.442   6.286  0.4464  0.9396  0.8235
  143OSM    C1415648   5.942   5.352   6.052  1.0516  0.1832 -0.1691
  143OSM   H14A15649   5.838   5.330   6.075  1.4547  0.5792  2.1942
  143OSM   H14B15650   5.955   5.325   5.948  1.2397  2.0869 -0.6568
  143OSM   H14C15651   5.971   5.456   6.047  0.4045  0.3698 -0.1335
  143OSM    C1315652   6.163   5.274   6.101 -0.2832  0.3261 -0.2712
  143OSM   H13A15653   6.201   5.374   6.089  0.1677  0.2865  0.7654
  143OSM   H13B15654   6.173   5.213   6.012  0.9309  0.5031 -0.2643
  143OSM   H13C15655   6.220   5.229   6.180  1.9585  2.2849 -0.7301
  143OSM    C1215656   5.969   5.134   6.161 -0.2165 -0.0961 -1.3691
  143OSM   H12A15657   5.985   5.092   6.063  2.2366 -1.8135 -0.2778
  143OSM   H12B15658   5.866   5.151   6.188 -0.4787  1.8652 -3.4693
  143OSM    C1115659   6.043   5.044   6.256  0.0541  0.8227 -0.9481
  143OSM   H11A15660   5.989   4.947   6.260 -1.5813  1.7698  1.1971
  143OSM   H11B15661   6.028   5.096   6.353 -0.1586  1.1147 -1.1371
  143OSM      P15662   6.272   4.920   6.305 -0.6065  0.4356 -0.0372
  143OSM    O1315663   6.194   4.799   6.330 -0.4855  0.2798  0.0771
  143OSM    O1415664   6.405   4.908   6.243 -0.4567  0.6957 -0.1062
  143OSM    O1115665   6.301   4.976   6.448  0.4998 -0.9197 -0.6297
  143OSM    O1215666   6.185   5.032   6.241 -0.2408 -0.8698 -0.5703
  143OSM    C1S15667   6.355   5.101   6.482 -0.5036 -0.2663  0.2223
  143OSM    H1S15668   6.313   5.180   6.417  0.4046  2.5868  2.9537
  143OSM    H1T15669   6.466   5.103   6.476 -0.4172 -0.2478  1.5744
  143OSM     NF15670   6.364   5.296   6.647  0.2924 -0.5555 -0.8113
  143OSM    HNF15671   6.453   5.313   6.688 -0.2012  1.1839 -0.4088
  143OSM    C2S15672   6.335   5.147   6.629  0.1758  0.0152 -0.5292
  143OSM    H2S15673   6.226   5.133   6.648  0.7193 -0.9649  2.0624
  143OSM    C3S15674   6.409   5.054   6.731  0.2319 -0.0124 -0.1057
  143OSM    H3S15675   6.517   5.079   6.725  0.7232 -1.1815  2.8921
  143OSM     O315676   6.403   4.920   6.686 -0.3199  0.0605 -0.2724
  143OSM    HO315677   6.340   4.924   6.613 -1.4108  2.0222  0.7136
  143OSM    C4S15678   6.348   5.070   6.872  0.1644 -0.2372  0.5330
  143OSM    H4S15679   6.403   5.140   6.937  1.7965 -1.2933  0.3154
  143OSM    C5S15680   6.228   5.020   6.914 -0.1326  0.2213 -0.2146
  143OSM    H5S15681   6.160   4.970   6.843 -0.7891  1.1376 -0.2374
  143OSM    C6S15682   6.155   5.046   7.042  0.0039 -0.0763  0.2930
  143OSM    H6S15683   6.231   5.004   7.112  4.7525  3.3253 -2.5319
  143OSM    H6T15684   6.053   5.003   7.043 -0.6156  1.2443 -1.9506
  143OSM    C7S15685   6.134   5.185   7.100  0.1379 -0.4954 -0.5348
  143OSM    H7S15686   6.115   5.268   7.028  1.9934  0.4611  0.0378
  143OSM    H7T15687   6.228   5.207   7.155 -0.7428 -1.0660  1.2448
  143OSM    C8S15688   6.025   5.191   7.204 -0.2319  0.2565 -0.2716
  143OSM    H8S15689   6.050   5.111   7.277 -0.0320 -0.4010 -1.0401
  143OSM    H8T15690   5.931   5.159   7.154 -0.7195  1.2713 -0.0162
  143OSM    C9S15691   6.001   5.327   7.263  0.3963 -0.1616  0.0257
  143OSM    H9S15692   5.976   5.394   7.179  1.5955 -0.1573 -0.3394
  143OSM    H9T15693   6.105   5.346   7.297 -0.0356  1.5034  0.4867
  143OSM   C10S15694   5.904   5.320   7.384 -0.1969 -0.3367 -0.4496
  143OSM   H10S15695   5.920   5.228   7.445  0.3873 -1.6541 -2.5304
  143OSM   H10T15696   5.797   5.312   7.357 -0.3083 -0.5098  0.0243
  143OSM   C11S15697   5.914   5.448   7.470 -0.3295  0.8739 -0.0159
  143OSM   H11S15698   5.903   5.541   7.410  1.3863  1.1775  0.0917
  143OSM   H11T15699   6.021   5.442   7.500 -0.6767  0.4742  1.1452
  143OSM   C12S15700   5.812   5.445   7.587  0.3779 -0.6813  0.0141
  143OSM   H12S15701   5.819   5.344   7.633 -1.3642 -0.2286  1.3018
  143OSM   H12T15702   5.712   5.463   7.543  1.0244  1.5008 -0.6444
  143OSM   C13S15703   5.836   5.557   7.691 -0.3518 -0.4196 -0.4922
  143OSM   H13S15704   5.791   5.655   7.666  0.0531  0.8020  3.2857
  143OSM   H13T15705   5.945   5.580   7.693  0.1486 -2.6282 -0.3044
  143OSM   C14S15706   5.798   5.516   7.833  0.4386 -1.1428 -0.0641
  143OSM   H14S15707   5.858   5.427   7.860  0.2077 -0.5291  2.7047
  143OSM   H14T15708   5.691   5.487   7.837  0.3279 -0.8512 -0.9146
  143OSM   C15S15709   5.827   5.629   7.938 -0.0312  0.1963  0.5307
  143OSM   H15S15710   5.778   5.724   7.908 -0.2581 -1.1911 -3.8096
  143OSM   H15T15711   5.938   5.639   7.938  0.0671 -0.5555 -1.5606
  143OSM   C16S15712   5.768   5.597   8.075 -0.1727 -0.6069 -0.5054
  143OSM   H16S15713   5.814   5.500   8.106  2.5881  0.8658  0.1368
  143OSM   H16T15714   5.660   5.581   8.059 -0.0213 -1.0525 -1.1035
  143OSM   C17S15715   5.787   5.709   8.178  0.0137 -0.5672  0.0522
  143OSM   H17S15716   5.713   5.697   8.261  1.9158  0.8053  1.9907
  143OSM   H17T15717   5.765   5.806   8.128 -0.3771 -1.0807 -0.7809
  143OSM   C18S15718   5.934   5.716   8.218  0.8692 -0.4541 -0.0786
  143OSM   H18S15719   5.964   5.615   8.253  1.2686 -1.2391 -2.6029
  143OSM   H18T15720   5.943   5.782   8.307  0.0798  0.1613 -0.4459
  143OSM   H18U15721   5.990   5.755   8.130 -0.1245 -2.2236 -1.5428
  143OSM    C1F15722   6.279   5.390   6.598 -0.7709  0.6973 -0.6427
  143OSM     OF15723   6.180   5.355   6.531  0.1826  0.5287 -0.1077
  143OSM    C2F15724   6.326   5.533   6.613  0.1096  0.4443  0.5038
  143OSM    H2F15725   6.383   5.563   6.522 -0.2471 -2.4025 -0.7150
  143OSM    H2G15726   6.392   5.532   6.703  2.0352 -1.4511 -0.8729
  143OSM    C3F15727   6.214   5.632   6.626  0.0239  0.2592 -0.4275
  143OSM    H3F15728   6.139   5.627   6.544  1.1181  0.8993 -1.4694
  143OSM    H3G15729   6.250   5.737   6.635  0.5239  0.2614 -2.3208
  143OSM    C4F15730   6.135   5.609   6.759 -0.1538  0.5017 -0.0773
  143OSM    H4F15731   6.077   5.515   6.753 -0.1556  0.5712 -1.4392
  143OSM    H4G15732   6.060   5.691   6.761 -1.9851 -1.0969 -1.5155
  143OSM    C5F15733   6.227   5.582   6.880 -0.5261 -0.7630  0.4316
  143OSM    H5F15734   6.294   5.670   6.893 -0.5019 -0.9601  1.7440
  143OSM    H5G15735   6.285   5.488   6.872 -1.6197 -1.4605  0.5875
  143OSM    C6F15736   6.167   5.581   7.022  1.2090 -0.1878  0.2549
  143OSM    H6F15737   6.231   5.510   7.077  1.3539  0.4188  0.8733
  143OSM    H6G15738   6.060   5.549   7.015  0.7318  1.5000 -0.4248
  143OSM    C7F15739   6.171   5.708   7.108 -0.3461 -0.3519  0.4557
  143OSM    H7F15740   6.106   5.781   7.056 -0.3180  1.7887  3.2871
  143OSM    H7G15741   6.272   5.753   7.098 -0.1241 -0.9511 -0.0883
  143OSM    C8F15742   6.133   5.688   7.257  0.0377 -0.1583  0.6824
  143OSM    H8F15743   6.046   5.621   7.274 -1.6900  1.5782 -1.1691
  143OSM    H8G15744   6.104   5.783   7.306  0.1760 -0.0912  0.6345
  143OSM    C9F15745   6.262   5.652   7.329  0.5452 -0.0959 -0.0168
  143OSM    H9F15746   6.344   5.612   7.268 -0.2129  0.4972 -1.4239
  143OSM   C10F15747   6.294   5.653   7.456  0.0508  0.4036  0.3506
  143OSM   H10F15748   6.388   5.611   7.494 -0.4980 -1.3153 -0.1293
  143OSM   C11F15749   6.210   5.711   7.570  0.7122  0.1174  0.7177
  143OSM   H11F15750   6.150   5.630   7.616 -0.7586  1.2129  0.7541
  143OSM   H11G15751   6.147   5.793   7.530 -1.3388 -0.8864  1.8412
  143OSM   C12F15752   6.278   5.762   7.699 -0.6783 -0.2218 -0.1753
  143OSM   H12F15753   6.210   5.830   7.754 -1.5470  0.0462 -1.5836
  143OSM   H12G15754   6.367   5.821   7.669 -1.2769 -0.1993 -1.9359
  143OSM   C13F15755   6.332   5.665   7.798  0.3216  0.1821  0.6032
  143OSM   H13F15756   6.401   5.591   7.753 -0.0210  0.6213 -0.6639
  143OSM   H13G15757   6.247   5.601   7.833  1.5609 -2.0623 -0.3845
  143OSM   C14F15758   6.407   5.731   7.919 -0.0064  0.3769  0.4457
  143OSM   H14F15759   6.473   5.812   7.882 -0.2415 -0.0060 -0.8334
  143OSM   H14G15760   6.464   5.661   7.984  0.8945  0.5245 -0.1851
  143OSM   C15F15761   6.306   5.800   8.017  0.2719 -0.3425  0.2016
  143OSM   H15F15762   6.219   5.732   8.019  1.2766 -1.6371  2.4744
  143OSM   H15G15763   6.268   5.894   7.972  0.9540  0.5307  1.4327
  143OSM   C16F15764   6.365   5.837   8.156  0.0510 -0.0757  0.3768
  143OSM   H16F15765   6.426   5.929   8.143  0.5283 -0.7498 -2.4211
  143OSM   H16G15766   6.415   5.752   8.206 -1.9413 -0.7445  1.2819
  143OSM   C17F15767   6.248   5.886   8.249  0.1668 -0.1371 -0.5124
  143OSM   H17F15768   6.170   5.807   8.247 -0.3747  0.3858 -0.0969
  143OSM   H17G15769   6.216   5.987   8.214 -0.4246  0.0472  0.5569
  143OSM   C18F15770   6.295   5.900   8.390  0.3123 -0.2711  0.9497
  143OSM   H18F15771   6.381   5.970   8.399 -2.0326  2.8765 -0.3263
  143OSM   H18G15772   6.328   5.803   8.432 -2.2734 -0.9051  1.6454
  143OSM   H18H15773   6.212   5.945   8.449  1.3501 -0.6093  2.7169
  144OSM      N15774   5.138   4.994   5.832 -0.6861 -0.2244  0.2327
  144OSM    C1515775   5.131   5.146   5.810 -0.0426  0.7203  0.5251
  144OSM   H15A15776   5.026   5.172   5.808  0.0664  1.1022 -0.5175
  144OSM   H15B15777   5.174   5.184   5.719 -1.5067 -1.3134 -1.0679
  144OSM   H15C15778   5.169   5.198   5.897  0.7080  1.7712 -0.4167
  144OSM    C1415779   5.033   4.956   5.919  0.7351 -0.1115 -0.0384
  144OSM   H14A15780   4.937   4.953   5.869  0.6612  0.6264  0.0457
  144OSM   H14B15781   5.015   5.018   6.006 -2.8804 -0.1119 -0.6981
  144OSM   H14C15782   5.050   4.858   5.959 -0.6088 -0.4496 -0.2873
  144OSM    C1315783   5.113   4.928   5.692  0.0798  0.8173  0.2690
  144OSM   H13A15784   5.091   4.823   5.697 -0.4915  0.9306  0.1067
  144OSM   H13B15785   5.186   4.941   5.613  2.1925 -3.3893  1.3887
  144OSM   H13C15786   5.019   4.967   5.657  0.5900  2.5673  0.7765
  144OSM    C1215787   5.271   4.952   5.896  0.0366  0.4330  0.7109
  144OSM   H12A15788   5.351   4.968   5.826  0.6225  1.5482  1.6235
  144OSM   H12B15789   5.266   4.846   5.916  0.1764  0.8389  3.0540
  144OSM    C1115790   5.322   5.012   6.035  0.9920 -0.0266 -0.7758
  144OSM   H11A15791   5.313   5.122   6.025  2.1188  0.1492 -0.0300
  144OSM   H11B15792   5.432   5.002   6.048  0.8884 -0.4147 -0.1448
  144OSM      P15793   5.282   4.818   6.206  0.1117 -0.1610 -0.0285
  144OSM    O1315794   5.194   4.772   6.312 -0.1728 -0.1520 -0.1197
  144OSM    O1415795   5.295   4.732   6.088  0.7843  1.2328 -0.0125
  144OSM    O1115796   5.423   4.830   6.269 -0.3440 -0.2537  0.1360
  144OSM    O1215797   5.249   4.968   6.155 -0.0323  0.5458  0.6628
  144OSM    C1S15798   5.443   4.903   6.389 -0.2473 -0.3398  0.7456
  144OSM    H1S15799   5.385   4.998   6.395 -1.2244 -0.7385 -1.6085
  144OSM    H1T15800   5.546   4.945   6.390 -0.7947  1.1933 -1.6832
  144OSM     NF15801   5.434   4.908   6.635  0.0959  0.2705 -0.5174
  144OSM    HNF15802   5.505   4.908   6.706 -0.0806  0.4130 -0.3415
  144OSM    C2S15803   5.429   4.822   6.519 -0.3883  0.0367  0.3659
  144OSM    H2S15804   5.327   4.776   6.517  0.4276 -1.8227  0.1531
  144OSM    C3S15805   5.536   4.704   6.515 -0.3973  0.0669  0.2230
  144OSM    H3S15806   5.637   4.749   6.515  0.0093 -0.8219 -0.7976
  144OSM     O315807   5.545   4.623   6.400  0.0446  0.2508  0.1490
  144OSM    HO315808   5.505   4.672   6.328 -2.0056  0.3178  1.2965
  144OSM    C4S15809   5.532   4.626   6.641  0.5890  1.0137 -0.5760
  144OSM    H4S15810   5.571   4.668   6.735 -2.4860  0.7543  0.8928
  144OSM    C5S15811   5.471   4.508   6.654 -0.5166  0.0434  0.3423
  144OSM    H5S15812   5.429   4.457   6.567 -2.2460  1.0530  0.5585
  144OSM    C6S15813   5.452   4.430   6.780  0.0614 -0.0135  0.5671
  144OSM    H6S15814   5.484   4.328   6.749 -3.1508 -1.5683  2.0743
  144OSM    H6T15815   5.343   4.426   6.802  0.3095  0.8996  2.0158
  144OSM    C7S15816   5.510   4.482   6.913  0.7878  0.5646  0.5252
  144OSM    H7S15817   5.487   4.588   6.936 -5.0187 -0.4184  0.0000
  144OSM    H7T15818   5.620   4.467   6.907  0.6080 -1.1951  1.5689
  144OSM    C8S15819   5.450   4.408   7.032 -0.0279 -0.2709  0.7092
  144OSM    H8S15820   5.466   4.300   7.011 -2.7187 -0.1927 -2.1284
  144OSM    H8T15821   5.340   4.420   7.030  0.0530  0.3440 -0.0555
  144OSM    C9S15822   5.519   4.451   7.168  0.5909  0.1976 -0.2886
  144OSM    H9S15823   5.504   4.559   7.185  2.9723  0.6014 -0.5196
  144OSM    H9T15824   5.629   4.446   7.154  1.0606 -1.3391  3.3728
  144OSM   C10S15825   5.492   4.356   7.292  0.2042 -0.2468  0.6166
  144OSM   H10S15826   5.520   4.253   7.260 -2.8977 -0.7160 -0.8238
  144OSM   H10T15827   5.382   4.353   7.310  0.0135  0.3138 -0.4106
  144OSM   C11S15828   5.563   4.407   7.412  0.2416  0.0282  0.3696
  144OSM   H11S15829   5.664   4.451   7.396 -0.5494  2.3023  1.5514
  144OSM   H11T15830   5.582   4.321   7.480 -0.6833  0.3595  1.0486
  144OSM   C12S15831   5.487   4.509   7.493  0.2961 -0.6392  0.3442
  144OSM   H12S15832   5.384   4.474   7.515 -0.0962 -1.1584 -2.1761
  144OSM   H12T15833   5.474   4.601   7.433  2.2967 -0.5835 -0.0266
  144OSM   C13S15834   5.572   4.557   7.623  1.2628  0.3077  0.1553
  144OSM   H13S15835   5.543   4.661   7.647 -2.2657 -0.7776  1.0066
  144OSM   H13T15836   5.679   4.567   7.597  1.1939  0.5635 -0.0299
  144OSM   C14S15837   5.538   4.457   7.736  0.3606 -0.5603 -0.5755
  144OSM   H14S15838   5.554   4.350   7.709  2.1452 -0.7053  0.9793
  144OSM   H14T15839   5.429   4.468   7.752  0.5160 -0.2725  0.2888
  144OSM   C15S15840   5.620   4.494   7.862  0.3200 -0.7083 -0.1060
  144OSM   H15S15841   5.576   4.591   7.894  0.2708 -0.5254 -0.7305
  144OSM   H15T15842   5.729   4.503   7.843  0.5144 -0.5785  1.0302
  144OSM   C16S15843   5.604   4.390   7.979  0.4694  0.4118  0.3235
  144OSM   H16S15844   5.641   4.287   7.959  0.3548  0.0324  2.0145
  144OSM   H16T15845   5.493   4.378   7.986  0.3473  1.1634 -0.3145
  144OSM   C17S15846   5.645   4.428   8.123 -0.2931 -0.2111 -0.0615
  144OSM   H17S15847   5.613   4.531   8.147  1.1676 -0.1922  1.9560
  144OSM   H17T15848   5.756   4.424   8.126 -0.3855 -1.7920  1.9972
  144OSM   C18S15849   5.598   4.331   8.229  0.0996 -0.2336  0.1499
  144OSM   H18S15850   5.488   4.340   8.245  0.1026  1.4670 -0.6983
  144OSM   H18T15851   5.643   4.353   8.327  0.7758  1.2985 -0.4912
  144OSM   H18U15852   5.603   4.225   8.196 -1.0054 -0.6205  1.2065
  144OSM    C1F15853   5.328   4.995   6.657  0.5072  0.3453  0.7483
  144OSM     OF15854   5.247   5.022   6.575  0.0578 -0.1249  0.1638
  144OSM    C2F15855   5.316   5.050   6.793  0.3761 -0.2760 -0.2434
  144OSM    H2F15856   5.413   5.067   6.843 -0.4848  2.2609  0.6360
  144OSM    H2G15857   5.257   4.973   6.848  0.0662  0.0067 -0.1779
  144OSM    C3F15858   5.232   5.181   6.788 -0.1919 -0.2619 -0.3479
  144OSM    H3F15859   5.138   5.169   6.730  0.8129 -1.1130 -1.8352
  144OSM    H3G15860   5.293   5.268   6.756  1.8172 -1.4219  0.3054
  144OSM    C4F15861   5.188   5.217   6.925  0.6814 -0.2783  1.0235
  144OSM    H4F15862   5.128   5.134   6.968  0.6015  0.0457  1.5372
  144OSM    H4G15863   5.140   5.317   6.914  0.5079 -0.3567  1.0606
  144OSM    C5F15864   5.293   5.243   7.031  0.1694 -0.1088 -0.2647
  144OSM    H5F15865   5.374   5.310   6.997  0.9213 -0.5221  0.6719
  144OSM    H5G15866   5.344   5.151   7.066  0.7106  0.4588  0.4365
  144OSM    C6F15867   5.224   5.302   7.160  0.2770  0.5989 -0.6109
  144OSM    H6F15868   5.188   5.216   7.220 -2.7907  1.1420 -1.6148
  144OSM    H6G15869   5.137   5.367   7.139  0.8877  0.7050 -2.9098
  144OSM    C7F15870   5.324   5.382   7.250  0.1042  0.4066 -0.2586
  144OSM    H7F15871   5.384   5.445   7.181  0.8432 -1.8321 -1.7072
  144OSM    H7G15872   5.400   5.322   7.303 -0.5643  2.6079  3.3581
  144OSM    C8F15873   5.250   5.470   7.354  0.0115 -0.2058 -0.0360
  144OSM    H8F15874   5.180   5.534   7.295 -0.2158  0.8724  1.3679
  144OSM    H8G15875   5.322   5.542   7.398  1.5947 -1.4262 -0.5886
  144OSM    C9F15876   5.183   5.373   7.446 -0.6983 -0.8686 -0.5946
  144OSM    H9F15877   5.074   5.371   7.427 -0.6762 -0.0953 -0.7857
  144OSM   C10F15878   5.238   5.296   7.541 -0.3715 -0.4749 -0.3605
  144OSM   H10F15879   5.170   5.232   7.600 -0.5299  0.4032  0.4362
  144OSM   C11F15880   5.386   5.296   7.573 -0.0530 -0.7835  0.0531
  144OSM   H11F15881   5.446   5.370   7.517  2.0136 -1.6289  1.0962
  144OSM   H11G15882   5.434   5.196   7.563  0.0997 -1.0992  3.4278
  144OSM   C12F15883   5.406   5.321   7.724  0.1769 -0.4513  0.4271
  144OSM   H12F15884   5.348   5.409   7.759  1.5326  0.0691  1.4405
  144OSM   H12G15885   5.512   5.352   7.733  0.3297 -0.9703  0.3942
  144OSM   C13F15886   5.388   5.201   7.815 -1.0339 -0.0234 -0.3120
  144OSM   H13F15887   5.458   5.121   7.783 -1.5575 -0.8494  0.5804
  144OSM   H13G15888   5.281   5.170   7.808 -1.6446  2.0684 -0.6624
  144OSM   C14F15889   5.421   5.243   7.961 -0.0688 -0.1213 -0.6947
  144OSM   H14F15890   5.359   5.332   7.986  1.8566  0.4298  2.3599
  144OSM   H14G15891   5.527   5.270   7.980 -1.0049  1.6587  2.4078
  144OSM   C15F15892   5.385   5.127   8.053 -0.3240 -0.0954 -0.1756
  144OSM   H15F15893   5.434   5.038   8.007  0.3691  0.4343 -0.4708
  144OSM   H15G15894   5.277   5.104   8.044 -0.0178 -0.8311 -2.2855
  144OSM   C16F15895   5.447   5.141   8.196  0.4136 -0.8603 -0.0370
  144OSM   H16F15896   5.410   5.236   8.241 -1.2741 -2.2294  1.5314
  144OSM   H16G15897   5.557   5.134   8.182  0.3005 -0.8922 -0.9114
  144OSM   C17F15898   5.406   5.027   8.285  0.5236  0.5220  0.5104
  144OSM   H17F15899   5.464   4.940   8.248 -0.0582  1.5768 -3.0604
  144OSM   H17G15900   5.298   5.009   8.268  0.9000 -0.8269 -0.5510
  144OSM   C18F15901   5.435   5.054   8.433  0.2679  0.4285  0.5810
  144OSM   H18F15902   5.348   5.093   8.489  0.1781 -1.5626  1.8706
  144OSM   H18G15903   5.506   5.138   8.445 -0.7276  1.1928  1.2313
  144OSM   H18H15904   5.463   4.959   8.482 -2.9829 -0.1075  1.4883
  145SAPE     N15905   3.111   5.645  10.743  0.5335  0.2672 -0.3333
  145SAPE   HN115906   3.118   5.742  10.779  1.5707 -0.0758  0.4467
  145SAPE   HN215907   3.204   5.602  10.760 -0.0999 -0.7964  0.5187
  145SAPE   HN315908   3.092   5.647  10.641 -0.5896 -1.3590 -0.1850
  145SAPE   C1215909   3.001   5.562  10.793 -0.0168  0.2688  0.0120
  145SAPE  H12A15910   2.907   5.614  10.762 -0.5108 -1.6393 -1.8425
  145SAPE  H12B15911   3.007   5.539  10.901  2.5951 -0.1544 -0.1969
  145SAPE   C1115912   2.995   5.423  10.713  0.0546 -0.1049  0.9147
  145SAPE  H11A15913   3.017   5.455  10.609 -1.3615  0.5615  0.7987
  145SAPE  H11B15914   2.897   5.370  10.721  0.4794 -0.7008  2.4010
  145SAPE     P15915   3.136   5.210  10.671  0.0885 -0.1262  0.1002
  145SAPE   O1315916   3.267   5.143  10.709 -0.7683 -0.3106  0.1984
  145SAPE   O1415917   3.012   5.125  10.678 -0.7396  0.4823  0.4176
  145SAPE   O1215918   3.105   5.340  10.762 -0.0984  0.0975  0.3872
  145SAPE   O1115919   3.156   5.270  10.530  0.0306  0.0324  0.3344
  145SAPE    C115920   3.261   5.365  10.501 -0.2583 -0.5324  0.0878
  145SAPE    HA15921   3.242   5.468  10.538 -0.3628 -0.1710 -0.9384
  145SAPE    HB15922   3.356   5.338  10.551 -0.9437  1.0432  2.3468
  145SAPE    C215923   3.287   5.377  10.348 -0.5871 -0.3156 -0.0192
  145SAPE    HS15924   3.385   5.427  10.330  0.5869 -2.0135  1.4536
  145SAPE   O2115925   3.185   5.443  10.280  0.8581 -0.3834  0.3157
  145SAPE   C2115926   3.205   5.561  10.234 -0.2679  0.7470 -0.2592
  145SAPE   O2215927   3.312   5.623  10.253  0.5503  0.6788 -0.6542
  145SAPE   C2215928   3.086   5.616  10.147 -0.4231  0.3082  0.6978
  145SAPE   H2R15929   2.999   5.555  10.178 -0.7058 -0.2237 -1.0904
  145SAPE   H2S15930   3.063   5.721  10.175 -0.0618  0.3301  0.9281
  145SAPE    C315931   3.302   5.238  10.285 -0.0009 -0.0267  0.8738
  145SAPE    HX15932   3.222   5.177  10.331  0.4998 -1.6910 -0.4001
  145SAPE    HY15933   3.397   5.199  10.329 -0.6384 -1.5742  0.9099
  145SAPE   O3115934   3.293   5.228  10.143 -0.3577  0.1494  0.0751
  145SAPE   C3115935   3.397   5.273  10.076  0.0242 -0.1143 -0.0278
  145SAPE   O3215936   3.503   5.321  10.118  0.0982  0.1095 -0.1574
  145SAPE   C3215937   3.363   5.271   9.925  0.1815 -0.3640 -0.0164
  145SAPE   H2X15938   3.258   5.302   9.908 -0.1848 -1.9072 -0.6815
  145SAPE   H2Y15939   3.371   5.163   9.897  1.7348 -0.4200  0.5755
  145SAPE   C2315940   3.111   5.601   9.997  0.8682  0.2340 -0.0002
  145SAPE   H3R15941   3.025   5.638   9.938  0.3828 -0.6360  0.1615
  145SAPE   H3S15942   3.118   5.492   9.973 -0.6437 -0.2376  1.6180
  145SAPE   C2415943   3.236   5.663   9.937 -0.0933  0.1034  0.1733
  145SAPE   H4R15944   3.246   5.642   9.828  1.8704  1.7073  0.0156
  145SAPE   H4S15945   3.328   5.612   9.971  2.4473  3.9351 -0.6490
  145SAPE   C2515946   3.245   5.809   9.970  0.2602  0.0669 -0.6585
  145SAPE   H5R15947   3.324   5.832  10.042  0.1911  1.1678 -0.9216
  145SAPE   C2615948   3.188   5.906   9.900 -0.5196 -0.8044 -0.9181
  145SAPE   H6R15949   3.197   6.009   9.937 -1.7084 -1.1429  0.3958
  145SAPE   C2715950   3.097   5.902   9.782  0.1105 -0.1922 -0.5637
  145SAPE   H7R15951   2.993   5.929   9.810 -0.4079  0.5638 -3.0999
  145SAPE   H7S15952   3.077   5.801   9.740  1.1126  0.8680 -3.7571
  145SAPE   C2815953   3.144   5.999   9.672 -0.3140  0.8427 -0.7024
  145SAPE   H8R15954   3.252   6.019   9.665 -0.3466  0.1669 -3.9407
  145SAPE   C2915955   3.064   6.057   9.577 -1.0847  0.3295 -0.2497
  145SAPE   H9R15956   3.123   6.116   9.506  1.0888 -2.4468 -0.8555
  145SAPE  C21015957   2.918   6.052   9.569 -0.2819  0.6594  0.2260
  145SAPE  H10R15958   2.873   6.046   9.670  0.6443  1.3560  0.6841
  145SAPE  H10S15959   2.881   5.959   9.520  1.3986  0.2100 -0.2326
  145SAPE  C21115960   2.870   6.171   9.490 -0.1929  0.8813 -0.6012
  145SAPE  H11R15961   2.827   6.256   9.545 -1.6402  1.4881 -2.6260
  145SAPE  C21215962   2.862   6.180   9.359  0.5678 -0.0839  0.0173
  145SAPE  H12R15963   2.829   6.277   9.318  0.1437 -0.2477 -0.0268
  145SAPE  C21315964   2.907   6.074   9.269  0.6983 -0.6381  0.3056
  145SAPE  H13R15965   2.993   6.011   9.303 -0.0546 -1.7877  0.1277
  145SAPE  H13S15966   2.948   6.125   9.178 -1.9528 -1.3957 -1.3699
  145SAPE  C21415967   2.801   5.972   9.231  0.5590 -0.1899 -0.4627
  145SAPE  H14R15968   2.797   5.878   9.289  0.4044  0.0388 -0.1009
  145SAPE  C21515969   2.714   5.982   9.134 -0.1883  0.4592  0.2572
  145SAPE  H15R15970   2.629   5.912   9.128 -0.3267  0.5819  0.7305
  145SAPE  C21615971   2.685   6.103   9.047  0.2400  0.1679  0.1312
  145SAPE  H16R15972   2.738   6.190   9.091  1.8607  0.0897 -1.6042
  145SAPE  H16S15973   2.577   6.127   9.036  0.6399  1.7120 -0.5214
  145SAPE  C21715974   2.730   6.096   8.893 -0.5575  0.1266 -0.3330
  145SAPE  H17R15975   2.833   6.055   8.898 -0.5934  0.2315  1.6782
  145SAPE  H17S15976   2.739   6.191   8.836 -1.1630  0.6323  0.4040
  145SAPE  C21815977   2.643   6.004   8.807 -0.0858  0.2088 -0.7033
  145SAPE  H18R15978   2.542   6.033   8.843  0.5489 -0.2785  1.5467
  145SAPE  H18S15979   2.659   5.897   8.834  0.3849  0.6024  0.6535
  145SAPE  C21915980   2.645   6.027   8.652 -0.1222 -0.1396  0.1004
  145SAPE  H19R15981   2.569   6.100   8.616 -1.2278 -0.7366  1.1931
  145SAPE  H19S15982   2.614   5.935   8.599  0.7748 -1.2987  1.5529
  145SAPE  C22015983   2.788   6.069   8.588 -0.0883  0.4665 -0.2845
  145SAPE  H20R15984   2.773   6.075   8.478 -0.2225  0.7523 -0.2504
  145SAPE  H20S15985   2.866   5.994   8.611 -0.5408 -0.2615 -1.1049
  145SAPE  H20T15986   2.816   6.170   8.625 -1.9264  0.5681  0.9399
  145SAPE   C3315987   3.466   5.338   9.832  0.1115  1.0343  0.3780
  145SAPE   H3X15988   3.571   5.316   9.859 -0.2066 -1.6743 -0.4421
  145SAPE   H3Y15989   3.458   5.446   9.856 -2.3381  0.9137  0.2793
  145SAPE   C3415990   3.441   5.340   9.679 -0.1576 -0.4306 -0.4644
  145SAPE   H4X15991   3.476   5.239   9.650 -0.0618 -1.0388  1.6554
  145SAPE   H4Y15992   3.496   5.425   9.632  0.9435 -2.6660 -3.3996
  145SAPE   C3515993   3.290   5.344   9.639  1.2708 -0.0241 -0.2216
  145SAPE   H5X15994   3.247   5.439   9.677 -0.3069  0.2238 -2.5282
  145SAPE   H5Y15995   3.242   5.254   9.682 -2.0256  0.6466 -2.3095
  145SAPE   C3615996   3.269   5.353   9.490 -0.4708  0.0895 -0.1942
  145SAPE   H6X15997   3.325   5.268   9.446 -0.8194  0.1846 -0.8281
  145SAPE   H6Y15998   3.312   5.453   9.465 -1.6335  0.6742  0.1097
  145SAPE   C3715999   3.130   5.336   9.428 -0.5260  0.2950  0.4614
  145SAPE   H7X16000   3.094   5.233   9.450  2.1886 -1.5197 -3.0698
  145SAPE   H7Y16001   3.130   5.345   9.318  1.2017  0.3245  0.4472
  145SAPE   C3816002   3.022   5.437   9.475 -0.4051 -0.8549  0.5974
  145SAPE   H8X16003   2.995   5.410   9.579  1.8969  0.1561  1.4695
  145SAPE   H8Y16004   2.924   5.416   9.425  0.4840  0.0971 -1.6249
  145SAPE   C3916005   3.074   5.587   9.483 -0.2686 -0.3132  0.2188
  145SAPE   H9X16006   3.132   5.583   9.388  0.5296 -0.8490  0.7222
  145SAPE   H9Y16007   3.149   5.617   9.559 -0.9961 -0.6587  1.0724
  145SAPE  C31016008   2.961   5.686   9.488 -0.3668  0.0604 -0.0268
  145SAPE  H10X16009   2.902   5.666   9.396  0.0224  1.0973 -0.5091
  145SAPE  H10Y16010   3.027   5.776   9.497  1.2593 -1.0837 -0.1983
  145SAPE  C31116011   2.878   5.675   9.615  0.0822 -0.4167  0.0719
  145SAPE  H11X16012   2.844   5.767   9.666  1.1473  0.1665 -0.2615
  145SAPE  H11Y16013   2.946   5.629   9.689  0.6736 -1.7071 -1.2518
  145SAPE  C31216014   2.757   5.588   9.599  0.1119  0.0977 -0.4161
  145SAPE  H12X16015   2.730   5.553   9.701 -0.5221  0.3471 -0.4944
  145SAPE  H12Y16016   2.787   5.498   9.542 -0.3255  0.1842 -0.7912
  145SAPE  C31316017   2.635   5.643   9.523 -0.6410  0.1944  0.0582
  145SAPE  H13X16018   2.671   5.695   9.432  0.2196 -1.2171 -0.4330
  145SAPE  H13Y16019   2.598   5.726   9.586 -1.4330 -1.0039  1.2117
  145SAPE  C31416020   2.506   5.550   9.507  0.2369 -0.0464 -0.5528
  145SAPE  H14X16021   2.541   5.458   9.558  0.9712 -1.2748 -3.1458
  145SAPE  H14Y16022   2.488   5.536   9.398 -2.6326  0.4840 -0.1796
  145SAPE  C31516023   2.385   5.605   9.580  0.9239 -0.0939 -0.0865
  145SAPE  H15X16024   2.363   5.697   9.523 -0.1505  0.1209  0.6452
  145SAPE  H15Y16025   2.410   5.630   9.685  1.9027  0.5107 -0.4608
  145SAPE  C31616026   2.260   5.502   9.591  0.0871 -0.1475 -0.2439
  145SAPE  H16X16027   2.258   5.438   9.500 -1.1931 -1.4958  0.7167
  145SAPE  H16Y16028   2.167   5.564   9.589 -0.2894 -0.6639  0.9674
  145SAPE  C31716029   2.255   5.406   9.707 -0.0826 -0.1322 -0.1532
  145SAPE  H17X16030   2.296   5.465   9.791 -1.0367 -1.9472  1.6283
  145SAPE  H17Y16031   2.330   5.326   9.689 -0.5481 -0.8734  1.1825
  145SAPE  C31816032   2.119   5.346   9.739 -0.6401  0.3705  0.1741
  145SAPE  H18X16033   2.139   5.273   9.821  1.3363  1.1423  0.3971
  145SAPE  H18Y16034   2.081   5.295   9.647  0.1130 -0.0019  0.0639
  145SAPE  H18Z16035   2.056   5.428   9.778  0.4733  2.2279 -1.8491
  146SAPE     N16036   2.173   6.645  11.065  0.1962  0.4322 -0.0492
  146SAPE   HN116037   2.171   6.673  11.165 -1.6350 -1.1515  0.3965
  146SAPE   HN216038   2.092   6.586  11.037  1.0334 -0.6016 -0.3526
  146SAPE   HN316039   2.257   6.588  11.045 -0.2348 -0.1719 -0.1578
  146SAPE   C1216040   2.154   6.772  10.989  0.4352  0.0634 -0.8429
  146SAPE  H12A16041   2.238   6.842  11.010  0.5177 -0.5026  0.8056
  146SAPE  H12B16042   2.063   6.826  11.023  0.4005  0.5362 -1.6711
  146SAPE   C1116043   2.144   6.752  10.836 -0.2603 -0.3842 -0.1253
  146SAPE  H11A16044   2.120   6.843  10.777 -1.1390 -0.2426  0.4331
  146SAPE  H11B16045   2.064   6.676  10.824 -0.2817 -0.3478 -0.2159
  146SAPE     P16046   2.393   6.747  10.731  0.3017 -0.0920 -0.1441
  146SAPE   O1316047   2.468   6.819  10.835 -0.4476 -0.1170  0.4962
  146SAPE   O1416048   2.465   6.649  10.653  0.2244  0.7492  0.3587
  146SAPE   O1216049   2.266   6.684  10.795 -0.4513  0.3901 -0.0311
  146SAPE   O1116050   2.330   6.858  10.626  0.6467  0.0081  0.1664
  146SAPE    C116051   2.410   6.968  10.584 -0.4240  0.0561 -0.0305
  146SAPE    HA16052   2.355   7.054  10.628 -0.1249  1.0773 -1.6221
  146SAPE    HB16053   2.516   6.972  10.615 -0.3729 -0.4578 -0.1228
  146SAPE    C216054   2.410   7.001  10.427 -0.7199  0.5279 -0.1416
  146SAPE    HS16055   2.466   7.096  10.416 -1.3080  0.9390  0.4147
  146SAPE   O2116056   2.276   7.007  10.379  0.4214  0.6109 -0.2567
  146SAPE   C2116057   2.251   7.087  10.281 -0.4783  0.0602 -0.0345
  146SAPE   O2216058   2.328   7.163  10.229  0.0647  0.4886  0.5261
  146SAPE   C2216059   2.103   7.067  10.244  0.2506  0.4158 -0.4357
  146SAPE   H2R16060   2.067   6.962  10.235 -2.1655  0.8867  2.8239
  146SAPE   H2S16061   2.034   7.108  10.320 -0.5522 -0.4049 -0.7096
  146SAPE    C316062   2.488   6.891  10.349  1.0615  0.2497 -0.6303
  146SAPE    HX16063   2.422   6.802  10.361 -0.4287  1.3659 -0.4239
  146SAPE    HY16064   2.581   6.881  10.409  2.3656 -0.7849 -2.7604
  146SAPE   O3116065   2.507   6.931  10.215  1.1951 -0.6829  0.3232
  146SAPE   C3116066   2.609   7.010  10.188 -0.1807  0.4752 -0.2717
  146SAPE   O3216067   2.699   7.042  10.266 -0.2531  0.4129  0.4923
  146SAPE   C3216068   2.596   7.041  10.039  0.6704 -0.3712  0.2972
  146SAPE   H2X16069   2.490   7.065  10.017  0.7000  1.7039  2.2796
  146SAPE   H2Y16070   2.619   6.950   9.979 -3.1970 -1.8585  0.8806
  146SAPE   C2316071   2.074   7.151  10.113  0.4441  0.7347 -0.2293
  146SAPE   H3R16072   2.094   7.260  10.123 -1.3428  1.4825 -3.7993
  146SAPE   H3S16073   1.963   7.162  10.106  0.1637 -2.3681 -1.8598
  146SAPE   C2416074   2.132   7.088   9.982 -0.3076  0.3564 -1.1688
  146SAPE   H4R16075   2.241   7.077   9.999 -0.6293 -2.1607 -0.6008
  146SAPE   H4S16076   2.121   7.163   9.900 -0.6483  0.7534 -0.7611
  146SAPE   C2516077   2.068   6.958   9.951 -0.5912 -0.0979  0.7057
  146SAPE   H5R16078   2.036   6.898  10.038 -0.4832 -2.1442 -0.6426
  146SAPE   C2616079   2.013   6.941   9.826 -0.0279  0.5270  0.4682
  146SAPE   H6R16080   1.970   6.842   9.804 -0.3170  0.9835 -1.0396
  146SAPE   C2716081   2.024   7.032   9.707 -0.0162  0.1991  0.4964
  146SAPE   H7R16082   2.125   7.029   9.660 -0.0454  1.3761  0.3421
  146SAPE   H7S16083   2.019   7.141   9.731 -0.8410  0.0458  1.0068
  146SAPE   C2816084   1.927   6.993   9.593  0.1095 -0.6744  0.6714
  146SAPE   H8R16085   1.834   7.046   9.620  0.0629  1.0820 -2.6975
  146SAPE   C2916086   1.937   6.929   9.475 -0.3305 -0.1360  0.0642
  146SAPE   H9R16087   1.847   6.908   9.415  0.6138  1.6155 -2.0691
  146SAPE  C21016088   2.065   6.871   9.428  0.6339 -0.4955  0.1261
  146SAPE  H10R16089   2.144   6.941   9.460  1.4637 -0.5946 -1.6301
  146SAPE  H10S16090   2.062   6.872   9.317  1.0927 -1.1047  0.1055
  146SAPE  C21116091   2.085   6.727   9.469 -0.0843  0.2162  0.2663
  146SAPE  H11R16092   2.155   6.708   9.552  1.3578  1.6898 -0.5849
  146SAPE  C21216093   2.030   6.624   9.410  0.7852  0.0938  0.1866
  146SAPE  H12R16094   2.062   6.526   9.451 -0.6612 -0.9732 -1.1668
  146SAPE  C21316095   1.946   6.631   9.290 -0.5186  0.5278  0.1783
  146SAPE  H13R16096   2.007   6.635   9.197  2.0988  2.7623  1.8974
  146SAPE  H13S16097   1.898   6.729   9.274  1.4247  1.6967  1.2686
  146SAPE  C21416098   1.842   6.512   9.291  0.6886  0.1179  0.1391
  146SAPE  H14R16099   1.767   6.516   9.371 -1.0564  1.5221 -1.5203
  146SAPE  C21516100   1.826   6.418   9.202 -0.4481 -0.4108  0.1768
  146SAPE  H15R16101   1.746   6.345   9.220 -1.2590 -0.2238 -2.4853
  146SAPE  C21616102   1.904   6.391   9.074  0.1178 -0.5257 -0.3153
  146SAPE  H16R16103   1.908   6.283   9.049 -2.0499 -1.1063  1.6952
  146SAPE  H16S16104   2.013   6.414   9.079  0.2255 -1.4462  1.8451
  146SAPE  C21716105   1.848   6.459   8.954  0.2345  0.0247 -0.2060
  146SAPE  H17R16106   1.861   6.569   8.959  1.1090 -0.1745  2.1298
  146SAPE  H17S16107   1.740   6.433   8.946 -0.2422  2.0190 -0.5702
  146SAPE  C21816108   1.925   6.438   8.820 -0.2832 -0.2005  0.7316
  146SAPE  H18R16109   1.855   6.482   8.746  0.5150  2.2511  1.4126
  146SAPE  H18S16110   1.934   6.328   8.802  1.2923 -0.4629  3.0355
  146SAPE  C21916111   2.060   6.508   8.810  0.3864  0.6087 -0.6138
  146SAPE  H19R16112   2.120   6.493   8.902 -0.5539  1.1772  0.0879
  146SAPE  H19S16113   2.044   6.618   8.812 -0.3784  0.4791  0.2551
  146SAPE  C22016114   2.130   6.480   8.678 -0.4404 -0.2271  0.6415
  146SAPE  H20R16115   2.065   6.509   8.593  0.5083  1.2705  0.4199
  146SAPE  H20S16116   2.139   6.369   8.668 -1.0798 -0.3972  1.7451
  146SAPE  H20T16117   2.231   6.525   8.670 -0.2007 -0.9099 -0.2091
  146SAPE   C3316118   2.678   7.160  10.002 -0.2063  0.1042 -0.0925
  146SAPE   H3X16119   2.708   7.152   9.895 -0.5809  0.9944 -0.2710
  146SAPE   H3Y16120   2.780   7.167  10.046 -0.4844  0.6279  0.4661
  146SAPE   C3416121   2.599   7.294  10.018 -0.0071  0.3985 -0.3561
  146SAPE   H4X16122   2.589   7.307  10.128 -0.5083 -0.8442 -0.2479
  146SAPE   H4Y16123   2.498   7.291   9.974 -0.8738  3.1994  1.3016
  146SAPE   C3516124   2.687   7.413   9.976 -0.2984  0.0005 -0.2776
  146SAPE   H5X16125   2.781   7.375  10.022  0.2900  0.2984 -1.2210
  146SAPE   H5Y16126   2.662   7.506  10.032  1.6804  0.5265 -0.2313
  146SAPE   C3616127   2.691   7.430   9.826 -0.1689 -0.0924 -0.2031
  146SAPE   H6X16128   2.664   7.337   9.771  0.5890 -0.2533 -0.3074
  146SAPE   H6Y16129   2.791   7.461   9.791  0.4604 -0.3111  1.3250
  146SAPE   C3716130   2.593   7.531   9.771 -0.3704  0.8263  0.3646
  146SAPE   H7X16131   2.620   7.629   9.815  1.0558  0.1099  1.1152
  146SAPE   H7Y16132   2.488   7.510   9.802 -0.0345 -2.6850 -0.6392
  146SAPE   C3816133   2.600   7.544   9.618 -0.2880 -0.5924  0.1021
  146SAPE   H8X16134   2.709   7.562   9.601 -0.1092 -1.1445  0.6574
  146SAPE   H8Y16135   2.549   7.638   9.587 -0.2473 -0.8010 -0.6007
  146SAPE   C3916136   2.555   7.425   9.536  0.0769  0.0155 -0.5725
  146SAPE   H9X16137   2.455   7.391   9.570 -0.2606 -0.8027 -2.3324
  146SAPE   H9Y16138   2.635   7.349   9.549 -2.0573 -2.2045 -0.0815
  146SAPE  C31016139   2.552   7.457   9.384  0.2471  0.1434 -0.1655
  146SAPE  H10X16140   2.659   7.474   9.361 -0.5262  3.0121 -1.7702
  146SAPE  H10Y16141   2.488   7.546   9.366  0.5113  0.8201  2.0946
  146SAPE  C31116142   2.506   7.345   9.284 -0.4421  0.4148  0.2547
  146SAPE  H11X16143   2.412   7.302   9.326 -0.6862  1.0738  0.3904
  146SAPE  H11Y16144   2.588   7.270   9.292 -0.1998  0.6178 -0.3127
  146SAPE  C31216145   2.500   7.394   9.137  0.5643  0.1771 -0.6041
  146SAPE  H12X16146   2.588   7.453   9.104  1.5280 -0.7347  0.2887
  146SAPE  H12Y16147   2.418   7.468   9.123  1.2337  1.4219  1.8551
  146SAPE  C31316148   2.482   7.274   9.040  0.8866  0.1729  0.2588
  146SAPE  H13X16149   2.387   7.221   9.061  1.4884 -1.6476 -1.4288
  146SAPE  H13Y16150   2.561   7.199   9.060  0.8052  0.1404  0.4578
  146SAPE  C31416151   2.473   7.316   8.889  0.0265 -0.4312 -0.7250
  146SAPE  H14X16152   2.444   7.221   8.837 -0.5267 -0.0191 -1.1751
  146SAPE  H14Y16153   2.576   7.342   8.856  1.1190 -0.6309  2.3485
  146SAPE  C31516154   2.382   7.435   8.858 -0.9810 -0.1570  0.1658
  146SAPE  H15X16155   2.422   7.530   8.901 -1.4855  0.0005  0.2925
  146SAPE  H15Y16156   2.284   7.431   8.912  0.2902 -1.8076  2.4330
  146SAPE  C31616157   2.367   7.464   8.702  0.1101 -0.4454 -0.1093
  146SAPE  H16X16158   2.465   7.462   8.650 -0.5981 -1.4414 -1.4575
  146SAPE  H16Y16159   2.340   7.571   8.686  0.3501 -0.2016  1.1208
  146SAPE  C31716160   2.264   7.373   8.637  0.0398  0.0492  0.3173
  146SAPE  H17X16161   2.174   7.410   8.691  0.4485  0.7843  0.5128
  146SAPE  H17Y16162   2.287   7.267   8.659  0.3351  0.2655  1.0684
  146SAPE  C31816163   2.255   7.397   8.486 -0.6890 -0.1717 -0.6101
  146SAPE  H18X16164   2.251   7.504   8.458  2.5474 -0.5450 -2.7856
  146SAPE  H18Y16165   2.172   7.329   8.455  0.2239 -1.3342 -0.5601
  146SAPE  H18Z16166   2.348   7.357   8.439  0.1526  2.0075 -0.8463
  147SAPE     N16167   3.828   2.718  11.085  0.1853  0.0486  0.3377
  147SAPE   HN116168   3.867   2.640  11.141  1.7613  2.0619  2.1224
  147SAPE   HN216169   3.800   2.689  10.989 -2.8145  0.1472  1.1177
  147SAPE   HN316170   3.897   2.794  11.068 -0.8490  0.4853 -2.2171
  147SAPE   C1216171   3.702   2.787  11.143 -0.3900 -0.1827  0.0684
  147SAPE  H12A16172   3.726   2.891  11.172 -0.4916  0.4048 -1.8573
  147SAPE  H12B16173   3.661   2.724  11.225 -0.2165 -1.4468 -0.7995
  147SAPE   C1116174   3.593   2.799  11.038 -0.3124  0.3133  0.1436
  147SAPE  H11A16175   3.608   2.884  10.969 -1.0418  0.6294  0.3733
  147SAPE  H11B16176   3.494   2.821  11.084 -0.6194  1.1571 -0.9063
  147SAPE     P16177   3.447   2.643  10.890 -0.1487 -0.7747 -0.1397
  147SAPE   O1316178   3.360   2.601  11.003 -0.3757  0.1189 -0.7270
  147SAPE   O1416179   3.402   2.760  10.811 -0.1917  0.1243 -0.1768
  147SAPE   O1216180   3.587   2.681  10.953  0.0706 -0.1116 -0.8610
  147SAPE   O1116181   3.478   2.528  10.795  0.0178  0.4657 -0.1885
  147SAPE    C116182   3.581   2.428  10.816 -0.3924  0.4664  1.0028
  147SAPE    HA16183   3.685   2.467  10.830  1.4980 -3.2525 -1.8054
  147SAPE    HB16184   3.553   2.363  10.902 -1.3948 -0.2953  0.1103
  147SAPE    C216185   3.597   2.336  10.688 -0.4606  0.0476  0.4611
  147SAPE    HS16186   3.704   2.313  10.676 -0.5449 -1.1482  1.8952
  147SAPE   O2116187   3.565   2.412  10.573 -0.1774  0.4497  0.2210
  147SAPE   C2116188   3.651   2.503  10.536  0.3761  0.5535  0.2495
  147SAPE   O2216189   3.752   2.524  10.599  0.0303 -0.7952  0.2048
  147SAPE   C2216190   3.615   2.582  10.418  0.0025  0.6766 -0.2677
  147SAPE   H2R16191   3.540   2.537  10.349  0.4312 -3.3003  1.6785
  147SAPE   H2S16192   3.572   2.674  10.461  1.5749  1.3861 -0.1674
  147SAPE    C316193   3.488   2.227  10.701 -0.4238 -0.2024  0.0035
  147SAPE    HX16194   3.386   2.269  10.721 -0.7452 -1.4456  1.0333
  147SAPE    HY16195   3.503   2.161  10.789  1.2177  0.6722  0.3859
  147SAPE   O3116196   3.468   2.159  10.582 -0.0671  0.5455 -0.2359
  147SAPE   C3116197   3.527   2.037  10.573 -0.1780  0.0392 -0.5085
  147SAPE   O3216198   3.578   1.980  10.670  0.2562 -0.3759 -0.3713
  147SAPE   C3216199   3.524   1.989  10.429 -0.2539 -0.6438  0.1784
  147SAPE   H2X16200   3.536   2.070  10.354  0.6102 -0.8437  0.0879
  147SAPE   H2Y16201   3.422   1.949  10.409 -0.2139 -0.9545  0.5755
  147SAPE   C2316202   3.738   2.604  10.332 -0.1949  0.0286  0.1335
  147SAPE   H3R16203   3.816   2.664  10.384 -1.3787  2.5330 -0.8590
  147SAPE   H3S16204   3.714   2.659  10.238 -0.6468 -2.8207 -1.4879
  147SAPE   C2416205   3.808   2.477  10.286 -0.7784  0.1127 -0.1493
  147SAPE   H4R16206   3.835   2.426  10.381 -2.1813 -2.2875 -1.0021
  147SAPE   H4S16207   3.902   2.499  10.231 -0.2702  2.6553  1.6495
  147SAPE   C2516208   3.717   2.390  10.203 -0.5349 -0.3155  0.6244
  147SAPE   H5R16209   3.631   2.346  10.255 -2.7746  1.5820 -1.3900
  147SAPE   C2616210   3.720   2.363  10.079 -0.2506 -0.4029  0.1051
  147SAPE   H6R16211   3.632   2.310  10.041  0.3173 -1.7318  0.5994
  147SAPE   C2716212   3.813   2.411   9.973  1.0590 -0.4576 -0.0517
  147SAPE   H7R16213   3.829   2.330   9.899  1.5076  0.6719 -1.2193
  147SAPE   H7S16214   3.913   2.431  10.015  1.0963 -1.8215  0.5277
  147SAPE   C2816215   3.758   2.537   9.902  0.6311  0.0091 -0.0203
  147SAPE   H8R16216   3.728   2.617   9.971  0.7273  0.1700 -0.1633
  147SAPE   C2916217   3.725   2.560   9.771  0.3066 -0.6477  0.8085
  147SAPE   H9R16218   3.675   2.654   9.745 -0.8039 -1.6071 -0.6500
  147SAPE  C21016219   3.731   2.465   9.650  0.6264 -0.0324  0.3337
  147SAPE  H10R16220   3.652   2.490   9.577  0.6015  0.7559  0.6197
  147SAPE  H10S16221   3.688   2.371   9.692 -2.3734  0.9260 -0.4958
  147SAPE  C21116222   3.873   2.434   9.595  0.6510 -0.7588  0.9889
  147SAPE  H11R16223   3.945   2.440   9.678  1.7240 -1.9282  0.1467
  147SAPE  C21216224   3.910   2.412   9.467  0.2941 -0.2045 -0.8926
  147SAPE  H12R16225   4.015   2.385   9.448  0.4308 -0.4791  0.2228
  147SAPE  C21316226   3.825   2.403   9.341  0.2444  0.4682 -0.2137
  147SAPE  H13R16227   3.894   2.362   9.265 -0.8257 -2.8609  0.5348
  147SAPE  H13S16228   3.788   2.502   9.308  0.8338  1.9612  3.3259
  147SAPE  C21416229   3.705   2.309   9.356 -0.0337  0.2794  1.1132
  147SAPE  H14R16230   3.694   2.263   9.455 -2.9532 -2.5925 -0.4508
  147SAPE  C21516231   3.621   2.293   9.254  0.3656  0.1516  0.4657
  147SAPE  H15R16232   3.546   2.213   9.256  1.8163 -1.2507 -0.1133
  147SAPE  C21616233   3.642   2.368   9.125  0.0502  0.6837 -0.4343
  147SAPE  H16R16234   3.750   2.374   9.099  0.5922  1.5682  1.9388
  147SAPE  H16S16235   3.612   2.473   9.140  1.7185  1.3679 -1.6492
  147SAPE  C21716236   3.571   2.290   9.020 -0.0994 -0.9730  0.6321
  147SAPE  H17R16237   3.461   2.291   9.038 -0.4260 -0.1595 -1.3020
  147SAPE  H17S16238   3.604   2.186   9.041 -1.4660 -1.0692  2.3619
  147SAPE  C21816239   3.604   2.343   8.881  0.4922 -0.9056  0.2630
  147SAPE  H18R16240   3.573   2.449   8.875  0.0251 -1.0036  0.8761
  147SAPE  H18S16241   3.533   2.307   8.803  0.0677 -1.9482  1.1089
  147SAPE  C21916242   3.754   2.332   8.846 -0.2774 -0.5580  0.2662
  147SAPE  H19R16243   3.801   2.232   8.859  3.4311  0.8853 -1.2374
  147SAPE  H19S16244   3.812   2.401   8.910 -0.2428  0.2937 -0.6764
  147SAPE  C22016245   3.783   2.366   8.700  0.0194  0.4486  0.8605
  147SAPE  H20R16246   3.886   2.404   8.682  0.1263  0.6608  1.8893
  147SAPE  H20S16247   3.718   2.456   8.690 -0.3723  0.0969  0.2450
  147SAPE  H20T16248   3.740   2.289   8.632 -1.2247  1.9474 -0.0847
  147SAPE   C3316249   3.645   1.910  10.385  0.7363 -0.1125 -0.7689
  147SAPE   H3X16250   3.666   1.836  10.465 -0.1177 -1.3203 -1.6336
  147SAPE   H3Y16251   3.741   1.964  10.370  0.1811  0.6737 -1.5469
  147SAPE   C3416252   3.627   1.829  10.258 -0.2444 -0.7009  0.3843
  147SAPE   H4X16253   3.523   1.797  10.276 -0.9281  2.6489  2.7467
  147SAPE   H4Y16254   3.706   1.751  10.252  0.7293  0.3678 -1.0442
  147SAPE   C3516255   3.636   1.910  10.127  0.3313  0.1518  0.3210
  147SAPE   H5X16256   3.602   2.016  10.137  0.0790 -0.1265  2.9135
  147SAPE   H5Y16257   3.577   1.861  10.046  1.5765 -2.5841  1.0219
  147SAPE   C3616258   3.778   1.918  10.076 -0.0742  0.1979 -0.3708
  147SAPE   H6X16259   3.804   1.813  10.052 -0.3790  0.0434 -0.0301
  147SAPE   H6Y16260   3.831   1.960  10.164 -1.3023  2.6512 -0.7377
  147SAPE   C3716261   3.804   2.006   9.953 -0.3269  0.3450  0.6142
  147SAPE   H7X16262   3.825   2.113   9.973 -0.3800  0.3267  0.7658
  147SAPE   H7Y16263   3.717   2.004   9.884 -0.2927  1.6322  0.5199
  147SAPE   C3816264   3.929   1.953   9.868  0.1794 -0.3570  0.3413
  147SAPE   H8X16265   3.939   1.843   9.854  2.4456 -0.1929  0.5968
  147SAPE   H8Y16266   4.014   1.978   9.934  1.1903 -1.1765 -0.6396
  147SAPE   C3916267   3.956   2.015   9.728  0.0123 -0.0536  0.4037
  147SAPE   H9X16268   4.059   1.998   9.692  0.3485  2.4574  0.1139
  147SAPE   H9Y16269   3.922   2.121   9.735  1.9781  0.6000  0.1349
  147SAPE  C31016270   3.867   1.943   9.629 -0.3845  0.2283  0.2864
  147SAPE  H10X16271   3.760   1.962   9.651 -0.3275 -0.5231  1.2534
  147SAPE  H10Y16272   3.888   1.834   9.636  1.2378  0.5486  0.6078
  147SAPE  C31116273   3.905   1.981   9.480 -0.3643 -0.2702 -1.6916
  147SAPE  H11X16274   4.013   1.957   9.472 -0.7563 -2.5030 -0.6238
  147SAPE  H11Y16275   3.892   2.089   9.458  0.4838 -0.0241 -0.9949
  147SAPE  C31216276   3.828   1.903   9.379  0.2043 -0.0101  0.3974
  147SAPE  H12X16277   3.717   1.915   9.381  0.3640  1.5964  0.3299
  147SAPE  H12Y16278   3.850   1.795   9.396  0.9204 -0.3072 -2.2820
  147SAPE  C31316279   3.881   1.933   9.242  0.2224  0.5911  0.4406
  147SAPE  H13X16280   3.977   1.880   9.223  1.0397  2.8816 -2.1846
  147SAPE  H13Y16281   3.901   2.042   9.236  0.2108  0.5799  0.1543
  147SAPE  C31416282   3.785   1.888   9.128 -0.6776 -0.2178 -0.2384
  147SAPE  H14X16283   3.700   1.958   9.135  1.5651  2.5385  0.2967
  147SAPE  H14Y16284   3.743   1.785   9.131  0.9520 -0.8535  1.9699
  147SAPE  C31516285   3.848   1.916   8.983  0.0938  0.2423  0.1191
  147SAPE  H15X16286   3.939   1.854   8.969 -0.5460 -1.0559  1.5188
  147SAPE  H15Y16287   3.866   2.025   8.970  0.1682  0.1907 -0.2010
  147SAPE  C31616288   3.739   1.882   8.878  0.4827  0.4278 -1.0380
  147SAPE  H16X16289   3.646   1.934   8.907  1.4531  1.4459  0.2692
  147SAPE  H16Y16290   3.712   1.774   8.874  0.9093  0.2603  0.3651
  147SAPE  C31716291   3.783   1.921   8.738 -0.2968  0.0343 -0.4178
  147SAPE  H17X16292   3.856   1.844   8.706  1.0622  1.5313 -1.0199
  147SAPE  H17Y16293   3.824   2.024   8.744 -1.3895  0.4424  0.2239
  147SAPE  C31816294   3.669   1.925   8.641  0.2148 -0.2779  0.3831
  147SAPE  H18X16295   3.694   1.984   8.550  0.0182  3.2293  2.5116
  147SAPE  H18Y16296   3.582   1.972   8.693 -0.0656 -3.4037  2.8603
  147SAPE  H18Z16297   3.640   1.820   8.619 -1.0513 -0.1265  1.2548
  148SAPE     N16298   4.625   5.834  10.587 -0.2574 -0.2438 -0.5826
  148SAPE   HN116299   4.728   5.843  10.597 -0.4659  2.6528 -0.5403
  148SAPE   HN216300   4.587   5.930  10.591 -1.3810 -0.7177  0.1321
  148SAPE   HN316301   4.594   5.781  10.671 -1.5828  2.2785  0.5694
  148SAPE   C1216302   4.603   5.753  10.464  0.9450  0.2551  0.5483
  148SAPE  H12A16303   4.680   5.799  10.399 -0.4327  1.8135 -0.0331
  148SAPE  H12B16304   4.498   5.769  10.430 -0.0221 -2.8409  1.8678
  148SAPE   C1116305   4.621   5.604  10.499  0.3301 -0.6759  0.4808
  148SAPE  H11A16306   4.629   5.555  10.400  1.2032  0.8420 -0.2090
  148SAPE  H11B16307   4.521   5.575  10.538  0.1046 -0.1631  0.2924
  148SAPE     P16308   4.862   5.519  10.533  0.5301 -0.3303  0.2894
  148SAPE   O1316309   4.925   5.624  10.448 -0.1076  0.0159 -0.6384
  148SAPE   O1416310   4.944   5.476  10.656 -0.0795 -0.1082 -0.3788
  148SAPE   O1216311   4.724   5.572  10.590  0.3178  0.6017  0.5918
  148SAPE   O1116312   4.811   5.396  10.451  0.0575  0.3258  0.1392
  148SAPE    C116313   4.791   5.266  10.511  0.0309 -0.2323 -0.4928
  148SAPE    HA16314   4.737   5.259  10.608 -0.2250  0.8075 -0.5541
  148SAPE    HB16315   4.738   5.202  10.437 -1.4400  0.6714 -0.2412
  148SAPE    C216316   4.930   5.191  10.514  0.6502  0.5898 -0.0437
  148SAPE    HS16317   4.998   5.244  10.584  0.5713  1.5946 -0.7106
  148SAPE   O2116318   4.977   5.181  10.378  0.5238 -0.2806  0.6149
  148SAPE   C2116319   5.108   5.169  10.372  0.2363  0.3573 -0.3571
  148SAPE   O2216320   5.177   5.182  10.469  0.1760  0.2229 -0.0377
  148SAPE   C2216321   5.148   5.130  10.232 -0.4721 -0.4510  0.5011
  148SAPE   H2R16322   5.148   5.020  10.243 -2.1389 -0.5674 -0.4988
  148SAPE   H2S16323   5.066   5.160  10.163 -0.8621 -1.2766  0.6015
  148SAPE    C316324   4.903   5.054  10.569  0.3308  0.2460  0.4134
  148SAPE    HX16325   4.874   5.068  10.676 -1.5759 -2.7625  0.3705
  148SAPE    HY16326   4.999   4.998  10.565  0.5584  0.6105  0.6684
  148SAPE   O3116327   4.796   4.985  10.494 -0.4135  0.0064  0.4136
  148SAPE   C3116328   4.830   4.883  10.407 -0.8958  1.1027  0.3941
  148SAPE   O3216329   4.949   4.852  10.386  0.2535  0.1189 -0.0046
  148SAPE   C3216330   4.712   4.821  10.335 -0.9390  0.0169  0.2253
  148SAPE   H2X16331   4.645   4.901  10.298 -0.2333  0.1200 -0.8608
  148SAPE   H2Y16332   4.668   4.743  10.401  1.2419 -0.6594  0.9286
  148SAPE   C2316333   5.284   5.190  10.198  0.8751 -0.3554 -0.8279
  148SAPE   H3R16334   5.361   5.136  10.258 -0.2976 -1.2538 -0.1114
  148SAPE   H3S16335   5.293   5.297  10.229  1.3517 -0.7086  0.3135
  148SAPE   C2416336   5.295   5.178  10.049 -0.0925 -0.6025 -0.1715
  148SAPE   H4R16337   5.383   5.230  10.006  1.2148 -0.0736  2.9663
  148SAPE   H4S16338   5.205   5.227  10.008 -0.2261 -0.8272 -0.1503
  148SAPE   C2516339   5.317   5.039  10.000  0.5335 -0.2800 -0.6565
  148SAPE   H5R16340   5.366   4.984  10.082  0.0450  0.2491 -0.0060
  148SAPE   C2616341   5.275   4.978   9.887  0.4387 -0.3914 -0.4189
  148SAPE   H6R16342   5.300   4.872   9.866 -0.7683 -0.4072 -1.8523
  148SAPE   C2716343   5.205   5.050   9.775 -0.3051 -0.2008  0.1995
  148SAPE   H7R16344   5.119   5.112   9.810 -1.4095 -0.8715 -1.2517
  148SAPE   H7S16345   5.164   4.988   9.692 -1.1935  3.5385 -2.2842
  148SAPE   C2816346   5.305   5.145   9.713 -0.2749  0.0661  0.1138
  148SAPE   H8R16347   5.404   5.166   9.756 -0.1077  2.9433 -1.5238
  148SAPE   C2916348   5.271   5.223   9.610  0.5319 -0.2247  0.4287
  148SAPE   H9R16349   5.342   5.295   9.567 -0.3172  0.2156 -0.2560
  148SAPE  C21016350   5.134   5.227   9.548  0.7447 -0.5587  0.0177
  148SAPE  H10R16351   5.053   5.165   9.594 -0.4846 -1.2629 -2.9896
  148SAPE  H10S16352   5.139   5.172   9.452  1.8358 -1.1753  0.4231
  148SAPE  C21116353   5.077   5.366   9.519  0.1130  0.5325 -0.0479
  148SAPE  H11R16354   5.037   5.415   9.610 -0.7775 -0.9238  0.3501
  148SAPE  C21216355   5.054   5.425   9.397  0.5361 -0.5476 -0.5624
  148SAPE  H12R16356   5.003   5.522   9.400 -2.6017 -2.1665  1.5179
  148SAPE  C21316357   5.076   5.377   9.262  0.6163  0.6419 -0.0150
  148SAPE  H13R16358   4.979   5.390   9.210  1.4283  2.7801 -1.0541
  148SAPE  H13S16359   5.092   5.268   9.253 -2.0906  0.0909  1.3094
  148SAPE  C21416360   5.203   5.436   9.200  0.8540 -0.0812  0.0452
  148SAPE  H14R16361   5.300   5.426   9.249  0.4600  0.6766  0.9957
  148SAPE  C21516362   5.205   5.501   9.076 -0.4227 -0.4629  0.0194
  148SAPE  H15R16363   5.303   5.539   9.042 -0.3544  1.1378  1.9001
  148SAPE  C21616364   5.088   5.523   8.980 -0.3092  0.4334  0.3091
  148SAPE  H16R16365   5.075   5.417   8.949  3.1447 -0.0700  0.3362
  148SAPE  H16S16366   5.126   5.579   8.893 -0.3461  0.2381  0.1669
  148SAPE  C21716367   4.960   5.597   9.019 -1.0269  0.0763  0.2594
  148SAPE  H17R16368   4.979   5.706   9.005  1.0394 -0.2689  0.2794
  148SAPE  H17S16369   4.944   5.578   9.127  0.1584  1.1253  0.6323
  148SAPE  C21816370   4.843   5.559   8.934 -0.1191 -0.3583 -0.0737
  148SAPE  H18R16371   4.753   5.610   8.974  0.7361  0.6293  0.6108
  148SAPE  H18S16372   4.825   5.449   8.944 -0.1769 -0.3478 -0.0679
  148SAPE  C21916373   4.852   5.590   8.787 -0.5082  0.0478  0.9231
  148SAPE  H19R16374   4.913   5.507   8.745 -2.3157 -0.3211 -1.0155
  148SAPE  H19S16375   4.893   5.693   8.779  0.9983 -0.3951  2.5868
  148SAPE  C22016376   4.718   5.587   8.723 -0.3656  0.1263 -0.0496
  148SAPE  H20R16377   4.676   5.489   8.752 -1.3814  0.3148 -0.8663
  148SAPE  H20S16378   4.724   5.594   8.612  4.5330 -0.8361 -0.0067
  148SAPE  H20T16379   4.661   5.675   8.758 -1.0929 -0.0342 -0.8102
  148SAPE   C3316380   4.769   4.752  10.207 -0.3446  0.2491 -0.3441
  148SAPE   H3X16381   4.839   4.669  10.231  1.1858  1.0974 -1.7336
  148SAPE   H3Y16382   4.827   4.835  10.160 -0.1599 -0.0247 -0.5988
  148SAPE   C3416383   4.667   4.707  10.111  0.6097 -0.3928 -1.1789
  148SAPE   H4X16384   4.581   4.777  10.102  0.1583 -0.8118 -0.1803
  148SAPE   H4Y16385   4.623   4.613  10.150  1.6392 -0.9152 -1.2581
  148SAPE   C3516386   4.710   4.665   9.974 -0.5280 -0.0218 -0.6421
  148SAPE   H5X16387   4.763   4.569   9.991 -2.3518 -1.1555 -1.2228
  148SAPE   H5Y16388   4.797   4.723   9.936 -2.6186  1.5815 -3.1962
  148SAPE   C3616389   4.602   4.651   9.871 -0.4120  0.1203 -0.1167
  148SAPE   H6X16390   4.525   4.729   9.888  0.7115  1.2798 -0.3046
  148SAPE   H6Y16391   4.558   4.549   9.878  0.2123 -0.0224  2.2268
  148SAPE   C3716392   4.644   4.655   9.729  0.6442  0.2460  0.7333
  148SAPE   H7X16393   4.734   4.593   9.708 -0.9069 -1.6775 -0.4667
  148SAPE   H7Y16394   4.674   4.761   9.711 -0.8145  0.4601 -0.5352
  148SAPE   C3816395   4.539   4.614   9.623  0.1091  0.1214 -0.1299
  148SAPE   H8X16396   4.436   4.629   9.661 -1.5349 -2.3364 -3.3136
  148SAPE   H8Y16397   4.555   4.505   9.605  1.6293 -0.0453  2.0605
  148SAPE   C3916398   4.554   4.682   9.486 -0.1217  0.0895 -0.0187
  148SAPE   H9X16399   4.664   4.679   9.467  0.3524 -3.0141  2.7366
  148SAPE   H9Y16400   4.526   4.788   9.501  1.2298  0.0560  3.1779
  148SAPE  C31016401   4.472   4.631   9.372  0.3297 -0.1070 -0.3462
  148SAPE  H10X16402   4.366   4.639   9.402  0.6559 -1.9837  1.4172
  148SAPE  H10Y16403   4.488   4.525   9.345 -2.6406 -0.2898 -1.6032
  148SAPE  C31116404   4.488   4.718   9.243 -0.0962 -0.3897 -0.4005
  148SAPE  H11X16405   4.594   4.711   9.210 -0.7991 -1.4581 -2.4873
  148SAPE  H11Y16406   4.464   4.825   9.260 -0.8679 -0.8787  1.8097
  148SAPE  C31216407   4.411   4.661   9.124 -0.2377  0.1152 -0.7878
  148SAPE  H12X16408   4.304   4.681   9.147 -0.3140 -2.0003  0.7953
  148SAPE  H12Y16409   4.426   4.551   9.128  1.4597  0.4059  2.1094
  148SAPE  C31316410   4.453   4.712   8.985 -0.4620  0.3741  0.4691
  148SAPE  H13X16411   4.559   4.685   8.966 -0.2572  0.8676  0.8964
  148SAPE  H13Y16412   4.434   4.822   8.985  2.2066  0.8719 -1.3785
  148SAPE  C31416413   4.370   4.658   8.867  0.2294 -0.2300 -0.1938
  148SAPE  H14X16414   4.267   4.682   8.903  0.7074  0.8190  0.4804
  148SAPE  H14Y16415   4.387   4.548   8.871 -0.5418 -0.4213 -1.8715
  148SAPE  C31516416   4.397   4.713   8.740  0.6408 -0.4148 -0.0859
  148SAPE  H15X16417   4.499   4.683   8.709  0.6784 -1.9799  1.4669
  148SAPE  H15Y16418   4.392   4.822   8.757 -1.1696 -0.5442  0.3192
  148SAPE  C31616419   4.300   4.671   8.632 -0.7945  0.1661  0.0889
  148SAPE  H16X16420   4.197   4.702   8.660 -0.5733 -0.7425  2.0455
  148SAPE  H16Y16421   4.297   4.560   8.633  0.2690  0.1251 -0.7020
  148SAPE  C31716422   4.338   4.714   8.495  0.0434  0.3528  0.1909
  148SAPE  H17X16423   4.438   4.673   8.472  1.8643  4.2497  0.7455
  148SAPE  H17Y16424   4.359   4.823   8.501 -0.6614  0.4432  1.4239
  148SAPE  C31816425   4.233   4.689   8.391  0.0652 -0.4443 -0.1699
  148SAPE  H18X16426   4.219   4.580   8.375  0.7783 -1.3669  4.9131
  148SAPE  H18Y16427   4.271   4.723   8.292  0.9400  3.4828  1.4460
  148SAPE  H18Z16428   4.139   4.739   8.420 -1.8919 -1.1995 -4.7425
  149SAPE     N16429   0.155   0.356  11.030 -0.1323  0.1587 -0.2760
  149SAPE   HN116430   0.075   0.407  11.071 -0.3129 -0.3956  0.0696
  149SAPE   HN216431   0.170   0.403  10.938  1.2431 -0.4567 -0.3785
  149SAPE   HN316432   0.122   0.259  11.009  2.5025 -0.9379  0.4827
  149SAPE   C1216433   0.279   0.358  11.110 -0.2801  0.3803  0.0548
  149SAPE  H12A16434   0.368   0.346  11.043 -0.5514  3.9350 -1.0637
  149SAPE  H12B16435   0.273   0.277  11.185 -0.8263 -1.6418 -2.1052
  149SAPE   C1116436   0.282   0.493  11.178  0.3294  0.8754 -0.4186
  149SAPE  H11A16437   0.374   0.486  11.241  0.6941  1.1199 -0.9173
  149SAPE  H11B16438   0.201   0.512  11.251 -1.2616 -2.7076 -1.1536
  149SAPE     P16439   0.403   0.709  11.089 -0.1800  0.6526  0.3445
  149SAPE   O1316440   0.362   0.806  10.982  0.1416  0.1235 -0.3322
  149SAPE   O1416441   0.428   0.760  11.226 -0.0340  0.4089  0.4510
  149SAPE   O1216442   0.295   0.596  11.088  0.1985  0.5206  0.4987
  149SAPE   O1116443   0.531   0.629  11.041  0.1781 -0.0090  0.2537
  149SAPE    C116444   0.523   0.554  10.917 -0.6122 -0.1310  0.0970
  149SAPE    HA16445   0.558   0.451  10.935 -0.4407  0.1237  1.2558
  149SAPE    HB16446   0.419   0.533  10.881 -0.9605 -1.2825  1.7276
  149SAPE    C216447   0.603   0.617  10.796 -1.1463 -0.6704 -0.0952
  149SAPE    HS16448   0.584   0.725  10.811 -0.2440 -0.9624  3.3943
  149SAPE   O2116449   0.545   0.577  10.673  0.1420  0.3620  0.2378
  149SAPE   C2116450   0.544   0.667  10.575 -0.0520  0.1092 -0.4758
  149SAPE   O2216451   0.609   0.768  10.565 -0.2507 -0.1229  0.0251
  149SAPE   C2216452   0.455   0.623  10.451  0.5826  0.1912  0.3352
  149SAPE   H2R16453   0.353   0.661  10.477  0.4429 -0.5262  0.8557
  149SAPE   H2S16454   0.508   0.678  10.370  1.8154 -1.0823  0.2529
  149SAPE    C316455   0.762   0.591  10.800 -0.1873  0.1352  0.4168
  149SAPE    HX16456   0.791   0.610  10.905  2.4358  1.1402 -0.4380
  149SAPE    HY16457   0.803   0.671  10.735  0.5157 -1.8740 -1.6992
  149SAPE   O3116458   0.800   0.459  10.758 -1.1456 -0.1482  0.7456
  149SAPE   C3116459   0.859   0.449  10.644 -0.2822  0.2130 -0.0419
  149SAPE   O3216460   0.892   0.540  10.566  0.0651  1.0314 -0.3346
  149SAPE   C3216461   0.877   0.298  10.618 -0.0684  0.6665 -0.2467
  149SAPE   H2X16462   0.787   0.244  10.653  0.6113 -0.5923 -0.3987
  149SAPE   H2Y16463   0.965   0.271  10.680 -0.2437  0.9918  0.1423
  149SAPE   C2316464   0.460   0.471  10.427 -0.0084 -0.1045 -0.1712
  149SAPE   H3R16465   0.412   0.411  10.507 -0.6088 -1.8240 -1.7930
  149SAPE   H3S16466   0.564   0.431  10.433 -0.2157 -0.5391  0.5899
  149SAPE   C2416467   0.386   0.427  10.297 -0.4701 -0.0612  0.4183
  149SAPE   H4R16468   0.288   0.480  10.291 -0.2081  0.4839  0.8318
  149SAPE   H4S16469   0.371   0.318  10.310 -0.5859 -0.1214 -0.2197
  149SAPE   C2516470   0.473   0.447  10.171  0.4228 -0.4464  0.7179
  149SAPE   H5R16471   0.579   0.417  10.176  0.2941 -0.8731  0.9655
  149SAPE   C2616472   0.432   0.492  10.057  0.2535  0.0110  0.3065
  149SAPE   H6R16473   0.505   0.514   9.977 -2.5969  1.0669 -2.0668
  149SAPE   C2716474   0.299   0.540  10.013  0.6728  0.3355  0.2557
  149SAPE   H7R16475   0.315   0.615   9.933 -0.4837 -1.1238 -1.3660
  149SAPE   H7S16476   0.240   0.590  10.093 -0.0757 -0.9316  0.5136
  149SAPE   C2816477   0.210   0.424   9.968  0.0980 -0.5160  0.0821
  149SAPE   H8R16478   0.156   0.382  10.055 -0.9659 -3.3749 -1.8911
  149SAPE   C2916479   0.177   0.384   9.840  0.4749 -0.5288 -0.1580
  149SAPE   H9R16480   0.103   0.302   9.835  1.1923 -1.4061  2.5037
  149SAPE  C21016481   0.224   0.453   9.712 -0.0345  0.1926  0.6206
  149SAPE  H10R16482   0.276   0.549   9.731  0.8349 -0.2112  0.3143
  149SAPE  H10S16483   0.129   0.471   9.656  0.9321 -0.8039 -1.3991
  149SAPE  C21116484   0.331   0.368   9.644 -0.3588  1.1743  0.7709
  149SAPE  H11R16485   0.377   0.288   9.704 -1.5979  0.2495  0.5142
  149SAPE  C21216486   0.374   0.382   9.520 -0.3020 -0.0184  0.0206
  149SAPE  H12R16487   0.449   0.311   9.482 -0.8277 -1.1483  1.0612
  149SAPE  C21316488   0.332   0.498   9.430 -0.3054 -0.7523  0.5596
  149SAPE  H13R16489   0.430   0.530   9.390 -0.5915 -1.9383 -1.1535
  149SAPE  H13S16490   0.292   0.586   9.484 -2.2798  0.2084 -2.3269
  149SAPE  C21416491   0.242   0.442   9.323  0.3691 -0.5760  0.4941
  149SAPE  H14R16492   0.139   0.449   9.362  0.0161  0.9923 -0.6477
  149SAPE  C21516493   0.256   0.419   9.193  0.7414  0.1986  0.0064
  149SAPE  H15R16494   0.173   0.380   9.132  0.5386 -1.2265  1.1580
  149SAPE  C21616495   0.389   0.430   9.122  0.4293  0.1576 -0.1872
  149SAPE  H16R16496   0.402   0.350   9.046  1.8045  0.7544 -0.6049
  149SAPE  H16S16497   0.468   0.410   9.198  1.8607  3.8097 -0.5959
  149SAPE  C21716498   0.412   0.570   9.063  0.1691 -0.1132 -0.0392
  149SAPE  H17R16499   0.501   0.581   8.997  0.3671  0.1754  0.2745
  149SAPE  H17S16500   0.434   0.643   9.144  0.2842  0.7699 -0.8509
  149SAPE  C21816501   0.291   0.629   8.985 -0.3380  0.5840  0.1237
  149SAPE  H18R16502   0.311   0.733   8.953  2.3438  0.8271  2.3736
  149SAPE  H18S16503   0.202   0.635   9.052  1.7588 -0.6952  3.1378
  149SAPE  C21916504   0.266   0.558   8.852  0.9469 -0.1018  0.1234
  149SAPE  H19R16505   0.166   0.591   8.818  0.4751 -1.0779  0.5450
  149SAPE  H19S16506   0.266   0.450   8.878  2.4189 -0.7323 -2.3494
  149SAPE  C22016507   0.366   0.587   8.739  0.1873  1.1782 -0.1129
  149SAPE  H20R16508   0.464   0.547   8.773 -1.1082 -2.2312 -0.1706
  149SAPE  H20S16509   0.379   0.695   8.719 -1.0998  1.2183 -0.7565
  149SAPE  H20T16510   0.340   0.545   8.639 -0.1988 -1.1642  0.9192
  149SAPE   C3316511   0.921   0.276  10.468 -0.4599  0.2830 -0.0105
  149SAPE   H3X16512   0.976   0.180  10.467 -0.7851  0.0879  0.4514
  149SAPE   H3Y16513   1.000   0.351  10.445  0.7928 -0.2033  2.4852
  149SAPE   C3416514   0.806   0.261  10.366  0.4176 -0.0688 -0.6300
  149SAPE   H4X16515   0.751   0.356  10.351 -0.6653 -0.3765  1.2764
  149SAPE   H4Y16516   0.728   0.191  10.403  1.3765 -0.9597 -0.2600
  149SAPE   C3516517   0.862   0.221  10.238 -0.1191 -0.2793 -0.5177
  149SAPE   H5X16518   0.941   0.143  10.247 -0.2301 -0.4696 -1.1909
  149SAPE   H5Y16519   0.915   0.309  10.197 -0.0289 -0.5684 -1.0246
  149SAPE   C3616520   0.752   0.174  10.136 -0.0017 -0.9748 -0.0495
  149SAPE   H6X16521   0.682   0.261  10.130 -0.4409 -1.2663  0.6681
  149SAPE   H6Y16522   0.704   0.080  10.171  0.4953 -1.4073 -0.5226
  149SAPE   C3716523   0.805   0.159   9.994  0.4898 -0.1765 -0.1900
  149SAPE   H7X16524   0.886   0.084   9.994  0.4287 -0.2419 -0.1853
  149SAPE   H7Y16525   0.855   0.256   9.971  1.3433 -0.2330  1.3326
  149SAPE   C3816526   0.703   0.129   9.886 -0.0460  0.3837  0.0050
  149SAPE   H8X16527   0.626   0.210   9.889 -0.7972 -0.2894 -0.5689
  149SAPE   H8Y16528   0.640   0.039   9.903  2.2608 -1.5011 -1.1658
  149SAPE   C3916529   0.771   0.124   9.749  0.5699 -0.2817  0.0569
  149SAPE   H9X16530   0.833   0.031   9.750  0.3910 -0.4004  0.3294
  149SAPE   H9Y16531   0.830   0.217   9.736 -0.2361  0.3841  1.1362
  149SAPE  C31016532   0.671   0.116   9.634  1.1528 -0.1254  0.1466
  149SAPE  H10X16533   0.616   0.212   9.632  2.7561  0.7977 -3.0080
  149SAPE  H10Y16534   0.586   0.046   9.646 -0.0476  1.4151  0.7576
  149SAPE  C31116535   0.734   0.102   9.500 -0.1159  0.1179 -0.8019
  149SAPE  H11X16536   0.809   0.020   9.496 -1.4095 -1.0809 -1.0141
  149SAPE  H11Y16537   0.784   0.197   9.472  2.3846 -1.4393 -1.8209
  149SAPE  C31216538   0.630   0.063   9.389 -0.1581 -0.2053  0.1762
  149SAPE  H12X16539   0.540   0.128   9.387  0.2555  0.3545 -0.4897
  149SAPE  H12Y16540   0.605  -0.040   9.421  2.5512 -1.2439 -0.9316
  149SAPE  C31316541   0.695   0.048   9.252 -0.2390 -0.0084 -0.0696
  149SAPE  H13X16542   0.786  -0.017   9.252  0.0355  0.3545 -1.4279
  149SAPE  H13Y16543   0.747   0.143   9.230  1.5422 -0.3986  2.2712
  149SAPE  C31416544   0.601  -0.000   9.137 -1.1380  0.3396 -0.0472
  149SAPE  H14X16545   0.519   0.075   9.130 -0.1133  1.5187  0.4478
  149SAPE  H14Y16546   0.555  -0.096   9.172  1.2995 -0.4857  0.9732
  149SAPE  C31516547   0.687  -0.015   9.006 -0.2353  0.5004  0.0637
  149SAPE  H15X16548   0.779  -0.064   9.046  0.2902 -0.5842 -2.4183
  149SAPE  H15Y16549   0.715   0.089   8.981  0.3194  0.3915  0.2123
  149SAPE  C31616550   0.618  -0.103   8.894 -0.4686 -0.4162  0.1149
  149SAPE  H16X16551   0.640  -0.211   8.911 -1.1241 -0.3734  1.2404
  149SAPE  H16Y16552   0.673  -0.078   8.801  0.4084  0.4357  0.8496
  149SAPE  C31716553   0.471  -0.075   8.873  1.2698  0.0042 -0.0437
  149SAPE  H17X16554   0.408  -0.084   8.964 -0.4372 -0.6401 -1.2751
  149SAPE  H17Y16555   0.421  -0.149   8.807 -0.6780  0.1425  1.2313
  149SAPE  C31816556   0.455   0.072   8.833  0.6809 -0.3332  0.4173
  149SAPE  H18X16557   0.516   0.080   8.740 -0.2829 -0.7233 -0.2496
  149SAPE  H18Y16558   0.501   0.149   8.899  1.0123  0.1394 -0.3569
  149SAPE  H18Z16559   0.351   0.102   8.810  1.5177  1.3569 -1.3284
  150SAPE     N16560   2.428   6.378  10.656  0.0013  0.8404  0.3427
  150SAPE   HN116561   2.464   6.473  10.637 -1.1305  1.0277 -0.8417
  150SAPE   HN216562   2.504   6.345  10.720  0.6506 -0.0635 -0.8698
  150SAPE   HN316563   2.420   6.311  10.577 -0.3825  2.5894 -1.1226
  150SAPE   C1216564   2.304   6.374  10.747  0.5189  0.1384  0.0247
  150SAPE  H12A16565   2.218   6.399  10.681  0.1962  0.9552  0.7400
  150SAPE  H12B16566   2.313   6.438  10.837 -2.6956 -0.6047  0.9420
  150SAPE   C1116567   2.270   6.227  10.805 -0.4345 -0.7611 -0.0366
  150SAPE  H11A16568   2.238   6.158  10.724 -0.5483  1.0867 -1.5973
  150SAPE  H11B16569   2.178   6.237  10.865  0.1107  0.5323  0.5982
  150SAPE     P16570   2.458   6.035  10.820 -0.2753 -0.2287  0.2560
  150SAPE   O1316571   2.579   6.018  10.899 -0.0377  0.3570  0.2439
  150SAPE   O1416572   2.343   5.939  10.814  0.1550  0.1225 -0.1499
  150SAPE   O1216573   2.389   6.171  10.870 -0.3246 -0.3001  0.2628
  150SAPE   O1116574   2.490   6.082  10.677 -0.5863 -0.3561  0.2527
  150SAPE    C116575   2.602   6.014  10.610 -0.0384 -0.2590 -0.7863
  150SAPE    HA16576   2.697   6.040  10.660 -0.3917  0.4315 -0.4634
  150SAPE    HB16577   2.583   5.905  10.600  1.0310 -0.8175  2.6265
  150SAPE    C216578   2.618   6.066  10.468  1.4759  0.0578  0.0713
  150SAPE    HS16579   2.627   6.177  10.468 -0.1160  0.1971 -0.4953
  150SAPE   O2116580   2.512   6.026  10.381  0.3077 -0.5077  0.0379
  150SAPE   C2116581   2.403   6.097  10.369 -0.1975  0.0165  0.6759
  150SAPE   O2216582   2.378   6.197  10.433 -0.7080 -0.3404 -0.7928
  150SAPE   C2216583   2.320   6.031  10.255  0.3172  0.0910 -0.0122
  150SAPE   H2R16584   2.400   6.024  10.178 -2.4546  0.7884 -3.0642
  150SAPE   H2S16585   2.290   5.927  10.283 -1.8546  0.0768 -2.2061
  150SAPE    C316586   2.744   6.009  10.400  0.3903 -0.2575 -0.5373
  150SAPE    HX16587   2.752   5.901  10.422  0.7378  0.1576  1.5236
  150SAPE    HY16588   2.824   6.059  10.460 -3.1642  4.7715  0.3050
  150SAPE   O3116589   2.765   6.048  10.263  0.2092 -0.2748  0.2271
  150SAPE   C3116590   2.880   5.997  10.211  0.3083  0.3447 -0.6083
  150SAPE   O3216591   2.950   5.911  10.258 -0.0087 -0.0442  0.1462
  150SAPE   C3216592   2.910   6.085  10.086  0.7012  0.5038  0.1871
  150SAPE   H2X16593   2.814   6.136  10.062 -0.7242 -2.8216 -1.6251
  150SAPE   H2Y16594   2.931   6.036   9.988  1.5429 -0.3122  0.7712
  150SAPE   C2316595   2.210   6.118  10.195 -0.1743  0.1331 -0.2372
  150SAPE   H3R16596   2.244   6.224  10.205  1.1869 -0.4524  1.4911
  150SAPE   H3S16597   2.106   6.108  10.233 -0.7809 -0.2538 -1.9821
  150SAPE   C2416598   2.189   6.086  10.040  0.0792  0.0719 -0.1177
  150SAPE   H4R16599   2.268   6.125   9.972 -0.5406  0.3413 -0.6921
  150SAPE   H4S16600   2.098   6.144  10.014 -0.7589 -0.2770  1.9093
  150SAPE   C2516601   2.169   5.936  10.023 -0.3442 -0.5760  0.5312
  150SAPE   H5R16602   2.177   5.880  10.117  0.2069 -0.5442  0.5054
  150SAPE   C2616603   2.126   5.871   9.916  0.4001  0.3268 -0.6990
  150SAPE   H6R16604   2.111   5.763   9.925  2.0441  0.3320  2.9985
  150SAPE   C2716605   2.085   5.940   9.789 -0.4541 -0.0476 -0.2245
  150SAPE   H7R16606   2.132   6.041   9.782 -0.7511 -0.0889 -3.4622
  150SAPE   H7S16607   1.975   5.950   9.806 -0.4466  1.5141 -0.9173
  150SAPE   C2816608   2.102   5.851   9.669  0.4316 -0.2384 -0.0377
  150SAPE   H8R16609   2.200   5.802   9.662 -0.1326 -1.0578 -2.3205
  150SAPE   C2916610   2.029   5.858   9.559 -0.8152 -0.0865 -0.2089
  150SAPE   H9R16611   2.049   5.786   9.478  1.7370  0.5848 -0.2031
  150SAPE  C21016612   1.902   5.938   9.537 -0.1337 -0.4591 -0.1751
  150SAPE  H10R16613   1.856   5.968   9.633  0.8234  0.5793 -0.0277
  150SAPE  H10S16614   1.823   5.869   9.501 -0.1827 -1.2605  1.4198
  150SAPE  C21116615   1.922   6.050   9.449 -0.0852 -0.4224  0.2754
  150SAPE  H11R16616   1.930   6.141   9.511 -1.3330 -0.8309  1.0445
  150SAPE  C21216617   1.919   6.046   9.314 -0.5924  0.0178  0.3327
  150SAPE  H12R16618   1.947   6.133   9.252  0.3107 -0.6258 -0.1654
  150SAPE  C21316619   1.892   5.917   9.239 -0.3752 -0.4437 -0.7252
  150SAPE  H13R16620   1.887   5.824   9.299  1.2248 -0.9017 -1.2697
  150SAPE  H13S16621   1.981   5.898   9.175 -0.7200 -1.5788 -0.8861
  150SAPE  C21416622   1.786   5.917   9.140  0.0625 -0.2366 -0.1040
  150SAPE  H14R16623   1.687   5.880   9.170 -0.5845  0.7152 -1.0351
  150SAPE  C21516624   1.791   5.952   9.010  0.2048  1.3827  0.1031
  150SAPE  H15R16625   1.704   5.927   8.947 -0.3334 -0.9794  1.7248
  150SAPE  C21616626   1.901   6.005   8.932  0.1935 -0.8282  0.5856
  150SAPE  H16R16627   1.989   6.018   8.999  0.7433 -1.1814 -0.0595
  150SAPE  H16S16628   1.887   6.107   8.891 -3.0509 -2.1670 -1.8531
  150SAPE  C21716629   1.950   5.917   8.812 -0.2178 -0.5534 -0.2134
  150SAPE  H17R16630   1.875   5.888   8.734 -0.6914  2.9113 -1.1330
  150SAPE  H17S16631   1.983   5.814   8.840  0.0112  0.3376  2.9125
  150SAPE  C21816632   2.078   5.986   8.761 -0.6972 -0.1467  0.8440
  150SAPE  H18R16633   2.146   6.009   8.845  1.7003 -0.5752 -0.9154
  150SAPE  H18S16634   2.052   6.082   8.711  1.6497 -0.2313 -0.5984
  150SAPE  C21916635   2.163   5.895   8.667 -0.0227 -0.2144  0.5842
  150SAPE  H19R16636   2.094   5.877   8.582  0.6078  0.4948 -0.0831
  150SAPE  H19S16637   2.175   5.800   8.725 -1.0997 -2.0226 -2.0628
  150SAPE  C22016638   2.291   5.957   8.613 -0.3177 -0.8414  0.4129
  150SAPE  H20R16639   2.266   6.058   8.573  0.3707  0.4425  3.0880
  150SAPE  H20S16640   2.346   5.888   8.546  0.0558 -0.8898  0.7725
  150SAPE  H20T16641   2.353   5.978   8.702 -0.2620 -3.2065  0.9495
  150SAPE   C3316642   3.023   6.188  10.100 -0.0202 -0.2966  0.2957
  150SAPE   H3X16643   3.114   6.157  10.156  0.2516  0.3279  0.2094
  150SAPE   H3Y16644   2.992   6.264  10.175  0.6410  0.8611 -0.5828
  150SAPE   C3416645   3.063   6.262   9.964 -0.3369 -0.5930  0.2936
  150SAPE   H4X16646   2.973   6.303   9.913 -0.3991 -0.3119  0.6331
  150SAPE   H4Y16647   3.106   6.184   9.897  0.1184 -0.5997  0.5908
  150SAPE   C3516648   3.160   6.386   9.965  0.3561 -0.2392  0.1416
  150SAPE   H5X16649   3.256   6.343  10.000 -0.6717 -1.9085  0.9991
  150SAPE   H5Y16650   3.146   6.471  10.035 -0.9964 -1.3217  1.2290
  150SAPE   C3616651   3.183   6.444   9.822  0.0322  0.0502 -0.9134
  150SAPE   H6X16652   3.210   6.360   9.754 -0.3537 -1.6231  0.9666
  150SAPE   H6Y16653   3.270   6.513   9.817 -2.4441  3.3005 -1.0538
  150SAPE   C3716654   3.061   6.524   9.772  0.3391 -0.3418  0.3601
  150SAPE   H7X16655   3.055   6.616   9.834  4.0840  1.3930 -1.6532
  150SAPE   H7Y16656   2.965   6.470   9.784  0.1482 -0.3741 -1.1946
  150SAPE   C3816657   3.070   6.557   9.624 -0.0448 -0.4383 -0.3420
  150SAPE   H8X16658   3.087   6.460   9.574  0.7310 -0.5294  0.0868
  150SAPE   H8Y16659   3.156   6.623   9.598  0.1254 -0.9162 -1.0058
  150SAPE   C3916660   2.943   6.616   9.568 -0.5901 -0.4555 -0.0944
  150SAPE   H9X16661   2.928   6.719   9.609  3.0835 -0.5658  1.7018
  150SAPE   H9Y16662   2.851   6.561   9.599  1.5296 -2.8009  2.2266
  150SAPE  C31016663   2.959   6.648   9.423 -0.5656  0.6899 -0.1625
  150SAPE  H10X16664   2.980   6.552   9.372 -0.1482  1.0302 -0.6325
  150SAPE  H10Y16665   3.051   6.706   9.399 -0.5395  1.2644  1.2738
  150SAPE  C31116666   2.840   6.728   9.364 -0.4882  0.3777  0.2398
  150SAPE  H11X16667   2.844   6.824   9.420 -1.2222 -0.1283  1.1807
  150SAPE  H11Y16668   2.747   6.669   9.378 -0.0267 -1.0061 -2.2043
  150SAPE  C31216669   2.856   6.745   9.209  0.2667  0.3241 -0.0333
  150SAPE  H12X16670   2.764   6.776   9.155 -1.3180 -0.2293  2.2558
  150SAPE  H12Y16671   2.878   6.645   9.168  0.0186 -0.1056  0.8621
  150SAPE  C31316672   2.974   6.833   9.179  0.3872 -0.3697  0.1740
  150SAPE  H13X16673   3.067   6.773   9.190 -0.2666 -0.9700  2.6530
  150SAPE  H13Y16674   2.975   6.928   9.237  1.1681 -1.2069  1.5543
  150SAPE  C31416675   2.976   6.863   9.027 -0.4084  0.2166 -0.0057
  150SAPE  H14X16676   2.897   6.935   8.995 -1.1644  0.1625  1.7021
  150SAPE  H14Y16677   2.952   6.766   8.977 -2.0269  0.3505  0.4990
  150SAPE  C31516678   3.120   6.904   8.979  0.4623  0.6959 -0.4366
  150SAPE  H15X16679   3.202   6.853   9.034 -0.6077 -2.3689 -1.5831
  150SAPE  H15Y16680   3.136   7.002   9.029  1.1865 -0.1721  1.0455
  150SAPE  C31616681   3.147   6.896   8.828  0.3295  0.1070 -0.1261
  150SAPE  H16X16682   3.059   6.944   8.779 -1.2771 -0.2172  2.3636
  150SAPE  H16Y16683   3.148   6.786   8.813  1.2967 -0.0863  1.3072
  150SAPE  C31716684   3.278   6.969   8.796 -0.0551  1.0079 -0.5568
  150SAPE  H17X16685   3.366   6.914   8.835  0.1872  2.7545  1.4445
  150SAPE  H17Y16686   3.278   7.064   8.854  0.3741 -0.9229  2.7291
  150SAPE  C31816687   3.299   6.999   8.643 -0.5002  0.5644  0.4858
  150SAPE  H18X16688   3.331   6.907   8.589  1.7246  1.7309 -0.2234
  150SAPE  H18Y16689   3.372   7.081   8.633 -1.8017  1.6152 -0.6267
  150SAPE  H18Z16690   3.201   7.034   8.604 -0.4059 -1.2031 -1.4275
  151SAPE     N16691   6.537   3.454  10.885  1.3351 -0.4679  0.0842
  151SAPE   HN116692   6.562   3.354  10.871  3.2716 -0.3726  2.4859
  151SAPE   HN216693   6.501   3.470  10.981  0.4395  1.4693 -0.5487
  151SAPE   HN316694   6.467   3.479  10.813 -0.9993  0.1484  2.5026
  151SAPE   C1216695   6.658   3.534  10.858  0.0251  0.6736 -0.4285
  151SAPE  H12A16696   6.751   3.495  10.903  0.1842 -1.0426 -2.1879
  151SAPE  H12B16697   6.632   3.629  10.911 -1.5334 -0.0078  0.0483
  151SAPE   C1116698   6.674   3.562  10.706  0.4861  0.3716  0.0290
  151SAPE  H11A16699   6.692   3.462  10.662 -3.3162 -0.4048  0.1096
  151SAPE  H11B16700   6.757   3.635  10.688  1.1454 -0.0739  1.2188
  151SAPE     P16701   6.537   3.585  10.495  0.1341 -0.2118  0.0515
  151SAPE   O1316702   6.503   3.441  10.475 -0.4490  0.6708 -0.1560
  151SAPE   O1416703   6.441   3.690  10.449 -0.0079  0.1124  0.1563
  151SAPE   O1216704   6.559   3.612  10.650  0.0648  0.4882 -0.0909
  151SAPE   O1116705   6.673   3.614  10.415 -0.7264  0.3607 -0.7734
  151SAPE    C116706   6.748   3.520  10.341  0.4609  0.2461  0.0054
  151SAPE    HA16707   6.857   3.540  10.348  0.5269  0.2193 -0.9130
  151SAPE    HB16708   6.741   3.413  10.372  0.2837  0.1412 -0.3949
  151SAPE    C216709   6.715   3.532  10.187 -0.2190 -0.0797  0.7372
  151SAPE    HS16710   6.760   3.622  10.142  3.3003 -2.4846 -0.8644
  151SAPE   O2116711   6.569   3.529  10.176 -0.6100 -0.2380  0.4082
  151SAPE   C2116712   6.509   3.634  10.127 -0.4287  0.0879  0.1569
  151SAPE   O2216713   6.559   3.736  10.083 -0.4032 -0.2337 -0.0831
  151SAPE   C2216714   6.363   3.601  10.127  0.2789 -0.1653  0.5161
  151SAPE   H2R16715   6.347   3.498  10.088  0.5580 -0.1434  0.3357
  151SAPE   H2S16716   6.342   3.599  10.236  1.4000 -0.8329  0.7252
  151SAPE    C316717   6.769   3.415  10.108 -0.5791 -0.4958 -0.3218
  151SAPE    HX16718   6.722   3.320  10.141 -1.0299 -1.5241 -3.7121
  151SAPE    HY16719   6.873   3.409  10.147 -1.8392  0.0123  3.2974
  151SAPE   O3116720   6.760   3.446   9.964  0.0574  0.2175 -0.6553
  151SAPE   C3116721   6.827   3.354   9.896  1.0938  0.2633 -0.4450
  151SAPE   O3216722   6.866   3.249   9.942 -0.6369  0.0987  0.0435
  151SAPE   C3216723   6.846   3.391   9.746 -0.0631 -0.1593  0.1301
  151SAPE   H2X16724   6.936   3.338   9.710 -1.1144 -1.0243 -1.3220
  151SAPE   H2Y16725   6.852   3.501   9.758 -0.9993 -0.0816 -0.0185
  151SAPE   C2316726   6.266   3.694  10.039 -0.1353 -0.0564  0.4007
  151SAPE   H3R16727   6.287   3.802  10.049  1.4296 -0.2333 -0.8350
  151SAPE   H3S16728   6.169   3.681  10.092 -1.5374  0.8031 -1.8996
  151SAPE   C2416729   6.236   3.656   9.893  0.0556  0.0918 -0.0050
  151SAPE   H4R16730   6.150   3.722   9.866  1.0181  2.4272  2.4088
  151SAPE   H4S16731   6.200   3.551   9.899  2.5375 -0.9946 -2.9055
  151SAPE   C2516732   6.355   3.659   9.803  0.2057 -0.2097 -0.0561
  151SAPE   H5R16733   6.444   3.618   9.853 -1.8459 -3.4165  1.0786
  151SAPE   C2616734   6.356   3.674   9.666 -0.4831  0.0982  0.4224
  151SAPE   H6R16735   6.456   3.679   9.620 -0.7318  1.0247 -0.0244
  151SAPE   C2716736   6.235   3.706   9.579 -0.7677  0.4080 -0.0637
  151SAPE   H7R16737   6.250   3.744   9.476 -3.2735 -0.3664 -0.7461
  151SAPE   H7S16738   6.190   3.790   9.636  2.1223  0.6198  2.0363
  151SAPE   C2816739   6.130   3.594   9.576 -0.1109  0.3615 -0.5289
  151SAPE   H8R16740   6.104   3.544   9.670  0.2110  1.9744  0.4462
  151SAPE   C2916741   6.059   3.556   9.466  0.0687 -0.0908 -0.2266
  151SAPE   H9R16742   5.991   3.472   9.484 -0.0868 -0.2290 -1.4466
  151SAPE  C21016743   6.067   3.605   9.324  0.2078 -1.0324 -0.2702
  151SAPE  H10R16744   6.052   3.714   9.309  1.4614 -1.0411 -1.7255
  151SAPE  H10S16745   5.979   3.568   9.268  0.2503 -0.1925 -0.8832
  151SAPE  C21116746   6.191   3.556   9.255 -0.5240 -0.1819 -0.2509
  151SAPE  H11R16747   6.274   3.519   9.316  0.5967 -0.1522 -1.7160
  151SAPE  C21216748   6.208   3.568   9.125  0.1463 -0.5896  0.5640
  151SAPE  H12R16749   6.303   3.530   9.082 -0.0060 -0.2392 -0.0909
  151SAPE  C21316750   6.108   3.633   9.035 -0.0407 -0.5402 -0.1341
  151SAPE  H13R16751   6.084   3.732   9.079  0.8160  1.4843 -4.0071
  151SAPE  H13S16752   6.013   3.574   9.028 -0.1604 -0.4719  0.8934
  151SAPE  C21416753   6.168   3.664   8.902 -1.0041 -0.6826 -0.2027
  151SAPE  H14R16754   6.254   3.733   8.901 -2.5543  1.3055 -1.6238
  151SAPE  C21516755   6.123   3.633   8.778 -0.4393  0.0652 -0.5365
  151SAPE  H15R16756   6.185   3.668   8.695  0.5076 -2.4022 -0.9050
  151SAPE  C21616757   5.986   3.576   8.733 -0.4313  0.3781 -0.7921
  151SAPE  H16R16758   5.916   3.659   8.711 -0.2258  0.8037  0.1529
  151SAPE  H16S16759   5.937   3.524   8.818  2.8851  0.5312  1.2751
  151SAPE  C21716760   5.996   3.466   8.624  0.0857 -0.8915 -0.2433
  151SAPE  H17R16761   5.905   3.454   8.562  0.2957 -2.1784 -0.3142
  151SAPE  H17S16762   6.018   3.368   8.673 -0.0313 -0.5016  0.6083
  151SAPE  C21816763   6.108   3.490   8.519  0.2584  0.2257 -0.2450
  151SAPE  H18R16764   6.207   3.469   8.565  0.8935 -1.5404 -2.3328
  151SAPE  H18S16765   6.107   3.588   8.466 -2.6029  0.7502  0.7253
  151SAPE  C21916766   6.085   3.389   8.405  0.5661  0.4434  0.2194
  151SAPE  H19R16767   5.984   3.397   8.359 -0.5619  0.6780  2.6747
  151SAPE  H19S16768   6.077   3.284   8.441  1.6995  0.3221  0.1542
  151SAPE  C22016769   6.186   3.399   8.288  0.2659  0.5952  0.0414
  151SAPE  H20R16770   6.153   3.335   8.204 -0.9213  2.9768 -1.3472
  151SAPE  H20S16771   6.286   3.367   8.325  1.7366  1.2068 -3.2327
  151SAPE  H20T16772   6.192   3.502   8.248  3.9597  0.4669  0.1082
  151SAPE   C3316773   6.729   3.365   9.654  1.2518 -0.2933  0.1409
  151SAPE   H3X16774   6.637   3.419   9.683  1.4243 -0.5818  1.2673
  151SAPE   H3Y16775   6.706   3.256   9.654  1.7523 -0.4043 -0.4642
  151SAPE   C3416776   6.752   3.394   9.507 -0.5335 -0.5667  0.0205
  151SAPE   H4X16777   6.846   3.341   9.484  0.7018  0.4439  2.5063
  151SAPE   H4Y16778   6.764   3.500   9.476  0.9802 -1.3009 -1.9510
  151SAPE   C3516779   6.639   3.333   9.425  0.0190  0.2388  0.1895
  151SAPE   H5X16780   6.547   3.384   9.461 -0.0257 -0.1010  0.5655
  151SAPE   H5Y16781   6.644   3.223   9.442 -0.8606  0.1908  0.1448
  151SAPE   C3616782   6.655   3.359   9.265  0.0720 -0.2741 -1.0504
  151SAPE   H6X16783   6.765   3.356   9.248  0.2455 -1.7025  0.2047
  151SAPE   H6Y16784   6.611   3.458   9.241  1.4350  0.2091 -1.5656
  151SAPE   C3716785   6.594   3.246   9.191 -0.5119  0.4783  0.0543
  151SAPE   H7X16786   6.484   3.261   9.189 -0.2848  2.0543 -0.8981
  151SAPE   H7Y16787   6.620   3.144   9.227 -0.6346  0.8373  1.1895
  151SAPE   C3816788   6.646   3.237   9.047 -0.8039 -0.3112 -0.2259
  151SAPE   H8X16789   6.608   3.141   9.006  1.2157 -0.8365 -0.9035
  151SAPE   H8Y16790   6.757   3.243   9.051 -0.5797 -1.9141 -2.9119
  151SAPE   C3916791   6.603   3.357   8.956  0.9037  0.2063 -0.4407
  151SAPE   H9X16792   6.678   3.434   8.983  1.1192 -0.0908 -0.1923
  151SAPE   H9Y16793   6.496   3.385   8.969  1.7424  2.2183  2.6344
  151SAPE  C31016794   6.623   3.328   8.804 -0.5632  0.0885  0.1609
  151SAPE  H10X16795   6.550   3.253   8.766 -0.9494  2.2803 -3.7640
  151SAPE  H10Y16796   6.724   3.284   8.795 -0.6229  0.3163 -1.8294
  151SAPE  C31116797   6.617   3.449   8.704  0.4708 -0.0607  0.0417
  151SAPE  H11X16798   6.714   3.504   8.707  0.2825  0.2547  0.2961
  151SAPE  H11Y16799   6.536   3.519   8.731  1.2036  0.7291  0.1978
  151SAPE  C31216800   6.598   3.401   8.553 -0.3027 -0.4193  0.3617
  151SAPE  H12X16801   6.523   3.320   8.568  1.0787 -1.9666 -0.8562
  151SAPE  H12Y16802   6.692   3.348   8.526 -0.4543 -1.0061  0.9606
  151SAPE  C31316803   6.535   3.495   8.454  0.6614 -1.0174 -0.6288
  151SAPE  H13X16804   6.427   3.516   8.471  0.0361 -4.2755 -0.2438
  151SAPE  H13Y16805   6.543   3.450   8.353 -0.5855 -2.1360 -0.2444
  151SAPE  C31416806   6.613   3.628   8.466  0.1593  0.3076  0.5623
  151SAPE  H14X16807   6.717   3.594   8.451 -0.2138 -1.2384  1.3461
  151SAPE  H14Y16808   6.588   3.683   8.559 -2.8403  0.3478 -0.2052
  151SAPE  C31516809   6.574   3.731   8.358 -0.4806  0.0119 -0.1340
  151SAPE  H15X16810   6.465   3.749   8.372 -0.8256 -1.5616 -0.6628
  151SAPE  H15Y16811   6.584   3.703   8.251 -0.7259 -2.4662  0.4538
  151SAPE  C31616812   6.647   3.865   8.358  0.2319  0.0261 -1.3913
  151SAPE  H16X16813   6.754   3.870   8.329  0.2884  0.2581 -1.1352
  151SAPE  H16Y16814   6.656   3.908   8.460  0.8816 -0.8267 -1.0798
  151SAPE  C31716815   6.562   3.968   8.291  0.2862  0.2108  0.0265
  151SAPE  H17X16816   6.461   3.975   8.335 -0.0869 -1.7197 -0.5061
  151SAPE  H17Y16817   6.538   3.930   8.189  1.7956 -1.5030  0.2883
  151SAPE  C31816818   6.623   4.109   8.297 -0.2656 -0.5916  0.2248
  151SAPE  H18X16819   6.734   4.110   8.303 -0.1596  2.5252 -1.6476
  151SAPE  H18Y16820   6.585   4.162   8.387 -1.2281  0.3128 -0.6979
  151SAPE  H18Z16821   6.611   4.166   8.203 -0.4299  0.7020  1.0233
  152SAPE     N16822   1.505   3.045  10.615 -0.7634 -0.1449  0.4722
  152SAPE   HN116823   1.480   3.078  10.520  2.1762  0.5777 -0.0975
  152SAPE   HN216824   1.585   3.109  10.635 -0.3738 -0.4835  0.0121
  152SAPE   HN316825   1.530   2.944  10.617 -2.4639 -0.5829  0.6710
  152SAPE   C1216826   1.388   3.067  10.706  0.8095  0.4824  0.0265
  152SAPE  H12A16827   1.361   3.172  10.681 -1.4221 -0.2924 -0.9459
  152SAPE  H12B16828   1.410   3.045  10.812  0.9830  1.1271  0.1298
  152SAPE   C1116829   1.285   2.960  10.663  0.7805 -0.8493 -0.5031
  152SAPE  H11A16830   1.229   2.975  10.568 -1.2147 -1.7758  0.4841
  152SAPE  H11B16831   1.214   2.963  10.749  0.7871 -0.1789 -0.5208
  152SAPE     P16832   1.264   2.695  10.630 -0.4858  0.2415  0.3326
  152SAPE   O1316833   1.342   2.584  10.687 -0.0409  0.0937  0.0182
  152SAPE   O1416834   1.116   2.706  10.656 -0.7663 -0.3019 -0.1868
  152SAPE   O1216835   1.339   2.829  10.659 -0.3103 -0.2754  0.2788
  152SAPE   O1116836   1.277   2.692  10.473  0.2252  0.1504  0.5102
  152SAPE    C116837   1.393   2.681  10.396  0.1254  0.1105 -0.2252
  152SAPE    HA16838   1.447   2.777  10.389 -0.2913  0.3537 -0.0914
  152SAPE    HB16839   1.461   2.606  10.441 -0.9256 -0.3800  0.5730
  152SAPE    C216840   1.359   2.636  10.254  0.5375  0.7808 -0.4577
  152SAPE    HS16841   1.456   2.642  10.200 -0.0044 -0.8576 -1.6472
  152SAPE   O2116842   1.252   2.717  10.195  0.1279 -0.6741 -0.2222
  152SAPE   C2116843   1.288   2.834  10.139  0.3457 -0.0151  0.1445
  152SAPE   O2216844   1.402   2.876  10.143 -0.2466 -0.1519 -0.3801
  152SAPE   C2216845   1.176   2.890  10.050  0.1957 -0.5070 -0.3833
  152SAPE   H2R16846   1.119   2.805  10.005 -1.8280  0.5667  0.0873
  152SAPE   H2S16847   1.106   2.948  10.113 -1.3596 -0.9655 -1.6514
  152SAPE    C316848   1.324   2.481  10.246 -0.2705 -0.6290  0.2430
  152SAPE    HX16849   1.236   2.453  10.309 -0.7592  0.8485  0.2283
  152SAPE    HY16850   1.399   2.402  10.268 -0.7540 -1.1571  0.0116
  152SAPE   O3116851   1.282   2.441  10.115  0.2645 -0.1456 -0.0715
  152SAPE   C3116852   1.366   2.450  10.012 -0.4365  0.0084  0.1837
  152SAPE   O3216853   1.486   2.455  10.020  0.1399  0.0205  0.1954
  152SAPE   C3216854   1.284   2.453   9.885  0.0636  0.4166  0.0126
  152SAPE   H2X16855   1.193   2.513   9.906 -1.8553 -2.7983  1.1863
  152SAPE   H2Y16856   1.245   2.354   9.855  2.7642 -1.8379  3.5638
  152SAPE   C2316857   1.234   2.968   9.937 -0.3904 -0.0411  0.2194
  152SAPE   H3R16858   1.292   2.897   9.874 -0.1337 -0.8579  1.3702
  152SAPE   H3S16859   1.302   3.053   9.960  1.9438 -1.6027 -0.7265
  152SAPE   C2416860   1.129   3.015   9.832  0.4173  0.4639 -0.5246
  152SAPE   H4R16861   1.051   3.066   9.893  0.4400 -1.2750  1.0109
  152SAPE   H4S16862   1.083   2.923   9.791  1.2264 -0.7866  1.2922
  152SAPE   C2516863   1.170   3.120   9.731 -0.5455  0.1606  0.5682
  152SAPE   H5R16864   1.163   3.220   9.774 -0.9863  0.8023 -0.9596
  152SAPE   C2616865   1.205   3.093   9.605  0.2031 -0.2290 -0.5700
  152SAPE   H6R16866   1.216   3.174   9.531  0.7182  0.3751  0.1653
  152SAPE   C2716867   1.193   2.956   9.538 -0.0195 -0.2926  0.9652
  152SAPE   H7R16868   1.161   2.877   9.609  0.4906  0.0368  1.5640
  152SAPE   H7S16869   1.293   2.920   9.509 -0.3090  0.9804 -1.7650
  152SAPE   C2816870   1.091   2.956   9.430 -0.0187  0.1017 -0.1789
  152SAPE   H8R16871   0.988   2.983   9.460  0.3155  1.5739 -0.3123
  152SAPE   C2916872   1.108   2.923   9.301 -0.5210  0.3570 -0.2299
  152SAPE   H9R16873   1.016   2.899   9.246 -0.5635  0.0534 -0.0296
  152SAPE  C21016874   1.240   2.878   9.240 -0.2520  0.1346 -0.4474
  152SAPE  H10R16875   1.226   2.776   9.200 -1.2392 -0.2830  0.9128
  152SAPE  H10S16876   1.320   2.861   9.315 -2.1876 -0.5916  1.5075
  152SAPE  C21116877   1.286   2.955   9.118 -0.2477 -0.1584  0.0940
  152SAPE  H11R16878   1.356   3.038   9.138  1.2856 -1.1044 -1.2105
  152SAPE  C21216879   1.256   2.918   8.988  0.5937  0.3251 -0.1584
  152SAPE  H12R16880   1.310   2.964   8.903 -0.4199 -0.0541 -1.0143
  152SAPE  C21316881   1.167   2.801   8.947 -0.1225 -0.5732  0.1882
  152SAPE  H13R16882   1.086   2.844   8.884  1.3047  1.3337 -0.3755
  152SAPE  H13S16883   1.105   2.767   9.033 -2.0484  2.9134  0.2448
  152SAPE  C21416884   1.252   2.699   8.876 -0.8247  0.1490 -0.6705
  152SAPE  H14R16885   1.288   2.617   8.940 -0.0955  0.3827 -0.7667
  152SAPE  C21516886   1.285   2.690   8.751  0.9764 -0.1589 -0.2616
  152SAPE  H15R16887   1.346   2.600   8.732 -0.1800 -1.0081 -0.0384
  152SAPE  C21616888   1.229   2.775   8.647  0.0070  0.9169  0.3699
  152SAPE  H16R16889   1.300   2.856   8.618  1.2969 -0.8126 -1.4556
  152SAPE  H16S16890   1.135   2.825   8.678 -0.2796  0.1574  0.7161
  152SAPE  C21716891   1.199   2.708   8.516  0.4521  0.3382 -0.4775
  152SAPE  H17R16892   1.285   2.668   8.458  0.3251  1.6511 -1.5762
  152SAPE  H17S16893   1.147   2.779   8.448 -0.0070 -0.2033 -0.7037
  152SAPE  C21816894   1.093   2.599   8.531 -0.2104  0.4217  0.1650
  152SAPE  H18R16895   1.004   2.652   8.570 -0.7678  2.2918 -3.4157
  152SAPE  H18S16896   1.113   2.518   8.604 -0.0890  1.0603  0.8455
  152SAPE  C21916897   1.053   2.542   8.390 -0.6535  0.5880  0.7691
  152SAPE  H19R16898   1.055   2.618   8.310 -1.3707 -0.1087  0.0831
  152SAPE  H19S16899   0.946   2.512   8.386 -1.1805  2.1135  2.6731
  152SAPE  C22016900   1.137   2.424   8.344  0.1445  0.2428  0.0950
  152SAPE  H20R16901   1.135   2.408   8.234  0.8719  2.2518 -0.2253
  152SAPE  H20S16902   1.102   2.338   8.405  0.3087 -0.1677 -0.3831
  152SAPE  H20T16903   1.243   2.444   8.371  0.0946  0.1644  0.3459
  152SAPE   C3316904   1.349   2.534   9.763  0.0290  0.3240  0.0046
  152SAPE   H3X16905   1.448   2.487   9.742  0.3323  1.1197 -0.3694
  152SAPE   H3Y16906   1.377   2.632   9.807  3.1953 -0.3789 -0.3404
  152SAPE   C3416907   1.250   2.551   9.656 -0.4381  0.1613 -0.3954
  152SAPE   H4X16908   1.294   2.622   9.582 -0.2301 -0.9596 -1.3616
  152SAPE   H4Y16909   1.152   2.587   9.693 -2.9526 -3.5082 -3.0878
  152SAPE   C3516910   1.208   2.429   9.574  0.0069 -0.4028 -0.3812
  152SAPE   H5X16911   1.139   2.359   9.626 -0.9355  0.3515 -0.6096
  152SAPE   H5Y16912   1.296   2.367   9.547 -2.4556 -4.0918 -0.2929
  152SAPE   C3616913   1.144   2.457   9.441 -1.1187  0.4425  0.1651
  152SAPE   H6X16914   1.213   2.505   9.368 -2.1771  0.1723 -1.0338
  152SAPE   H6Y16915   1.055   2.523   9.445 -0.7097  0.9713  0.8094
  152SAPE   C3716916   1.109   2.321   9.376 -0.5951 -0.0781  0.4360
  152SAPE   H7X16917   1.036   2.263   9.437  0.4029 -0.7401  1.0090
  152SAPE   H7Y16918   1.194   2.250   9.363 -2.2003 -1.6174 -2.1491
  152SAPE   C3816919   1.052   2.332   9.234 -0.4746 -0.5239  0.2994
  152SAPE   H8X16920   0.948   2.370   9.230 -0.6334 -1.0926 -2.1730
  152SAPE   H8Y16921   1.047   2.225   9.204  2.5252 -0.1479 -1.7751
  152SAPE   C3916922   1.115   2.420   9.131  0.5808 -0.7849 -0.2860
  152SAPE   H9X16923   1.222   2.403   9.155  0.2038 -2.6203  0.2289
  152SAPE   H9Y16924   1.083   2.523   9.158  0.8364 -0.5398 -0.9048
  152SAPE  C31016925   1.076   2.375   8.993 -0.1034  0.8216  0.0890
  152SAPE  H10X16926   1.105   2.270   8.974 -2.1440  0.2086  0.1528
  152SAPE  H10Y16927   1.125   2.438   8.916  0.0212  2.1965  1.2579
  152SAPE  C31116928   0.937   2.417   8.960  0.4149  0.8477  0.1941
  152SAPE  H11X16929   0.914   2.521   8.991 -3.8653  0.0787 -0.0951
  152SAPE  H11Y16930   0.872   2.348   9.019 -0.4742  2.5949  1.3250
  152SAPE  C31216931   0.913   2.394   8.810 -0.0202  0.0456 -0.0210
  152SAPE  H12X16932   0.971   2.302   8.785  1.0280  0.2340  1.6591
  152SAPE  H12Y16933   0.964   2.477   8.758 -1.4707  1.3822  0.6487
  152SAPE  C31316934   0.769   2.372   8.773  0.5050  0.0298  0.4896
  152SAPE  H13X16935   0.714   2.463   8.803 -1.6826 -1.6046  1.6137
  152SAPE  H13Y16936   0.724   2.281   8.820 -0.2949 -0.0355 -0.3818
  152SAPE  C31416937   0.756   2.344   8.622  0.3692 -0.2200  1.0844
  152SAPE  H14X16938   0.827   2.414   8.573  1.5501 -2.7550 -0.8882
  152SAPE  H14Y16939   0.656   2.363   8.577 -0.0719 -1.6598  1.4524
  152SAPE  C31516940   0.805   2.207   8.587 -0.2749  0.5208 -0.3295
  152SAPE  H15X16941   0.781   2.133   8.666  3.4429 -0.7485 -0.2607
  152SAPE  H15Y16942   0.916   2.195   8.586 -0.3352 -0.1955  1.4051
  152SAPE  C31616943   0.750   2.155   8.451 -0.2414  0.7897  1.2664
  152SAPE  H16X16944   0.779   2.230   8.375 -0.5184  0.8868  1.2575
  152SAPE  H16Y16945   0.639   2.156   8.447 -0.2235 -1.3161 -1.1296
  152SAPE  C31716946   0.805   2.013   8.419  0.0513  0.0024  0.4704
  152SAPE  H17X16947   0.768   1.937   8.491  1.4290  0.4267  1.6468
  152SAPE  H17Y16948   0.915   2.020   8.434  0.1437  0.0590 -0.2313
  152SAPE  C31816949   0.770   1.974   8.274  0.2178 -0.0605 -0.3085
  152SAPE  H18X16950   0.835   2.030   8.203 -1.6879  3.2589  0.4883
  152SAPE  H18Y16951   0.663   1.981   8.245 -0.7866 -1.3825  2.8067
  152SAPE  H18Z16952   0.799   1.867   8.264  1.7916  0.2505  0.7312
  153SAPE     N16953   1.198   4.343  10.843  0.0783  0.7411 -1.0424
  153SAPE   HN116954   1.230   4.402  10.764  1.8557  0.9005 -0.2113
  153SAPE   HN216955   1.281   4.288  10.873 -1.9433 -1.7771  0.1380
  153SAPE   HN316956   1.122   4.279  10.811  0.0284  1.3077 -2.1010
  153SAPE   C1216957   1.145   4.443  10.942 -0.3370  0.2973  0.1184
  153SAPE  H12A16958   1.218   4.527  10.949  0.3855 -0.4616  1.9986
  153SAPE  H12B16959   1.135   4.403  11.045 -0.7411  0.2808  0.0742
  153SAPE   C1116960   1.023   4.508  10.892 -0.3439  0.8309  0.3242
  153SAPE  H11A16961   0.989   4.575  10.974 -2.4306 -0.1184  0.2708
  153SAPE  H11B16962   0.944   4.431  10.885 -0.2345  0.5393  2.0592
  153SAPE     P16963   0.945   4.659  10.688  0.0217 -0.1300  0.0044
  153SAPE   O1316964   0.816   4.605  10.733  0.3312 -0.1422  0.1151
  153SAPE   O1416965   0.975   4.802  10.726 -0.4985  0.2685 -0.3082
  153SAPE   O1216966   1.052   4.570  10.761 -0.2830 -0.4187 -0.3634
  153SAPE   O1116967   0.965   4.621  10.539 -0.4050 -0.6040  0.0148
  153SAPE    C116968   1.053   4.524  10.493 -0.1364 -0.4505  0.2814
  153SAPE    HA16969   1.144   4.517  10.556  2.0178  1.5995 -2.4827
  153SAPE    HB16970   0.997   4.429  10.502  0.3906 -0.7765  0.1231
  153SAPE    C216971   1.098   4.529  10.351  0.9836  0.6684  0.3934
  153SAPE    HS16972   1.178   4.452  10.341 -0.3111 -0.6844  0.4061
  153SAPE   O2116973   1.138   4.663  10.319 -0.6109  0.0644 -0.3723
  153SAPE   C2116974   1.247   4.709  10.386  0.4964 -0.3538 -0.8443
  153SAPE   O2216975   1.335   4.638  10.429  0.1903 -0.6566 -0.5841
  153SAPE   C2216976   1.242   4.858  10.388 -0.6695 -0.3678 -0.2437
  153SAPE   H2R16977   1.219   4.900  10.287 -0.0388  1.2462  0.2609
  153SAPE   H2S16978   1.154   4.869  10.455 -1.1098 -2.4347 -0.4406
  153SAPE    C316979   0.983   4.488  10.248  0.4947  0.5101  0.2028
  153SAPE    HX16980   0.902   4.562  10.270  0.4001  0.3298  0.4710
  153SAPE    HY16981   0.938   4.393  10.284 -0.3749  1.1618  0.8627
  153SAPE   O3116982   1.034   4.475  10.112 -0.2923 -0.1345 -0.0412
  153SAPE   C3116983   1.022   4.590  10.039  0.1190 -0.0036  0.2743
  153SAPE   O3216984   0.981   4.699  10.077  0.5073  0.3001 -0.6434
  153SAPE   C3216985   1.071   4.562   9.907  0.2028 -0.6034 -0.4661
  153SAPE   H2X16986   1.173   4.516   9.910  0.0664 -0.8492  0.3769
  153SAPE   H2Y16987   1.073   4.652   9.842  0.1265  1.7936  2.7352
  153SAPE   C2316988   1.368   4.926  10.456 -1.2105 -0.2236 -0.6174
  153SAPE   H3R16989   1.422   4.878  10.540  0.2779  1.8287 -0.3367
  153SAPE   H3S16990   1.353   5.032  10.486  0.1026 -0.7315  1.9606
  153SAPE   C2416991   1.481   4.931  10.344  0.2914  0.3381  0.1454
  153SAPE   H4R16992   1.506   4.825  10.321  0.5340  0.5510 -0.5711
  153SAPE   H4S16993   1.565   4.988  10.388 -0.4010  1.2380  0.3292
  153SAPE   C2516994   1.444   5.005  10.214  0.6710 -0.9451 -0.7815
  153SAPE   H5R16995   1.437   5.112  10.239  2.6639 -1.2092  1.0306
  153SAPE   C2616996   1.431   4.966  10.089  0.2557  0.1394  0.4666
  153SAPE   H6R16997   1.400   5.037  10.011  0.5325 -1.5109 -1.1731
  153SAPE   C2716998   1.448   4.823  10.041  0.0422  0.3665 -0.1963
  153SAPE   H7R16999   1.345   4.789  10.017 -1.0850  2.9782  0.8047
  153SAPE   H7S17000   1.455   4.767  10.136 -1.7826  0.2923 -0.0958
  153SAPE   C2817001   1.545   4.780   9.932  0.1709 -0.3389 -0.3823
  153SAPE   H8R17002   1.649   4.759   9.960  1.5995  2.5650 -3.3312
  153SAPE   C2917003   1.514   4.756   9.805 -0.4391 -0.6882 -0.1458
  153SAPE   H9R17004   1.602   4.735   9.742 -1.6602 -1.2459 -1.6698
  153SAPE  C21017005   1.384   4.749   9.743  0.1234  0.3365  0.1663
  153SAPE  H10R17006   1.303   4.736   9.818  0.3752 -2.1181  0.0563
  153SAPE  H10S17007   1.378   4.672   9.664  0.4360  0.6407 -0.1571
  153SAPE  C21117008   1.353   4.880   9.672  0.2259 -0.2322  0.1202
  153SAPE  H11R17009   1.380   4.971   9.727 -0.8785 -1.1060  2.1831
  153SAPE  C21217010   1.326   4.894   9.540 -0.2090 -0.5073 -0.0625
  153SAPE  H12R17011   1.318   4.997   9.502 -1.3904  0.1400  1.8793
  153SAPE  C21317012   1.307   4.781   9.436  0.6527  0.0035  0.5317
  153SAPE  H13R17013   1.375   4.695   9.452  0.2904 -0.6026 -1.0898
  153SAPE  H13S17014   1.328   4.834   9.340  2.2795  0.0042  0.8843
  153SAPE  C21417015   1.167   4.721   9.429  0.3629 -0.1896  0.4974
  153SAPE  H14R17016   1.134   4.684   9.527  0.7167  0.9455  1.0570
  153SAPE  C21517017   1.079   4.724   9.327  1.0178 -0.0711  0.6635
  153SAPE  H15R17018   0.982   4.674   9.340  1.6881 -1.5323  0.1091
  153SAPE  C21617019   1.109   4.790   9.196  0.5603  0.6062 -0.3052
  153SAPE  H16R17020   1.152   4.715   9.127  2.5938  1.2753  0.1932
  153SAPE  H16S17021   1.184   4.871   9.210  1.1975  0.0243 -0.3491
  153SAPE  C21717022   0.986   4.853   9.127 -0.4051  0.5153  0.1089
  153SAPE  H17R17023   0.944   4.932   9.194  2.7184  1.0902  1.4745
  153SAPE  H17S17024   0.914   4.769   9.119  0.3186 -0.0328 -0.6596
  153SAPE  C21817025   1.018   4.910   8.987 -0.4505 -0.2339 -0.5304
  153SAPE  H18R17026   1.057   4.831   8.919  1.9660  2.5028 -2.4586
  153SAPE  H18S17027   1.102   4.981   9.005  0.0346 -1.2455  1.3230
  153SAPE  C21917028   0.904   4.985   8.918  0.0349  0.4346 -0.2837
  153SAPE  H19R17029   0.876   5.066   8.988  1.1799  0.3889  0.2447
  153SAPE  H19S17030   0.810   4.926   8.912  0.4269 -0.6995  3.3893
  153SAPE  C22017031   0.946   5.051   8.787 -0.3652 -0.2582 -0.0303
  153SAPE  H20R17032   1.037   5.114   8.797 -0.6416  0.5520 -2.3183
  153SAPE  H20S17033   0.867   5.110   8.736  0.1187  0.6409  0.2547
  153SAPE  H20T17034   0.980   4.982   8.706  2.5129  1.5435 -0.4530
  153SAPE   C3317035   0.981   4.456   9.844  0.1771 -0.0344  0.2983
  153SAPE   H3X17036   0.875   4.488   9.856  0.2185  0.5675 -0.8654
  153SAPE   H3Y17037   0.984   4.359   9.898 -0.5563 -2.0786 -3.1751
  153SAPE   C3417038   1.021   4.430   9.703 -0.4034 -0.7878 -0.1606
  153SAPE   H4X17039   1.123   4.389   9.692 -1.2077 -2.6128 -1.0426
  153SAPE   H4Y17040   1.013   4.521   9.639 -2.3827  0.2340  1.4803
  153SAPE   C3517041   0.925   4.333   9.634  0.3426  0.4570  0.2976
  153SAPE   H5X17042   0.820   4.368   9.647 -0.3919  0.2656 -4.3235
  153SAPE   H5Y17043   0.931   4.232   9.678 -1.8760 -0.3298 -1.0900
  153SAPE   C3617044   0.963   4.327   9.490  0.2591 -0.1523  0.3525
  153SAPE   H6X17045   1.073   4.330   9.472  0.4627  1.2328  1.7772
  153SAPE   H6Y17046   0.920   4.423   9.457  2.9485  0.3955 -1.7994
  153SAPE   C3717047   0.905   4.207   9.415 -0.3307 -0.1515  0.3373
  153SAPE   H7X17048   0.800   4.190   9.448 -0.5366 -0.6118 -0.5210
  153SAPE   H7Y17049   0.969   4.118   9.433 -0.2395 -0.2064 -0.2450
  153SAPE   C3817050   0.915   4.228   9.263 -0.4042  0.2900  0.3532
  153SAPE   H8X17051   1.023   4.244   9.242 -0.0832  0.8120  2.3367
  153SAPE   H8Y17052   0.857   4.322   9.250 -1.5073 -0.3287  0.7344
  153SAPE   C3917053   0.851   4.122   9.181  0.2694  0.5170  0.2121
  153SAPE   H9X17054   0.754   4.083   9.219 -1.2238 -1.3781 -5.0571
  153SAPE   H9Y17055   0.913   4.030   9.179 -1.9806 -1.1167  2.2019
  153SAPE  C31017056   0.833   4.155   9.039 -0.2494  1.5305 -0.2126
  153SAPE  H10X17057   0.924   4.208   9.006 -0.3222  2.2526  0.7144
  153SAPE  H10Y17058   0.753   4.230   9.023 -1.0038  0.8593  0.3469
  153SAPE  C31117059   0.790   4.033   8.947 -0.2276  0.3800  0.7037
  153SAPE  H11X17060   0.680   4.017   8.953 -0.3332  1.0300  0.4989
  153SAPE  H11Y17061   0.845   3.943   8.982  0.1412 -0.2379 -1.3680
  153SAPE  C31217062   0.809   4.057   8.790 -0.9242 -0.1296 -0.5561
  153SAPE  H12X17063   0.903   4.112   8.769 -2.0864  2.3472  0.5259
  153SAPE  H12Y17064   0.723   4.125   8.774 -2.5953 -1.2151  3.1725
  153SAPE  C31317065   0.796   3.935   8.692 -0.3690  0.1894 -0.7742
  153SAPE  H13X17066   0.707   3.874   8.720 -0.3197  0.8280  0.8275
  153SAPE  H13Y17067   0.881   3.868   8.714 -1.8486 -1.0895  1.2040
  153SAPE  C31417068   0.805   3.981   8.548  0.3304  0.5338 -0.2843
  153SAPE  H14X17069   0.900   4.036   8.533  0.7557 -0.2203 -0.4025
  153SAPE  H14Y17070   0.727   4.054   8.518 -0.1943 -0.1963 -0.7258
  153SAPE  C31517071   0.782   3.857   8.461 -0.0496  0.2028 -0.2570
  153SAPE  H15X17072   0.682   3.815   8.485 -0.5426  1.7518  0.4566
  153SAPE  H15Y17073   0.849   3.768   8.462 -2.6322 -1.8215 -0.7525
  153SAPE  C31617074   0.782   3.902   8.312 -0.2675 -0.8237 -0.5750
  153SAPE  H16X17075   0.854   3.987   8.310  0.0444 -1.0704  0.1071
  153SAPE  H16Y17076   0.683   3.950   8.296  0.4847  0.5598 -1.2107
  153SAPE  C31717077   0.816   3.791   8.214 -0.6335 -0.7759 -0.0556
  153SAPE  H17X17078   0.903   3.727   8.241 -0.1109  1.0557  2.8414
  153SAPE  H17Y17079   0.832   3.843   8.117  1.1609 -1.8396 -0.3673
  153SAPE  C31817080   0.698   3.693   8.182 -0.1403  0.5523 -0.2837
  153SAPE  H18X17081   0.701   3.642   8.084  1.0620 -0.4205  0.2424
  153SAPE  H18Y17082   0.607   3.758   8.181  1.3070  2.6215 -0.4751
  153SAPE  H18Z17083   0.680   3.630   8.272  2.3641  0.5985  0.2967
  154SAPE     N17084   2.091   3.713  10.947 -0.4740 -0.3078  0.7672
  154SAPE   HN117085   2.098   3.812  10.914 -0.6645  0.0936  1.8733
  154SAPE   HN217086   2.169   3.686  11.011  0.9348  0.9254 -0.3898
  154SAPE   HN317087   2.084   3.647  10.868 -0.1629 -1.2580  1.5334
  154SAPE   C1217088   1.962   3.707  11.026  0.4251  0.6515  0.0235
  154SAPE  H12A17089   1.964   3.764  11.121 -2.9642 -0.7740  1.0547
  154SAPE  H12B17090   1.954   3.598  11.046 -0.7713  0.9901  1.4739
  154SAPE   C1117091   1.831   3.745  10.941  0.0879  0.0113 -0.3247
  154SAPE  H11A17092   1.870   3.837  10.893  0.5639  0.6781  1.3376
  154SAPE  H11B17093   1.750   3.769  11.013 -0.7509 -3.1825 -0.1208
  154SAPE     P17094   1.696   3.694  10.738  0.1684 -0.3749  0.0810
  154SAPE   O1317095   1.658   3.578  10.649  0.1724  0.1145  0.1384
  154SAPE   O1417096   1.591   3.784  10.797  0.0045  0.0579 -0.5813
  154SAPE   O1217097   1.798   3.646  10.844 -0.4691  0.2695  0.5566
  154SAPE   O1117098   1.801   3.785  10.665  0.0864 -0.5246  0.1259
  154SAPE    C117099   1.775   3.904  10.596  0.0414 -0.4720 -0.3011
  154SAPE    HA17100   1.713   3.972  10.658  1.3876 -0.4818  1.0923
  154SAPE    HB17101   1.875   3.954  10.591 -0.4905  0.3179 -4.7644
  154SAPE    C217102   1.727   3.883  10.448 -0.2505 -0.2911  0.5063
  154SAPE    HS17103   1.630   3.830  10.456 -1.0892  1.0965 -0.3198
  154SAPE   O2117104   1.823   3.800  10.378 -0.3890  0.3151 -0.1369
  154SAPE   C2117105   1.769   3.706  10.306 -0.7747 -0.3197  0.5342
  154SAPE   O2217106   1.651   3.684  10.289 -0.0642 -0.1303 -0.3280
  154SAPE   C2217107   1.876   3.615  10.245 -0.3996 -0.6835  0.3118
  154SAPE   H2R17108   1.971   3.654  10.288 -0.3547 -1.3628  0.8361
  154SAPE   H2S17109   1.862   3.512  10.285 -4.0530  0.3688  1.9053
  154SAPE    C317110   1.712   4.014  10.384  0.1541 -0.6117  0.2729
  154SAPE    HX17111   1.812   4.055  10.355  1.6855 -3.8857  0.6945
  154SAPE    HY17112   1.683   4.083  10.466 -0.3690 -0.9495  0.3740
  154SAPE   O3117113   1.619   4.009  10.276 -0.2353 -0.1304  0.2333
  154SAPE   C3117114   1.505   4.072  10.296  0.2767  0.3607 -0.0296
  154SAPE   O3217115   1.477   4.134  10.399 -0.0038  0.3575  0.3977
  154SAPE   C3217116   1.439   4.073  10.164  0.8825 -0.2418 -0.3139
  154SAPE   H2X17117   1.429   3.971  10.123 -1.1126  0.0127 -0.4960
  154SAPE   H2Y17118   1.514   4.122  10.098 -0.5689  3.7076  0.8274
  154SAPE   C2317119   1.863   3.610  10.092 -0.2330  0.0152  0.0714
  154SAPE   H3R17120   1.758   3.598  10.056 -0.5944  0.0223  1.1116
  154SAPE   H3S17121   1.919   3.516  10.075  0.4636  0.4174  0.1577
  154SAPE   C2417122   1.926   3.731  10.025  0.2191 -1.1587 -0.3077
  154SAPE   H4R17123   1.938   3.691   9.922  1.2277  0.5220 -0.8570
  154SAPE   H4S17124   2.026   3.740  10.071 -0.7306  1.7934  1.3396
  154SAPE   C2517125   1.835   3.861  10.036 -0.1460  0.0815 -0.0741
  154SAPE   H5R17126   1.853   3.903  10.136  0.5195 -0.6177  0.0982
  154SAPE   C2617127   1.737   3.902   9.959 -0.1256 -0.2308  0.2094
  154SAPE   H6R17128   1.698   4.004   9.976  1.0310  0.7654 -2.8657
  154SAPE   C2717129   1.696   3.847   9.824  0.0121  0.4211  0.1330
  154SAPE   H7R17130   1.591   3.877   9.806 -0.7224 -1.4942  1.0083
  154SAPE   H7S17131   1.686   3.736   9.823 -0.6196  0.4767 -1.9351
  154SAPE   C2817132   1.792   3.886   9.715  0.0978 -0.0809  1.0865
  154SAPE   H8R17133   1.882   3.936   9.753  0.8706 -0.5404 -0.1116
  154SAPE   C2917134   1.788   3.854   9.589 -0.5939  0.2169  0.0276
  154SAPE   H9R17135   1.866   3.887   9.519 -0.4993 -2.3112 -1.1301
  154SAPE  C21017136   1.680   3.779   9.525 -0.1119  0.1415 -0.4829
  154SAPE  H10R17137   1.601   3.754   9.600  0.1169  0.4978 -0.1273
  154SAPE  H10S17138   1.718   3.687   9.475 -1.8303 -0.9542  0.1716
  154SAPE  C21117139   1.599   3.880   9.441  0.3436  0.0235  0.2419
  154SAPE  H11R17140   1.554   3.969   9.487 -0.8521  0.3282 -1.4978
  154SAPE  C21217141   1.582   3.867   9.303 -0.6687  0.3948 -0.4837
  154SAPE  H12R17142   1.534   3.947   9.244 -1.5336 -0.7189 -1.3079
  154SAPE  C21317143   1.631   3.738   9.238 -0.9266 -0.1732 -0.1601
  154SAPE  H13R17144   1.565   3.709   9.153  1.0105  0.6147 -1.9999
  154SAPE  H13S17145   1.609   3.653   9.305  0.5166 -0.6562 -0.2821
  154SAPE  C21417146   1.780   3.738   9.197 -0.4364  0.3345 -0.5624
  154SAPE  H14R17147   1.808   3.841   9.169  0.7061 -0.1754 -1.3949
  154SAPE  C21517148   1.879   3.646   9.207  0.0769 -0.2160  0.0394
  154SAPE  H15R17149   1.983   3.664   9.175  0.1635 -1.2720 -0.2885
  154SAPE  C21617150   1.846   3.505   9.244 -0.5703 -0.4220 -0.2747
  154SAPE  H16R17151   1.739   3.481   9.223 -0.6491  1.2874 -1.9644
  154SAPE  H16S17152   1.864   3.477   9.350 -2.3016 -2.1916 -0.4233
  154SAPE  C21717153   1.921   3.404   9.151 -0.0396  0.9680 -1.0813
  154SAPE  H17R17154   1.860   3.311   9.159 -1.0663  1.6699 -0.6437
  154SAPE  H17S17155   2.023   3.397   9.193 -0.0090 -0.7931 -1.4008
  154SAPE  C21817156   1.913   3.441   8.999 -1.1960 -0.3003 -0.2067
  154SAPE  H18R17157   1.921   3.551   8.986 -1.6691 -0.1637  0.6134
  154SAPE  H18S17158   1.821   3.403   8.949 -1.4921 -2.4489  1.9081
  154SAPE  C21917159   2.018   3.365   8.913 -0.0109 -0.8592 -0.1638
  154SAPE  H19R17160   1.997   3.258   8.936  0.2367 -1.2314 -1.6390
  154SAPE  H19S17161   2.122   3.389   8.944  1.0224 -3.8075 -1.1674
  154SAPE  C22017162   1.999   3.389   8.766 -0.0211 -0.7213 -0.4134
  154SAPE  H20R17163   1.894   3.364   8.740 -0.5345 -0.7132  1.5777
  154SAPE  H20S17164   2.059   3.329   8.693  0.9524  0.0634 -0.2616
  154SAPE  H20T17165   2.025   3.491   8.732  1.5887 -0.9630  0.0147
  154SAPE   C3317166   1.302   4.149  10.161 -0.2363  0.8272  0.2954
  154SAPE   H3X17167   1.315   4.233  10.232  0.1892  0.3941  0.7343
  154SAPE   H3Y17168   1.228   4.088  10.217  0.7182 -0.6511 -0.0272
  154SAPE   C3417169   1.254   4.188  10.023 -0.0960 -0.1082 -0.2262
  154SAPE   H4X17170   1.327   4.254   9.972  1.3747  0.2312  2.2313
  154SAPE   H4Y17171   1.163   4.251  10.033  0.8829  1.0879  1.4563
  154SAPE   C3517172   1.220   4.069   9.936  0.0518  0.3385  0.7533
  154SAPE   H5X17173   1.110   4.054   9.934 -0.2797  2.6425  1.0448
  154SAPE   H5Y17174   1.270   3.975   9.969  0.4544  0.2855  0.0088
  154SAPE   C3617175   1.257   4.092   9.790  0.3767 -0.0144  0.3440
  154SAPE   H6X17176   1.367   4.107   9.792  0.4937 -0.7643 -0.0706
  154SAPE   H6Y17177   1.205   4.184   9.755 -0.8627 -0.3326  1.3263
  154SAPE   C3717178   1.230   3.968   9.700  0.3986  0.7462  0.5126
  154SAPE   H7X17179   1.135   3.918   9.727  1.7640 -0.7629  2.7071
  154SAPE   H7Y17180   1.305   3.889   9.720  0.1277  0.4191  0.2437
  154SAPE   C3817181   1.227   4.021   9.553 -0.0106  0.1809 -0.5054
  154SAPE   H8X17182   1.323   4.073   9.531  0.1856  1.0356  2.2708
  154SAPE   H8Y17183   1.136   4.084   9.552 -1.1283 -1.3315  2.2075
  154SAPE   C3917184   1.207   3.909   9.454  0.3578 -1.0224  0.0487
  154SAPE   H9X17185   1.117   3.855   9.488 -1.2881  0.7275 -1.4233
  154SAPE   H9Y17186   1.297   3.844   9.463  0.5610 -0.9423 -1.2296
  154SAPE  C31017187   1.205   3.966   9.310  0.7867 -0.4452 -0.2444
  154SAPE  H10X17188   1.307   4.007   9.292 -0.0070  2.1109  0.7694
  154SAPE  H10Y17189   1.143   4.057   9.297  1.0990 -0.2389 -0.3020
  154SAPE  C31117190   1.182   3.856   9.209  0.4506  0.2884 -0.6284
  154SAPE  H11X17191   1.088   3.800   9.222  0.1701  1.2474  1.6677
  154SAPE  H11Y17192   1.267   3.784   9.209 -0.7052 -1.1187 -2.9647
  154SAPE  C31217193   1.187   3.899   9.061 -0.4742 -0.2622  0.1779
  154SAPE  H12X17194   1.284   3.945   9.034 -1.5341  2.6438  1.2256
  154SAPE  H12Y17195   1.108   3.973   9.036  0.2154  0.6694  0.7333
  154SAPE  C31317196   1.161   3.791   8.967 -0.0229  0.4494 -0.1604
  154SAPE  H13X17197   1.076   3.724   8.992 -0.3782  1.2279  0.7082
  154SAPE  H13Y17198   1.252   3.729   8.982  1.9542  3.5582  1.2297
  154SAPE  C31417199   1.150   3.834   8.822 -0.5932 -0.3166  0.5269
  154SAPE  H14X17200   1.235   3.896   8.789  0.3575 -2.4690 -1.2338
  154SAPE  H14Y17201   1.057   3.895   8.813 -0.6849 -0.1320  2.5701
  154SAPE  C31517202   1.145   3.726   8.716  0.0278  0.0135 -0.1020
  154SAPE  H15X17203   1.045   3.679   8.709 -0.6338  1.3497  0.1278
  154SAPE  H15Y17204   1.229   3.655   8.733 -0.5289 -0.3932  1.0453
  154SAPE  C31617205   1.166   3.790   8.574 -0.2656 -0.5883 -0.4264
  154SAPE  H16X17206   1.263   3.843   8.578  0.7953 -2.5226  0.3115
  154SAPE  H16Y17207   1.094   3.875   8.568  1.4694  0.7942 -2.4862
  154SAPE  C31717208   1.144   3.693   8.462  0.3128  0.6745 -0.0134
  154SAPE  H17X17209   1.048   3.637   8.465 -0.2958  1.6253 -1.0091
  154SAPE  H17Y17210   1.219   3.611   8.465  0.6653  0.9493 -1.0850
  154SAPE  C31817211   1.155   3.768   8.321 -0.6775  0.5766  0.3626
  154SAPE  H18X17212   1.125   3.691   8.247 -2.1305  1.4520  0.0371
  154SAPE  H18Y17213   1.258   3.808   8.306  0.0056 -0.9186  0.8721
  154SAPE  H18Z17214   1.091   3.858   8.319  1.4880  2.1498 -0.5239
  155SAPE     N17215   2.343   4.799  11.039  0.2609 -0.0869  0.7752
  155SAPE   HN117216   2.353   4.856  11.125  1.1381  2.3529 -0.8517
  155SAPE   HN217217   2.251   4.818  10.996 -0.0680  1.3849  2.0721
  155SAPE   HN317218   2.343   4.699  11.066 -0.3292 -1.0787 -2.6750
  155SAPE   C1217219   2.462   4.832  10.947  0.0022  0.5424  0.2168
  155SAPE  H12A17220   2.450   4.766  10.859  1.3748  0.9623 -0.2919
  155SAPE  H12B17221   2.557   4.807  10.998 -0.6770 -2.7599 -0.0566
  155SAPE   C1117222   2.463   4.978  10.902 -1.4178 -0.3763  0.2641
  155SAPE  H11A17223   2.548   5.004  10.836 -1.0265  0.6227  1.1423
  155SAPE  H11B17224   2.481   5.036  10.995  2.0776 -1.1325  0.1589
  155SAPE     P17225   2.321   5.118  10.734  0.1430  0.0979  0.0160
  155SAPE   O1317226   2.175   5.148  10.718  0.1711  0.2266 -0.0721
  155SAPE   O1417227   2.414   5.228  10.771  0.2473 -0.5676  0.0671
  155SAPE   O1217228   2.340   5.001  10.839 -0.0670 -0.0697 -0.3188
  155SAPE   O1117229   2.374   5.057  10.601 -0.4674  0.2958 -0.0530
  155SAPE    C117230   2.368   4.923  10.557 -0.2692 -0.3676  0.0783
  155SAPE    HA17231   2.301   4.858  10.617  0.3965 -2.4355 -1.3665
  155SAPE    HB17232   2.325   4.932  10.455 -2.6276  0.4292  1.1204
  155SAPE    C217233   2.503   4.855  10.542  0.6744 -0.2816  0.4898
  155SAPE    HS17234   2.553   4.854  10.641 -1.5143  1.4112  1.6869
  155SAPE   O2117235   2.586   4.929  10.444  0.0162 -0.7071 -0.6839
  155SAPE   C2117236   2.703   4.895  10.426 -0.5266 -0.1355 -0.0196
  155SAPE   O2217237   2.762   4.808  10.495  0.1433 -0.5357  0.1275
  155SAPE   C2217238   2.772   4.972  10.315 -0.7863 -0.6576  0.0083
  155SAPE   H2R17239   2.747   4.935  10.214  0.7478  0.3082 -0.7483
  155SAPE   H2S17240   2.715   5.067  10.320  0.3317  0.0116  0.2957
  155SAPE    C317241   2.496   4.707  10.503 -0.7819  0.1954 -0.4495
  155SAPE    HX17242   2.435   4.657  10.581 -0.8416  0.8708 -0.0625
  155SAPE    HY17243   2.600   4.670  10.516 -0.8911  0.5037  1.4505
  155SAPE   O3117244   2.458   4.685  10.363  0.3634 -0.1521  0.3277
  155SAPE   C3117245   2.462   4.558  10.335  0.4450 -0.3027  0.1791
  155SAPE   O3217246   2.483   4.465  10.410  0.4280 -0.2796 -0.2905
  155SAPE   C3217247   2.436   4.550  10.184  0.1629 -0.2744 -0.0483
  155SAPE   H2X17248   2.530   4.548  10.126  0.7694 -2.2599  0.9762
  155SAPE   H2Y17249   2.380   4.640  10.152  1.1854 -0.2133 -1.7197
  155SAPE   C2317250   2.925   4.980  10.319 -0.3202 -0.5984 -0.4852
  155SAPE   H3R17251   2.952   4.872  10.312 -0.5064 -0.5050 -3.1157
  155SAPE   H3S17252   2.975   5.009  10.414  1.2612 -0.8642 -1.2176
  155SAPE   C2417253   2.978   5.047  10.191  0.0167 -0.1874  0.2924
  155SAPE   H4R17254   2.921   5.014  10.101  1.4794  0.3154 -0.8229
  155SAPE   H4S17255   3.086   5.025  10.180 -0.0588  0.5704 -2.2610
  155SAPE   C2517256   2.956   5.196  10.199  0.3446  1.0811  0.2744
  155SAPE   H5R17257   2.997   5.241  10.291 -0.3189  3.5542 -0.6182
  155SAPE   C2617258   2.901   5.287  10.110 -0.3678  0.0294 -0.1119
  155SAPE   H6R17259   2.898   5.393  10.142 -0.4125  0.4711 -1.5722
  155SAPE   C2717260   2.827   5.248   9.986  0.2437 -0.5248 -0.0011
  155SAPE   H7R17261   2.758   5.330   9.957 -3.0639 -1.6640  4.0768
  155SAPE   H7S17262   2.750   5.176  10.020 -1.4536  0.7582 -1.0723
  155SAPE   C2817263   2.895   5.194   9.867 -0.0191 -1.3911  0.2441
  155SAPE   H8R17264   3.004   5.185   9.871 -0.1030 -2.9168 -0.3321
  155SAPE   C2917265   2.834   5.162   9.753 -0.3156 -0.3564  0.3121
  155SAPE   H9R17266   2.899   5.125   9.673 -0.8174 -0.4440 -0.0523
  155SAPE  C21017267   2.691   5.186   9.715 -0.1662 -0.3339  0.2735
  155SAPE  H10R17268   2.688   5.279   9.655 -2.5575 -2.3677 -2.8733
  155SAPE  H10S17269   2.616   5.197   9.796 -1.9025  1.0206 -1.5072
  155SAPE  C21117270   2.655   5.071   9.624 -0.1388  0.0823  0.6840
  155SAPE  H11R17271   2.641   4.975   9.676 -0.6774 -1.2753 -1.9004
  155SAPE  C21217272   2.629   5.083   9.491 -0.9613 -0.3487 -0.4098
  155SAPE  H12R17273   2.600   4.989   9.442 -0.3890 -0.2353 -0.9708
  155SAPE  C21317274   2.636   5.206   9.403 -0.0440 -0.0758 -0.4225
  155SAPE  H13R17275   2.727   5.262   9.433  0.0950 -0.8979  0.7151
  155SAPE  H13S17276   2.539   5.260   9.411 -1.0854 -1.9638 -0.2341
  155SAPE  C21417277   2.663   5.155   9.260 -0.3045 -0.1440 -1.3609
  155SAPE  H14R17278   2.752   5.095   9.237  1.5333  1.7847  0.4984
  155SAPE  C21517279   2.567   5.143   9.158  0.3519  0.7031 -0.8341
  155SAPE  H15R17280   2.594   5.111   9.057 -0.2128  0.6897 -0.9862
  155SAPE  C21617281   2.420   5.188   9.158 -0.1614 -0.3019  0.3300
  155SAPE  H16R17282   2.379   5.169   9.260  1.2818  1.9409  1.3938
  155SAPE  H16S17283   2.376   5.124   9.079  0.3284  0.1260 -0.2955
  155SAPE  C21717284   2.380   5.330   9.110  0.5445  0.2968  0.3597
  155SAPE  H17R17285   2.402   5.406   9.189 -0.9234 -1.4825  2.5295
  155SAPE  H17S17286   2.269   5.327   9.118  0.5026 -2.8101 -0.7287
  155SAPE  C21817287   2.408   5.379   8.965  0.1154 -0.5088  0.4722
  155SAPE  H18R17288   2.518   5.374   8.950 -0.1010 -1.5293 -0.8931
  155SAPE  H18S17289   2.373   5.484   8.968  0.9270 -0.2010 -0.7223
  155SAPE  C21917290   2.334   5.305   8.855 -0.6490 -0.4924 -0.0361
  155SAPE  H19R17291   2.245   5.255   8.899 -0.6443 -1.7181 -1.3928
  155SAPE  H19S17292   2.394   5.223   8.810  1.7357  0.8390  0.6321
  155SAPE  C22017293   2.295   5.404   8.744 -0.5402 -0.1300  1.0292
  155SAPE  H20R17294   2.391   5.443   8.704 -2.6606  4.0389 -0.2736
  155SAPE  H20S17295   2.255   5.502   8.779  0.8969  0.5518  0.7927
  155SAPE  H20T17296   2.228   5.358   8.668  0.3146 -0.8265  0.6827
  155SAPE   C3317297   2.357   4.423  10.141 -0.1494  0.4301 -0.6590
  155SAPE   H3X17298   2.283   4.391  10.218 -0.4776  3.7629  0.5167
  155SAPE   H3Y17299   2.429   4.340  10.127 -1.6825 -0.7431 -1.8144
  155SAPE   C3417300   2.269   4.461  10.023 -0.4513  0.4311  0.8195
  155SAPE   H4X17301   2.218   4.553  10.058 -0.3508  0.6863  0.3006
  155SAPE   H4Y17302   2.193   4.384   9.996 -0.1591  0.3851  0.1161
  155SAPE   C3517303   2.348   4.502   9.895  0.6650  0.8642  0.7101
  155SAPE   H5X17304   2.410   4.420   9.854 -0.4449 -0.4121  1.5309
  155SAPE   H5Y17305   2.427   4.576   9.919  1.1239  0.4159  0.5920
  155SAPE   C3617306   2.255   4.563   9.782  0.6798 -0.4645  0.2581
  155SAPE   H6X17307   2.250   4.673   9.795  0.6278 -0.4927  0.4865
  155SAPE   H6Y17308   2.158   4.510   9.790  0.6973 -0.7386 -1.2107
  155SAPE   C3717309   2.303   4.528   9.639 -0.0297 -0.7225  0.1421
  155SAPE   H7X17310   2.294   4.419   9.623  1.5162 -0.7696 -0.5509
  155SAPE   H7Y17311   2.407   4.568   9.627  0.1343 -1.5243 -1.2012
  155SAPE   C3817312   2.204   4.593   9.541  0.2309 -0.2789 -0.0586
  155SAPE   H8X17313   2.216   4.701   9.560  2.5925 -0.4214 -0.6107
  155SAPE   H8Y17314   2.100   4.560   9.561  0.6856 -0.0343  2.8917
  155SAPE   C3917315   2.234   4.566   9.392 -0.3125  0.0057  0.2987
  155SAPE   H9X17316   2.189   4.474   9.348 -1.8578 -0.6457  3.1829
  155SAPE   H9Y17317   2.343   4.545   9.383 -0.1749  1.4599 -1.7971
  155SAPE  C31017318   2.199   4.684   9.302 -0.2648 -0.4497 -1.2400
  155SAPE  H10X17319   2.252   4.775   9.336 -0.5235  0.1360 -2.3534
  155SAPE  H10Y17320   2.095   4.717   9.323 -0.9823 -2.7729 -1.0076
  155SAPE  C31117321   2.212   4.662   9.152  0.1102 -0.2504  0.2016
  155SAPE  H11X17322   2.149   4.573   9.129  0.8795 -1.0549  1.1441
  155SAPE  H11Y17323   2.310   4.612   9.135  0.0344  0.6177 -3.2419
  155SAPE  C31217324   2.168   4.781   9.061 -1.2964  0.0751 -0.1447
  155SAPE  H12X17325   2.236   4.865   9.090  0.6303 -1.5812  0.2537
  155SAPE  H12Y17326   2.065   4.811   9.088 -1.0845  2.3864 -1.7289
  155SAPE  C31317327   2.191   4.756   8.910  0.1976  0.0666  0.5493
  155SAPE  H13X17328   2.093   4.708   8.888 -0.1294  1.5727 -1.3907
  155SAPE  H13Y17329   2.266   4.675   8.900 -2.1451 -1.8983 -1.6506
  155SAPE  C31417330   2.214   4.884   8.827 -1.0137  0.5400 -0.2765
  155SAPE  H14X17331   2.274   4.865   8.735  0.0394  0.4195  0.4262
  155SAPE  H14Y17332   2.265   4.965   8.883 -1.9912  0.3304  0.9451
  155SAPE  C31517333   2.075   4.945   8.790 -0.4550 -0.3053 -0.0903
  155SAPE  H15X17334   2.105   5.046   8.754 -1.5808 -0.7617 -2.3898
  155SAPE  H15Y17335   2.018   4.962   8.884  0.1930  1.1901  0.0358
  155SAPE  C31617336   1.990   4.868   8.688 -0.5044 -0.4011 -0.5447
  155SAPE  H16X17337   1.888   4.905   8.713  0.2069  2.3183 -1.5299
  155SAPE  H16Y17338   1.982   4.760   8.716 -0.7741 -0.0513  0.7700
  155SAPE  C31717339   2.042   4.882   8.541  0.0081 -0.3585  0.0973
  155SAPE  H17X17340   2.147   4.846   8.528  0.5160  0.6778  1.1886
  155SAPE  H17Y17341   2.046   4.992   8.523  2.2573 -0.4604 -0.1568
  155SAPE  C31817342   1.952   4.824   8.438 -0.0383  0.4451  0.1093
  155SAPE  H18X17343   1.846   4.854   8.455 -0.0289 -0.2035  1.2997
  155SAPE  H18Y17344   1.953   4.713   8.432  0.3106  0.4903 -0.7412
  155SAPE  H18Z17345   1.989   4.866   8.342  0.6933  3.1567  1.5278
  156SAPE     N17346   0.056   2.732  10.397 -0.1624 -0.2500  0.1921
  156SAPE   HN117347   0.076   2.778  10.306  2.2707  0.6520  1.1337
  156SAPE   HN217348   0.108   2.642  10.396 -1.2137 -0.8800  1.3417
  156SAPE   HN317349  -0.041   2.713  10.429  0.7200 -2.8584  1.4825
  156SAPE   C1217350   0.111   2.810  10.504  0.5491  0.6742  0.3419
  156SAPE  H12A17351   0.108   2.755  10.601  0.0862  0.3429  0.1404
  156SAPE  H12B17352   0.049   2.900  10.524 -0.8825 -0.1944 -0.1834
  156SAPE   C1117353   0.255   2.847  10.469  0.7200 -0.5680  0.1440
  156SAPE  H11A17354   0.283   2.907  10.558  2.9488 -0.1693 -0.7881
  156SAPE  H11B17355   0.257   2.915  10.381 -0.7806  1.6201  1.7865
  156SAPE     P17356   0.482   2.737  10.393  0.3871  0.2370 -0.1555
  156SAPE   O1317357   0.569   2.665  10.489 -0.3492  0.2934 -0.4335
  156SAPE   O1417358   0.465   2.677  10.257 -0.2947  0.0469  0.5360
  156SAPE   O1217359   0.342   2.733  10.465 -0.2027  0.4775 -0.0678
  156SAPE   O1117360   0.524   2.885  10.378 -0.0551 -0.2234  0.5805
  156SAPE    C117361   0.647   2.949  10.406  0.3012  0.2913 -0.3676
  156SAPE    HA17362   0.672   2.949  10.514  1.3143 -0.8841 -0.5892
  156SAPE    HB17363   0.737   2.899  10.364 -0.0912  0.2348 -1.1488
  156SAPE    C217364   0.664   3.084  10.329  0.5933  0.1051  0.3302
  156SAPE    HS17365   0.588   3.157  10.364 -0.8394 -0.9666 -0.4964
  156SAPE   O2117366   0.651   3.052  10.184  0.1562 -0.5605 -0.0996
  156SAPE   C2117367   0.528   3.059  10.142  0.5530 -0.3335 -0.0814
  156SAPE   O2217368   0.433   3.100  10.208  0.1793  0.1865  0.3755
  156SAPE   C2217369   0.523   3.009   9.997 -0.9327  0.1298  0.3633
  156SAPE   H2R17370   0.619   3.025   9.944 -1.5613  0.9645 -0.5310
  156SAPE   H2S17371   0.502   2.900  10.002  1.3903 -0.3351  0.3541
  156SAPE    C317372   0.805   3.142  10.355  0.2468 -0.2667  0.4460
  156SAPE    HX17373   0.872   3.094  10.281  0.2463 -2.2841  1.7096
  156SAPE    HY17374   0.840   3.105  10.454  2.7681  0.6218 -0.0646
  156SAPE   O3117375   0.792   3.282  10.361 -0.6528  0.1908  0.2899
  156SAPE   C3117376   0.901   3.358  10.358 -0.2243  0.5164 -0.0350
  156SAPE   O3217377   1.018   3.324  10.364 -0.2615  0.0254 -0.0299
  156SAPE   C3217378   0.845   3.499  10.315  0.4680  0.6916 -0.0266
  156SAPE   H2X17379   0.936   3.563  10.306  0.8416  0.1086 -0.4251
  156SAPE   H2Y17380   0.786   3.535  10.402 -0.6588 -0.5445 -0.2791
  156SAPE   C2317381   0.413   3.075   9.906 -0.4447  0.8178  0.0729
  156SAPE   H3R17382   0.468   3.136   9.831  1.1060 -0.5399  0.0784
  156SAPE   H3S17383   0.353   3.149   9.964 -0.0912 -0.2668  1.8549
  156SAPE   C2417384   0.327   2.962   9.846  0.5349  0.3891 -0.1087
  156SAPE   H4R17385   0.285   2.907   9.933 -0.0328  2.9173  1.2616
  156SAPE   H4S17386   0.391   2.897   9.783 -0.0409  0.3269 -0.6285
  156SAPE   C2517387   0.219   3.023   9.772  0.3462 -0.9665  0.3581
  156SAPE   H5R17388   0.133   3.052   9.834  0.1252  2.9085 -1.6134
  156SAPE   C2617389   0.210   3.042   9.640 -0.5890  0.4151  0.1308
  156SAPE   H6R17390   0.116   3.078   9.595  0.5248  1.8490 -1.0877
  156SAPE   C2717391   0.308   3.006   9.525 -0.3697  0.0983 -0.3267
  156SAPE   H7R17392   0.273   2.904   9.498 -0.3031  0.4846 -1.8980
  156SAPE   H7S17393   0.410   2.995   9.568 -0.6726 -0.1847  0.3244
  156SAPE   C2817394   0.295   3.097   9.402  0.4170  0.1393  0.4470
  156SAPE   H8R17395   0.351   3.191   9.400  1.0614 -0.2526 -0.8259
  156SAPE   C2917396   0.229   3.073   9.289  0.5224 -0.0548  0.2366
  156SAPE   H9R17397   0.224   3.156   9.216  1.6450 -1.1679 -1.1322
  156SAPE  C21017398   0.138   2.955   9.260 -0.1356 -0.6916 -0.4343
  156SAPE  H10R17399   0.031   2.980   9.245  0.1991  0.1539 -1.5149
  156SAPE  H10S17400   0.132   2.899   9.356  0.6900  1.1093  0.6910
  156SAPE  C21117401   0.196   2.865   9.162 -0.3739 -0.9672  0.0078
  156SAPE  H11R17402   0.300   2.828   9.172 -0.4568 -1.6204 -1.4106
  156SAPE  C21217403   0.136   2.827   9.043 -0.2221  0.8599 -0.3219
  156SAPE  H12R17404   0.182   2.747   8.985 -1.9601  1.6087 -2.8237
  156SAPE  C21317405   0.001   2.855   8.991  0.0802  0.5903 -0.2662
  156SAPE  H13R17406  -0.059   2.924   9.055  1.3710  1.4734  0.0120
  156SAPE  H13S17407  -0.055   2.759   8.991  0.6622  0.2361 -1.7860
  156SAPE  C21417408   0.023   2.911   8.852 -0.1444  0.3830 -0.9680
  156SAPE  H14R17409   0.111   2.977   8.847  0.0752  0.1412 -0.2789
  156SAPE  C21517410  -0.053   2.891   8.742  0.2043 -0.1592  0.4322
  156SAPE  H15R17411  -0.030   2.942   8.648 -1.7365  1.7256  0.9481
  156SAPE  C21617412  -0.174   2.809   8.731 -1.0419 -0.1777 -0.4404
  156SAPE  H16R17413  -0.256   2.863   8.782 -0.4819 -0.7696  1.0934
  156SAPE  H16S17414  -0.164   2.708   8.775 -0.0540  1.2347  2.7800
  156SAPE  C21717415  -0.223   2.791   8.590  0.7320  0.1986  0.3634
  156SAPE  H17R17416  -0.138   2.759   8.526  0.2942  0.8220 -0.5326
  156SAPE  H17S17417  -0.263   2.891   8.561 -2.0643 -0.7525  0.7512
  156SAPE  C21817418  -0.345   2.690   8.585  0.7759  0.2373 -0.1996
  156SAPE  H18R17419  -0.417   2.740   8.653 -1.1847  0.2878 -2.2442
  156SAPE  H18S17420  -0.318   2.597   8.639  1.0494  0.7494  0.5452
  156SAPE  C21917421  -0.417   2.663   8.454 -0.1434 -0.0944 -0.3182
  156SAPE  H19R17422  -0.345   2.620   8.381 -1.8884 -0.6378 -1.7500
  156SAPE  H19S17423  -0.459   2.756   8.411 -1.5588 -1.1283 -1.2049
  156SAPE  C22017424  -0.543   2.582   8.459 -0.8247 -0.2164 -0.0867
  156SAPE  H20R17425  -0.564   2.553   8.353 -1.8225  0.3251 -0.0473
  156SAPE  H20S17426  -0.633   2.643   8.482 -2.4550 -2.3650 -0.4747
  156SAPE  H20T17427  -0.552   2.494   8.526 -2.1446 -1.5545 -1.9281
  156SAPE   C3317428   0.759   3.516  10.182  0.2565  0.1351  0.1684
  156SAPE   H3X17429   0.715   3.618  10.184 -1.5882 -0.5361 -2.7630
  156SAPE   H3Y17430   0.668   3.452  10.186 -1.4016  2.3716 -0.3784
  156SAPE   C3417431   0.827   3.505  10.046  0.1990  0.3023  0.4529
  156SAPE   H4X17432   0.910   3.578  10.051  1.7993 -1.5653  2.6410
  156SAPE   H4Y17433   0.744   3.534   9.979 -0.9187 -0.3987  1.5109
  156SAPE   C3517434   0.870   3.360  10.014 -0.6073  0.4186 -0.3504
  156SAPE   H5X17435   0.799   3.279  10.041 -0.1931  0.2861  0.3693
  156SAPE   H5Y17436   0.957   3.335  10.079  0.4167  1.1219 -1.4248
  156SAPE   C3617437   0.909   3.333   9.868  0.5114 -0.3698  0.2401
  156SAPE   H6X17438   0.986   3.254   9.874 -0.3740 -1.1191  2.0737
  156SAPE   H6Y17439   0.971   3.419   9.838 -2.4663  1.4586 -0.9458
  156SAPE   C3717440   0.803   3.278   9.765 -0.2352  0.0401 -1.4136
  156SAPE   H7X17441   0.719   3.351   9.764  0.2446  0.6297  0.3088
  156SAPE   H7Y17442   0.765   3.182   9.804 -0.3363 -0.1040 -1.8611
  156SAPE   C3817443   0.844   3.264   9.619 -0.3124 -0.4407  0.5341
  156SAPE   H8X17444   0.916   3.180   9.610  0.5237  0.4032 -0.7457
  156SAPE   H8Y17445   0.895   3.361   9.601  0.3210 -1.0944 -1.2043
  156SAPE   C3917446   0.728   3.254   9.517 -0.6233 -0.5400  0.2390
  156SAPE   H9X17447   0.661   3.343   9.523 -2.2202 -1.8380  2.1539
  156SAPE   H9Y17448   0.676   3.159   9.542  2.0592 -1.6637  1.7914
  156SAPE  C31017449   0.796   3.238   9.381  0.1095 -0.4836 -0.5755
  156SAPE  H10X17450   0.869   3.154   9.389  2.1804  1.3309  0.2453
  156SAPE  H10Y17451   0.862   3.327   9.366 -0.5661 -0.0769 -1.2090
  156SAPE  C31117452   0.695   3.226   9.263 -0.3780  0.3282 -0.0040
  156SAPE  H11X17453   0.658   3.327   9.238  2.0141  1.6587  1.5687
  156SAPE  H11Y17454   0.608   3.163   9.292  0.0280 -0.0360  0.4365
  156SAPE  C31217455   0.774   3.174   9.144  0.0342 -0.3006  0.4535
  156SAPE  H12X17456   0.836   3.088   9.179 -0.5119 -0.7843  0.2458
  156SAPE  H12Y17457   0.859   3.243   9.125 -0.1242 -0.7046 -1.7994
  156SAPE  C31317458   0.699   3.156   9.011 -0.2240 -0.6837 -0.3998
  156SAPE  H13X17459   0.674   3.249   8.957  2.1803 -0.6919 -1.6070
  156SAPE  H13Y17460   0.609   3.094   9.030 -0.1590 -0.6381  0.0612
  156SAPE  C31417461   0.781   3.050   8.924  0.2487 -0.6579 -0.0310
  156SAPE  H14X17462   0.780   2.956   8.984  2.2544  0.8891  2.5249
  156SAPE  H14Y17463   0.886   3.085   8.921  0.1154 -0.2596 -0.0100
  156SAPE  C31517464   0.723   3.013   8.788  0.3409  0.6712  0.3340
  156SAPE  H15X17465   0.704   3.113   8.743  1.0252  0.5224 -0.3032
  156SAPE  H15Y17466   0.624   2.964   8.800  1.4049 -1.3415  1.1053
  156SAPE  C31617467   0.823   2.913   8.726 -0.2577 -0.5851  1.0097
  156SAPE  H16X17468   0.790   2.814   8.762 -1.5811 -0.7406 -0.5785
  156SAPE  H16Y17469   0.928   2.926   8.762 -0.5399  0.0309  1.6179
  156SAPE  C31717470   0.822   2.917   8.574 -0.3059 -0.5308  0.2106
  156SAPE  H17X17471   0.717   2.914   8.539 -0.5187 -2.1104  0.8965
  156SAPE  H17Y17472   0.862   2.821   8.535 -0.6672 -0.3397 -0.6469
  156SAPE  C31817473   0.898   3.033   8.510  0.2831 -0.2472  0.3121
  156SAPE  H18X17474   0.854   3.127   8.550  1.8332  0.4276  0.4880
  156SAPE  H18Y17475   0.892   3.010   8.401  1.9513 -0.2040  0.1980
  156SAPE  H18Z17476   1.005   3.058   8.527 -0.1554  2.6910 -0.8687
  157SAPE     N17477   5.490   2.876  10.906 -0.4022 -0.0425  0.4417
  157SAPE   HN117478   5.407   2.842  10.958 -0.2608 -0.9040  0.1101
  157SAPE   HN217479   5.574   2.831  10.948 -1.0027  0.4594  2.2211
  157SAPE   HN317480   5.504   2.978  10.918  0.6194 -0.2912  1.5245
  157SAPE   C1217481   5.478   2.817  10.769  0.0880 -0.3196  0.4387
  157SAPE  H12A17482   5.484   2.897  10.692  0.4420 -1.5113 -0.7909
  157SAPE  H12B17483   5.377   2.771  10.765  0.1412 -0.4985  1.0598
  157SAPE   C1117484   5.569   2.695  10.748  0.2515 -0.0210 -0.7789
  157SAPE  H11A17485   5.552   2.650  10.648  2.7444  1.3216 -1.8576
  157SAPE  H11B17486   5.545   2.608  10.813  0.4279  0.4530 -0.0685
  157SAPE     P17487   5.825   2.638  10.731 -0.0323 -0.1533 -0.2109
  157SAPE   O1317488   5.954   2.712  10.759  0.1803 -0.2153  0.3400
  157SAPE   O1417489   5.815   2.500  10.790  0.1123 -1.0573  0.4923
  157SAPE   O1217490   5.705   2.730  10.765 -0.4346  0.0597  0.1103
  157SAPE   O1117491   5.804   2.621  10.577  0.4374 -0.2453 -0.0038
  157SAPE    C117492   5.899   2.551  10.497 -0.0486 -0.3006 -0.6614
  157SAPE    HA17493   5.993   2.610  10.502 -1.6592  2.2249  1.2211
  157SAPE    HB17494   5.920   2.447  10.530  2.5145  0.9014  1.7174
  157SAPE    C217495   5.855   2.546  10.344  0.0536  0.3521 -0.7255
  157SAPE    HS17496   5.931   2.485  10.291  1.0423 -1.6641  2.8558
  157SAPE   O2117497   5.842   2.672  10.280 -0.1790 -0.3799  0.2965
  157SAPE   C2117498   5.952   2.732  10.250  0.3913  0.0505 -0.5739
  157SAPE   O2217499   6.065   2.696  10.282  0.2946  0.5358  0.1482
  157SAPE   C2217500   5.925   2.852  10.151 -0.1089  0.5638  0.3481
  157SAPE   H2R17501   5.929   2.802  10.052  1.7691  1.0870  0.1439
  157SAPE   H2S17502   5.830   2.903  10.178 -2.0854 -2.2068 -1.1735
  157SAPE    C317503   5.717   2.480  10.327  0.1687  0.4130  0.4058
  157SAPE    HX17504   5.641   2.540  10.382 -0.7631  0.2257 -0.6911
  157SAPE    HY17505   5.720   2.383  10.382  0.7782 -0.0551 -0.4560
  157SAPE   O3117506   5.683   2.445  10.193  0.3795  0.7617  0.2703
  157SAPE   C3117507   5.599   2.531  10.135 -0.3825 -0.1277 -0.9074
  157SAPE   O3217508   5.572   2.641  10.170  0.1824  0.2629  0.1531
  157SAPE   C3217509   5.543   2.464  10.007  0.7264 -0.5006 -0.7836
  157SAPE   H2X17510   5.433   2.456  10.013  0.9309 -1.6646  2.5605
  157SAPE   H2Y17511   5.590   2.363  10.007  2.2965  0.2014 -1.5968
  157SAPE   C2317512   6.044   2.953  10.143 -0.7434  0.5847  0.3539
  157SAPE   H3R17513   6.140   2.902  10.119 -0.7561 -0.5898  2.6540
  157SAPE   H3S17514   6.050   2.995  10.246 -1.9071 -2.2335  1.6209
  157SAPE   C2417515   6.014   3.073  10.049 -0.3607  0.3306  0.2658
  157SAPE   H4R17516   6.109   3.131  10.049  0.8821 -1.5676 -2.1770
  157SAPE   H4S17517   5.936   3.128  10.105  0.6736  1.7387  0.3468
  157SAPE   C2517518   5.975   3.027   9.909  0.9172  0.0621 -0.3328
  157SAPE   H5R17519   6.047   2.961   9.859  0.9276 -0.6619  0.6365
  157SAPE   C2617520   5.863   3.062   9.841  0.8315  0.0232  0.4775
  157SAPE   H6R17521   5.845   3.017   9.743 -1.3443  0.6070  0.5805
  157SAPE   C2717522   5.737   3.136   9.901 -0.5071 -0.3115  0.6865
  157SAPE   H7R17523   5.690   3.208   9.830  0.5008 -0.4456 -0.1333
  157SAPE   H7S17524   5.771   3.194   9.990 -0.9536  0.8600  0.1028
  157SAPE   C2817525   5.642   3.038   9.964  0.2111  1.0457 -0.0528
  157SAPE   H8R17526   5.636   3.041  10.074  0.3012 -0.4914 -0.0013
  157SAPE   C2917527   5.550   2.957   9.900 -0.1387 -0.3447 -0.1795
  157SAPE   H9R17528   5.498   2.889   9.969  0.4163 -0.4167  0.1712
  157SAPE  C21017529   5.518   2.945   9.753 -0.0953  0.4601 -0.3897
  157SAPE  H10R17530   5.574   2.853   9.725 -2.2037 -1.3307  1.0810
  157SAPE  H10S17531   5.564   3.037   9.711 -2.1323  1.6049 -0.1782
  157SAPE  C21117532   5.379   2.921   9.704 -0.2117 -0.1037 -0.0469
  157SAPE  H11R17533   5.307   2.900   9.785 -0.9998  1.8435 -0.2201
  157SAPE  C21217534   5.330   2.955   9.585 -0.3939  0.0757  0.9668
  157SAPE  H12R17535   5.227   2.926   9.559 -0.7784  2.3588 -0.2217
  157SAPE  C21317536   5.415   3.019   9.473 -0.5566  0.3240 -0.1989
  157SAPE  H13R17537   5.409   2.950   9.386 -2.1210 -0.5178  0.5609
  157SAPE  H13S17538   5.524   3.025   9.491 -0.7227  2.8145  0.1007
  157SAPE  C21417539   5.355   3.149   9.432  0.0296  0.2421 -0.2103
  157SAPE  H14R17540   5.314   3.209   9.515 -1.0040  1.4438 -1.5635
  157SAPE  C21517541   5.342   3.206   9.311 -0.2556  0.8259 -0.1046
  157SAPE  H15R17542   5.300   3.307   9.299 -0.0115  1.1997  2.0687
  157SAPE  C21617543   5.377   3.144   9.182  0.0905 -0.9133  0.3537
  157SAPE  H16R17544   5.375   3.033   9.184 -0.0141 -1.0422 -3.2029
  157SAPE  H16S17545   5.480   3.168   9.148 -0.0665 -0.6764  0.0396
  157SAPE  C21717546   5.297   3.190   9.062  0.1458  0.2324 -0.0357
  157SAPE  H17R17547   5.265   3.297   9.066 -1.4169 -0.1812 -0.9691
  157SAPE  H17S17548   5.200   3.136   9.073 -1.0115  1.9569 -1.4030
  157SAPE  C21817549   5.360   3.163   8.923 -0.6376  0.2948 -0.4051
  157SAPE  H18R17550   5.411   3.064   8.923 -1.0158  0.0898  0.6118
  157SAPE  H18S17551   5.442   3.229   8.888 -0.0910  1.1735  2.3999
  157SAPE  C21917552   5.251   3.183   8.817  0.4805  0.4642 -0.5730
  157SAPE  H19R17553   5.210   3.286   8.827  0.5936  0.3906  0.6851
  157SAPE  H19S17554   5.168   3.111   8.832  2.4140 -1.4604  1.2041
  157SAPE  C22017555   5.314   3.162   8.676 -0.2057 -0.1179 -0.3759
  157SAPE  H20R17556   5.406   3.224   8.672 -0.4114  0.1347 -1.2153
  157SAPE  H20S17557   5.247   3.181   8.589  1.0070 -1.8734 -1.7343
  157SAPE  H20T17558   5.344   3.055   8.666  1.1324  0.2682 -0.6291
  157SAPE   C3317559   5.583   2.546   9.882  0.8053  0.6159 -0.1042
  157SAPE   H3X17560   5.542   2.649   9.885  0.5340  0.4759  1.1044
  157SAPE   H3Y17561   5.521   2.507   9.798  0.3669 -2.0090  1.3835
  157SAPE   C3417562   5.732   2.539   9.853  0.5827  0.3124  0.1764
  157SAPE   H4X17563   5.768   2.434   9.857  1.8701  0.7772  1.1011
  157SAPE   H4Y17564   5.781   2.603   9.930 -0.3652  1.1026  0.1259
  157SAPE   C3517565   5.773   2.593   9.712 -0.6759 -0.4983  0.3884
  157SAPE   H5X17566   5.882   2.592   9.690 -0.6985  0.3649  0.2165
  157SAPE   H5Y17567   5.752   2.702   9.713  0.8224 -0.1651 -1.6641
  157SAPE   C3617568   5.681   2.534   9.600 -0.7802  0.5426 -0.0080
  157SAPE   H6X17569   5.578   2.569   9.622 -0.8399  2.1357 -2.6013
  157SAPE   H6Y17570   5.685   2.423   9.612  2.9541  0.9390  3.4023
  157SAPE   C3717571   5.725   2.577   9.458 -0.4596  0.0641  0.6479
  157SAPE   H7X17572   5.692   2.502   9.382 -1.8778 -0.7842  2.0769
  157SAPE   H7Y17573   5.835   2.569   9.446 -0.7763 -1.9382 -1.3636
  157SAPE   C3817574   5.665   2.716   9.433 -0.7168 -0.5298  0.3982
  157SAPE   H8X17575   5.705   2.788   9.508  1.1027  0.1731 -1.2021
  157SAPE   H8Y17576   5.557   2.738   9.451 -0.1514  4.1680 -1.2162
  157SAPE   C3917577   5.696   2.762   9.289 -0.0934 -0.2451  0.1222
  157SAPE   H9X17578   5.803   2.762   9.261 -0.0498 -1.5949  0.2345
  157SAPE   H9Y17579   5.660   2.866   9.279 -0.7432 -0.6591 -2.2275
  157SAPE  C31017580   5.620   2.683   9.176  0.3598 -0.2561  0.4090
  157SAPE  H10X17581   5.527   2.640   9.218 -1.4290  1.0788 -2.0824
  157SAPE  H10Y17582   5.669   2.589   9.143 -1.4878 -0.9538 -0.4006
  157SAPE  C31117583   5.582   2.767   9.050 -0.6136  0.6169  0.0959
  157SAPE  H11X17584   5.518   2.850   9.087  2.4424  1.7092  3.1758
  157SAPE  H11Y17585   5.518   2.701   8.988  1.3231  1.6256 -3.0953
  157SAPE  C31217586   5.701   2.825   8.971  0.3555  0.1601  0.1263
  157SAPE  H12X17587   5.751   2.736   8.928 -0.5849 -1.7767  2.8975
  157SAPE  H12Y17588   5.767   2.869   9.049 -1.4156  0.8869  1.2512
  157SAPE  C31317589   5.653   2.913   8.851  0.1953 -0.4606 -1.1681
  157SAPE  H13X17590   5.599   3.002   8.891  2.9054  0.5287  0.4882
  157SAPE  H13Y17591   5.583   2.855   8.788 -2.4221  1.2020  0.0944
  157SAPE  C31417592   5.781   2.969   8.773 -0.1022 -1.0450  0.8689
  157SAPE  H14X17593   5.844   2.877   8.766  0.5822 -0.6223  1.4743
  157SAPE  H14Y17594   5.842   3.039   8.833  0.3171 -1.0723  0.4761
  157SAPE  C31517595   5.747   3.021   8.634 -0.3824 -1.0296 -0.2441
  157SAPE  H15X17596   5.680   3.110   8.641  0.7329 -0.1447 -0.6382
  157SAPE  H15Y17597   5.693   2.952   8.566 -2.1175 -0.1125  0.1646
  157SAPE  C31617598   5.877   3.055   8.562 -0.3153 -0.1541  0.8508
  157SAPE  H16X17599   5.946   3.107   8.632  1.1026  0.0465 -0.6603
  157SAPE  H16Y17600   5.843   3.128   8.485  0.7341  0.0939  0.6093
  157SAPE  C31717601   5.949   2.935   8.509  0.0879 -0.2466 -0.8257
  157SAPE  H17X17602   5.877   2.875   8.449 -3.1621  1.9531  0.7396
  157SAPE  H17Y17603   5.986   2.862   8.585  0.1823  0.6727  0.0193
  157SAPE  C31817604   6.058   2.981   8.420  0.1210  0.2445 -0.1280
  157SAPE  H18X17605   6.158   3.004   8.463 -0.1674 -0.2575  0.8231
  157SAPE  H18Y17606   6.031   3.075   8.368 -0.0742  0.3156  0.1068
  157SAPE  H18Z17607   6.072   2.909   8.335  1.7790  0.1202  0.2267
  158SAPE     N17608   0.629   4.474  10.535 -0.0806  0.6146  0.2067
  158SAPE   HN117609   0.575   4.562  10.544  0.9529  1.2822 -0.0336
  158SAPE   HN217610   0.719   4.489  10.586  0.2982 -0.7673 -0.0369
  158SAPE   HN317611   0.657   4.451  10.437 -0.3316  1.2589 -0.0167
  158SAPE   C1217612   0.569   4.344  10.582 -0.3637 -0.5747 -0.1183
  158SAPE  H12A17613   0.473   4.331  10.528 -1.1035  0.0265  1.0301
  158SAPE  H12B17614   0.552   4.355  10.691  1.3830  0.0203  0.1154
  158SAPE   C1117615   0.660   4.224  10.545  0.1975  0.2638 -0.0462
  158SAPE  H11A17616   0.651   4.201  10.436  0.5666 -0.7981  0.1457
  158SAPE  H11B17617   0.605   4.142  10.597 -1.2048  1.1838 -0.0516
  158SAPE     P17618   0.863   4.163  10.689  0.1502  0.0906 -0.0147
  158SAPE   O1317619   1.005   4.184  10.712  0.1788 -0.2103  0.1792
  158SAPE   O1417620   0.775   4.158  10.806 -0.1534 -0.1866  0.1824
  158SAPE   O1217621   0.793   4.255  10.584 -0.0357  0.2103  0.0018
  158SAPE   O1117622   0.841   4.022  10.629  0.1372  0.0701 -0.1271
  158SAPE    C117623   0.920   3.969  10.512  0.2428  0.9557 -0.0989
  158SAPE    HA17624   1.022   4.013  10.504  0.8729 -0.4186  0.1999
  158SAPE    HB17625   0.940   3.862  10.531 -1.9600  0.6599  0.7276
  158SAPE    C217626   0.840   3.974  10.382  0.3942 -0.4604  0.8030
  158SAPE    HS17627   0.805   4.075  10.354 -2.0043 -1.5179 -0.2280
  158SAPE   O2117628   0.740   3.869  10.385 -0.1338  0.1126  0.1903
  158SAPE   C2117629   0.631   3.893  10.315 -0.3005  0.2434  0.4067
  158SAPE   O2217630   0.611   3.989  10.243  0.0811  0.3312 -0.6719
  158SAPE   C2217631   0.526   3.781  10.347  0.0835 -0.1702 -0.0808
  158SAPE   H2R17632   0.578   3.683  10.332  0.4746 -0.0990  0.8342
  158SAPE   H2S17633   0.507   3.797  10.455  1.7383 -0.2577  0.2359
  158SAPE    C317634   0.943   3.944  10.270 -0.2699  0.2347  0.0162
  158SAPE    HX17635   0.989   3.845  10.292  2.6016  1.5987  0.3191
  158SAPE    HY17636   1.030   4.013  10.270 -0.8479  0.9647 -0.8342
  158SAPE   O3117637   0.879   3.936  10.144  0.5656  0.4727  0.4690
  158SAPE   C3117638   0.871   4.050  10.068  0.6868  0.2390  0.4034
  158SAPE   O3217639   0.920   4.160  10.105 -0.4283 -0.2964  0.7590
  158SAPE   C3217640   0.782   4.027   9.942 -0.3058 -0.2682 -0.8199
  158SAPE   H2X17641   0.767   4.126   9.892  1.8894  0.9366  0.8128
  158SAPE   H2Y17642   0.682   3.991   9.973  0.5349 -1.2574  0.7914
  158SAPE   C2317643   0.405   3.786  10.250  0.3306 -0.3252 -0.1854
  158SAPE   H3R17644   0.430   3.787  10.141  1.3378  0.7994  0.0542
  158SAPE   H3S17645   0.367   3.890  10.248  0.6464 -0.1662  1.5097
  158SAPE   C2417646   0.292   3.690  10.285 -0.0087 -0.1277  0.3284
  158SAPE   H4R17647   0.208   3.699  10.214 -0.1122  0.9752  0.5752
  158SAPE   H4S17648   0.263   3.728  10.386  2.0652  1.6764  0.2960
  158SAPE   C2517649   0.348   3.549  10.283 -0.0564  0.3928  0.2795
  158SAPE   H5R17650   0.372   3.504  10.381 -3.4877  2.4395  2.1628
  158SAPE   C2617651   0.363   3.481  10.165  0.0705 -0.0232  0.0190
  158SAPE   H6R17652   0.404   3.379  10.162 -0.3637 -0.2245  0.8379
  158SAPE   C2717653   0.325   3.524  10.027 -0.1790  0.1774 -0.4449
  158SAPE   H7R17654   0.243   3.598  10.034 -0.2987  0.1565 -1.5478
  158SAPE   H7S17655   0.281   3.435   9.976  0.9321 -0.3743 -0.4637
  158SAPE   C2817656   0.442   3.597   9.958 -0.2472 -0.2485 -0.3914
  158SAPE   H8R17657   0.526   3.605  10.028 -1.0385 -0.9649  0.6687
  158SAPE   C2917658   0.466   3.629   9.833  0.3411  0.3458  0.7900
  158SAPE   H9R17659   0.561   3.674   9.801  0.6631 -1.2110 -0.5268
  158SAPE  C21017660   0.375   3.606   9.717  1.0215 -0.5197 -0.1552
  158SAPE  H10R17661   0.354   3.702   9.665  2.9577  1.1924  2.1423
  158SAPE  H10S17662   0.273   3.578   9.751  1.1470  0.0125  0.6889
  158SAPE  C21117663   0.421   3.496   9.625  0.2663  0.4098 -0.4226
  158SAPE  H11R17664   0.461   3.406   9.675 -1.0148  0.3994  0.6087
  158SAPE  C21217665   0.414   3.499   9.486  0.6908  0.7941 -0.2015
  158SAPE  H12R17666   0.462   3.415   9.434  0.2256  0.6631 -0.4256
  158SAPE  C21317667   0.386   3.613   9.389  0.6317  0.6618 -0.0843
  158SAPE  H13R17668   0.459   3.611   9.305  0.9651 -1.2823  0.2219
  158SAPE  H13S17669   0.406   3.708   9.442  1.7519  0.8295 -0.7866
  158SAPE  C21417670   0.254   3.583   9.325  0.4228  0.6344  0.1048
  158SAPE  H14R17671   0.167   3.623   9.379  1.3600  2.2228  0.4869
  158SAPE  C21517672   0.227   3.530   9.203 -0.2261  0.3959 -0.2460
  158SAPE  H15R17673   0.124   3.535   9.165  0.0096  0.1488 -0.9261
  158SAPE  C21617674   0.324   3.481   9.097 -0.8010  0.3489 -1.0517
  158SAPE  H16R17675   0.419   3.438   9.133 -1.6608  0.3018  1.2092
  158SAPE  H16S17676   0.343   3.566   9.028  0.4758  1.1504  0.2663
  158SAPE  C21717677   0.245   3.389   9.008  0.0436  0.2955 -0.6189
  158SAPE  H17R17678   0.162   3.446   8.961 -3.6659 -2.7724  1.8463
  158SAPE  H17S17679   0.194   3.305   9.061 -0.2391  1.7997  1.5694
  158SAPE  C21817680   0.324   3.307   8.906  0.4428 -0.2531 -0.3690
  158SAPE  H18R17681   0.417   3.267   8.951  0.2935  0.2264  0.3802
  158SAPE  H18S17682   0.360   3.380   8.831 -0.4648  0.5238 -0.0597
  158SAPE  C21917683   0.251   3.193   8.843  0.0205  0.6884  0.0780
  158SAPE  H19R17684   0.150   3.215   8.804  0.2460 -2.6681 -2.5810
  158SAPE  H19S17685   0.244   3.105   8.911 -2.2215  1.2931  0.6478
  158SAPE  C22017686   0.327   3.159   8.713 -0.4352  0.1058  0.2714
  158SAPE  H20R17687   0.437   3.145   8.725 -0.7248 -0.4883  2.5814
  158SAPE  H20S17688   0.310   3.241   8.640  0.4083 -0.4099 -0.5078
  158SAPE  H20T17689   0.285   3.065   8.670  0.0474 -0.0585  0.1567
  158SAPE   C3317690   0.845   3.928   9.840  0.2291 -0.4224 -0.0337
  158SAPE   H3X17691   0.844   3.827   9.886 -0.2043 -0.5034 -0.2193
  158SAPE   H3Y17692   0.953   3.954   9.827  0.9949 -1.0608  4.3232
  158SAPE   C3417693   0.762   3.931   9.716  0.6093 -0.1448 -1.0611
  158SAPE   H4X17694   0.758   4.034   9.673  1.6130  1.2292  1.9806
  158SAPE   H4Y17695   0.660   3.902   9.747  0.9509 -1.5008 -1.1699
  158SAPE   C3517696   0.797   3.823   9.622  0.3936 -0.0290  0.2880
  158SAPE   H5X17697   0.803   3.727   9.678  1.8919 -0.8964 -1.2953
  158SAPE   H5Y17698   0.902   3.828   9.585  0.4719  0.2005  0.5447
  158SAPE   C3617699   0.703   3.829   9.495 -0.0128  0.0895 -1.3390
  158SAPE   H6X17700   0.736   3.926   9.450 -0.9424  0.7017 -0.7217
  158SAPE   H6Y17701   0.599   3.820   9.531  0.7878 -1.5499  0.6628
  158SAPE   C3717702   0.739   3.721   9.391  0.2744  0.1985 -0.5963
  158SAPE   H7X17703   0.698   3.621   9.416  0.7194  0.1285 -0.1619
  158SAPE   H7Y17704   0.850   3.724   9.388  0.2834  0.1213 -0.2621
  158SAPE   C3817705   0.699   3.747   9.244 -0.3567 -0.5052  0.7583
  158SAPE   H8X17706   0.745   3.846   9.221 -0.3976 -0.7350 -0.3485
  158SAPE   H8Y17707   0.589   3.754   9.226  0.0806 -0.5079 -2.1671
  158SAPE   C3917708   0.764   3.648   9.139 -0.0033 -0.5024 -0.1117
  158SAPE   H9X17709   0.736   3.549   9.179  0.5899 -0.2940  0.8391
  158SAPE   H9Y17710   0.873   3.671   9.142  0.0295 -0.6023 -0.4693
  158SAPE  C31017711   0.714   3.664   8.995 -0.5156 -0.2859  0.0403
  158SAPE  H10X17712   0.755   3.752   8.941 -0.7997  0.6979  1.4016
  158SAPE  H10Y17713   0.603   3.675   8.993 -0.6422 -1.7166 -1.2454
  158SAPE  C31117714   0.756   3.549   8.910  0.2992  0.4381  0.1310
  158SAPE  H11X17715   0.741   3.459   8.972  2.5311 -0.9868 -1.2983
  158SAPE  H11Y17716   0.866   3.544   8.891 -0.0294  1.4618 -2.2461
  158SAPE  C31217717   0.682   3.536   8.771 -0.8558  0.6986 -0.0554
  158SAPE  H12X17718   0.631   3.634   8.768 -0.5302  0.8770  0.1650
  158SAPE  H12Y17719   0.610   3.452   8.779 -0.2016  0.1615  0.3308
  158SAPE  C31317720   0.770   3.503   8.647  0.1637 -0.4002  0.1951
  158SAPE  H13X17721   0.831   3.414   8.675  0.0346  0.5186  3.5433
  158SAPE  H13Y17722   0.838   3.591   8.645  1.2605 -1.1784  1.9923
  158SAPE  C31417723   0.685   3.491   8.527 -0.4081 -0.2947  0.3698
  158SAPE  H14X17724   0.758   3.473   8.446  0.5709  2.4100  0.5956
  158SAPE  H14Y17725   0.642   3.587   8.492 -0.8443 -0.0601  1.5180
  158SAPE  C31517726   0.592   3.367   8.523  0.6673 -0.4293 -0.5249
  158SAPE  H15X17727   0.531   3.348   8.614  0.9893  0.3082 -0.1529
  158SAPE  H15Y17728   0.657   3.278   8.520 -2.3037 -2.6298 -2.9076
  158SAPE  C31617729   0.512   3.357   8.396 -0.0558 -0.5051 -0.5541
  158SAPE  H16X17730   0.471   3.255   8.389 -1.7123  0.0614  0.4839
  158SAPE  H16Y17731   0.584   3.362   8.312 -1.8655  0.0465 -2.1018
  158SAPE  C31717732   0.398   3.456   8.391  0.3497  0.1655 -0.5942
  158SAPE  H17X17733   0.425   3.546   8.330  0.3702  1.0124  0.6476
  158SAPE  H17Y17734   0.380   3.497   8.492  0.5236  0.7845 -0.8088
  158SAPE  C31817735   0.267   3.396   8.338  0.3155 -0.1824 -0.4089
  158SAPE  H18X17736   0.269   3.379   8.228 -2.7097 -1.1491 -0.3458
  158SAPE  H18Y17737   0.176   3.453   8.365  1.9325  1.7479  1.0609
  158SAPE  H18Z17738   0.257   3.292   8.376  2.0776  0.3106  1.4889
  159SAPE     N17739   6.496   0.643   6.549 -0.5242 -0.5814  0.3224
  159SAPE   HN117740   6.495   0.592   6.639  0.1213 -1.4332 -0.1563
  159SAPE   HN217741   6.398   0.648   6.514 -0.4506  3.5363  0.4738
  159SAPE   HN317742   6.559   0.599   6.479  0.6495 -0.4599  1.2931
  159SAPE   C1217743   6.539   0.788   6.568 -0.2688 -0.4041  0.4779
  159SAPE  H12A17744   6.507   0.813   6.671 -0.3249  1.8009 -0.0670
  159SAPE  H12B17745   6.483   0.862   6.508  1.3731  1.9207  1.7442
  159SAPE   C1117746   6.694   0.800   6.559  0.0006  1.4519  0.1586
  159SAPE  H11A17747   6.733   0.792   6.662 -0.4902 -0.3532  0.2265
  159SAPE  H11B17748   6.727   0.900   6.525  5.0082 -0.1963 -0.1473
  159SAPE     P17749   6.918   0.716   6.455 -0.1155  0.3570  0.0058
  159SAPE   O1317750   6.980   0.588   6.430 -0.6968 -0.6544 -0.0882
  159SAPE   O1417751   6.937   0.819   6.345  0.6267 -0.7633 -0.3306
  159SAPE   O1217752   6.758   0.694   6.478  0.3493 -0.1181 -0.3580
  159SAPE   O1117753   6.965   0.793   6.587  0.4140  0.4253 -0.6705
  159SAPE    C117754   7.091   0.784   6.649  0.2640 -0.1593  0.1700
  159SAPE    HA17755   7.168   0.733   6.588  0.2206 -0.7149  0.5738
  159SAPE    HB17756   7.123   0.889   6.665 -2.2404  0.6241  0.3518
  159SAPE    C217757   7.081   0.723   6.788 -0.3362  0.6588 -0.2494
  159SAPE    HS17758   7.057   0.615   6.780  0.6328  0.3641  0.7688
  159SAPE   O2117759   6.988   0.805   6.857 -0.5036 -0.5210  0.5828
  159SAPE   C2117760   6.898   0.737   6.923 -0.3360 -0.1473  0.2725
  159SAPE   O2217761   6.892   0.615   6.933 -0.2612  0.0597 -0.1347
  159SAPE   C2217762   6.795   0.831   6.990 -0.2734  0.2000  0.1504
  159SAPE   H2R17763   6.835   0.911   7.056 -0.6636 -1.6603  2.7030
  159SAPE   H2S17764   6.744   0.885   6.908 -0.2183  3.7408  2.3898
  159SAPE    C317765   7.217   0.723   6.864 -0.1515 -0.5409  0.2550
  159SAPE    HX17766   7.263   0.822   6.844 -2.1338  0.1976 -0.7583
  159SAPE    HY17767   7.289   0.663   6.805 -1.4436 -0.8310 -1.0699
  159SAPE   O3117768   7.198   0.707   7.005  0.3430  0.0826 -0.2396
  159SAPE   C3117769   7.192   0.577   7.040  0.4440 -0.3544 -0.5967
  159SAPE   O3217770   7.225   0.489   6.964  0.5737 -0.1493 -0.0791
  159SAPE   C3217771   7.143   0.552   7.178 -0.1059  0.7341  0.2359
  159SAPE   H2X17772   7.033   0.566   7.177 -0.1801  0.1196 -0.4556
  159SAPE   H2Y17773   7.198   0.624   7.243 -0.9973  0.9481  0.7616
  159SAPE   C2317774   6.688   0.752   7.071  0.0944  0.3322 -0.2308
  159SAPE   H3R17775   6.654   0.658   7.023  0.1233  0.1960  0.0132
  159SAPE   H3S17776   6.595   0.811   7.086  0.2276  0.6904 -0.8195
  159SAPE   C2417777   6.735   0.711   7.209 -0.5674 -0.6486 -0.0549
  159SAPE   H4R17778   6.844   0.690   7.211 -0.5552 -0.5561  0.4603
  159SAPE   H4S17779   6.682   0.620   7.242 -1.8856  0.0502 -0.2128
  159SAPE   C2517780   6.742   0.826   7.313 -1.1081 -0.3400  0.5250
  159SAPE   H5R17781   6.697   0.921   7.280  0.8250  0.0112 -1.2725
  159SAPE   C2617782   6.789   0.807   7.434  0.4838  0.2880 -0.8048
  159SAPE   H6R17783   6.789   0.893   7.502 -0.3855  1.6097 -2.4276
  159SAPE   C2717784   6.842   0.676   7.490  0.9858 -0.1408 -0.2919
  159SAPE   H7R17785   6.952   0.691   7.494  0.6590  2.4478 -0.3608
  159SAPE   H7S17786   6.810   0.586   7.432  0.9855  1.3006 -2.5818
  159SAPE   C2817787   6.793   0.654   7.634 -0.1371 -0.2659  0.0409
  159SAPE   H8R17788   6.689   0.617   7.638  0.1462 -1.3005 -1.7483
  159SAPE   C2917789   6.868   0.662   7.748 -0.3055  0.2611 -0.3530
  159SAPE   H9R17790   6.812   0.658   7.842 -1.0915  0.7401 -0.8035
  159SAPE  C21017791   7.016   0.699   7.754 -0.6315 -0.4698  0.8181
  159SAPE  H10R17792   7.029   0.805   7.783 -1.2598 -0.1921  0.0801
  159SAPE  H10S17793   7.064   0.703   7.653 -0.1241  0.6844  1.1065
  159SAPE  C21117794   7.107   0.619   7.838  0.0740 -0.0131 -0.0233
  159SAPE  H11R17795   7.195   0.575   7.789  0.1355  0.4287 -0.3177
  159SAPE  C21217796   7.110   0.628   7.971 -0.0391  0.5351 -0.4540
  159SAPE  H12R17797   7.187   0.570   8.024  0.7154  1.5507 -0.4270
  159SAPE  C21317798   7.022   0.703   8.066  0.6615  0.3627  0.0762
  159SAPE  H13R17799   6.958   0.639   8.131  0.2404  0.6863 -0.0138
  159SAPE  H13S17800   6.955   0.766   8.004 -1.4857  0.9391  2.8292
  159SAPE  C21417801   7.107   0.790   8.159 -0.0082  0.1216  0.0238
  159SAPE  H14R17802   7.216   0.793   8.146  0.0506  2.1213  0.8273
  159SAPE  C21517803   7.059   0.851   8.274 -0.8894  0.1620 -0.6964
  159SAPE  H15R17804   7.129   0.915   8.330  1.1152 -0.1227 -2.7820
  159SAPE  C21617805   6.918   0.853   8.331  0.1569 -0.2995  1.3764
  159SAPE  H16R17806   6.851   0.811   8.254 -0.7317  0.3681  1.7772
  159SAPE  H16S17807   6.883   0.955   8.359  2.7281  0.3271  2.4556
  159SAPE  C21717808   6.895   0.777   8.461  0.3110 -0.5640  0.1849
  159SAPE  H17R17809   6.955   0.830   8.538 -0.4993  1.9769 -0.8872
  159SAPE  H17S17810   6.936   0.674   8.451  0.4444 -0.7784  2.7554
  159SAPE  C21817811   6.742   0.750   8.505  0.2225  0.0354  1.0710
  159SAPE  H18R17812   6.695   0.689   8.424 -0.2217  1.3366  0.3388
  159SAPE  H18S17813   6.690   0.847   8.522 -0.6678 -0.5782  1.9300
  159SAPE  C21917814   6.725   0.674   8.639  0.4825 -0.4916  0.5246
  159SAPE  H19R17815   6.621   0.709   8.656  0.8389  1.1524 -0.5717
  159SAPE  H19S17816   6.779   0.716   8.727 -0.6178  2.1972 -0.0434
  159SAPE  C22017817   6.743   0.527   8.638  0.0717 -0.4168 -0.0145
  159SAPE  H20R17818   6.671   0.474   8.572 -0.7627  1.6212 -0.7868
  159SAPE  H20S17819   6.738   0.492   8.743  1.0960 -0.4400  0.0358
  159SAPE  H20T17820   6.841   0.507   8.589 -1.1465 -1.0845 -2.2767
  159SAPE   C3317821   7.164   0.403   7.215 -0.1388 -0.5519 -0.1474
  159SAPE   H3X17822   7.272   0.387   7.235  0.1284  1.7644  0.4671
  159SAPE   H3Y17823   7.138   0.337   7.130 -1.3096 -0.7721  0.3799
  159SAPE   C3417824   7.074   0.384   7.342  0.3835  0.7732 -0.7653
  159SAPE   H4X17825   6.967   0.391   7.312 -0.8979 -2.6732  2.5673
  159SAPE   H4Y17826   7.087   0.453   7.428 -0.0119 -0.2857  0.1550
  159SAPE   C3517827   7.082   0.239   7.397 -0.0142 -0.5552 -0.1468
  159SAPE   H5X17828   7.177   0.214   7.449 -1.2301  0.0875  2.4707
  159SAPE   H5Y17829   7.070   0.166   7.315 -0.1584 -0.7639  0.0619
  159SAPE   C3617830   6.953   0.201   7.476  0.2024 -0.0848 -0.1496
  159SAPE   H6X17831   6.959   0.095   7.509 -0.2016 -0.6053 -1.7115
  159SAPE   H6Y17832   6.868   0.221   7.407  0.1653 -1.5460 -0.5360
  159SAPE   C3717833   6.939   0.273   7.614 -0.3358 -0.7984  0.2436
  159SAPE   H7X17834   6.894   0.370   7.585  0.6132 -1.1678 -2.5581
  159SAPE   H7Y17835   7.033   0.277   7.672 -1.7431  2.1661  2.4930
  159SAPE   C3817836   6.843   0.182   7.704 -0.0960 -0.5300  0.0947
  159SAPE   H8X17837   6.894   0.084   7.693  1.3615  0.0766  1.3263
  159SAPE   H8Y17838   6.739   0.179   7.665 -0.2199 -0.5896  0.4247
  159SAPE   C3917839   6.844   0.221   7.852  1.2454  0.7119  0.4763
  159SAPE   H9X17840   6.784   0.312   7.875 -2.1646 -1.6864  1.3298
  159SAPE   H9Y17841   6.952   0.241   7.868  0.9393  2.2819  0.7024
  159SAPE  C31017842   6.803   0.111   7.953  0.5174 -0.2847  0.0833
  159SAPE  H10X17843   6.849   0.016   7.917 -0.9840 -0.8903 -0.2507
  159SAPE  H10Y17844   6.697   0.078   7.948  0.7509 -0.7458 -2.4611
  159SAPE  C31117845   6.844   0.145   8.099  0.4202  0.1913 -0.5547
  159SAPE  H11X17846   6.949   0.168   8.126  0.9624 -2.0534 -0.6096
  159SAPE  H11Y17847   6.828   0.050   8.154 -0.4273  0.0692 -1.0055
  159SAPE  C31217848   6.745   0.248   8.155  0.7515 -0.0789  0.2337
  159SAPE  H12X17849   6.640   0.223   8.129  0.4899 -1.1102  2.1384
  159SAPE  H12Y17850   6.776   0.341   8.103  1.4729 -1.3601 -1.6759
  159SAPE  C31317851   6.758   0.294   8.304 -0.2952 -0.4321  0.0488
  159SAPE  H13X17852   6.660   0.345   8.321  0.5654  1.5525 -0.7170
  159SAPE  H13Y17853   6.838   0.370   8.315 -0.6811 -0.0279  0.0918
  159SAPE  C31417854   6.779   0.183   8.407 -0.2353 -0.3652 -0.3303
  159SAPE  H14X17855   6.801   0.238   8.501 -0.6173  1.5850 -1.3555
  159SAPE  H14Y17856   6.873   0.132   8.379 -0.4703 -0.7741 -0.3755
  159SAPE  C31517857   6.687   0.070   8.423  0.1494 -0.2656  0.6652
  159SAPE  H15X17858   6.707  -0.015   8.491 -0.0293 -0.1779  0.8315
  159SAPE  H15Y17859   6.678   0.023   8.323 -0.9045  1.4013 -0.0596
  159SAPE  C31617860   6.543   0.108   8.461 -0.0080  0.2436  0.3846
  159SAPE  H16X17861   6.512   0.199   8.405 -0.5410 -0.1513  0.0239
  159SAPE  H16Y17862   6.534   0.128   8.570 -0.1911 -1.0838  0.6241
  159SAPE  C31717863   6.445   0.001   8.429  0.1949  0.4322 -0.8554
  159SAPE  H17X17864   6.487  -0.097   8.460 -1.2378 -0.0988 -0.5469
  159SAPE  H17Y17865   6.432  -0.012   8.320  2.2191 -3.7216 -0.6797
  159SAPE  C31817866   6.313   0.031   8.491 -0.4587 -0.3253  0.0016
  159SAPE  H18X17867   6.327   0.052   8.599  0.7855 -2.9574  0.3900
  159SAPE  H18Y17868   6.233  -0.042   8.465 -0.0493  0.0368 -2.3802
  159SAPE  H18Z17869   6.280   0.130   8.452  2.2822  0.0894 -1.3618
  160SAPE     N17870   5.795   1.167   6.662  0.2079 -0.1790 -0.1013
  160SAPE   HN117871   5.748   1.239   6.721  2.5126  0.1334  1.4172
  160SAPE   HN217872   5.771   1.071   6.694 -2.6215 -0.2076 -2.1333
  160SAPE   HN317873   5.897   1.189   6.669 -0.1572  1.6262 -0.1976
  160SAPE   C1217874   5.740   1.177   6.525  0.7129 -0.5101 -0.4717
  160SAPE  H12A17875   5.629   1.185   6.525  0.7160  0.2688  3.0571
  160SAPE  H12B17876   5.773   1.083   6.475 -1.1172 -0.9025 -0.9682
  160SAPE   C1117877   5.794   1.306   6.457  0.4773  0.4453  0.2541
  160SAPE  H11A17878   5.769   1.398   6.513 -0.2314  0.7909 -0.6173
  160SAPE  H11B17879   5.732   1.299   6.365  0.9729 -1.4249  0.0337
  160SAPE     P17880   6.037   1.359   6.541  0.3321 -0.0466  0.0695
  160SAPE   O1317881   6.065   1.244   6.626  0.3328  0.6875  0.4934
  160SAPE   O1417882   6.148   1.427   6.479 -0.5112  0.5557  0.1314
  160SAPE   O1217883   5.932   1.306   6.432  0.1406  0.2390  0.1324
  160SAPE   O1117884   5.952   1.460   6.630  0.6835 -0.0376  0.2201
  160SAPE    C117885   6.006   1.519   6.747  0.3564  1.1035 -0.5156
  160SAPE    HA17886   6.098   1.462   6.771 -0.4199 -0.8462 -2.0022
  160SAPE    HB17887   6.031   1.626   6.728 -0.9382  1.5536  0.2461
  160SAPE    C217888   5.913   1.517   6.874  0.1159  0.1422 -0.0995
  160SAPE    HS17889   5.910   1.407   6.894 -0.1934  0.5485  2.2256
  160SAPE   O2117890   5.784   1.574   6.846  0.2015 -0.0138  1.3539
  160SAPE   C2117891   5.690   1.482   6.829  0.3864  0.2892 -0.8560
  160SAPE   O2217892   5.702   1.361   6.824 -0.2291 -0.4298  0.3212
  160SAPE   C2217893   5.561   1.565   6.801  0.3666  0.1543  0.3594
  160SAPE   H2R17894   5.563   1.663   6.854 -1.8570  0.9747 -0.9856
  160SAPE   H2S17895   5.576   1.580   6.692  1.1562 -0.2150  0.4188
  160SAPE    C317896   5.975   1.570   6.998 -0.2229  0.0211 -0.0958
  160SAPE    HX17897   5.921   1.508   7.072 -0.1076  0.7121  0.5671
  160SAPE    HY17898   5.955   1.679   7.004 -0.9147 -0.1645  1.1347
  160SAPE   O3117899   6.108   1.534   7.015 -0.3464 -0.4103 -0.2256
  160SAPE   C3117900   6.182   1.633   7.075 -0.4912 -0.2097  0.2777
  160SAPE   O3217901   6.149   1.748   7.095 -0.5084 -0.3363 -0.1539
  160SAPE   C3217902   6.307   1.576   7.143  0.5325 -0.4946  0.4958
  160SAPE   H2X17903   6.380   1.659   7.144 -1.7257  1.5993 -1.6340
  160SAPE   H2Y17904   6.348   1.493   7.082  0.7553 -1.8572  2.4430
  160SAPE   C2317905   5.427   1.497   6.823  0.2808  0.2474 -0.1969
  160SAPE   H3R17906   5.428   1.396   6.775  2.9614 -1.4014  3.1312
  160SAPE   H3S17907   5.346   1.545   6.765 -0.1199 -1.3819 -1.0036
  160SAPE   C2417908   5.367   1.508   6.965 -0.1007  0.1730 -0.0171
  160SAPE   H4R17909   5.275   1.447   6.953  1.2367 -2.0512  0.7372
  160SAPE   H4S17910   5.337   1.611   6.993  0.1827  0.3232 -0.2644
  160SAPE   C2517911   5.464   1.454   7.069 -0.5927 -0.2580 -0.4619
  160SAPE   H5R17912   5.475   1.345   7.056  0.2294 -0.2561  0.1729
  160SAPE   C2617913   5.545   1.518   7.148  0.0503  0.3704 -0.2037
  160SAPE   H6R17914   5.604   1.453   7.214  1.4035 -0.4323 -2.1650
  160SAPE   C2717915   5.549   1.671   7.165  0.3292  0.1635 -0.6063
  160SAPE   H7R17916   5.516   1.690   7.269 -0.0398  0.4739 -0.7810
  160SAPE   H7S17917   5.475   1.724   7.102  0.5371 -0.5084 -1.4371
  160SAPE   C2817918   5.683   1.734   7.136 -0.5393  0.2308  0.6904
  160SAPE   H8R17919   5.700   1.760   7.031 -0.6216  0.7729  0.8129
  160SAPE   C2917920   5.765   1.781   7.232  0.6876  0.1630  0.2549
  160SAPE   H9R17921   5.858   1.823   7.192  0.2002 -0.6828 -1.8289
  160SAPE  C21017922   5.749   1.779   7.383 -0.5110  0.3975  0.2371
  160SAPE  H10R17923   5.826   1.704   7.414 -0.2439  0.5295 -0.1048
  160SAPE  H10S17924   5.655   1.731   7.417 -1.7634  0.8035 -2.6198
  160SAPE  C21117925   5.777   1.911   7.446 -0.3871 -0.1482 -0.0814
  160SAPE  H11R17926   5.774   1.994   7.373 -0.2222  0.1851  0.2935
  160SAPE  C21217927   5.790   1.933   7.580  0.4730 -0.3294  0.0722
  160SAPE  H12R17928   5.810   2.035   7.614 -1.4167  0.8939 -2.2881
  160SAPE  C21317929   5.789   1.831   7.686 -0.1814  0.5547 -0.2650
  160SAPE  H13R17930   5.894   1.827   7.723 -0.6438  1.8126  1.1986
  160SAPE  H13S17931   5.786   1.726   7.649  1.1291  0.2802  0.3937
  160SAPE  C21417932   5.690   1.844   7.794  0.0356  0.0456 -0.0657
  160SAPE  H14R17933   5.590   1.806   7.766  0.2690 -1.4279  1.0115
  160SAPE  C21517934   5.714   1.885   7.918  0.4030 -0.1491  0.5835
  160SAPE  H15R17935   5.629   1.891   7.987 -1.1983  0.2153 -1.3674
  160SAPE  C21617936   5.841   1.940   7.966 -0.0062  0.3073  0.3126
  160SAPE  H16R17937   5.886   2.000   7.885  0.8266  0.3533  0.8014
  160SAPE  H16S17938   5.916   1.867   8.003 -0.9901 -0.7106  0.3345
  160SAPE  C21717939   5.824   2.052   8.071  0.2544 -0.6739 -0.3729
  160SAPE  H17R17940   5.775   2.026   8.168  0.8070  0.6550  0.2763
  160SAPE  H17S17941   5.762   2.132   8.027  1.1366  0.5807  0.6416
  160SAPE  C21817942   5.959   2.119   8.110  0.8094  0.6538 -0.0014
  160SAPE  H18R17943   5.980   2.191   8.028  2.3726 -0.2384 -0.4020
  160SAPE  H18S17944   6.033   2.037   8.118  1.1519  1.0099  0.4420
  160SAPE  C21917945   5.948   2.203   8.241  0.1768  0.4681  1.0818
  160SAPE  H19R17946   5.930   2.133   8.326 -2.9494 -1.5223 -1.1401
  160SAPE  H19S17947   5.858   2.268   8.239 -0.4900 -0.4750  0.0178
  160SAPE  C22017948   6.087   2.272   8.290 -0.1664  0.2921  0.0683
  160SAPE  H20R17949   6.080   2.316   8.392 -0.2082 -1.0726  0.6626
  160SAPE  H20S17950   6.121   2.335   8.205  0.8354 -1.2412 -0.6863
  160SAPE  H20T17951   6.170   2.198   8.303 -1.1545 -0.6511  1.0730
  160SAPE   C3317952   6.266   1.525   7.281  0.3317 -0.1013 -0.1879
  160SAPE   H3X17953   6.359   1.476   7.319 -0.2609  0.0094  1.4136
  160SAPE   H3Y17954   6.200   1.439   7.257  0.4242 -0.4773  0.9035
  160SAPE   C3417955   6.215   1.622   7.391  0.4564 -0.1653  0.5383
  160SAPE   H4X17956   6.105   1.625   7.380  0.4212 -1.7972  0.2188
  160SAPE   H4Y17957   6.264   1.719   7.367  3.1815 -1.6434 -0.1559
  160SAPE   C3517958   6.265   1.598   7.530 -0.0029  0.4009  0.3127
  160SAPE   H5X17959   6.376   1.598   7.532  0.0169 -2.6610  1.9799
  160SAPE   H5Y17960   6.233   1.496   7.560 -2.6087  1.7461  2.3193
  160SAPE   C3617961   6.228   1.701   7.639 -0.8497 -0.2913  0.2005
  160SAPE   H6X17962   6.129   1.737   7.604  0.2070 -0.5792 -3.2477
  160SAPE   H6Y17963   6.301   1.784   7.633 -1.3027  0.1496  0.7123
  160SAPE   C3717964   6.222   1.639   7.780  0.0521  0.6211  0.5226
  160SAPE   H7X17965   6.295   1.559   7.805 -1.4462 -2.1231 -3.2785
  160SAPE   H7Y17966   6.124   1.591   7.802  0.2998 -0.0687  0.1488
  160SAPE   C3817967   6.248   1.750   7.881  0.2067 -0.0460 -0.8906
  160SAPE   H8X17968   6.163   1.820   7.866 -1.4279 -1.9145 -0.4689
  160SAPE   H8Y17969   6.355   1.782   7.876  0.4333 -0.5467  0.6411
  160SAPE   C3917970   6.226   1.688   8.021  0.1770  0.2458  0.0341
  160SAPE   H9X17971   6.299   1.612   8.056  1.9840  0.7478 -2.4854
  160SAPE   H9Y17972   6.127   1.638   8.027 -0.8933  2.0492 -1.8861
  160SAPE  C31017973   6.246   1.798   8.124  0.2504  0.5543  0.1827
  160SAPE  H10X17974   6.211   1.898   8.091 -0.4132  0.4845  0.6627
  160SAPE  H10Y17975   6.354   1.798   8.152  0.2597  1.5689  0.1713
  160SAPE  C31117976   6.174   1.768   8.255  0.8167 -0.5006 -0.0960
  160SAPE  H11X17977   6.188   1.661   8.280  0.5766 -0.9509 -1.8309
  160SAPE  H11Y17978   6.066   1.793   8.244  0.6796 -0.5464  1.1229
  160SAPE  C31217979   6.219   1.858   8.372 -0.0118  0.4805  0.0554
  160SAPE  H12X17980   6.193   1.959   8.335 -1.6655 -0.7071 -2.1416
  160SAPE  H12Y17981   6.329   1.846   8.381 -0.1391  0.4425  1.8681
  160SAPE  C31317982   6.176   1.822   8.511  1.0688 -0.4617 -0.2616
  160SAPE  H13X17983   6.198   1.713   8.517 -1.4459 -1.1666 -2.6717
  160SAPE  H13Y17984   6.066   1.831   8.517  1.2799  2.5421 -0.1513
  160SAPE  C31417985   6.251   1.909   8.615 -0.3433 -0.7603 -0.5368
  160SAPE  H14X17986   6.359   1.912   8.590 -0.6913 -1.1224 -2.0830
  160SAPE  H14Y17987   6.245   1.858   8.714 -4.0203  2.5189  1.0833
  160SAPE  C31517988   6.204   2.056   8.634 -0.1220  1.2576  0.4640
  160SAPE  H15X17989   6.102   2.058   8.676 -0.8589  2.5671 -1.3007
  160SAPE  H15Y17990   6.203   2.095   8.530 -0.9509  0.1450  0.0470
  160SAPE  C31617991   6.303   2.147   8.719 -0.0298  0.0012 -0.5637
  160SAPE  H16X17992   6.400   2.148   8.664  0.5919 -0.8103  0.5107
  160SAPE  H16Y17993   6.323   2.094   8.814  2.4491  0.4596 -0.7959
  160SAPE  C31717994   6.251   2.288   8.747 -0.0950  0.3379  0.3752
  160SAPE  H17X17995   6.144   2.294   8.776 -0.0024 -2.1643  1.3649
  160SAPE  H17Y17996   6.274   2.344   8.654  0.2308 -1.3858 -0.6135
  160SAPE  C31817997   6.315   2.375   8.857 -0.6244  0.0690  0.2450
  160SAPE  H18X17998   6.426   2.370   8.853 -0.5127  1.1667  1.6431
  160SAPE  H18Y17999   6.282   2.338   8.956  0.2682  1.8269  1.2059
  160SAPE  H18Z18000   6.287   2.482   8.851  0.8633  0.5449  1.3798
  161SAPE     N18001   0.819   0.538   6.247 -0.0974  0.2341  0.7904
  161SAPE   HN118002   0.795   0.639   6.240 -2.1380 -0.3240 -0.7123
  161SAPE   HN218003   0.902   0.522   6.188 -0.9461  1.3098 -0.7339
  161SAPE   HN318004   0.732   0.498   6.206 -0.3237  3.3376 -1.9936
  161SAPE   C1218005   0.836   0.482   6.396  0.7749 -0.4475  0.5317
  161SAPE  H12A18006   0.838   0.372   6.385 -0.7803 -0.2821 -1.8145
  161SAPE  H12B18007   0.742   0.505   6.450  0.2159  2.5804 -1.5788
  161SAPE   C1118008   0.967   0.531   6.463  0.5641 -0.6026 -0.1930
  161SAPE  H11A18009   0.981   0.473   6.557  0.1140  1.2197  1.0044
  161SAPE  H11B18010   0.958   0.634   6.503  0.4778 -1.1448  1.2426
  161SAPE     P18011   1.186   0.404   6.407  0.0531  0.3540 -0.0854
  161SAPE   O1318012   1.109   0.274   6.395  0.2996 -0.5677 -0.3030
  161SAPE   O1418013   1.301   0.429   6.318  0.5426  0.1112  0.4168
  161SAPE   O1218014   1.082   0.521   6.383 -0.7599  0.0757 -0.6951
  161SAPE   O1118015   1.226   0.438   6.558 -0.0907  0.3640  0.8477
  161SAPE    C118016   1.313   0.368   6.645 -0.2875  0.8307  0.5218
  161SAPE    HA18017   1.388   0.310   6.587 -1.1298 -1.0149  1.2644
  161SAPE    HB18018   1.359   0.444   6.712  0.4809 -0.2614  1.2442
  161SAPE    C218019   1.220   0.275   6.735 -0.3105  0.2072  0.7262
  161SAPE    HS18020   1.134   0.233   6.678  0.3619  0.3831 -0.4492
  161SAPE   O2118021   1.180   0.346   6.850 -0.2209  0.3887  0.2435
  161SAPE   C2118022   1.070   0.297   6.914  0.1638  0.3035 -0.5052
  161SAPE   O2218023   1.006   0.200   6.879  0.1012  0.1213  0.0668
  161SAPE   C2218024   1.032   0.387   7.032  0.3568  0.2036  0.4607
  161SAPE   H2R18025   1.133   0.418   7.067  1.5443 -0.8121 -1.9437
  161SAPE   H2S18026   0.981   0.475   6.987  1.2809  0.6226  0.2152
  161SAPE    C318027   1.301   0.152   6.780  0.3467 -0.0218  0.3580
  161SAPE    HX18028   1.317   0.098   6.684 -0.5594 -2.8156  1.7418
  161SAPE    HY18029   1.231   0.081   6.828  0.8188 -2.2815 -2.1575
  161SAPE   O3118030   1.428   0.186   6.832  0.3016 -0.1015  0.5945
  161SAPE   C3118031   1.436   0.171   6.963  0.6019  0.4185 -0.5533
  161SAPE   O3218032   1.343   0.144   7.032  0.4590  0.0199 -0.6528
  161SAPE   C3218033   1.581   0.200   7.003  1.3093 -0.0536 -0.2642
  161SAPE   H2X18034   1.606   0.284   6.934 -2.5938  0.6602 -0.9439
  161SAPE   H2Y18035   1.631   0.104   6.980 -0.0591 -0.7496 -0.3523
  161SAPE   C2318036   0.959   0.311   7.145 -0.1782 -0.7712  0.2218
  161SAPE   H3R18037   0.859   0.278   7.110 -0.7010 -0.3208  1.2557
  161SAPE   H3S18038   0.933   0.377   7.231  0.3848 -0.2938  0.0338
  161SAPE   C2418039   1.027   0.187   7.213  0.0702 -0.4390  0.4465
  161SAPE   H4R18040   1.035   0.107   7.136  0.0330 -0.4802  0.4861
  161SAPE   H4S18041   0.959   0.150   7.291 -1.6058  0.9666 -0.2994
  161SAPE   C2518042   1.155   0.217   7.273 -0.0125  0.2169 -0.3085
  161SAPE   H5R18043   1.224   0.243   7.191 -0.1561 -1.5964 -1.0124
  161SAPE   C2618044   1.190   0.204   7.398 -0.3157  0.0503  0.9504
  161SAPE   H6R18045   1.295   0.211   7.431 -0.6248  1.5417  1.6712
  161SAPE   C2718046   1.098   0.163   7.509  0.1620 -0.1879 -0.8567
  161SAPE   H7R18047   1.082   0.054   7.525 -0.4451 -0.2672 -1.9487
  161SAPE   H7S18048   0.999   0.206   7.484 -0.0374 -0.8318 -1.2039
  161SAPE   C2818049   1.138   0.234   7.641  0.1699 -0.2414 -0.0415
  161SAPE   H8R18050   1.164   0.341   7.638 -1.0665  0.1083  1.1836
  161SAPE   C2918051   1.134   0.167   7.758  0.3231 -0.1993  1.3975
  161SAPE   H9R18052   1.151   0.233   7.845  2.1341  0.6057  0.4643
  161SAPE  C21018053   1.102   0.022   7.788 -0.1740  0.4240  0.2308
  161SAPE  H10R18054   1.087  -0.035   7.694  0.3344  0.2123  0.2775
  161SAPE  H10S18055   1.006   0.017   7.844 -0.2743 -2.4687 -0.1145
  161SAPE  C21118056   1.210  -0.039   7.874 -0.1885  0.1332  0.6171
  161SAPE  H11R18057   1.291  -0.085   7.815 -1.6818  0.8146 -2.0832
  161SAPE  C21218058   1.227  -0.023   8.004 -0.2219 -0.0670  0.0071
  161SAPE  H12R18059   1.312  -0.080   8.044  2.3263  1.0072 -3.5990
  161SAPE  C21318060   1.134   0.064   8.097 -1.1306 -0.1901 -0.2625
  161SAPE  H13R18061   1.072  -0.000   8.163  0.3836 -1.4974 -0.0793
  161SAPE  H13S18062   1.066   0.137   8.048 -1.2795 -0.1713 -0.0304
  161SAPE  C21418063   1.235   0.132   8.195  0.0813 -0.3159  0.4796
  161SAPE  H14R18064   1.342   0.120   8.173  0.0687 -2.2103  1.3761
  161SAPE  C21518065   1.192   0.215   8.286 -0.0950  0.2031 -0.1771
  161SAPE  H15R18066   1.277   0.253   8.346  0.6535 -3.6012  1.3683
  161SAPE  C21618067   1.061   0.258   8.313  0.7708  0.4872 -0.0074
  161SAPE  H16R18068   0.996   0.203   8.242  1.3100  0.4675 -0.4912
  161SAPE  H16S18069   1.057   0.367   8.291 -0.6163  0.1831 -1.3149
  161SAPE  C21718070   1.024   0.223   8.458  0.7021  0.3869 -0.7745
  161SAPE  H17R18071   1.090   0.286   8.521 -0.9517  2.5069 -1.0727
  161SAPE  H17S18072   1.060   0.121   8.480 -0.9405 -0.3777 -1.4747
  161SAPE  C21818073   0.874   0.244   8.482  0.0423 -0.5058 -1.3800
  161SAPE  H18R18074   0.818   0.148   8.474  0.8518 -1.0328 -0.7972
  161SAPE  H18S18075   0.829   0.302   8.398 -0.9702  0.2716 -0.3164
  161SAPE  C21918076   0.850   0.315   8.611 -0.8719  0.2595  0.3167
  161SAPE  H19R18077   0.895   0.416   8.601 -1.9292  0.7940  0.8335
  161SAPE  H19S18078   0.911   0.259   8.686 -1.8070  0.1204  0.9806
  161SAPE  C22018079   0.705   0.336   8.652  0.0503 -0.4951 -0.0283
  161SAPE  H20R18080   0.655   0.237   8.663  1.2347 -1.2970 -1.7228
  161SAPE  H20S18081   0.637   0.396   8.587  0.7574 -1.2339 -1.4654
  161SAPE  H20T18082   0.705   0.387   8.751 -4.6115  0.9151 -0.5966
  161SAPE   C3318083   1.589   0.225   7.157  0.2412 -0.1346 -0.3911
  161SAPE   H3X18084   1.520   0.297   7.205 -1.0530 -1.1854 -0.6404
  161SAPE   H3Y18085   1.692   0.265   7.165  0.6003 -1.2470  0.6638
  161SAPE   C3418086   1.601   0.094   7.243 -0.2311 -0.1622  0.6096
  161SAPE   H4X18087   1.692   0.039   7.212 -2.6276 -2.2814 -3.1218
  161SAPE   H4Y18088   1.513   0.029   7.224 -0.2423 -0.3425  1.2870
  161SAPE   C3518089   1.625   0.146   7.388  0.4818  0.4397  0.4398
  161SAPE   H5X18090   1.551   0.223   7.417  1.5147  1.5497  0.1446
  161SAPE   H5Y18091   1.726   0.193   7.388  0.5071  0.3931 -1.4848
  161SAPE   C3618092   1.609   0.029   7.483  0.6571 -0.3853 -1.1139
  161SAPE   H6X18093   1.687  -0.049   7.475  0.7305 -0.4401  0.0810
  161SAPE   H6Y18094   1.506  -0.007   7.459  0.1340  0.8663 -0.8057
  161SAPE   C3718095   1.629   0.070   7.633  0.9013 -0.1735  0.5676
  161SAPE   H7X18096   1.560   0.150   7.665 -1.0823 -0.9612 -1.5858
  161SAPE   H7Y18097   1.729   0.117   7.644  0.3026  0.9489  1.2123
  161SAPE   C3818098   1.612  -0.058   7.719  0.4541 -0.4046  0.1153
  161SAPE   H8X18099   1.678  -0.138   7.679  0.8089 -0.0209 -0.0671
  161SAPE   H8Y18100   1.510  -0.100   7.706  0.3159 -0.7162  2.1285
  161SAPE   C3918101   1.642  -0.025   7.872 -0.7107  0.1933  0.7200
  161SAPE   H9X18102   1.561   0.041   7.909 -1.3820 -0.7029  0.8634
  161SAPE   H9Y18103   1.736   0.035   7.878  0.2225 -0.7826 -3.2496
  161SAPE  C31018104   1.641  -0.148   7.968 -0.0698  0.7421  0.0810
  161SAPE  H10X18105   1.712  -0.227   7.935  1.5101  1.0507  2.6001
  161SAPE  H10Y18106   1.543  -0.200   7.961  2.0768 -3.5252  0.1351
  161SAPE  C31118107   1.674  -0.102   8.106 -0.0057  0.3604  0.1987
  161SAPE  H11X18108   1.597  -0.025   8.125 -0.0932  0.7851 -1.7853
  161SAPE  H11Y18109   1.773  -0.052   8.121 -2.0166  4.1264  1.5791
  161SAPE  C31218110   1.657  -0.209   8.223 -0.1158  0.4540 -0.4836
  161SAPE  H12X18111   1.745  -0.276   8.232 -1.7384 -1.3818  2.1402
  161SAPE  H12Y18112   1.562  -0.267   8.214 -1.5113  2.4458  0.8914
  161SAPE  C31318113   1.650  -0.139   8.361 -0.2140 -0.0739 -0.0191
  161SAPE  H13X18114   1.559  -0.074   8.359 -0.4068 -0.3372  0.1588
  161SAPE  H13Y18115   1.740  -0.076   8.375 -1.1114  1.0761  0.6154
  161SAPE  C31418116   1.658  -0.244   8.476 -0.3908  0.1775  0.4736
  161SAPE  H14X18117   1.764  -0.275   8.484 -0.4561 -0.8938 -2.2773
  161SAPE  H14Y18118   1.597  -0.334   8.455 -0.1512  0.4718 -1.6562
  161SAPE  C31518119   1.606  -0.180   8.610 -0.4547 -0.6845 -0.0990
  161SAPE  H15X18120   1.626  -0.072   8.628  0.8115 -1.2732  2.2316
  161SAPE  H15Y18121   1.660  -0.225   8.696 -0.8173  3.5586  2.4830
  161SAPE  C31618122   1.455  -0.176   8.623 -0.3707 -0.3122  0.1526
  161SAPE  H16X18123   1.413  -0.278   8.610 -3.4397  0.7060  1.6337
  161SAPE  H16Y18124   1.416  -0.107   8.545  0.3892 -0.1276 -0.0681
  161SAPE  C31718125   1.405  -0.122   8.762 -0.0078  0.5229 -0.4590
  161SAPE  H17X18126   1.294  -0.115   8.767 -0.0095  0.3228 -0.1619
  161SAPE  H17Y18127   1.450  -0.024   8.790  1.6741  0.6192 -3.3027
  161SAPE  C31818128   1.440  -0.216   8.876 -0.9911  0.6856  0.1801
  161SAPE  H18X18129   1.396  -0.318   8.879 -0.2632  0.3895  3.3003
  161SAPE  H18Y18130   1.404  -0.181   8.975  0.5130  0.5589  0.7976
  161SAPE  H18Z18131   1.548  -0.224   8.904 -0.7286  1.0161 -0.7160
  162SAPE     N18132   6.470   2.533   6.048  0.1895  0.2036  0.0018
  162SAPE   HN118133   6.372   2.530   6.085  0.2256  2.4299  0.3761
  162SAPE   HN218134   6.471   2.573   5.952 -2.2589 -0.2872 -0.2748
  162SAPE   HN318135   6.521   2.443   6.054  0.7079  0.4386 -0.7707
  162SAPE   C1218136   6.549   2.628   6.130  0.2237  0.3011 -0.0920
  162SAPE  H12A18137   6.553   2.600   6.237  2.3647 -0.2591 -0.2982
  162SAPE  H12B18138   6.495   2.725   6.124  0.6650  0.5072 -0.7515
  162SAPE   C1118139   6.696   2.641   6.070  0.9385 -0.0697 -0.0403
  162SAPE  H11A18140   6.756   2.715   6.128  0.5493  0.4400 -0.2870
  162SAPE  H11B18141   6.680   2.672   5.965  0.8106 -1.0018 -0.2987
  162SAPE     P18142   6.925   2.524   6.053 -0.1863  0.6528 -0.4184
  162SAPE   O1318143   6.980   2.385   6.051  0.4386 -0.0684 -0.1232
  162SAPE   O1418144   6.954   2.600   5.932  0.0425  0.0654 -0.3862
  162SAPE   O1218145   6.768   2.514   6.074 -0.8278  0.4822 -0.1766
  162SAPE   O1118146   6.975   2.596   6.183  0.0818 -0.2062  0.2918
  162SAPE    C118147   6.931   2.524   6.303 -0.0180  1.0333 -0.4909
  162SAPE    HA18148   6.838   2.464   6.293 -0.4511  1.8146 -1.1694
  162SAPE    HB18149   7.000   2.443   6.336 -0.2205  1.8120  1.9176
  162SAPE    C218150   6.916   2.606   6.429  0.3137 -0.0610 -1.0023
  162SAPE    HS18151   6.826   2.671   6.425 -1.3653 -2.1216  2.0875
  162SAPE   O2118152   7.032   2.678   6.450 -0.0903  0.2828  1.0061
  162SAPE   C2118153   7.044   2.803   6.404 -0.4263  0.0589 -0.9996
  162SAPE   O2218154   6.955   2.859   6.337 -0.3363 -0.0346 -0.6785
  162SAPE   C2218155   7.164   2.876   6.462  0.0454  0.3407  0.4376
  162SAPE   H2R18156   7.253   2.809   6.459 -1.7843 -2.2657  1.7263
  162SAPE   H2S18157   7.173   2.964   6.396 -1.6037 -0.0930 -0.4077
  162SAPE    C318158   6.893   2.515   6.549  0.8171 -0.2616  0.0631
  162SAPE    HX18159   6.983   2.452   6.564  0.7312  0.2051  2.7537
  162SAPE    HY18160   6.809   2.449   6.519  0.3243  0.5411 -0.3315
  162SAPE   O3118161   6.857   2.593   6.665  0.2582 -0.0051 -0.3425
  162SAPE   C3118162   6.956   2.605   6.750  0.2809 -0.3642  0.0462
  162SAPE   O3218163   7.073   2.565   6.736  0.5967 -0.0139  0.0819
  162SAPE   C3218164   6.915   2.702   6.863 -0.2535  0.4734  0.0646
  162SAPE   H2X18165   6.805   2.713   6.880 -0.3486 -2.6499  1.8381
  162SAPE   H2Y18166   6.957   2.796   6.822  0.7753 -1.4081 -3.3715
  162SAPE   C2318167   7.153   2.916   6.611 -0.1040  0.4191  0.3044
  162SAPE   H3R18168   7.259   2.934   6.637  0.2188 -0.2607 -0.4909
  162SAPE   H3S18169   7.124   2.826   6.669  1.7838  0.3834  1.1972
  162SAPE   C2418170   7.063   3.041   6.634  0.3454  0.3291  0.4800
  162SAPE   H4R18171   7.101   3.117   6.562  2.0643  1.2240  2.2759
  162SAPE   H4S18172   7.086   3.078   6.737 -0.3475  1.7759  0.1243
  162SAPE   C2518173   6.912   3.034   6.604  0.0738  0.5235  0.3180
  162SAPE   H5R18174   6.885   2.996   6.505 -1.5767  0.1684  0.8867
  162SAPE   C2618175   6.812   3.056   6.693 -0.0980  0.6964 -0.6155
  162SAPE   H6R18176   6.707   3.032   6.668 -0.6084  3.1655 -1.0256
  162SAPE   C2718177   6.832   3.106   6.841 -0.3395 -0.9876 -0.1639
  162SAPE   H7R18178   6.884   3.204   6.849 -0.4546 -0.8601 -0.9766
  162SAPE   H7S18179   6.899   3.037   6.897  1.6479 -0.9591 -2.4552
  162SAPE   C2818180   6.697   3.105   6.909  0.2616 -0.0441 -0.4273
  162SAPE   H8R18181   6.625   3.154   6.843 -0.2507  0.5118  0.5296
  162SAPE   C2918182   6.661   3.046   7.028 -0.1645 -0.1325 -0.9036
  162SAPE   H9R18183   6.558   3.058   7.064  0.0911  0.8289 -0.4934
  162SAPE  C21018184   6.758   2.971   7.116 -0.9942 -0.2674  0.0811
  162SAPE  H10R18185   6.865   2.995   7.097 -0.6828 -3.8397 -3.3824
  162SAPE  H10S18186   6.747   2.860   7.115  0.0403 -0.3774 -0.2962
  162SAPE  C21118187   6.740   3.007   7.260 -0.0947  0.6243  0.8607
  162SAPE  H11R18188   6.657   3.073   7.289 -1.4833 -0.9252  0.5388
  162SAPE  C21218189   6.819   2.964   7.360 -0.9417  0.2963 -0.5380
  162SAPE  H12R18190   6.792   2.987   7.464  3.0435  0.9945  0.4224
  162SAPE  C21318191   6.942   2.878   7.343  0.3239  0.3183 -0.5136
  162SAPE  H13R18192   7.030   2.944   7.332  0.4292  0.6502  2.1291
  162SAPE  H13S18193   6.930   2.817   7.250 -0.7645 -0.2381 -0.0160
  162SAPE  C21418194   6.953   2.793   7.463  0.0999 -0.0917 -0.5337
  162SAPE  H14R18195   6.929   2.687   7.443 -1.5810  0.1907 -0.0226
  162SAPE  C21518196   6.998   2.830   7.579  0.1954  0.6287  0.3829
  162SAPE  H15R18197   7.011   2.750   7.654  0.5407 -1.4047 -1.7531
  162SAPE  C21618198   7.048   2.964   7.627  0.0854  0.8389 -0.0461
  162SAPE  H16R18199   7.030   3.042   7.549 -1.5949  1.2257  0.7094
  162SAPE  H16S18200   7.158   2.956   7.639  0.1261  1.0971 -0.2418
  162SAPE  C21718201   6.988   3.021   7.757  0.2351 -0.1713 -0.5363
  162SAPE  H17R18202   6.989   2.933   7.825  1.7541  0.8336  0.8154
  162SAPE  H17S18203   6.887   3.061   7.734  0.1116 -1.3539 -2.1089
  162SAPE  C21818204   7.081   3.127   7.828  0.0744 -0.3928 -0.1019
  162SAPE  H18R18205   7.033   3.210   7.884  3.3632 -0.5142  3.0726
  162SAPE  H18S18206   7.124   3.176   7.737 -0.8708  1.3860  0.3929
  162SAPE  C21918207   7.174   3.051   7.916 -0.7612  0.3927 -0.4268
  162SAPE  H19R18208   7.241   2.990   7.853  0.5441  0.3299  0.9776
  162SAPE  H19S18209   7.117   2.982   7.982  0.2337  0.6950  0.7967
  162SAPE  C22018210   7.257   3.142   8.010 -0.4959 -0.1107 -0.4564
  162SAPE  H20R18211   7.194   3.213   8.067 -0.2478  0.2408 -0.6176
  162SAPE  H20S18212   7.333   3.191   7.946  0.1905  0.7803  1.0212
  162SAPE  H20T18213   7.315   3.081   8.082  0.5196 -0.9869 -1.9796
  162SAPE   C3318214   6.991   2.667   6.994 -0.0968  0.4901  0.2925
  162SAPE   H3X18215   6.982   2.761   7.052  0.0906 -0.6512  2.2127
  162SAPE   H3Y18216   7.096   2.641   6.969 -0.1427 -2.0622  2.4521
  162SAPE   C3418217   6.932   2.549   7.067 -0.1324  0.9152  0.0870
  162SAPE   H4X18218   6.910   2.460   7.003  0.3360  0.6410  0.2984
  162SAPE   H4Y18219   6.837   2.587   7.108 -0.4938  0.1290 -0.0006
  162SAPE   C3518220   7.011   2.511   7.192  0.3222  0.5037  0.0444
  162SAPE   H5X18221   7.031   2.602   7.252  1.0494  0.8528 -0.7134
  162SAPE   H5Y18222   7.105   2.453   7.179  0.2053 -0.3699  2.7664
  162SAPE   C3618223   6.934   2.405   7.289 -0.3302 -0.5069 -0.2412
  162SAPE   H6X18224   6.909   2.318   7.226 -1.6841  0.4526 -1.0648
  162SAPE   H6Y18225   6.837   2.449   7.324 -0.2541 -2.4045  2.5038
  162SAPE   C3718226   7.019   2.383   7.410  0.3908  0.0096  0.6430
  162SAPE   H7X18227   6.950   2.326   7.475  0.6189 -0.3968  0.5319
  162SAPE   H7Y18228   7.054   2.473   7.465 -1.3529  1.3536 -0.4339
  162SAPE   C3818229   7.139   2.278   7.396  0.1583  0.2620 -0.0969
  162SAPE   H8X18230   7.214   2.338   7.339 -0.4467  2.5043  1.4003
  162SAPE   H8Y18231   7.114   2.192   7.330 -1.4578  2.4830 -2.4432
  162SAPE   C3918232   7.179   2.246   7.544  0.2586  0.2883  0.1896
  162SAPE   H9X18233   7.082   2.208   7.583  0.2352  0.2293  0.0746
  162SAPE   H9Y18234   7.195   2.337   7.605 -0.5416  0.7749 -0.3204
  162SAPE  C31018235   7.284   2.135   7.575  0.7265  0.7014  0.7808
  162SAPE  H10X18236   7.383   2.170   7.540  0.4421  2.6763  1.8886
  162SAPE  H10Y18237   7.258   2.052   7.506  2.5781  1.9408 -1.4770
  162SAPE  C31118238   7.285   2.094   7.724 -0.5548 -0.6182 -0.6394
  162SAPE  H11X18239   7.363   2.015   7.736  0.6185  0.9720  3.0689
  162SAPE  H11Y18240   7.190   2.040   7.743 -0.0420 -0.9597  1.0130
  162SAPE  C31218241   7.311   2.206   7.823 -0.4759 -0.1544 -0.5526
  162SAPE  H12X18242   7.237   2.285   7.800 -0.7968 -0.4334 -0.4885
  162SAPE  H12Y18243   7.412   2.248   7.804  0.4274 -2.5322 -1.2482
  162SAPE  C31318244   7.306   2.153   7.963  0.1965  0.8432 -0.2540
  162SAPE  H13X18245   7.399   2.093   7.971 -0.1579  0.2518 -0.4575
  162SAPE  H13Y18246   7.218   2.085   7.973  0.2378  0.9305  0.6608
  162SAPE  C31418247   7.280   2.258   8.074 -0.1841 -0.5562 -0.1347
  162SAPE  H14X18248   7.213   2.340   8.042  1.7452  0.9987 -0.2760
  162SAPE  H14Y18249   7.373   2.318   8.091 -1.2709  0.7432  1.3335
  162SAPE  C31518250   7.218   2.207   8.207  0.2725  0.0065 -0.0225
  162SAPE  H15X18251   7.287   2.128   8.244  0.4657  0.7386  1.1846
  162SAPE  H15Y18252   7.121   2.163   8.175 -0.4906  0.3051  1.7947
  162SAPE  C31618253   7.210   2.318   8.309  0.0121 -0.4315  0.6340
  162SAPE  H16X18254   7.157   2.406   8.266 -1.3761 -1.4955  0.1438
  162SAPE  H16Y18255   7.308   2.363   8.336 -0.7733  1.3531  0.5972
  162SAPE  C31718256   7.140   2.264   8.441 -0.1308  0.3734 -0.0924
  162SAPE  H17X18257   7.102   2.351   8.500 -0.2766  0.0835  0.2451
  162SAPE  H17Y18258   7.225   2.224   8.499  2.2188 -0.2626 -3.8038
  162SAPE  C31818259   7.026   2.167   8.424 -0.2021 -0.5246 -0.0336
  162SAPE  H18X18260   7.060   2.065   8.394 -1.5090 -1.5708  1.9259
  162SAPE  H18Y18261   6.966   2.206   8.339 -1.8654 -1.8245  0.5139
  162SAPE  H18Z18262   6.960   2.151   8.511  2.5180 -0.4706  2.1063
  163SAPE     N18263   5.153   0.782   6.262 -0.9805  0.2026  0.0144
  163SAPE   HN118264   5.075   0.757   6.198  0.4158 -1.6041 -1.0134
  163SAPE   HN218265   5.163   0.885   6.279 -0.0462  0.1151  0.0143
  163SAPE   HN318266   5.240   0.756   6.211 -1.0351  1.0791 -0.5440
  163SAPE   C1218267   5.138   0.711   6.394  0.5049 -0.2282 -0.6555
  163SAPE  H12A18268   5.071   0.625   6.369 -1.4880  1.0592  0.1198
  163SAPE  H12B18269   5.084   0.767   6.473  0.6082 -0.3947 -0.4677
  163SAPE   C1118270   5.273   0.650   6.430  0.2703  0.1102  0.2645
  163SAPE  H11A18271   5.316   0.591   6.346 -0.0257  2.6168 -1.7137
  163SAPE  H11B18272   5.243   0.583   6.513  2.6201  0.8748  1.7760
  163SAPE     P18273   5.370   0.822   6.594  0.1545 -0.0661 -0.3563
  163SAPE   O1318274   5.464   0.931   6.587  0.0379  0.2580 -0.4292
  163SAPE   O1418275   5.232   0.863   6.627  0.8942 -0.1183  0.7132
  163SAPE   O1218276   5.371   0.751   6.462 -0.8793  0.1483  0.1000
  163SAPE   O1118277   5.424   0.714   6.698 -0.2784 -0.2316 -0.2032
  163SAPE    C118278   5.347   0.628   6.785 -0.1512 -0.3472  0.1650
  163SAPE    HA18279   5.258   0.590   6.731 -0.1983 -0.7334  0.5117
  163SAPE    HB18280   5.411   0.540   6.806 -0.3143 -0.0975  1.8323
  163SAPE    C218281   5.308   0.698   6.917  0.1409  0.0415 -0.7921
  163SAPE    HS18282   5.223   0.767   6.897 -1.7586 -2.1635 -0.6261
  163SAPE   O2118283   5.421   0.756   6.980  0.0263  0.6116 -0.3183
  163SAPE   C2118284   5.391   0.845   7.070  0.4701 -0.1349 -0.5990
  163SAPE   O2218285   5.280   0.890   7.101 -0.2284 -0.4998  0.4245
  163SAPE   C2218286   5.515   0.878   7.153  0.4358 -0.2108  1.0193
  163SAPE   H2R18287   5.577   0.786   7.160 -0.1396 -0.8695 -1.8481
  163SAPE   H2S18288   5.574   0.952   7.095 -0.5604  0.1583  0.4708
  163SAPE    C318289   5.250   0.588   7.017 -0.4509 -0.0774  0.4836
  163SAPE    HX18290   5.309   0.496   6.998  1.4766  1.1145  0.5806
  163SAPE    HY18291   5.144   0.567   6.989 -0.2076  0.4729 -0.9214
  163SAPE   O3118292   5.252   0.630   7.146 -0.2639  0.0716 -0.1110
  163SAPE   C3118293   5.256   0.533   7.238 -0.3941  0.1477 -0.2075
  163SAPE   O3218294   5.243   0.412   7.215 -0.2858  0.1699 -0.7098
  163SAPE   C3218295   5.280   0.595   7.378 -0.0101 -0.6153 -0.0875
  163SAPE   H2X18296   5.258   0.703   7.366 -0.7129 -0.6517  0.8520
  163SAPE   H2Y18297   5.391   0.593   7.385 -0.1191 -1.5366  1.5344
  163SAPE   C2318298   5.483   0.945   7.289 -0.3882 -0.3082 -0.6505
  163SAPE   H3R18299   5.443   0.863   7.352 -0.2898  1.5011  1.8408
  163SAPE   H3S18300   5.402   1.020   7.281 -1.6292 -1.4715  0.8132
  163SAPE   C2418301   5.605   1.002   7.369 -0.3906  0.0079  0.1853
  163SAPE   H4R18302   5.561   1.037   7.465  1.9554  2.2378  0.5105
  163SAPE   H4S18303   5.653   1.090   7.321  0.3842  0.0926  1.0875
  163SAPE   C2518304   5.710   0.897   7.389 -0.4339 -0.4256  0.3159
  163SAPE   H5R18305   5.773   0.875   7.302 -1.1219 -1.0936 -0.0165
  163SAPE   C2618306   5.725   0.830   7.499  0.9836 -0.2403 -1.1912
  163SAPE   H6R18307   5.813   0.765   7.509  1.7959  1.0590  0.3995
  163SAPE   C2718308   5.638   0.833   7.630  0.5115 -0.1096 -0.4587
  163SAPE   H7R18309   5.597   0.733   7.653  0.5296 -0.0731 -0.2607
  163SAPE   H7S18310   5.551   0.901   7.622 -0.9511 -1.9948 -0.9930
  163SAPE   C2818311   5.711   0.863   7.751 -0.0402  0.5624 -0.3710
  163SAPE   H8R18312   5.820   0.876   7.751 -0.0790  0.8901 -0.0704
  163SAPE   C2918313   5.644   0.889   7.872 -0.5869 -0.9937  0.7132
  163SAPE   H9R18314   5.705   0.912   7.961 -0.6640  0.7839  0.3282
  163SAPE  C21018315   5.497   0.892   7.906  0.1872  0.5590 -0.1466
  163SAPE  H10R18316   5.438   0.850   7.822 -0.1843 -0.3969  0.5733
  163SAPE  H10S18317   5.460   0.997   7.905 -0.1060  0.4527 -1.3273
  163SAPE  C21118318   5.451   0.816   8.029  0.0744  0.8017 -0.4175
  163SAPE  H11R18319   5.421   0.711   8.020  0.2620  0.8732 -2.0795
  163SAPE  C21218320   5.458   0.875   8.147 -0.0446  0.3375 -0.3359
  163SAPE  H12R18321   5.420   0.819   8.233  1.3026  1.7350  1.1933
  163SAPE  C21318322   5.489   1.022   8.180 -0.3474  0.2248  0.1792
  163SAPE  H13R18323   5.532   1.086   8.101 -0.1598 -2.3530 -1.8923
  163SAPE  H13S18324   5.555   1.029   8.268  1.1298  1.7872 -1.0310
  163SAPE  C21418325   5.356   1.081   8.219 -0.2952 -0.1930 -0.2212
  163SAPE  H14R18326   5.272   1.040   8.160 -0.3735 -1.1294  0.5247
  163SAPE  C21518327   5.326   1.170   8.312 -0.5594  0.1973  0.7625
  163SAPE  H15R18328   5.228   1.221   8.310 -0.8977 -0.4378  0.9853
  163SAPE  C21618329   5.417   1.224   8.416  0.1768 -0.3339 -0.0134
  163SAPE  H16R18330   5.435   1.334   8.413  0.7909 -0.4368 -0.2014
  163SAPE  H16S18331   5.523   1.196   8.398  0.1948  1.4832 -3.1833
  163SAPE  C21718332   5.373   1.183   8.554 -0.0747 -0.3722 -0.2423
  163SAPE  H17R18333   5.378   1.073   8.568  1.2721 -0.3189 -0.2037
  163SAPE  H17S18334   5.273   1.209   8.593 -2.4085 -6.7589 -1.3187
  163SAPE  C21818335   5.469   1.241   8.657 -0.9289  0.0329  0.4895
  163SAPE  H18R18336   5.476   1.350   8.636 -0.0622 -0.3848 -1.4951
  163SAPE  H18S18337   5.567   1.191   8.639 -0.3274  1.4760 -0.3339
  163SAPE  C21918338   5.432   1.202   8.794 -0.7040  0.2766  0.8963
  163SAPE  H19R18339   5.448   1.092   8.800 -1.6459  0.0037 -1.0778
  163SAPE  H19S18340   5.324   1.210   8.818 -0.6851 -0.8304  1.3961
  163SAPE  C22018341   5.521   1.266   8.897 -0.3974  0.3965 -0.5361
  163SAPE  H20R18342   5.628   1.244   8.876 -0.1577 -0.1902  1.2108
  163SAPE  H20S18343   5.508   1.224   8.999  0.2819  0.2048 -0.5238
  163SAPE  H20T18344   5.511   1.376   8.889 -2.7848  0.1755 -0.7226
  163SAPE   C3318345   5.204   0.535   7.489  0.1588 -0.3671  0.3307
  163SAPE   H3X18346   5.219   0.425   7.496 -2.2485 -0.8287 -1.2183
  163SAPE   H3Y18347   5.095   0.540   7.465  0.5115  0.9608 -1.1020
  163SAPE   C3418348   5.216   0.597   7.622 -1.0850  0.8467 -0.1212
  163SAPE   H4X18349   5.217   0.707   7.604 -1.4397  0.7142 -0.9818
  163SAPE   H4Y18350   5.312   0.568   7.671 -2.1658  0.6136  1.9175
  163SAPE   C3518351   5.104   0.548   7.717  0.4147 -0.0618 -0.4057
  163SAPE   H5X18352   5.111   0.438   7.725 -0.1313  0.0660  2.4198
  163SAPE   H5Y18353   5.005   0.574   7.673 -0.1284  0.0749  0.8620
  163SAPE   C3618354   5.108   0.601   7.857  0.9929 -0.1117  0.3453
  163SAPE   H6X18355   5.207   0.586   7.906 -0.3238 -2.3940  2.4673
  163SAPE   H6Y18356   5.034   0.550   7.922  1.9885 -2.1067 -0.0420
  163SAPE   C3718357   5.074   0.750   7.846 -0.4998 -0.4249  0.3967
  163SAPE   H7X18358   4.988   0.762   7.777 -0.0618  2.1769  0.2429
  163SAPE   H7Y18359   5.162   0.803   7.803 -0.2008 -0.8355  0.5032
  163SAPE   C3818360   5.039   0.812   7.981  0.2840  0.4195 -0.0025
  163SAPE   H8X18361   5.108   0.777   8.060  0.7228 -0.2868 -0.6880
  163SAPE   H8Y18362   4.945   0.758   8.006  0.5122  0.9627  2.0573
  163SAPE   C3918363   5.034   0.959   7.974 -0.5367 -0.4749  0.3030
  163SAPE   H9X18364   4.961   0.993   7.898  1.9903  2.1398 -1.0437
  163SAPE   H9Y18365   5.135   0.988   7.938 -0.9838  1.1992  0.3308
  163SAPE  C31018366   5.018   1.022   8.115  0.3928  0.2957  0.1266
  163SAPE  H10X18367   5.046   1.129   8.115 -0.5566  0.5510  0.1032
  163SAPE  H10Y18368   5.089   0.974   8.186  0.3047  1.5780  1.0970
  163SAPE  C31118369   4.878   1.012   8.168 -0.5046 -0.0125  0.2361
  163SAPE  H11X18370   4.854   0.918   8.222  0.0604  1.3392  2.9282
  163SAPE  H11Y18371   4.809   1.026   8.082  0.8486 -0.2312 -0.8932
  163SAPE  C31218372   4.861   1.117   8.275 -0.8530  0.5637 -0.1425
  163SAPE  H12X18373   4.864   1.220   8.232 -0.7951  0.8382  0.5236
  163SAPE  H12Y18374   4.948   1.108   8.342 -0.9077 -2.6979 -0.4198
  163SAPE  C31318375   4.727   1.099   8.343  0.0095  0.0151 -0.9250
  163SAPE  H13X18376   4.725   0.992   8.371  0.6937  0.3516  0.4124
  163SAPE  H13Y18377   4.644   1.100   8.269 -1.9095  0.7780  1.1792
  163SAPE  C31418378   4.697   1.186   8.456  0.8012 -0.0542 -0.1096
  163SAPE  H14X18379   4.713   1.291   8.424  1.5865 -0.4273 -0.9587
  163SAPE  H14Y18380   4.772   1.172   8.536  0.7723 -0.7328 -0.1982
  163SAPE  C31518381   4.554   1.167   8.517 -0.0294 -0.8046  0.0992
  163SAPE  H15X18382   4.479   1.172   8.435  2.5708  1.2412 -2.2304
  163SAPE  H15Y18383   4.538   1.250   8.590  4.0197 -0.3936  0.6392
  163SAPE  C31618384   4.535   1.028   8.569 -1.0532 -0.1266  0.4606
  163SAPE  H16X18385   4.606   1.011   8.653  0.0643 -1.2985 -0.6889
  163SAPE  H16Y18386   4.551   0.950   8.491 -0.6385  0.6150 -0.2046
  163SAPE  C31718387   4.400   0.982   8.624  0.3164 -0.1596  0.2604
  163SAPE  H17X18388   4.332   0.983   8.536 -1.2766  2.2530  1.4670
  163SAPE  H17Y18389   4.359   1.045   8.705  0.7707  0.9754 -0.3754
  163SAPE  C31818390   4.420   0.837   8.678 -0.2638 -0.3163  1.0942
  163SAPE  H18X18391   4.323   0.798   8.717 -1.3389 -0.8765 -2.0175
  163SAPE  H18Y18392   4.495   0.837   8.760 -0.2392 -2.9618  1.1329
  163SAPE  H18Z18393   4.475   0.778   8.602  1.2219  2.0865  0.2511
  164SAPE     N18394   2.652   5.350   5.897 -0.1609 -0.0338  0.4642
  164SAPE   HN118395   2.732   5.408   5.866  0.1654 -1.7909 -2.1444
  164SAPE   HN218396   2.567   5.408   5.914  0.3289  0.7523  0.2471
  164SAPE   HN318397   2.682   5.309   5.988  1.4120 -0.6334 -0.3116
  164SAPE   C1218398   2.615   5.245   5.790 -0.1231 -0.6232  0.0773
  164SAPE  H12A18399   2.699   5.173   5.789 -0.4713 -1.0662  1.4256
  164SAPE  H12B18400   2.611   5.281   5.685 -0.7170 -1.7817 -0.3037
  164SAPE   C1118401   2.479   5.171   5.819  0.3340  0.2500  0.3197
  164SAPE  H11A18402   2.484   5.112   5.913 -0.1287  0.1878  0.3054
  164SAPE  H11B18403   2.453   5.108   5.731  1.8618  1.4187 -0.9953
  164SAPE     P18404   2.233   5.239   5.913 -0.3915  0.2096 -0.1239
  164SAPE   O1318405   2.161   5.366   5.934  0.1486 -0.4855 -0.7745
  164SAPE   O1418406   2.162   5.144   5.826  0.3358 -0.0828 -0.0913
  164SAPE   O1218407   2.381   5.270   5.842 -0.1197 -0.5828  0.8864
  164SAPE   O1118408   2.260   5.168   6.058  0.3384  0.3159 -0.0987
  164SAPE    C118409   2.362   5.231   6.139  0.2299  0.2202  0.2058
  164SAPE    HA18410   2.451   5.165   6.148 -0.2963 -0.4793  0.2898
  164SAPE    HB18411   2.395   5.332   6.106  2.3777  0.3120  2.4888
  164SAPE    C218412   2.319   5.251   6.293  0.2378 -0.0256 -0.0071
  164SAPE    HS18413   2.403   5.291   6.354 -0.6838 -1.2268  2.0774
  164SAPE   O2118414   2.270   5.132   6.347 -0.2780  0.2956 -0.2499
  164SAPE   C2118415   2.352   5.024   6.352  0.7715 -0.2697  0.2927
  164SAPE   O2218416   2.473   5.023   6.335  0.0642 -1.1153  0.0608
  164SAPE   C2218417   2.270   4.901   6.359  0.8183 -0.8658  0.2721
  164SAPE   H2R18418   2.235   4.876   6.256  0.7946  1.7582 -0.3961
  164SAPE   H2S18419   2.343   4.823   6.390  2.3810 -0.2195 -1.6282
  164SAPE    C318420   2.202   5.353   6.301  0.0653  0.1008 -0.3021
  164SAPE    HX18421   2.126   5.321   6.227 -1.3556  1.6390  0.4540
  164SAPE    HY18422   2.236   5.451   6.260 -2.1265 -0.6819 -4.2201
  164SAPE   O3118423   2.156   5.373   6.440  0.2923  0.2285 -0.0363
  164SAPE   C3118424   2.051   5.300   6.470 -0.0141 -0.0795  0.6351
  164SAPE   O3218425   1.974   5.253   6.386  0.3389  0.4802  0.2521
  164SAPE   C3218426   2.037   5.292   6.625  0.1779  0.6408 -0.2204
  164SAPE   H2X18427   2.050   5.396   6.660  0.8045  0.5561 -0.1940
  164SAPE   H2Y18428   2.114   5.227   6.673 -0.1885  1.5860  1.6918
  164SAPE   C2318429   2.158   4.895   6.457  0.0201 -0.9996  0.0850
  164SAPE   H3R18430   2.107   4.797   6.460 -1.0912 -0.3942  2.1911
  164SAPE   H3S18431   2.093   4.981   6.429 -0.7729 -2.2134 -1.8634
  164SAPE   C2418432   2.212   4.942   6.603 -0.7007 -0.2733  0.2615
  164SAPE   H4R18433   2.119   4.935   6.663 -1.5658 -0.4561 -1.0701
  164SAPE   H4S18434   2.241   5.049   6.597  0.3679 -0.6098 -1.0778
  164SAPE   C2518435   2.322   4.865   6.666 -0.4537 -0.2643  0.2622
  164SAPE   H5R18436   2.380   4.796   6.602  0.8752  1.0539  0.0164
  164SAPE   C2618437   2.356   4.888   6.794 -0.5083 -0.3535 -0.2261
  164SAPE   H6R18438   2.440   4.840   6.846 -0.4079  0.8270  0.7223
  164SAPE   C2718439   2.290   4.996   6.885 -0.3388 -0.0164  0.1878
  164SAPE   H7R18440   2.233   4.942   6.964  0.1931 -2.8857 -1.3687
  164SAPE   H7S18441   2.229   5.068   6.825  0.5271  1.3283  0.8913
  164SAPE   C2818442   2.391   5.078   6.958  0.3701  0.7706 -0.0179
  164SAPE   H8R18443   2.497   5.071   6.929  0.6305 -1.8416  1.3863
  164SAPE   C2918444   2.368   5.149   7.068 -0.1358  0.3471  0.1770
  164SAPE   H9R18445   2.453   5.205   7.111  1.6413 -1.3168 -1.0488
  164SAPE  C21018446   2.230   5.171   7.129  0.5218 -0.2945 -0.2777
  164SAPE  H10R18447   2.158   5.126   7.058  0.3392 -2.6162  1.3014
  164SAPE  H10S18448   2.207   5.279   7.140  2.5835  0.0912  0.4184
  164SAPE  C21118449   2.216   5.121   7.272  0.6320 -0.1023 -0.7213
  164SAPE  H11R18450   2.256   5.187   7.350  1.4988  1.1220 -2.1593
  164SAPE  C21218451   2.173   5.001   7.314  0.3093 -0.1160  0.1903
  164SAPE  H12R18452   2.163   4.994   7.424 -1.8022  1.7431  0.1533
  164SAPE  C21318453   2.125   4.880   7.234  0.0878 -0.1605  0.1355
  164SAPE  H13R18454   2.098   4.922   7.135 -2.3061  0.6066  1.0829
  164SAPE  H13S18455   2.037   4.829   7.278 -0.1999 -2.0606 -2.5541
  164SAPE  C21418456   2.243   4.785   7.221  0.2818 -0.1338 -0.2502
  164SAPE  H14R18457   2.332   4.836   7.261 -1.1461  0.5964  2.1285
  164SAPE  C21518458   2.248   4.657   7.182  0.2697 -0.4467 -0.3323
  164SAPE  H15R18459   2.344   4.605   7.198 -0.4048 -0.9849  2.4186
  164SAPE  C21618460   2.123   4.577   7.136 -0.6162  0.2982  0.3703
  164SAPE  H16R18461   2.030   4.631   7.107  0.7390  3.5819  1.9084
  164SAPE  H16S18462   2.102   4.506   7.219 -0.7268  1.5763  1.4425
  164SAPE  C21718463   2.155   4.485   7.013  0.4011  0.3616 -1.0490
  164SAPE  H17R18464   2.080   4.406   6.994  1.4193 -0.5454 -1.3682
  164SAPE  H17S18465   2.241   4.420   7.039 -0.1306  0.6864  1.5783
  164SAPE  C21818466   2.192   4.554   6.884 -0.2891 -0.0738  0.4822
  164SAPE  H18R18467   2.298   4.588   6.890 -0.1594 -0.5179  0.8246
  164SAPE  H18S18468   2.127   4.642   6.871  0.2989  0.3364  0.3289
  164SAPE  C21918469   2.185   4.463   6.757 -0.1772 -0.0438  0.0613
  164SAPE  H19R18470   2.211   4.528   6.670 -0.1703 -0.8491 -0.5472
  164SAPE  H19S18471   2.080   4.428   6.743 -0.6938  2.6121 -3.3821
  164SAPE  C22018472   2.272   4.334   6.750  0.2647  0.0317  0.0641
  164SAPE  H20R18473   2.376   4.362   6.780  0.4309 -1.2025  0.6848
  164SAPE  H20S18474   2.281   4.293   6.647  1.0013  0.1710  0.0673
  164SAPE  H20T18475   2.246   4.260   6.828 -0.4096 -1.1703 -1.2960
  164SAPE   C3318476   1.889   5.254   6.666  0.3869  0.0562 -0.1100
  164SAPE   H3X18477   1.867   5.153   6.626 -3.9619  1.2381 -0.9828
  164SAPE   H3Y18478   1.827   5.326   6.609 -0.3375 -0.5662 -0.1223
  164SAPE   C3418479   1.848   5.271   6.818  0.1975 -0.1081  0.0045
  164SAPE   H4X18480   1.738   5.288   6.819 -0.1656 -2.3867  1.6653
  164SAPE   H4Y18481   1.905   5.359   6.854  1.1214  0.4345 -2.6430
  164SAPE   C3518482   1.887   5.154   6.909  0.3402 -0.2347  0.5471
  164SAPE   H5X18483   1.997   5.136   6.909  0.3242 -0.3833 -0.8314
  164SAPE   H5Y18484   1.853   5.054   6.874  2.0677  0.2395 -2.6962
  164SAPE   C3618485   1.832   5.168   7.050  0.1057 -0.5569  0.0870
  164SAPE   H6X18486   1.838   5.086   7.124 -0.7841  1.0742  1.9954
  164SAPE   H6Y18487   1.723   5.191   7.047  0.4714  1.6491  2.1830
  164SAPE   C3718488   1.880   5.304   7.124  0.0989 -0.2317  0.1750
  164SAPE   H7X18489   1.862   5.391   7.057  2.4245 -0.0725 -0.2961
  164SAPE   H7Y18490   1.991   5.308   7.118  0.0421  1.2332 -0.1017
  164SAPE   C3818491   1.814   5.327   7.263 -1.0829  0.1021  0.3661
  164SAPE   H8X18492   1.796   5.229   7.313 -1.5236 -0.2781 -0.5350
  164SAPE   H8Y18493   1.715   5.375   7.252 -1.0576  0.5059  1.8255
  164SAPE   C3918494   1.903   5.416   7.355 -0.2815  0.3603 -0.1334
  164SAPE   H9X18495   1.922   5.512   7.303 -0.8783  0.5013 -0.0942
  164SAPE   H9Y18496   2.002   5.367   7.373 -0.7147 -1.0999 -1.5492
  164SAPE  C31018497   1.841   5.441   7.493 -0.4462 -0.2257  0.1262
  164SAPE  H10X18498   1.742   5.488   7.482 -0.6473 -0.5669  0.4475
  164SAPE  H10Y18499   1.904   5.511   7.552  2.3750 -1.3883 -1.3553
  164SAPE  C31118500   1.825   5.307   7.568 -0.6594 -1.0680 -0.4493
  164SAPE  H11X18501   1.744   5.248   7.519 -0.4389 -0.7853 -1.1522
  164SAPE  H11Y18502   1.792   5.329   7.672  1.5482 -0.0901  0.0738
  164SAPE  C31218503   1.953   5.217   7.579 -0.7402  0.2413  0.4960
  164SAPE  H12X18504   2.049   5.272   7.580  0.9312 -2.4624 -1.8960
  164SAPE  H12Y18505   1.949   5.148   7.491  1.0130 -0.0041  0.5991
  164SAPE  C31318506   1.946   5.131   7.700  0.0481  0.1444  0.6411
  164SAPE  H13X18507   1.847   5.081   7.699  1.3306 -2.4917  1.4409
  164SAPE  H13Y18508   1.966   5.197   7.787 -0.4421  2.3282 -0.8547
  164SAPE  C31418509   2.050   5.024   7.687  0.1145 -0.3819  0.7485
  164SAPE  H14X18510   2.154   5.059   7.673  0.3739 -0.8202  1.5213
  164SAPE  H14Y18511   2.024   4.971   7.593  1.2482  2.4138 -1.2166
  164SAPE  C31518512   2.036   4.922   7.801  0.4967 -0.2367  0.2470
  164SAPE  H15X18513   2.048   4.823   7.753 -0.2053 -0.8019  1.2279
  164SAPE  H15Y18514   1.930   4.916   7.833 -0.7106 -1.6146 -3.7041
  164SAPE  C31618515   2.132   4.937   7.920  0.1356  0.4210  0.2221
  164SAPE  H16X18516   2.127   5.038   7.964  1.6525  0.9373 -0.7521
  164SAPE  H16Y18517   2.238   4.918   7.892  0.1677  1.2181 -0.2080
  164SAPE  C31718518   2.092   4.844   8.030  0.1121 -0.4086 -0.0943
  164SAPE  H17X18519   2.087   4.737   7.999 -1.2604 -0.0346 -1.2290
  164SAPE  H17Y18520   1.990   4.869   8.067  0.5301 -0.8970  1.4534
  164SAPE  C31818521   2.193   4.857   8.145  0.2024  0.0597 -0.0087
  164SAPE  H18X18522   2.207   4.964   8.172 -1.0484  0.7533 -2.0036
  164SAPE  H18Y18523   2.279   4.797   8.110 -0.3309  0.3179 -1.7820
  164SAPE  H18Z18524   2.149   4.802   8.232 -0.0399 -0.8957 -0.7263
  165SAPE     N18525   1.237   1.795   6.176  0.1212  0.7631 -0.3297
  165SAPE   HN118526   1.170   1.757   6.246  0.7827  1.6496  0.8099
  165SAPE   HN218527   1.187   1.883   6.150 -1.7426 -0.1705 -0.0064
  165SAPE   HN318528   1.236   1.736   6.090 -0.2954  0.9834 -0.4775
  165SAPE   C1218529   1.366   1.822   6.233  0.5157 -0.1288  0.1315
  165SAPE  H12A18530   1.362   1.910   6.300  1.3188  0.0948 -0.1077
  165SAPE  H12B18531   1.434   1.855   6.152 -2.9930  2.0894 -2.0236
  165SAPE   C1118532   1.425   1.696   6.294 -0.2806  0.5361 -0.4326
  165SAPE  H11A18533   1.377   1.673   6.391 -1.6173  0.1746 -1.1681
  165SAPE  H11B18534   1.529   1.732   6.311 -0.1501  0.4605 -1.0396
  165SAPE     P18535   1.546   1.465   6.223  0.0574 -0.0419  0.1676
  165SAPE   O1318536   1.512   1.360   6.128 -0.3789  0.2135 -0.6486
  165SAPE   O1418537   1.678   1.530   6.201 -0.8013 -0.1689  0.4506
  165SAPE   O1218538   1.433   1.580   6.206  0.3215 -0.0844  0.0187
  165SAPE   O1118539   1.534   1.415   6.367 -0.3924 -0.1125 -0.4761
  165SAPE    C118540   1.574   1.472   6.486 -0.9637 -0.2950 -0.0321
  165SAPE    HA18541   1.606   1.577   6.467 -0.4211 -0.0983  1.8824
  165SAPE    HB18542   1.498   1.471   6.567 -0.0413  0.0240  0.8506
  165SAPE    C218543   1.704   1.405   6.554  0.3793 -0.2156  0.2170
  165SAPE    HS18544   1.784   1.389   6.480 -0.9482 -1.2772 -1.0235
  165SAPE   O2118545   1.664   1.286   6.617 -0.0507 -0.0387 -0.1641
  165SAPE   C2118546   1.755   1.203   6.648  0.1357  0.1965  1.1206
  165SAPE   O2218547   1.874   1.216   6.615 -0.1166  0.4464  0.0958
  165SAPE   C2218548   1.698   1.081   6.720 -0.0797 -0.7611 -0.0908
  165SAPE   H2R18549   1.595   1.105   6.753 -1.2699 -0.0077 -4.0353
  165SAPE   H2S18550   1.698   0.996   6.649  0.1203  1.3237 -2.6699
  165SAPE    C318551   1.760   1.506   6.661 -0.2934 -0.3357  0.2429
  165SAPE    HX18552   1.801   1.593   6.606 -2.9504  1.4929  1.0520
  165SAPE    HY18553   1.848   1.465   6.715 -0.2596 -1.2269 -0.4853
  165SAPE   O3118554   1.665   1.533   6.770  0.9009 -0.1147  0.1216
  165SAPE   C3118555   1.599   1.639   6.762 -0.3027  0.0657  0.8148
  165SAPE   O3218556   1.609   1.727   6.678  0.1140  0.7508 -0.1845
  165SAPE   C3218557   1.501   1.646   6.890 -0.3275  0.5258  0.3125
  165SAPE   H2X18558   1.568   1.696   6.963 -0.6494  1.3695  0.0306
  165SAPE   H2Y18559   1.485   1.543   6.928 -1.7209  1.1313  1.3979
  165SAPE   C2318560   1.792   1.034   6.838 -0.2063  0.2159  0.4848
  165SAPE   H3R18561   1.896   1.056   6.808 -0.4406 -0.5128 -0.8828
  165SAPE   H3S18562   1.780   0.924   6.848  0.3879  0.1062 -0.0278
  165SAPE   C2418563   1.750   1.103   6.971  0.2073 -0.4296  0.0480
  165SAPE   H4R18564   1.666   1.043   7.013 -0.2615 -0.2647 -0.6484
  165SAPE   H4S18565   1.716   1.207   6.953  0.8758  0.1471  1.9931
  165SAPE   C2518566   1.863   1.113   7.075 -0.1419  0.3794 -0.1684
  165SAPE   H5R18567   1.924   1.204   7.062 -1.9288  1.5905 -0.3566
  165SAPE   C2618568   1.890   1.048   7.189 -0.4348  0.4738  0.0581
  165SAPE   H6R18569   1.987   1.081   7.228 -1.7460  3.8513  0.6320
  165SAPE   C2718570   1.814   0.932   7.241 -0.0269 -0.8261 -0.0713
  165SAPE   H7R18571   1.887   0.865   7.293  0.6566  0.5497  0.7707
  165SAPE   H7S18572   1.765   0.874   7.160 -1.5970  0.0477  0.2362
  165SAPE   C2818573   1.707   0.979   7.341  0.2238 -0.9704 -0.0539
  165SAPE   H8R18574   1.619   1.026   7.295  0.3536  0.4823  1.1626
  165SAPE   C2918575   1.705   0.976   7.477  0.5501  0.0285 -0.6082
  165SAPE   H9R18576   1.613   1.002   7.531  0.8967 -0.0036 -0.0028
  165SAPE  C21018577   1.802   0.918   7.573  0.1550  0.0609  0.1105
  165SAPE  H10R18578   1.815   0.810   7.548  0.2567 -0.5759  2.7960
  165SAPE  H10S18579   1.761   0.916   7.676 -0.0359 -3.2660  0.0058
  165SAPE  C21118580   1.943   0.972   7.591 -0.1874  0.0601  0.4645
  165SAPE  H11R18581   1.999   0.970   7.497  0.1958  1.7573  0.6412
  165SAPE  C21218582   1.991   1.029   7.706  0.3001  0.5617  0.1051
  165SAPE  H12R18583   2.091   1.073   7.700  0.2848  0.4113 -1.2603
  165SAPE  C21318584   1.930   1.034   7.841 -0.8893 -0.0625 -1.0855
  165SAPE  H13R18585   1.854   0.953   7.842 -0.0697 -0.8992  2.8934
  165SAPE  H13S18586   1.869   1.125   7.860  0.0515 -0.0409  2.0576
  165SAPE  C21418587   2.037   1.013   7.944  0.1254 -0.1388  0.1211
  165SAPE  H14R18588   2.137   1.057   7.930  1.3786 -1.4301  4.3615
  165SAPE  C21518589   2.028   0.925   8.052  0.7879  0.7853  0.0085
  165SAPE  H15R18590   2.118   0.903   8.112  0.7535  1.9955  0.5276
  165SAPE  C21618591   1.913   0.842   8.099 -0.2071  0.5702 -0.2950
  165SAPE  H16R18592   1.923   0.743   8.048  0.4078  0.7391 -0.5024
  165SAPE  H16S18593   1.827   0.895   8.051  0.2695 -0.4573 -2.3413
  165SAPE  C21718594   1.906   0.824   8.252  0.5748  0.4828  0.3389
  165SAPE  H17R18595   1.899   0.928   8.290 -0.1426  0.4277  0.3581
  165SAPE  H17S18596   1.989   0.762   8.294 -3.1428 -4.6498  0.6117
  165SAPE  C21818597   1.777   0.747   8.287  0.2851  0.2455 -0.0066
  165SAPE  H18R18598   1.778   0.641   8.254 -1.9946 -0.1638  1.1275
  165SAPE  H18S18599   1.694   0.784   8.223  0.5275 -2.0143 -1.6749
  165SAPE  C21918600   1.720   0.769   8.431  0.1218 -0.0009  0.4791
  165SAPE  H19R18601   1.785   0.714   8.502 -1.4644  0.8225  2.6062
  165SAPE  H19S18602   1.620   0.724   8.450 -1.0371  1.2432 -2.3530
  165SAPE  C22018603   1.713   0.915   8.469 -0.5401  0.0667  0.3552
  165SAPE  H20R18604   1.671   0.932   8.571  1.3134 -2.5719  1.6151
  165SAPE  H20S18605   1.647   0.979   8.407 -2.0248 -1.6650  0.0950
  165SAPE  H20T18606   1.805   0.975   8.481 -2.5179  3.1496  0.7522
  165SAPE   C3318607   1.380   1.728   6.852  0.1900  0.1527  0.1986
  165SAPE   H3X18608   1.331   1.675   6.768  0.1611  0.1640  0.2087
  165SAPE   H3Y18609   1.417   1.828   6.822 -1.2914  0.7767  0.4232
  165SAPE   C3418610   1.267   1.742   6.960 -0.0989  0.2058 -0.0168
  165SAPE   H4X18611   1.226   1.645   6.997 -1.2740  0.8967  0.5300
  165SAPE   H4Y18612   1.181   1.792   6.911 -0.5484 -0.2663  0.2866
  165SAPE   C3518613   1.300   1.829   7.087 -0.2646 -0.2864 -0.1786
  165SAPE   H5X18614   1.305   1.934   7.051 -0.3008 -0.0728  0.4243
  165SAPE   H5Y18615   1.396   1.798   7.133 -1.2924 -1.0862  1.4873
  165SAPE   C3618616   1.195   1.831   7.190 -0.2878 -0.5128  0.2707
  165SAPE   H6X18617   1.091   1.838   7.152  0.2860  0.7676 -1.1172
  165SAPE   H6Y18618   1.217   1.909   7.266  1.6358 -0.1197 -0.6609
  165SAPE   C3718619   1.197   1.707   7.280  0.0447  0.5304  0.5243
  165SAPE   H7X18620   1.304   1.694   7.304 -0.0220 -0.6250  0.1960
  165SAPE   H7Y18621   1.171   1.610   7.234 -1.2747  0.7011  0.8716
  165SAPE   C3818622   1.122   1.724   7.410 -0.5510  0.2037 -0.0431
  165SAPE   H8X18623   1.013   1.707   7.402 -0.4923 -1.3012  2.0116
  165SAPE   H8Y18624   1.126   1.825   7.456  0.8545 -0.3509  1.1056
  165SAPE   C3918625   1.153   1.607   7.517 -0.5620 -1.2009 -0.4383
  165SAPE   H9X18626   1.255   1.630   7.555 -0.3738  1.4541 -2.3750
  165SAPE   H9Y18627   1.150   1.512   7.460  3.9077 -0.2880 -2.3922
  165SAPE  C31018628   1.062   1.621   7.637 -0.4100  0.0585 -0.2365
  165SAPE  H10X18629   0.955   1.623   7.608 -0.1628 -2.0001 -1.4261
  165SAPE  H10Y18630   1.073   1.718   7.689 -1.0876  0.9322 -1.6718
  165SAPE  C31118631   1.083   1.502   7.738  1.5056  0.4368 -1.0145
  165SAPE  H11X18632   1.192   1.490   7.758  1.5524  0.2159 -1.4027
  165SAPE  H11Y18633   1.048   1.411   7.686 -2.4409  0.2514  1.7665
  165SAPE  C31218634   1.018   1.522   7.869 -0.0571  0.3666 -1.3268
  165SAPE  H12X18635   0.911   1.550   7.875 -0.0952 -0.0224  0.0986
  165SAPE  H12Y18636   1.065   1.614   7.911  0.1236 -0.8091  1.1794
  165SAPE  C31318637   1.042   1.412   7.976 -0.6165  0.3395  0.9103
  165SAPE  H13X18638   1.133   1.363   7.933  0.1176  2.0425  0.4913
  165SAPE  H13Y18639   0.961   1.337   7.966 -0.8895  0.9915 -2.0376
  165SAPE  C31418640   1.055   1.457   8.115 -0.0724  0.4260 -0.3145
  165SAPE  H14X18641   0.957   1.495   8.151  0.5575  0.7394  1.1010
  165SAPE  H14Y18642   1.131   1.537   8.124 -0.1640  0.5602 -0.7095
  165SAPE  C31518643   1.095   1.347   8.223  0.1432 -0.3236  0.5004
  165SAPE  H15X18644   1.038   1.256   8.195 -1.1298 -0.0768  2.2738
  165SAPE  H15Y18645   1.048   1.372   8.320 -1.4272  1.5905 -0.7179
  165SAPE  C31618646   1.245   1.338   8.246  0.3432  0.6923  0.6663
  165SAPE  H16X18647   1.280   1.420   8.312  1.7091  0.7913 -0.1696
  165SAPE  H16Y18648   1.300   1.334   8.150 -2.4181  5.3882 -1.3016
  165SAPE  C31718649   1.288   1.211   8.323  0.1791 -0.1575  0.3892
  165SAPE  H17X18650   1.399   1.212   8.330  0.2420  0.8447 -0.6795
  165SAPE  H17Y18651   1.265   1.118   8.265  3.0004 -0.3375 -0.5117
  165SAPE  C31818652   1.222   1.197   8.462  0.1599 -0.4194 -0.1308
  165SAPE  H18X18653   1.246   1.290   8.517  1.0005 -0.5037 -0.3451
  165SAPE  H18Y18654   1.250   1.106   8.520  4.0560 -0.5102 -1.9677
  165SAPE  H18Z18655   1.113   1.193   8.446  0.0815  2.0021 -0.3035
  166SAPE     N18656   1.069   4.798   5.418  0.0807  0.1456  0.5525
  166SAPE   HN118657   0.985   4.847   5.453 -0.3627 -0.9772  1.0723
  166SAPE   HN218658   1.059   4.784   5.315  0.2649  1.6797  0.3130
  166SAPE   HN318659   1.088   4.703   5.457 -1.0719 -0.6044 -0.6652
  166SAPE   C1218660   1.182   4.887   5.428 -0.1234 -0.9010  0.1795
  166SAPE  H12A18661   1.146   4.992   5.420  1.1415 -0.5127 -0.6322
  166SAPE  H12B18662   1.253   4.875   5.343  0.5110  2.0674  0.2186
  166SAPE   C1118663   1.260   4.864   5.561 -0.7019 -0.6193 -0.5184
  166SAPE  H11A18664   1.200   4.908   5.643  2.1205  0.1703  1.2209
  166SAPE  H11B18665   1.347   4.933   5.563 -1.6985  0.6138  1.1603
  166SAPE     P18666   1.397   4.688   5.686 -0.1931 -0.1128  0.3352
  166SAPE   O1318667   1.451   4.551   5.653  0.3428 -0.2548  0.5955
  166SAPE   O1418668   1.496   4.796   5.712 -0.0402  0.1269 -0.0193
  166SAPE   O1218669   1.295   4.727   5.581 -0.3125  0.5839  0.4049
  166SAPE   O1118670   1.302   4.672   5.803 -0.7336  0.3415 -0.7348
  166SAPE    C118671   1.295   4.754   5.918 -0.0950 -0.1423 -0.1468
  166SAPE    HA18672   1.298   4.862   5.889 -2.3035 -0.6130 -2.3864
  166SAPE    HB18673   1.190   4.748   5.954 -0.3253  4.0527  0.1126
  166SAPE    C218674   1.395   4.716   6.027  1.0875  0.8162 -0.1233
  166SAPE    HS18675   1.373   4.785   6.111 -2.0915  0.7125 -0.8067
  166SAPE   O2118676   1.535   4.741   5.992  0.2849 -0.2677 -0.4426
  166SAPE   C2118677   1.563   4.873   5.983 -0.5066 -0.2545  0.2683
  166SAPE   O2218678   1.489   4.961   6.012  0.2927 -0.1054  0.5177
  166SAPE   C2218679   1.701   4.884   5.912 -0.1109  0.7506  0.2948
  166SAPE   H2R18680   1.775   4.838   5.980  1.1039 -1.4035 -2.3815
  166SAPE   H2S18681   1.698   4.829   5.815  1.0173  2.0383 -0.4949
  166SAPE    C318682   1.378   4.570   6.069  0.3928 -0.0994 -0.5034
  166SAPE    HX18683   1.424   4.502   5.994 -0.2270 -1.7384  0.5757
  166SAPE    HY18684   1.269   4.548   6.074  0.3143  0.0027 -1.7242
  166SAPE   O3118685   1.439   4.546   6.196 -0.7128 -0.0512  0.0616
  166SAPE   C3118686   1.366   4.576   6.300 -0.1807  0.1409 -0.4874
  166SAPE   O3218687   1.258   4.627   6.294 -0.8648 -0.3194 -0.2557
  166SAPE   C3218688   1.445   4.530   6.430 -0.6366  0.4367  0.0285
  166SAPE   H2X18689   1.527   4.603   6.445  1.9667 -2.3951  0.1843
  166SAPE   H2Y18690   1.490   4.431   6.405  1.4594  1.5797 -0.8094
  166SAPE   C2318691   1.761   5.030   5.884 -0.0730 -0.2637  0.5048
  166SAPE   H3R18692   1.681   5.087   5.832  0.8699  0.4049 -0.2266
  166SAPE   H3S18693   1.834   5.040   5.802 -1.7094 -1.1425 -1.0969
  166SAPE   C2418694   1.796   5.110   6.010  0.2496  0.1948 -0.2984
  166SAPE   H4R18695   1.703   5.119   6.070  0.1323 -1.0277 -0.2983
  166SAPE   H4S18696   1.812   5.213   5.971  0.1433  1.4124  2.7545
  166SAPE   C2518697   1.919   5.064   6.073  0.3659  0.1205  0.5603
  166SAPE   H5R18698   2.006   5.097   6.015  0.3465 -1.2835 -0.2894
  166SAPE   C2618699   1.932   4.988   6.184 -0.4559 -0.4360  0.4237
  166SAPE   H6R18700   2.033   4.973   6.226 -1.6413 -2.5008  2.6172
  166SAPE   C2718701   1.819   4.942   6.274  0.5845  0.1697  0.3044
  166SAPE   H7R18702   1.721   4.951   6.224  0.3540 -1.3158  0.4639
  166SAPE   H7S18703   1.805   5.006   6.364 -0.7038  2.0170 -1.1721
  166SAPE   C2818704   1.836   4.799   6.315 -0.2028  0.4241  0.2966
  166SAPE   H8R18705   1.853   4.725   6.235  1.2116  1.1669 -0.1111
  166SAPE   C2918706   1.824   4.748   6.438  0.3375  0.5518  0.1848
  166SAPE   H9R18707   1.853   4.644   6.459 -1.7300 -0.4672 -1.7928
  166SAPE  C21018708   1.783   4.825   6.563 -0.2539 -0.0338 -0.6222
  166SAPE  H10R18709   1.681   4.795   6.593  0.3691 -0.3387  1.2231
  166SAPE  H10S18710   1.792   4.936   6.550 -0.2719  0.1077  0.5577
  166SAPE  C21118711   1.864   4.789   6.686 -0.3428 -0.1232  0.7696
  166SAPE  H11R18712   1.973   4.787   6.677 -0.2669  0.4224  1.5988
  166SAPE  C21218713   1.811   4.752   6.804  0.3786  0.0276 -0.2388
  166SAPE  H12R18714   1.879   4.735   6.889  0.5538  0.6095 -0.2606
  166SAPE  C21318715   1.665   4.744   6.840  0.2607  0.3110 -0.6684
  166SAPE  H13R18716   1.650   4.643   6.884  0.1651  0.7888  0.4071
  166SAPE  H13S18717   1.605   4.737   6.747  1.4615 -0.1171 -1.4244
  166SAPE  C21418718   1.626   4.862   6.928 -0.1223 -0.0314 -0.1177
  166SAPE  H14R18719   1.609   4.950   6.864 -0.0770  0.5971  0.7180
  166SAPE  C21518720   1.617   4.858   7.055 -0.2751  1.0765 -0.4922
  166SAPE  H15R18721   1.589   4.949   7.110 -1.4385  1.0599 -1.0317
  166SAPE  C21618722   1.633   4.737   7.141  0.8665  0.1471 -0.6881
  166SAPE  H16R18723   1.629   4.645   7.079 -2.5044 -0.1223 -0.1686
  166SAPE  H16S18724   1.546   4.731   7.209  0.9019  2.1555 -0.4207
  166SAPE  C21718725   1.759   4.735   7.224 -0.0668  0.3153  0.1276
  166SAPE  H17R18726   1.834   4.771   7.150  2.0582  0.4487  2.2880
  166SAPE  H17S18727   1.781   4.631   7.258 -0.0888  0.8465  1.8180
  166SAPE  C21818728   1.768   4.826   7.350 -0.3162  0.9333  0.0227
  166SAPE  H18R18729   1.765   4.929   7.310  0.0963  1.4190  1.1962
  166SAPE  H18S18730   1.866   4.816   7.402 -0.8593 -0.9292  0.7189
  166SAPE  C21918731   1.656   4.799   7.452  0.1557  0.5612  0.0821
  166SAPE  H19R18732   1.647   4.690   7.474  0.0785  0.9195  1.9119
  166SAPE  H19S18733   1.556   4.833   7.417 -0.2375  0.1741  0.8109
  166SAPE  C22018734   1.687   4.871   7.579 -0.4265 -0.4412  0.1635
  166SAPE  H20R18735   1.777   4.828   7.629 -1.1429 -1.6972  0.3845
  166SAPE  H20S18736   1.593   4.870   7.638 -0.2133 -0.3483  0.5099
  166SAPE  H20T18737   1.715   4.977   7.559  2.8319 -0.9003  1.8183
  166SAPE   C3318738   1.358   4.519   6.557  0.3060  0.3626  0.1800
  166SAPE   H3X18739   1.254   4.490   6.531  0.2581  1.7191 -1.2466
  166SAPE   H3Y18740   1.349   4.617   6.609 -0.1624 -0.3709  1.5049
  166SAPE   C3418741   1.417   4.417   6.654  0.3710  0.3981  0.1005
  166SAPE   H4X18742   1.525   4.433   6.674  1.6970 -2.1103 -4.3196
  166SAPE   H4Y18743   1.418   4.313   6.614  0.0944  0.9539 -1.3923
  166SAPE   C3518744   1.321   4.410   6.777 -0.7188 -0.8606  0.2430
  166SAPE   H5X18745   1.362   4.323   6.833 -1.3180 -1.2370  0.1072
  166SAPE   H5Y18746   1.218   4.380   6.748 -1.9763  2.6912  0.8301
  166SAPE   C3618747   1.311   4.538   6.865 -0.3774 -0.4243 -0.2685
  166SAPE   H6X18748   1.241   4.610   6.817 -0.2367  1.2286  1.9162
  166SAPE   H6Y18749   1.416   4.573   6.856 -0.8993  1.3683  0.4067
  166SAPE   C3718750   1.264   4.512   7.009  0.8352  0.5148 -0.9286
  166SAPE   H7X18751   1.331   4.440   7.060  0.7981  0.6372 -0.7077
  166SAPE   H7Y18752   1.168   4.455   6.999  1.5998 -0.8044 -0.9056
  166SAPE   C3818753   1.255   4.639   7.094  0.5898  0.0112 -0.2678
  166SAPE   H8X18754   1.163   4.691   7.059  1.0867  0.6833 -0.5845
  166SAPE   H8Y18755   1.341   4.707   7.078  0.1440  1.1543  2.0596
  166SAPE   C3918756   1.238   4.606   7.240 -0.1128  0.5120 -0.5062
  166SAPE   H9X18757   1.326   4.558   7.289 -0.7283  2.6805  2.9056
  166SAPE   H9Y18758   1.151   4.537   7.249 -1.8755  2.6324 -0.9605
  166SAPE  C31018759   1.211   4.737   7.319 -0.0251 -0.3682 -0.6038
  166SAPE  H10X18760   1.102   4.760   7.313  0.1710  0.4923 -1.0502
  166SAPE  H10Y18761   1.272   4.817   7.271 -1.7969  0.8474 -0.8633
  166SAPE  C31118762   1.245   4.715   7.470  0.1704  0.7321  0.1433
  166SAPE  H11X18763   1.349   4.678   7.487 -0.2420 -1.0952 -1.0845
  166SAPE  H11Y18764   1.181   4.633   7.508  0.7294 -0.6511 -1.7994
  166SAPE  C31218765   1.213   4.850   7.541 -0.4235  0.0241 -0.6770
  166SAPE  H12X18766   1.236   4.839   7.649  1.0653 -0.0019 -0.9792
  166SAPE  H12Y18767   1.102   4.857   7.540 -0.3711  1.1611  0.2942
  166SAPE  C31318768   1.293   4.970   7.495  0.3366  0.1364 -0.3446
  166SAPE  H13X18769   1.254   5.002   7.396 -1.5741  1.6989  0.8726
  166SAPE  H13Y18770   1.393   4.924   7.481  0.1890 -0.5840  0.8533
  166SAPE  C31418771   1.298   5.082   7.596 -0.0002  0.0993  0.1944
  166SAPE  H14X18772   1.198   5.104   7.641 -0.2553  0.2014 -0.4127
  166SAPE  H14Y18773   1.321   5.179   7.546  4.2234  0.0793  1.9498
  166SAPE  C31518774   1.402   5.075   7.700 -0.3965 -0.0894 -0.0603
  166SAPE  H15X18775   1.501   5.082   7.650 -0.7133  1.8934 -0.4591
  166SAPE  H15Y18776   1.392   4.972   7.739 -0.3294  0.0724  0.3928
  166SAPE  C31618777   1.383   5.188   7.812  0.3729 -0.0166 -0.6868
  166SAPE  H16X18778   1.282   5.165   7.850  1.0341 -0.6541  0.7000
  166SAPE  H16Y18779   1.390   5.288   7.763  1.6664  0.5907  0.6922
  166SAPE  C31718780   1.487   5.182   7.921  0.4192 -0.5236  0.4501
  166SAPE  H17X18781   1.486   5.085   7.975  0.9191 -0.2671  0.9301
  166SAPE  H17Y18782   1.457   5.247   8.006 -1.3004  0.1191 -0.6073
  166SAPE  C31818783   1.626   5.213   7.873 -0.1442  0.3377  0.2449
  166SAPE  H18X18784   1.659   5.136   7.799  1.7131 -1.0053  2.3966
  166SAPE  H18Y18785   1.689   5.206   7.964 -0.4720  1.2535  0.5462
  166SAPE  H18Z18786   1.650   5.313   7.832  0.6071  0.4507  0.9450
  167SAPE     N18787   1.966   3.941   6.300  0.0843 -0.4272  0.5397
  167SAPE   HN118788   2.002   4.004   6.226 -0.3038 -1.1435 -0.2608
  167SAPE   HN218789   1.895   3.881   6.254 -0.4846  0.8426 -0.2721
  167SAPE   HN318790   1.921   3.993   6.378  1.0919 -2.8226  2.7726
  167SAPE   C1218791   2.079   3.857   6.351 -0.1806 -0.6952  0.0288
  167SAPE  H12A18792   2.098   3.775   6.279 -3.8084 -1.2255 -0.4051
  167SAPE  H12B18793   2.044   3.823   6.451  0.0724 -0.2296  0.2812
  167SAPE   C1118794   2.202   3.949   6.373  0.6227  0.5101 -0.3618
  167SAPE  H11A18795   2.273   3.884   6.427  0.4903  1.7885  1.3777
  167SAPE  H11B18796   2.180   4.027   6.449  2.8075  1.2115 -0.4231
  167SAPE     P18797   2.401   3.962   6.207 -0.1011  0.3199  0.0479
  167SAPE   O1318798   2.394   3.853   6.104 -0.3480 -0.1536  0.2705
  167SAPE   O1418799   2.475   4.086   6.163 -0.0497 -0.2930  0.7748
  167SAPE   O1218800   2.253   3.999   6.250  1.1650  0.2668 -0.0969
  167SAPE   O1118801   2.469   3.907   6.343  0.1788 -0.7878  0.2161
  167SAPE    C118802   2.527   3.999   6.430  0.8206 -0.0391  0.5826
  167SAPE    HA18803   2.634   3.995   6.403  0.2046 -1.5844 -1.8177
  167SAPE    HB18804   2.485   4.101   6.417  1.1600  0.0018 -0.2090
  167SAPE    C218805   2.517   3.972   6.587 -0.9878  0.1538 -0.8665
  167SAPE    HS18806   2.577   3.880   6.602  1.3790  1.2266 -3.4791
  167SAPE   O2118807   2.382   3.950   6.629  0.3502  0.0354 -0.2537
  167SAPE   C2118808   2.371   3.863   6.735 -0.0569  0.1840  0.4433
  167SAPE   O2218809   2.465   3.815   6.797 -0.4013  0.2688  0.2572
  167SAPE   C2218810   2.224   3.820   6.757 -0.7415 -0.9638 -0.6538
  167SAPE   H2R18811   2.162   3.912   6.761  0.0609 -0.4594  1.0288
  167SAPE   H2S18812   2.201   3.754   6.672  0.4013 -1.9833 -0.1985
  167SAPE    C318813   2.590   4.084   6.660 -0.0853  0.7489 -0.4947
  167SAPE    HX18814   2.530   4.177   6.646  0.9133  1.1748 -2.0774
  167SAPE    HY18815   2.692   4.082   6.616 -0.8217  0.9968 -2.2312
  167SAPE   O3118816   2.592   4.053   6.794 -0.3552 -0.3541 -0.0442
  167SAPE   C3118817   2.702   4.008   6.851 -0.2818  0.1372 -0.8615
  167SAPE   O3218818   2.811   4.000   6.794 -0.6806  0.1240 -0.1310
  167SAPE   C3218819   2.667   3.957   6.994 -0.1193 -0.0342  0.5746
  167SAPE   H2X18820   2.643   3.848   6.996 -1.3554  0.2140 -0.1295
  167SAPE   H2Y18821   2.572   4.007   7.023  0.2430  1.2430 -0.4048
  167SAPE   C2318822   2.207   3.739   6.894  0.0182  0.2724 -0.4641
  167SAPE   H3R18823   2.294   3.671   6.910  1.8289  2.0173 -2.5239
  167SAPE   H3S18824   2.121   3.672   6.870 -0.0726  1.0974 -2.5716
  167SAPE   C2418825   2.170   3.819   7.015  0.8570 -0.5216 -0.3766
  167SAPE   H4R18826   2.110   3.754   7.082 -0.3817 -1.0808 -2.0050
  167SAPE   H4S18827   2.109   3.905   6.980  2.3485  0.0695 -1.5807
  167SAPE   C2518828   2.282   3.883   7.097  0.0441  0.5467  0.2090
  167SAPE   H5R18829   2.383   3.862   7.060 -1.2048  0.4062 -3.4224
  167SAPE   C2618830   2.264   3.969   7.205  0.5672 -0.0875  0.2109
  167SAPE   H6R18831   2.348   4.008   7.264 -0.2505 -2.4198  3.0303
  167SAPE   C2718832   2.126   4.010   7.251 -0.3031 -0.2771  0.0029
  167SAPE   H7R18833   2.072   3.921   7.290 -0.1425 -0.4924 -0.2635
  167SAPE   H7S18834   2.056   4.040   7.170  0.8030  0.2039 -0.7882
  167SAPE   C2818835   2.138   4.120   7.351  0.2782  0.5608 -0.2051
  167SAPE   H8R18836   2.166   4.218   7.310  0.9443  0.9133  1.0553
  167SAPE   C2918837   2.101   4.116   7.482 -0.8468 -0.1826 -0.2496
  167SAPE   H9R18838   2.116   4.208   7.541  0.9303 -1.8809  2.0337
  167SAPE  C21018839   2.059   3.996   7.569 -0.8661  0.2425  0.3142
  167SAPE  H10R18840   1.950   3.977   7.567 -0.9793  0.7902  0.8587
  167SAPE  H10S18841   2.075   4.017   7.677  0.8910  2.1460 -0.2705
  167SAPE  C21118842   2.130   3.866   7.542 -0.1748 -0.0494 -0.2208
  167SAPE  H11R18843   2.198   3.866   7.456  0.6007  0.5847  0.3891
  167SAPE  C21218844   2.146   3.755   7.623  0.3192  0.7184  0.5978
  167SAPE  H12R18845   2.221   3.682   7.589 -0.5877 -0.2517  0.6137
  167SAPE  C21318846   2.096   3.730   7.767  0.6093  0.0950 -0.3372
  167SAPE  H13R18847   2.035   3.637   7.773  0.4238  0.2994  1.3105
  167SAPE  H13S18848   2.031   3.815   7.796  1.7122  0.8417 -0.0549
  167SAPE  C21418849   2.193   3.720   7.877 -0.2181 -0.3755 -0.7384
  167SAPE  H14R18850   2.296   3.686   7.856  0.7191  1.6180  0.3847
  167SAPE  C21518851   2.170   3.752   8.010  0.9085  1.4997 -0.3517
  167SAPE  H15R18852   2.255   3.752   8.080 -1.3962 -0.8572  2.5315
  167SAPE  C21618853   2.047   3.813   8.073  0.4063  0.2566 -0.4158
  167SAPE  H16R18854   1.978   3.848   7.993 -2.0852 -1.3600  0.9624
  167SAPE  H16S18855   2.085   3.893   8.141  1.7805 -0.6157 -0.1483
  167SAPE  C21718856   1.960   3.716   8.150 -0.4632  0.3715 -0.1104
  167SAPE  H17R18857   1.900   3.646   8.087  0.8281 -2.3386  1.5664
  167SAPE  H17S18858   1.883   3.782   8.195 -2.5137 -2.3044  0.4030
  167SAPE  C21818859   2.031   3.615   8.251  0.0257  0.1810  1.2302
  167SAPE  H18R18860   2.120   3.664   8.297  0.5033 -0.0840  0.6089
  167SAPE  H18S18861   2.080   3.535   8.190 -0.0149  2.3744 -1.7822
  167SAPE  C21918862   1.937   3.560   8.356  0.3452  0.6088 -0.3435
  167SAPE  H19R18863   1.991   3.506   8.436 -0.0622 -1.2119 -1.2618
  167SAPE  H19S18864   1.867   3.488   8.308 -0.4277  1.2152 -0.1293
  167SAPE  C22018865   1.847   3.662   8.427 -0.8636 -0.0129  0.3240
  167SAPE  H20R18866   1.877   3.650   8.533  1.7802  1.0370 -0.2641
  167SAPE  H20S18867   1.741   3.632   8.414 -0.1622 -2.4845  0.0981
  167SAPE  H20T18868   1.864   3.767   8.394 -1.0662  0.3152  1.2578
  167SAPE   C3318869   2.773   4.004   7.097 -0.0284 -0.1349  0.7742
  167SAPE   H3X18870   2.789   4.113   7.085  0.3523  0.0781  3.0385
  167SAPE   H3Y18871   2.865   3.954   7.061 -1.9433 -1.4940 -2.3864
  167SAPE   C3418872   2.750   3.954   7.234  0.3289 -0.6169 -0.4004
  167SAPE   H4X18873   2.658   4.002   7.274  1.7737  0.8466  1.2680
  167SAPE   H4Y18874   2.833   4.001   7.292 -0.5073 -0.2557  0.5235
  167SAPE   C3518875   2.718   3.800   7.253 -0.7561  0.0509  0.2702
  167SAPE   H5X18876   2.808   3.750   7.212 -1.1226  0.3118 -0.8805
  167SAPE   H5Y18877   2.629   3.768   7.194  0.9893 -2.6552 -0.9636
  167SAPE   C3618878   2.705   3.765   7.399  0.4252 -0.2615  0.0604
  167SAPE   H6X18879   2.677   3.658   7.413 -1.2833  0.2567  0.7571
  167SAPE   H6Y18880   2.620   3.808   7.455  0.0665 -0.1940 -0.5308
  167SAPE   C3718881   2.833   3.792   7.478 -0.1543  0.6182  0.5574
  167SAPE   H7X18882   2.833   3.901   7.495 -1.2860  0.5862  0.8094
  167SAPE   H7Y18883   2.921   3.770   7.414 -0.2799  1.6340  0.0316
  167SAPE   C3818884   2.845   3.722   7.616  0.4456 -0.1519 -0.1377
  167SAPE   H8X18885   2.929   3.761   7.676  2.3937 -0.5408 -2.5371
  167SAPE   H8Y18886   2.870   3.615   7.601  2.7811  0.6192 -2.0256
  167SAPE   C3918887   2.716   3.741   7.703 -0.5049  0.1212 -0.1849
  167SAPE   H9X18888   2.624   3.698   7.659 -1.1453  0.0838  1.1439
  167SAPE   H9Y18889   2.706   3.850   7.726 -0.8802  0.1448 -0.4697
  167SAPE  C31018890   2.726   3.672   7.842 -0.0863 -0.9002 -0.3771
  167SAPE  H10X18891   2.805   3.720   7.903 -0.6640  2.1083 -1.8890
  167SAPE  H10Y18892   2.763   3.568   7.828  2.1017 -0.0583 -1.1084
  167SAPE  C31118893   2.594   3.661   7.924 -0.1463 -0.2579  0.0386
  167SAPE  H11X18894   2.519   3.605   7.865 -1.0041  1.2454 -0.3165
  167SAPE  H11Y18895   2.567   3.766   7.946 -0.9928 -0.2058 -1.1906
  167SAPE  C31218896   2.620   3.579   8.044  0.6324  0.1372 -0.8255
  167SAPE  H12X18897   2.691   3.631   8.112 -0.5506  1.8644 -0.8623
  167SAPE  H12Y18898   2.658   3.476   8.029  0.1753 -0.2150  0.3520
  167SAPE  C31318899   2.489   3.563   8.126  0.2649 -0.0263 -0.1493
  167SAPE  H13X18900   2.408   3.537   8.055  0.5172 -0.3969 -0.2953
  167SAPE  H13Y18901   2.458   3.661   8.170 -1.9528 -0.5337 -0.5144
  167SAPE  C31418902   2.492   3.466   8.238 -0.7748  0.0352  0.1428
  167SAPE  H14X18903   2.548   3.500   8.328 -2.3214 -0.1712  1.2091
  167SAPE  H14Y18904   2.556   3.385   8.198 -1.9640 -0.0062 -1.7409
  167SAPE  C31518905   2.360   3.415   8.292  0.9252 -0.4652  0.2811
  167SAPE  H15X18906   2.305   3.352   8.219 -0.4398  0.3441  0.6031
  167SAPE  H15Y18907   2.285   3.494   8.313  2.1851  1.1335 -1.1137
  167SAPE  C31618908   2.386   3.323   8.418 -0.6770 -0.3087  0.4143
  167SAPE  H16X18909   2.423   3.399   8.490 -0.9559  1.6609 -1.4662
  167SAPE  H16Y18910   2.468   3.253   8.391  0.5435  0.1526  2.7110
  167SAPE  C31718911   2.271   3.241   8.469  0.4321  0.3458 -0.1523
  167SAPE  H17X18912   2.260   3.143   8.418 -0.8082  0.6185 -0.4229
  167SAPE  H17Y18913   2.175   3.296   8.453  0.6397  1.4621  2.2069
  167SAPE  C31818914   2.286   3.201   8.620 -0.2893  0.2098  0.3392
  167SAPE  H18X18915   2.187   3.162   8.654  0.4890 -1.3861  0.8320
  167SAPE  H18Y18916   2.317   3.286   8.684  0.6787  0.8570 -0.9834
  167SAPE  H18Z18917   2.362   3.123   8.640  0.7776  0.6855 -1.7863
  168SAPE     N18918   4.190   5.014   6.312 -0.1823 -0.6517 -0.0494
  168SAPE   HN118919   4.238   4.923   6.330  2.3109  0.6634  0.2834
  168SAPE   HN218920   4.243   5.094   6.354 -2.1936 -0.5453  2.3929
  168SAPE   HN318921   4.100   5.016   6.364 -0.0516 -0.4912  0.1751
  168SAPE   C1218922   4.187   5.054   6.163  0.6700 -0.4488 -0.3247
  168SAPE  H12A18923   4.113   5.137   6.157  1.4332  0.4434  2.1065
  168SAPE  H12B18924   4.154   4.962   6.110  1.8884 -1.4833  0.7042
  168SAPE   C1118925   4.334   5.090   6.115 -0.1090 -0.6109  0.8154
  168SAPE  H11A18926   4.336   5.120   6.008  1.4152  1.3577  1.3522
  168SAPE  H11B18927   4.395   4.999   6.131  0.8804 -0.3131 -1.1252
  168SAPE     P18928   4.493   5.296   6.128  0.1555  0.3217  0.0930
  168SAPE   O1318929   4.624   5.226   6.112 -0.1562 -0.3226  0.0833
  168SAPE   O1418930   4.442   5.358   6.003 -0.0800  0.0809 -0.2822
  168SAPE   O1218931   4.381   5.197   6.193 -0.3463 -0.4363 -0.1940
  168SAPE   O1118932   4.506   5.414   6.228  0.5047  0.2776 -0.4694
  168SAPE    C118933   4.407   5.462   6.314 -0.2447 -0.3777  0.3704
  168SAPE    HA18934   4.402   5.572   6.303 -0.1837 -0.5224 -1.2345
  168SAPE    HB18935   4.309   5.418   6.287 -0.8941  0.8384  0.7271
  168SAPE    C218936   4.444   5.428   6.461  0.0950  0.9652 -0.2902
  168SAPE    HS18937   4.486   5.327   6.477  1.0781  1.4291  0.0995
  168SAPE   O2118938   4.320   5.440   6.541 -0.0365  0.2971 -0.4194
  168SAPE   C2118939   4.236   5.337   6.529  0.5898 -0.6511 -0.3526
  168SAPE   O2218940   4.261   5.228   6.477 -0.0126  0.5473 -0.3543
  168SAPE   C2218941   4.102   5.358   6.599  0.3555  0.3210 -0.0905
  168SAPE   H2R18942   4.115   5.445   6.667  1.5737 -1.3160  1.8332
  168SAPE   H2S18943   4.016   5.362   6.529 -0.3820  0.9953  0.8289
  168SAPE    C318944   4.550   5.537   6.498  0.6003  0.1334  0.5862
  168SAPE    HX18945   4.502   5.636   6.479  0.7305  0.2368  0.8005
  168SAPE    HY18946   4.631   5.514   6.426 -0.6620 -1.0652 -0.4842
  168SAPE   O3118947   4.587   5.528   6.636 -0.4400 -0.7379  0.4736
  168SAPE   C3118948   4.693   5.458   6.650 -0.4977  0.1133  0.5574
  168SAPE   O3218949   4.750   5.388   6.563 -0.1307  0.1433 -0.3352
  168SAPE   C3218950   4.723   5.435   6.798 -0.3244  0.9978 -0.0471
  168SAPE   H2X18951   4.624   5.439   6.848 -0.3073 -1.4736  0.2466
  168SAPE   H2Y18952   4.788   5.510   6.848  0.0878  0.3148  0.4508
  168SAPE   C2318953   4.078   5.237   6.696 -0.5331 -0.5923 -0.2079
  168SAPE   H3R18954   4.160   5.217   6.769  0.7478  1.4657 -1.0187
  168SAPE   H3S18955   4.081   5.143   6.638  0.0761 -0.0537 -1.0710
  168SAPE   C2418956   3.935   5.260   6.766  0.5815  0.2150 -0.2280
  168SAPE   H4R18957   3.866   5.278   6.681  0.8032 -4.6588 -1.6027
  168SAPE   H4S18958   3.952   5.356   6.820 -0.6621  0.3827 -0.1271
  168SAPE   C2518959   3.886   5.153   6.860  0.3015  0.0519 -0.4408
  168SAPE   H5R18960   3.808   5.191   6.928 -0.8210  2.3227 -2.9180
  168SAPE   C2618961   3.923   5.024   6.884 -0.3226 -0.8880 -0.4221
  168SAPE   H6R18962   3.861   4.970   6.958  0.0571 -2.7273 -1.4234
  168SAPE   C2718963   4.022   4.936   6.817 -0.4457 -0.0597 -0.6657
  168SAPE   H7R18964   4.066   4.860   6.885  0.9677  0.8835 -0.5167
  168SAPE   H7S18965   4.113   4.982   6.773  0.6037 -0.9217  0.5520
  168SAPE   C2818966   3.954   4.863   6.704  0.2679  0.4253 -0.6926
  168SAPE   H8R18967   3.926   4.924   6.616  3.5484  1.1826 -1.2795
  168SAPE   C2918968   3.909   4.735   6.712 -0.5676  0.5437 -1.4298
  168SAPE   H9R18969   3.871   4.683   6.623 -0.6137 -0.3238 -0.9008
  168SAPE  C21018970   3.933   4.637   6.828 -0.6486 -0.6787  0.5925
  168SAPE  H10R18971   3.858   4.558   6.806 -1.5867  0.9135 -2.2512
  168SAPE  H10S18972   3.911   4.676   6.930  0.5375  0.1560  0.5338
  168SAPE  C21118973   4.068   4.571   6.822  0.3164  0.6243 -0.0313
  168SAPE  H11R18974   4.106   4.560   6.719  3.2697 -2.8975  1.3495
  168SAPE  C21218975   4.132   4.505   6.924 -0.6384  0.1891  0.0369
  168SAPE  H12R18976   4.226   4.453   6.901 -1.8793 -2.4542  0.7228
  168SAPE  C21318977   4.083   4.477   7.060 -0.0207  0.0759 -0.4182
  168SAPE  H13R18978   4.053   4.373   7.080 -1.6779  0.5212 -0.5331
  168SAPE  H13S18979   3.996   4.539   7.090 -0.0472 -0.1803  0.0230
  168SAPE  C21418980   4.193   4.496   7.160  0.2555 -0.2289 -0.2607
  168SAPE  H14R18981   4.270   4.565   7.122  0.8993 -0.8109 -0.0425
  168SAPE  C21518982   4.208   4.437   7.282  0.3417  0.1015  0.3441
  168SAPE  H15R18983   4.298   4.466   7.338 -1.2882  0.4507  2.8546
  168SAPE  C21618984   4.114   4.342   7.352 -0.0505  0.6896  0.0455
  168SAPE  H16R18985   4.173   4.251   7.375 -1.8845 -0.3538  0.7972
  168SAPE  H16S18986   4.028   4.315   7.286 -1.8346  1.1284  2.1458
  168SAPE  C21718987   4.054   4.403   7.474  0.7176 -0.1094  0.6237
  168SAPE  H17R18988   4.124   4.423   7.558  0.1753 -1.6743  1.4719
  168SAPE  H17S18989   3.984   4.330   7.520  1.5758 -2.0475 -1.0846
  168SAPE  C21818990   3.964   4.532   7.443  0.0665  0.2632 -0.0379
  168SAPE  H18R18991   3.867   4.507   7.394  0.2695  1.4624 -1.0712
  168SAPE  H18S18992   4.020   4.597   7.373 -0.0005  0.1208 -0.2242
  168SAPE  C21918993   3.927   4.614   7.569  0.3580  0.1529 -0.1559
  168SAPE  H19R18994   3.888   4.712   7.534  0.6674  0.9692  1.7341
  168SAPE  H19S18995   4.011   4.625   7.641  0.4286 -0.7555 -0.0956
  168SAPE  C22018996   3.812   4.549   7.654  0.3618  0.1849 -0.0338
  168SAPE  H20R18997   3.782   4.615   7.739 -2.5616 -1.6429  0.4005
  168SAPE  H20S18998   3.845   4.451   7.694 -2.1686 -0.9931 -0.8014
  168SAPE  H20T18999   3.723   4.535   7.590  0.9733  0.3889 -0.9466
  168SAPE   C3319000   4.766   5.289   6.823 -0.0028 -1.1443 -0.3016
  168SAPE   H3X19001   4.871   5.271   6.791 -0.1784 -1.3339 -0.7798
  168SAPE   H3Y19002   4.704   5.222   6.760 -1.3902  0.7429 -1.0243
  168SAPE   C3419003   4.738   5.226   6.956  0.5343 -0.1892  0.3888
  168SAPE   H4X19004   4.770   5.120   6.945  1.3809  0.1456 -0.4894
  168SAPE   H4Y19005   4.630   5.242   6.976  0.5569 -0.4534  0.7187
  168SAPE   C3519006   4.823   5.282   7.068 -0.4328 -0.1435 -0.1125
  168SAPE   H5X19007   4.823   5.393   7.069  0.2812 -0.1340  1.6398
  168SAPE   H5Y19008   4.926   5.242   7.058  0.1479  1.5091 -0.9497
  168SAPE   C3619009   4.779   5.243   7.204 -0.2631  0.3897 -0.4007
  168SAPE   H6X19010   4.680   5.280   7.238  1.2098  0.8550  3.5800
  168SAPE   H6Y19011   4.854   5.287   7.273 -0.9845 -0.4570  0.9453
  168SAPE   C3719012   4.779   5.088   7.226 -0.7561 -0.1766 -0.9238
  168SAPE   H7X19013   4.880   5.047   7.207 -0.0359 -0.1461  2.5776
  168SAPE   H7Y19014   4.707   5.049   7.150 -3.9867 -0.9350  2.3922
  168SAPE   C3819015   4.734   5.050   7.371 -0.4126  0.6899  0.4737
  168SAPE   H8X19016   4.804   5.095   7.444 -0.1642  0.8954  0.1133
  168SAPE   H8Y19017   4.753   4.941   7.385 -0.1477  0.7646  0.7119
  168SAPE   C3919018   4.592   5.084   7.424  0.3947 -1.0890  0.3186
  168SAPE   H9X19019   4.515   5.046   7.354  0.1953  2.3337 -1.4393
  168SAPE   H9Y19020   4.589   5.195   7.429  1.2075 -0.8359 -3.2068
  168SAPE  C31019021   4.583   5.022   7.564 -0.8440  0.1626 -0.1456
  168SAPE  H10X19022   4.678   5.060   7.608 -0.7408 -0.8459  0.4996
  168SAPE  H10Y19023   4.601   4.913   7.562  1.6031  0.5361  0.4144
  168SAPE  C31119024   4.454   5.067   7.646 -0.4083 -0.1693 -0.2784
  168SAPE  H11X19025   4.365   5.018   7.600 -0.2008 -1.4478  0.6376
  168SAPE  H11Y19026   4.458   5.177   7.630  1.0791 -0.4072 -1.6210
  168SAPE  C31219027   4.467   5.029   7.791 -0.2835 -0.2205  0.0287
  168SAPE  H12X19028   4.461   4.921   7.818  0.9213 -0.2999  0.0056
  168SAPE  H12Y19029   4.375   5.071   7.837 -0.8710  1.6032 -2.7096
  168SAPE  C31319030   4.593   5.099   7.858  0.0979 -0.6957 -0.0872
  168SAPE  H13X19031   4.614   5.188   7.794 -0.0808 -0.4035  0.2590
  168SAPE  H13Y19032   4.684   5.039   7.839  0.2911 -0.3304 -0.3189
  168SAPE  C31419033   4.576   5.141   8.005  0.1675  0.7911  0.2192
  168SAPE  H14X19034   4.511   5.229   8.027 -0.9744 -0.1460  0.6726
  168SAPE  H14Y19035   4.676   5.172   8.044 -1.3188  3.2262  2.2914
  168SAPE  C31519036   4.522   5.030   8.101 -0.8767  0.3369 -0.4897
  168SAPE  H15X19037   4.415   5.009   8.082 -0.7003  1.3557 -2.7790
  168SAPE  H15Y19038   4.535   5.059   8.208 -0.6241 -0.6774 -0.2443
  168SAPE  C31619039   4.599   4.892   8.086  0.6418 -0.5578  0.1668
  168SAPE  H16X19040   4.706   4.910   8.063  0.5385 -0.1485  0.0056
  168SAPE  H16Y19041   4.555   4.849   7.993 -1.2488  0.2015  0.6745
  168SAPE  C31719042   4.574   4.797   8.207  0.0099 -0.4553  1.0555
  168SAPE  H17X19043   4.578   4.692   8.172  1.3469 -0.6524  1.8029
  168SAPE  H17Y19044   4.472   4.804   8.253 -1.1941 -0.9647 -1.4689
  168SAPE  C31819045   4.667   4.805   8.324 -0.4033 -0.0488 -0.2619
  168SAPE  H18X19046   4.662   4.904   8.374  1.0589  0.5814 -1.3174
  168SAPE  H18Y19047   4.774   4.781   8.302 -0.0051 -0.0273  1.5336
  168SAPE  H18Z19048   4.637   4.731   8.402 -2.8345 -0.6126 -1.6906
  169SAPE     N19049   2.970   1.057   6.113  0.7014  0.7125 -0.1464
  169SAPE   HN119050   3.034   1.048   6.032  0.8128  0.0158  0.0107
  169SAPE   HN219051   2.920   1.148   6.117  0.7896  0.7041  1.7363
  169SAPE   HN319052   3.027   1.055   6.200 -0.2453 -1.7023  0.4865
  169SAPE   C1219053   2.864   0.951   6.102 -0.0763 -0.3212  0.5119
  169SAPE  H12A19054   2.923   0.857   6.116  3.9350  2.2511  1.5766
  169SAPE  H12B19055   2.825   0.961   5.999 -0.7438 -1.4621  0.6421
  169SAPE   C1119056   2.756   0.959   6.207 -0.6898 -0.0497  0.0588
  169SAPE  H11A19057   2.805   0.980   6.305  0.6160  1.1850 -0.8388
  169SAPE  H11B19058   2.717   0.856   6.199  2.7120 -1.4523  0.6439
  169SAPE     P19059   2.652   1.195   6.232 -0.3986 -0.2348 -0.1300
  169SAPE   O1319060   2.789   1.246   6.229 -0.2378 -0.1706 -0.4770
  169SAPE   O1419061   2.548   1.271   6.157  0.1961  0.7573 -0.0298
  169SAPE   O1219062   2.651   1.049   6.169  0.5014 -0.4388 -0.4396
  169SAPE   O1119063   2.617   1.172   6.387  0.2052  0.8964  0.0517
  169SAPE    C119064   2.521   1.074   6.432 -0.3287  0.4308 -0.3512
  169SAPE    HA19065   2.417   1.109   6.411  0.8508  4.1985 -0.3725
  169SAPE    HB19066   2.524   0.976   6.380 -1.3119 -0.9296  2.0811
  169SAPE    C219067   2.526   1.059   6.586 -0.8176 -0.1805 -0.5248
  169SAPE    HS19068   2.430   1.012   6.619 -1.0868  0.8991  0.2821
  169SAPE   O2119069   2.548   1.189   6.640 -0.3214 -0.5066  0.5532
  169SAPE   C2119070   2.447   1.271   6.629 -0.2978  0.1727  0.3296
  169SAPE   O2219071   2.331   1.240   6.608 -0.0665 -0.0831 -0.9296
  169SAPE   C2219072   2.495   1.411   6.662  0.1869  0.5108 -0.3237
  169SAPE   H2R19073   2.562   1.452   6.583 -0.5912  0.0534 -1.2465
  169SAPE   H2S19074   2.399   1.468   6.660  1.3390  2.4808 -0.0590
  169SAPE    C319075   2.637   0.963   6.623 -0.4097  0.5196  0.2810
  169SAPE    HX19076   2.737   1.012   6.624 -0.3862  0.4731  0.2001
  169SAPE    HY19077   2.645   0.889   6.541  0.2435  2.3123 -1.3288
  169SAPE   O3119078   2.618   0.907   6.758 -0.0504 -0.3227 -0.0606
  169SAPE   C3119079   2.606   0.779   6.769  0.2456  0.7330  0.0164
  169SAPE   O3219080   2.592   0.700   6.674 -0.3226 -1.0810 -0.2328
  169SAPE   C3219081   2.621   0.727   6.916 -0.5937  0.2251  0.2368
  169SAPE   H2X19082   2.642   0.618   6.921  0.2744  0.3269 -0.8985
  169SAPE   H2Y19083   2.531   0.749   6.977 -2.0838  0.9244 -2.1374
  169SAPE   C2319084   2.550   1.429   6.806  1.1044  0.2223 -0.5348
  169SAPE   H3R19085   2.614   1.519   6.818  1.2954  0.1625 -1.0888
  169SAPE   H3S19086   2.630   1.352   6.813 -2.2278 -3.2448  1.3729
  169SAPE   C2419087   2.442   1.418   6.914  0.9346  0.1729  0.3199
  169SAPE   H4R19088   2.380   1.326   6.909  1.5877 -0.2453 -0.0701
  169SAPE   H4S19089   2.366   1.497   6.898  2.9715  1.7856 -1.6904
  169SAPE   C2519090   2.496   1.427   7.054  0.2908 -0.2249  0.3132
  169SAPE   H5R19091   2.603   1.401   7.056  0.6235  1.1126  0.1233
  169SAPE   C2619092   2.436   1.455   7.174 -0.3877 -0.2466 -0.6427
  169SAPE   H6R19093   2.501   1.454   7.262  2.1278 -0.6749 -2.4469
  169SAPE   C2719094   2.293   1.496   7.188 -0.3683 -0.0857 -0.4407
  169SAPE   H7R19095   2.224   1.416   7.222 -0.0553 -0.2614 -0.2098
  169SAPE   H7S19096   2.255   1.539   7.093  0.1395  1.8304  0.1974
  169SAPE   C2819097   2.301   1.613   7.279  0.4453 -0.3795  0.2807
  169SAPE   H8R19098   2.347   1.706   7.244  0.1853  0.3443  1.7904
  169SAPE   C2919099   2.256   1.617   7.404  0.4607  0.5674  0.5314
  169SAPE   H9R19100   2.262   1.718   7.448 -0.9479  1.0109 -0.2416
  169SAPE  C21019101   2.188   1.508   7.482  0.1936  0.5713 -0.1026
  169SAPE  H10R19102   2.218   1.516   7.589 -1.0054  2.3719  0.1151
  169SAPE  H10S19103   2.228   1.410   7.447 -1.2684 -0.0305 -0.1399
  169SAPE  C21119104   2.043   1.524   7.458 -0.3010 -0.4425  0.4683
  169SAPE  H11R19105   2.011   1.554   7.358  0.8031 -0.5979  0.0653
  169SAPE  C21219106   1.955   1.503   7.559  0.4573 -0.3942 -0.4927
  169SAPE  H12R19107   1.847   1.520   7.548  0.4846 -0.3477 -0.6788
  169SAPE  C21319108   1.998   1.453   7.700 -0.3256 -0.7227  0.9825
  169SAPE  H13R19109   2.029   1.541   7.762 -3.0292 -0.0300  1.4198
  169SAPE  H13S19110   2.084   1.384   7.695 -0.3889 -0.6825 -1.0299
  169SAPE  C21419111   1.872   1.384   7.759 -0.4862  0.3638  0.0563
  169SAPE  H14R19112   1.819   1.306   7.702 -0.4676  0.3120  0.1107
  169SAPE  C21519113   1.812   1.410   7.874  0.3750 -0.1065 -0.5442
  169SAPE  H15R19114   1.718   1.358   7.897  0.1511  0.5552  0.0762
  169SAPE  C21619115   1.853   1.512   7.982  0.5363  0.2590  0.8151
  169SAPE  H16R19116   1.772   1.587   7.989  0.2185  0.2690 -2.5767
  169SAPE  H16S19117   1.938   1.574   7.949 -0.1186  1.5623  1.5361
  169SAPE  C21719118   1.870   1.455   8.126  0.2395  0.0194 -0.3979
  169SAPE  H17R19119   1.894   1.546   8.184  0.6289 -0.9206  0.9294
  169SAPE  H17S19120   1.958   1.388   8.117 -1.3250 -1.8908 -1.8375
  169SAPE  C21819121   1.750   1.364   8.174 -0.7831 -0.0701 -0.2947
  169SAPE  H18R19122   1.731   1.291   8.092 -1.3355  0.8563 -0.9932
  169SAPE  H18S19123   1.657   1.422   8.192 -2.2483 -2.0611 -1.1824
  169SAPE  C21919124   1.787   1.288   8.299  0.0079  0.0518  0.2064
  169SAPE  H19R19125   1.881   1.231   8.284 -0.2688 -1.6035  4.3414
  169SAPE  H19S19126   1.705   1.215   8.313 -0.8512  0.8400 -0.5862
  169SAPE  C22019127   1.794   1.389   8.415 -0.4152 -0.5592  0.8896
  169SAPE  H20R19128   1.700   1.443   8.440 -0.3174  0.4902 -0.9150
  169SAPE  H20S19129   1.870   1.468   8.396  0.4562 -1.3001  1.2385
  169SAPE  H20T19130   1.817   1.330   8.506 -0.8841 -1.8398  0.1836
  169SAPE   C3319131   2.745   0.793   6.985  0.1619  0.0410 -0.1050
  169SAPE   H3X19132   2.725   0.900   7.008  0.0336 -0.4012  1.9297
  169SAPE   H3Y19133   2.840   0.799   6.928  1.2128 -0.2029  1.5921
  169SAPE   C3419134   2.781   0.708   7.112 -0.6166  0.1585  0.1673
  169SAPE   H4X19135   2.853   0.774   7.166  1.8597 -3.1024  1.0395
  169SAPE   H4Y19136   2.827   0.609   7.090  1.6094  1.7017 -2.4514
  169SAPE   C3519137   2.663   0.677   7.207  0.1092  0.6815  0.4187
  169SAPE   H5X19138   2.607   0.590   7.165 -1.5358  2.9569 -2.3373
  169SAPE   H5Y19139   2.586   0.758   7.204  0.1122  0.6964  0.7714
  169SAPE   C3619140   2.704   0.647   7.357  0.1386 -0.4382 -0.4448
  169SAPE   H6X19141   2.793   0.703   7.393  0.7750 -1.1657 -0.8608
  169SAPE   H6Y19142   2.746   0.546   7.337  0.9077  0.4286 -3.5233
  169SAPE   C3719143   2.584   0.665   7.457 -1.0844 -0.0270 -0.1714
  169SAPE   H7X19144   2.501   0.603   7.419 -1.0775 -0.7525  0.9639
  169SAPE   H7Y19145   2.551   0.771   7.451 -1.9900 -0.2953  0.0393
  169SAPE   C3819146   2.631   0.628   7.599 -0.0869 -0.0727  0.3122
  169SAPE   H8X19147   2.721   0.689   7.623 -0.1656  0.9378 -1.8286
  169SAPE   H8Y19148   2.661   0.521   7.609  0.6952 -0.1635 -2.6278
  169SAPE   C3919149   2.516   0.660   7.700  0.5094 -0.3097 -0.4637
  169SAPE   H9X19150   2.448   0.573   7.685 -1.0925  1.2223 -2.5574
  169SAPE   H9Y19151   2.452   0.748   7.676 -0.7931 -1.5313 -1.6002
  169SAPE  C31019152   2.555   0.661   7.851 -0.1599  0.4618 -0.2463
  169SAPE  H10X19153   2.638   0.588   7.864  0.7623  1.3581 -0.9325
  169SAPE  H10Y19154   2.466   0.622   7.903  0.7525  1.1456  1.8706
  169SAPE  C31119155   2.595   0.795   7.897  0.3255 -0.1852 -0.0009
  169SAPE  H11X19156   2.540   0.878   7.849 -0.0019 -0.0325  0.6280
  169SAPE  H11Y19157   2.705   0.810   7.884  0.2579 -0.7239 -1.3036
  169SAPE  C31219158   2.568   0.806   8.043 -0.4576 -0.4489  0.1180
  169SAPE  H12X19159   2.630   0.745   8.112 -2.4608 -0.3514  2.0999
  169SAPE  H12Y19160   2.458   0.795   8.051 -0.7058  0.3354 -1.8793
  169SAPE  C31319161   2.593   0.955   8.095 -0.4556  0.6060 -0.3221
  169SAPE  H13X19162   2.512   1.021   8.058 -1.4560  1.1350  2.6976
  169SAPE  H13Y19163   2.694   0.983   8.057  0.4767  1.1754  2.4648
  169SAPE  C31419164   2.591   0.960   8.252 -0.5681 -0.6276  0.0945
  169SAPE  H14X19165   2.668   0.896   8.300  1.6411  0.7520 -1.5304
  169SAPE  H14Y19166   2.496   0.919   8.293  0.8809 -3.0307  1.1164
  169SAPE  C31519167   2.603   1.108   8.299  0.6582  0.0470 -0.2387
  169SAPE  H15X19168   2.529   1.170   8.244  1.8602 -0.8006 -2.9031
  169SAPE  H15Y19169   2.697   1.148   8.256  0.3495  0.5530 -0.4430
  169SAPE  C31619170   2.586   1.127   8.453  0.1944  0.1388  1.2008
  169SAPE  H16X19171   2.674   1.085   8.507  0.1147  0.3971  1.5323
  169SAPE  H16Y19172   2.503   1.071   8.500 -1.1695  1.5880  0.5463
  169SAPE  C31719173   2.573   1.274   8.497 -0.5453  0.3505 -0.1678
  169SAPE  H17X19174   2.556   1.275   8.607 -3.2148  1.7774 -0.5488
  169SAPE  H17Y19175   2.480   1.315   8.452 -1.0529 -0.5345  0.0549
  169SAPE  C31819176   2.689   1.368   8.469 -0.9652  0.2550  0.1320
  169SAPE  H18X19177   2.779   1.349   8.532  0.2104  3.4602 -0.4671
  169SAPE  H18Y19178   2.658   1.470   8.501  1.1041  0.2612  2.2824
  169SAPE  H18Z19179   2.721   1.381   8.364 -0.3473  2.1420  0.5316
  170SAPE     N19180   4.926   4.741   6.320 -0.4189  0.2412 -0.2890
  170SAPE   HN119181   5.029   4.741   6.305 -0.0375  1.0072  2.1019
  170SAPE   HN219182   4.914   4.747   6.423 -0.8054  1.5163 -0.4089
  170SAPE   HN319183   4.899   4.648   6.282 -0.5171 -0.2711  1.0024
  170SAPE   C1219184   4.864   4.861   6.260 -0.4875 -0.1205 -0.5803
  170SAPE  H12A19185   4.860   4.845   6.150  0.9257 -0.7513 -0.5413
  170SAPE  H12B19186   4.924   4.953   6.275 -1.9829  0.7246  0.3937
  170SAPE   C1119187   4.721   4.882   6.320  0.0278  0.6587  0.4041
  170SAPE  H11A19188   4.674   4.966   6.265 -1.0364  1.0503  1.8523
  170SAPE  H11B19189   4.741   4.912   6.426 -2.6482 -0.0150  1.1536
  170SAPE     P19190   4.592   4.697   6.184  0.1684 -0.4695 -0.3298
  170SAPE   O1319191   4.597   4.803   6.079  0.1047 -0.4993 -0.9587
  170SAPE   O1419192   4.660   4.573   6.155 -0.8701 -0.1204 -0.1568
  170SAPE   O1219193   4.643   4.758   6.318 -0.3942  0.1199 -0.1149
  170SAPE   O1119194   4.443   4.666   6.210 -0.3842 -0.3217  0.1392
  170SAPE    C119195   4.396   4.537   6.251 -0.6609 -0.1830 -0.2583
  170SAPE    HA19196   4.344   4.479   6.171 -0.4544 -0.9398  0.1528
  170SAPE    HB19197   4.477   4.470   6.284 -0.9293 -1.5952 -2.3371
  170SAPE    C219198   4.289   4.536   6.366  0.4163  0.4080 -0.1841
  170SAPE    HS19199   4.192   4.579   6.332  0.6940  0.2897 -1.1373
  170SAPE   O2119200   4.348   4.606   6.474  0.0773 -0.2123 -0.5542
  170SAPE   C2119201   4.310   4.734   6.494  0.7843  0.4690 -0.5608
  170SAPE   O2219202   4.223   4.788   6.428  0.4996 -0.2644 -0.7493
  170SAPE   C2219203   4.395   4.794   6.598  0.2128  0.2188  0.3154
  170SAPE   H2R19204   4.370   4.756   6.699  2.7667  0.7073  1.1574
  170SAPE   H2S19205   4.499   4.757   6.588  0.1088  0.0875 -0.3165
  170SAPE    C319206   4.253   4.396   6.406  0.0237  0.3030 -0.3202
  170SAPE    HX19207   4.344   4.344   6.444 -1.5086 -2.3862 -0.1756
  170SAPE    HY19208   4.234   4.347   6.308  1.7061 -0.0485 -0.4798
  170SAPE   O3119209   4.149   4.383   6.506 -0.2420  0.4393 -0.0178
  170SAPE   C3119210   4.052   4.291   6.489  0.2025  0.0220 -0.1788
  170SAPE   O3219211   4.063   4.199   6.408  0.3816 -0.0416 -0.3737
  170SAPE   C3219212   3.934   4.307   6.583 -0.5632  0.1697  0.3233
  170SAPE   H2X19213   3.852   4.264   6.522 -1.4386 -0.3842  1.8597
  170SAPE   H2Y19214   3.922   4.417   6.593  0.7371  0.4056 -0.6076
  170SAPE   C2319215   4.376   4.951   6.607  0.2465  0.3451 -0.1868
  170SAPE   H3R19216   4.269   4.981   6.608 -0.0870 -0.8354 -0.0494
  170SAPE   H3S19217   4.413   5.001   6.515  1.7852  0.8144  0.6518
  170SAPE   C2419218   4.439   5.009   6.729  0.1529 -0.7351 -0.5074
  170SAPE   H4R19219   4.397   4.964   6.821 -3.0529  1.4314 -0.8317
  170SAPE   H4S19220   4.417   5.118   6.735  1.2500 -0.5478  0.3404
  170SAPE   C2519221   4.590   4.978   6.734 -0.1227  0.4089  0.4775
  170SAPE   H5R19222   4.646   5.031   6.655  0.0759  0.1674  0.4569
  170SAPE   C2619223   4.655   4.885   6.813 -0.4955  0.3377  0.3510
  170SAPE   H6R19224   4.765   4.885   6.815 -0.4848 -0.3720 -0.0038
  170SAPE   C2719225   4.607   4.797   6.920  0.6974 -0.9422  0.1473
  170SAPE   H7R19226   4.498   4.813   6.930  1.0315  1.4452  0.3121
  170SAPE   H7S19227   4.654   4.824   7.017  0.0708  2.8498 -0.5311
  170SAPE   C2819228   4.643   4.651   6.902  0.2297  0.0228 -0.4467
  170SAPE   H8R19229   4.646   4.611   6.799 -0.9468  0.6481 -0.7238
  170SAPE   C2919230   4.666   4.568   7.008  0.1637 -0.1477 -0.6210
  170SAPE   H9R19231   4.707   4.468   6.988  1.9901  0.2817  0.7841
  170SAPE  C21019232   4.670   4.595   7.154 -0.2613  0.0224  0.0066
  170SAPE  H10R19233   4.633   4.697   7.180  2.5178  0.5989  1.9157
  170SAPE  H10S19234   4.769   4.602   7.204 -1.3153  0.0699  2.1458
  170SAPE  C21119235   4.593   4.503   7.246 -0.3021 -0.2727 -0.6978
  170SAPE  H11R19236   4.547   4.418   7.193 -1.8814  0.7071 -0.9342
  170SAPE  C21219237   4.578   4.522   7.380 -0.0839  0.1453 -0.6878
  170SAPE  H12R19238   4.507   4.458   7.433 -0.2973  0.6786 -0.3246
  170SAPE  C21319239   4.622   4.644   7.472  0.0810 -0.1266 -0.0568
  170SAPE  H13R19240   4.543   4.689   7.536  0.3040  2.2048 -1.3762
  170SAPE  H13S19241   4.648   4.731   7.408  1.2078 -0.9786 -0.7938
  170SAPE  C21419242   4.746   4.622   7.547  0.1844 -0.4823 -0.4838
  170SAPE  H14R19243   4.840   4.649   7.498 -0.2190  0.7931 -0.5789
  170SAPE  C21519244   4.744   4.556   7.658  0.7280  0.6781  1.1948
  170SAPE  H15R19245   4.835   4.555   7.720  0.8365  1.5221  1.0534
  170SAPE  C21619246   4.623   4.498   7.730  0.2687 -0.3693  0.9439
  170SAPE  H16R19247   4.657   4.403   7.776  2.1245 -0.5711 -0.7567
  170SAPE  H16S19248   4.547   4.463   7.657 -0.6665 -2.8940  3.0615
  170SAPE  C21719249   4.557   4.592   7.834 -0.0375 -0.5580 -0.2418
  170SAPE  H17R19250   4.531   4.686   7.782  2.5369  0.7830  0.8162
  170SAPE  H17S19251   4.631   4.610   7.915  0.6421  0.4415 -1.0746
  170SAPE  C21819252   4.426   4.522   7.885  0.1724 -0.1637  0.1439
  170SAPE  H18R19253   4.426   4.515   7.996 -0.6652 -1.1034  0.0969
  170SAPE  H18S19254   4.429   4.418   7.845  1.6084  0.2221 -0.7870
  170SAPE  C21919255   4.293   4.574   7.818 -0.6514 -0.2223 -0.0396
  170SAPE  H19R19256   4.221   4.491   7.836  1.0824 -1.5448  1.0241
  170SAPE  H19S19257   4.317   4.585   7.710  0.2104 -2.8732 -0.1726
  170SAPE  C22019258   4.247   4.706   7.888  0.5898 -0.0454  0.6336
  170SAPE  H20R19259   4.335   4.774   7.893  0.2025  0.4184  1.1584
  170SAPE  H20S19260   4.222   4.691   7.995 -1.0196  1.3224  0.4529
  170SAPE  H20T19261   4.171   4.745   7.818 -0.5325 -1.0259  1.2840
  170SAPE   C3319262   3.947   4.234   6.714 -0.9404 -0.9184  0.3237
  170SAPE   H3X19263   4.006   4.300   6.781 -1.0916  1.0772 -1.4994
  170SAPE   H3Y19264   3.977   4.128   6.697 -2.0787 -1.4471  1.4275
  170SAPE   C3419265   3.816   4.216   6.797 -0.6640 -0.2337  0.2098
  170SAPE   H4X19266   3.760   4.133   6.750  2.3809 -2.3538  0.2027
  170SAPE   H4Y19267   3.755   4.306   6.776  0.6034  0.8180  0.9092
  170SAPE   C3519268   3.846   4.175   6.944  0.1611 -0.0260  0.0913
  170SAPE   H5X19269   3.914   4.246   6.995 -0.1739  0.6350 -0.3677
  170SAPE   H5Y19270   3.899   4.078   6.936  1.9507  0.7977  1.6814
  170SAPE   C3619271   3.712   4.166   7.021 -0.3542 -0.1984  0.2358
  170SAPE   H6X19272   3.654   4.083   6.974  0.6600 -0.8670  0.1463
  170SAPE   H6Y19273   3.653   4.259   7.012 -0.6985 -0.5764 -1.6036
  170SAPE   C3719274   3.748   4.127   7.167  0.7552  0.1300 -0.6589
  170SAPE   H7X19275   3.857   4.118   7.187  1.1429  1.1748 -2.2042
  170SAPE   H7Y19276   3.689   4.038   7.197  2.9901 -1.2738 -0.2847
  170SAPE   C3819277   3.704   4.241   7.261 -0.1054 -0.1544  1.3777
  170SAPE   H8X19278   3.607   4.281   7.225  1.4614  0.4496 -2.3701
  170SAPE   H8Y19279   3.778   4.324   7.266  0.3347 -0.5839  2.1659
  170SAPE   C3919280   3.665   4.171   7.395 -0.1123  0.3111  0.6527
  170SAPE   H9X19281   3.757   4.122   7.435 -0.2450 -1.2516 -0.9325
  170SAPE   H9Y19282   3.591   4.090   7.382 -0.5300  0.7158  0.5077
  170SAPE  C31019283   3.608   4.256   7.502  0.0030 -0.5063 -0.5985
  170SAPE  H10X19284   3.511   4.302   7.473  0.9964  0.2969 -2.6896
  170SAPE  H10Y19285   3.678   4.334   7.538 -0.8448 -0.1594  0.3323
  170SAPE  C31119286   3.578   4.155   7.620 -0.1111  0.5668 -0.1322
  170SAPE  H11X19287   3.665   4.089   7.640  0.0400  1.3303  1.8209
  170SAPE  H11Y19288   3.488   4.091   7.607 -0.2760  0.4053  1.6353
  170SAPE  C31219289   3.558   4.234   7.762  0.2389 -0.1552 -0.4715
  170SAPE  H12X19290   3.490   4.321   7.766 -1.5188 -1.5027 -0.2883
  170SAPE  H12Y19291   3.658   4.272   7.789 -0.7283  2.7922 -0.9263
  170SAPE  C31319292   3.512   4.144   7.877  0.5170 -0.0512  0.6878
  170SAPE  H13X19293   3.581   4.058   7.883  0.6836  0.0781  0.6286
  170SAPE  H13Y19294   3.410   4.105   7.855  1.4634 -1.4403 -1.3271
  170SAPE  C31419295   3.504   4.224   8.010  0.4462 -0.3433 -0.5228
  170SAPE  H14X19296   3.439   4.313   8.003 -2.6333 -2.4726 -0.0811
  170SAPE  H14Y19297   3.609   4.250   8.035  0.5136 -2.1778  1.2255
  170SAPE  C31519298   3.438   4.156   8.137 -1.2211  0.4222  0.7685
  170SAPE  H15X19299   3.475   4.053   8.157  0.8396  1.4846  2.6598
  170SAPE  H15Y19300   3.328   4.152   8.127 -1.1214  0.7216 -0.5712
  170SAPE  C31619301   3.479   4.246   8.259 -0.4833  0.1067  0.1713
  170SAPE  H16X19302   3.458   4.348   8.220 -2.3731 -0.2343  0.2291
  170SAPE  H16Y19303   3.586   4.232   8.285 -1.8489 -2.3096  5.2423
  170SAPE  C31719304   3.390   4.236   8.373  0.2712  0.6314 -0.5301
  170SAPE  H17X19305   3.398   4.132   8.411  0.1136  0.4540 -0.9702
  170SAPE  H17Y19306   3.285   4.240   8.336  0.2537  0.8111 -0.4591
  170SAPE  C31819307   3.404   4.324   8.497  0.0601 -0.1451 -0.0869
  170SAPE  H18X19308   3.374   4.429   8.478  1.4435 -0.0450 -1.9239
  170SAPE  H18Y19309   3.509   4.322   8.532 -0.3434 -0.9736  1.1235
  170SAPE  H18Z19310   3.346   4.288   8.584 -0.7728  0.4308 -0.4006
  171SAPE     N19311   5.415   5.538   6.323  0.3694 -0.0231 -0.0256
  171SAPE   HN119312   5.469   5.610   6.375  1.0313 -1.8009  1.7873
  171SAPE   HN219313   5.488   5.488   6.268 -0.9484 -2.6890  0.5422
  171SAPE   HN319314   5.352   5.578   6.250 -0.5461  0.1798  0.8602
  171SAPE   C1219315   5.359   5.429   6.418  0.0582  0.1489  0.4511
  171SAPE  H12A19316   5.303   5.363   6.349 -0.7250  0.6669  0.5865
  171SAPE  H12B19317   5.302   5.476   6.502 -1.5080  0.2857 -0.6631
  171SAPE   C1119318   5.469   5.343   6.486  0.4709 -0.0177  0.1557
  171SAPE  H11A19319   5.410   5.295   6.567  1.8523 -1.6157  0.2508
  171SAPE  H11B19320   5.541   5.412   6.536  0.9915  0.6372 -1.4734
  171SAPE     P19321   5.652   5.271   6.325  0.0427  0.3783  0.1169
  171SAPE   O1319322   5.673   5.163   6.235  0.5701 -0.4477 -0.6800
  171SAPE   O1419323   5.639   5.403   6.262 -0.3201  0.2961  0.1937
  171SAPE   O1219324   5.518   5.243   6.405 -0.4082  1.0301  0.1564
  171SAPE   O1119325   5.762   5.274   6.436 -0.2828  0.7089 -0.5381
  171SAPE    C119326   5.808   5.153   6.506 -0.0591 -0.0352  0.3481
  171SAPE    HA19327   5.785   5.056   6.458  3.2060  0.8104 -3.2142
  171SAPE    HB19328   5.919   5.157   6.500 -0.1610  0.4004 -1.9856
  171SAPE    C219329   5.759   5.143   6.653  0.7056 -0.8086 -0.3814
  171SAPE    HS19330   5.654   5.108   6.646  0.7106 -0.6011 -1.4445
  171SAPE   O2119331   5.774   5.271   6.710 -0.4839  0.0257 -0.1575
  171SAPE   C2119332   5.675   5.313   6.785 -0.4773  0.3967  0.9330
  171SAPE   O2219333   5.581   5.246   6.828  0.0297  0.1754  0.3457
  171SAPE   C2219334   5.702   5.465   6.806  0.1537  0.6512 -0.2454
  171SAPE   H2R19335   5.771   5.493   6.725  0.6744 -2.2020 -0.8322
  171SAPE   H2S19336   5.604   5.515   6.790  0.1512  1.4519  2.0032
  171SAPE    C319337   5.838   5.032   6.736 -0.1203 -0.2439 -0.2447
  171SAPE    HX19338   5.944   5.062   6.722  0.2872 -1.2979  0.5606
  171SAPE    HY19339   5.821   4.930   6.697  1.6734 -0.7495  0.2335
  171SAPE   O3119340   5.813   5.040   6.876  0.8603  0.1728 -0.2224
  171SAPE   C3119341   5.699   4.964   6.914 -0.4193  0.1694  0.0409
  171SAPE   O3219342   5.638   4.893   6.831 -0.5214  0.7455  0.0531
  171SAPE   C3219343   5.672   4.981   7.062  0.1634 -1.3884  0.5110
  171SAPE   H2X19344   5.622   5.078   7.081 -0.6752 -1.4719 -1.1817
  171SAPE   H2Y19345   5.773   4.980   7.107 -0.5300 -0.9820  2.1097
  171SAPE   C2319346   5.768   5.489   6.944 -0.0335  0.2220  0.2651
  171SAPE   H3R19347   5.840   5.574   6.940  0.0382  0.1223 -0.6485
  171SAPE   H3S19348   5.815   5.393   6.974  1.3400  1.2098  1.3334
  171SAPE   C2419349   5.666   5.529   7.052  0.1978 -0.6983 -0.2614
  171SAPE   H4R19350   5.600   5.441   7.067 -0.3502 -0.2515 -0.0400
  171SAPE   H4S19351   5.602   5.606   7.004  1.6821  1.4195  1.0369
  171SAPE   C2519352   5.709   5.583   7.184 -0.5299  1.3626 -0.2161
  171SAPE   H5R19353   5.788   5.523   7.233 -0.1932  1.1945 -0.9639
  171SAPE   C2619354   5.687   5.708   7.228  0.6696  0.9327  0.2422
  171SAPE   H6R19355   5.724   5.725   7.330  0.4878 -1.5659  0.7480
  171SAPE   C2719356   5.604   5.818   7.164  0.4218 -0.0623  0.2468
  171SAPE   H7R19357   5.520   5.764   7.115 -1.6662  1.5228  2.0290
  171SAPE   H7S19358   5.674   5.844   7.082  0.8725  1.1178  1.0004
  171SAPE   C2819359   5.548   5.944   7.229 -0.6745  0.0345  0.7561
  171SAPE   H8R19360   5.600   6.035   7.195  0.0585 -0.8539 -0.5976
  171SAPE   C2919361   5.437   5.956   7.302  0.1641 -0.1468  0.1938
  171SAPE   H9R19362   5.411   6.053   7.347 -0.9059 -1.0448  1.5670
  171SAPE  C21019363   5.336   5.844   7.339 -0.1427 -0.7952 -0.0936
  171SAPE  H10R19364   5.381   5.743   7.333 -0.1206 -0.8127  0.3596
  171SAPE  H10S19365   5.249   5.849   7.269 -0.7400  2.2428  0.7565
  171SAPE  C21119366   5.285   5.883   7.477 -0.4165  0.6179 -0.2718
  171SAPE  H11R19367   5.211   5.964   7.477 -2.9203 -1.6020  0.5811
  171SAPE  C21219368   5.290   5.820   7.595 -0.4879 -0.5213 -0.0242
  171SAPE  H12R19369   5.257   5.863   7.691  4.0859 -0.8568  1.8266
  171SAPE  C21319370   5.362   5.687   7.629  0.5108 -0.3392  0.4135
  171SAPE  H13R19371   5.437   5.670   7.549 -0.2488  1.9346 -0.8237
  171SAPE  H13S19372   5.277   5.615   7.627  0.5541 -0.3804  0.0776
  171SAPE  C21419373   5.439   5.690   7.761 -0.1652  0.2114  0.2842
  171SAPE  H14R19374   5.545   5.719   7.753  0.2635 -1.5083 -0.3893
  171SAPE  C21519375   5.390   5.679   7.886  1.1803  0.2226  0.0596
  171SAPE  H15R19376   5.456   5.684   7.975 -0.6417 -0.6515  1.4915
  171SAPE  C21619377   5.245   5.662   7.919 -0.0717 -0.5912 -0.0773
  171SAPE  H16R19378   5.226   5.554   7.936 -1.1592 -0.2248  1.0608
  171SAPE  H16S19379   5.189   5.699   7.831  1.3116  2.2975  0.1924
  171SAPE  C21719380   5.203   5.746   8.049  0.5879 -0.1257 -0.4185
  171SAPE  H17R19381   5.265   5.702   8.130 -0.0754  0.7494  0.5793
  171SAPE  H17S19382   5.098   5.731   8.083  0.7933 -0.9181 -0.1126
  171SAPE  C21819383   5.243   5.894   8.049 -0.6382 -0.1733  0.2674
  171SAPE  H18R19384   5.204   5.950   7.962  0.7161 -0.6500 -0.6682
  171SAPE  H18S19385   5.351   5.918   8.037 -0.3021 -0.4263  2.4454
  171SAPE  C21919386   5.187   5.980   8.166  0.1533  0.6396  0.7675
  171SAPE  H19R19387   5.077   5.988   8.149  0.2713  2.2760  0.7363
  171SAPE  H19S19388   5.221   6.085   8.158 -0.1437  0.7744  1.2070
  171SAPE  C22019389   5.208   5.918   8.298  0.2305 -0.4439  0.1464
  171SAPE  H20R19390   5.317   5.913   8.321  0.8234  1.3965 -2.1086
  171SAPE  H20S19391   5.169   5.814   8.304 -1.5734  0.2508  0.8586
  171SAPE  H20T19392   5.170   5.968   8.389  2.3840 -0.6870  1.2200
  171SAPE   C3319393   5.571   4.874   7.117 -0.1588  0.4754 -0.2139
  171SAPE   H3X19394   5.595   4.779   7.065 -0.5797 -0.0530  0.5312
  171SAPE   H3Y19395   5.468   4.893   7.079 -0.2023  0.8860  0.1081
  171SAPE   C3419396   5.591   4.851   7.262 -0.3052  0.5023 -0.1774
  171SAPE   H4X19397   5.696   4.817   7.272  0.4835  2.9291  0.1518
  171SAPE   H4Y19398   5.525   4.771   7.301 -0.0163 -0.8707 -2.4489
  171SAPE   C3519399   5.565   4.976   7.357 -0.2709 -0.5895  0.3942
  171SAPE   H5X19400   5.459   5.006   7.349  0.2449  1.5877  1.4100
  171SAPE   H5Y19401   5.631   5.060   7.328 -1.2407  0.0871  0.1184
  171SAPE   C3619402   5.598   4.949   7.506 -0.0980 -0.1780  0.3830
  171SAPE   H6X19403   5.526   4.870   7.536 -1.4217  0.5289 -0.8944
  171SAPE   H6Y19404   5.570   5.036   7.569 -0.5571  1.6482 -2.2625
  171SAPE   C3719405   5.740   4.904   7.539  0.1614  0.0874  0.1070
  171SAPE   H7X19406   5.810   4.945   7.463  0.2116 -1.3468 -0.6441
  171SAPE   H7Y19407   5.755   4.794   7.540 -0.5259 -0.0106  2.4063
  171SAPE   C3819408   5.785   4.964   7.674 -0.1222 -0.0567 -0.1682
  171SAPE   H8X19409   5.769   5.073   7.665  0.9618  0.1919  0.7740
  171SAPE   H8Y19410   5.895   4.952   7.677 -0.2329 -1.2391 -0.4941
  171SAPE   C3919411   5.713   4.909   7.794  0.1618  0.1185 -0.0496
  171SAPE   H9X19412   5.722   4.799   7.792  0.4757  0.1189  1.2881
  171SAPE   H9Y19413   5.604   4.926   7.782  0.2974  0.5807 -0.6653
  171SAPE  C31019414   5.751   4.980   7.925  0.6073 -0.1027 -0.3408
  171SAPE  H10X19415   5.711   5.081   7.947 -0.9196 -0.5731 -0.9455
  171SAPE  H10Y19416   5.861   4.990   7.912  0.5679  0.8203  0.0215
  171SAPE  C31119417   5.721   4.891   8.050 -0.1925  0.2424  0.2369
  171SAPE  H11X19418   5.765   4.790   8.035  0.3090  0.9290 -3.4101
  171SAPE  H11Y19419   5.610   4.888   8.056 -0.1644 -0.5564  0.4404
  171SAPE  C31219420   5.789   4.952   8.180 -0.1161 -1.0249 -0.7519
  171SAPE  H12X19421   5.752   5.053   8.204  0.4113 -0.8614 -0.6159
  171SAPE  H12Y19422   5.899   4.959   8.165 -0.2138  2.0445 -0.2103
  171SAPE  C31319423   5.766   4.856   8.287 -0.5608 -0.2302 -0.3688
  171SAPE  H13X19424   5.814   4.759   8.262  2.1624  0.4901  1.7736
  171SAPE  H13Y19425   5.657   4.841   8.301 -0.8951  3.5611  1.6476
  171SAPE  C31419426   5.831   4.910   8.417 -0.0464  0.6013 -0.7805
  171SAPE  H14X19427   5.798   5.016   8.425 -2.0627 -0.0866  0.4412
  171SAPE  H14Y19428   5.942   4.913   8.421 -0.1075  1.9383  0.6374
  171SAPE  C31519429   5.787   4.821   8.538  0.0308  0.2088 -0.3990
  171SAPE  H15X19430   5.842   4.725   8.543  0.8681  0.5185 -2.8509
  171SAPE  H15Y19431   5.679   4.806   8.514  0.3653 -4.6194  0.7758
  171SAPE  C31619432   5.782   4.902   8.669 -0.5879  0.7590  0.3584
  171SAPE  H16X19433   5.717   4.835   8.729  1.8368 -0.5464  1.5974
  171SAPE  H16Y19434   5.738   5.003   8.660  0.2843  1.1894  0.8143
  171SAPE  C31719435   5.906   4.911   8.761  0.2899  0.1459  0.1807
  171SAPE  H17X19436   5.965   4.994   8.717 -0.3945  1.0238  0.9108
  171SAPE  H17Y19437   5.976   4.825   8.760  1.9665  1.4757 -0.0600
  171SAPE  C31819438   5.871   4.955   8.900 -0.6891 -0.3519  0.9728
  171SAPE  H18X19439   5.830   4.865   8.952 -1.8599  0.6252  1.7855
  171SAPE  H18Y19440   5.794   5.033   8.920 -2.0445 -0.8847 -1.9111
  171SAPE  H18Z19441   5.965   4.982   8.952 -0.7340 -1.1412  1.4704
  172SAPE     N19442   4.692   3.209   6.258 -0.1161  0.1405 -0.8169
  172SAPE   HN119443   4.670   3.108   6.242 -1.9049  0.1042  1.4989
  172SAPE   HN219444   4.623   3.260   6.318 -0.5210 -1.8296  0.4382
  172SAPE   HN319445   4.694   3.247   6.162 -1.4295 -2.7833 -2.0839
  172SAPE   C1219446   4.830   3.208   6.319  0.0775  0.5805  1.2138
  172SAPE  H12A19447   4.894   3.186   6.231  0.4782  0.9971  1.3992
  172SAPE  H12B19448   4.844   3.121   6.387 -1.1322 -0.2058  0.4637
  172SAPE   C1119449   4.860   3.333   6.397 -0.0069  0.1326  0.3068
  172SAPE  H11A19450   4.949   3.329   6.462  0.6556 -0.5936 -0.6342
  172SAPE  H11B19451   4.778   3.355   6.469 -1.9320 -1.1753 -1.4218
  172SAPE     P19452   5.004   3.522   6.297 -0.4166  0.1034  0.0651
  172SAPE   O1319453   5.111   3.435   6.244 -0.5255  0.2130 -0.0186
  172SAPE   O1419454   4.974   3.647   6.220 -0.1558 -0.2774  0.1203
  172SAPE   O1219455   4.875   3.448   6.307  0.3794 -0.6246 -0.2555
  172SAPE   O1119456   5.046   3.549   6.452  0.8784  0.6495 -0.4370
  172SAPE    C119457   4.999   3.674   6.522 -0.5011 -0.1459 -0.9613
  172SAPE    HA19458   5.080   3.750   6.517 -0.3568 -0.1459  0.8509
  172SAPE    HB19459   4.907   3.722   6.485 -0.9541  2.0810  2.7974
  172SAPE    C219460   4.967   3.645   6.674  0.0700 -0.2796 -0.2667
  172SAPE    HS19461   4.931   3.743   6.711 -3.4619 -1.5534 -0.1660
  172SAPE   O2119462   5.088   3.592   6.742  0.2696 -0.1026 -0.1683
  172SAPE   C2119463   5.161   3.682   6.812 -0.0811  0.5476  0.0258
  172SAPE   O2219464   5.135   3.802   6.816 -0.0077  0.4200  0.2630
  172SAPE   C2219465   5.270   3.609   6.888 -0.6279  0.1814 -0.1834
  172SAPE   H2R19466   5.225   3.516   6.927  0.4396 -0.1070  0.3618
  172SAPE   H2S19467   5.345   3.581   6.811 -0.9281  0.1236 -0.4579
  172SAPE    C319468   4.856   3.537   6.686 -0.3176 -0.1363  0.1682
  172SAPE    HX19469   4.892   3.437   6.652  1.5793  0.5022  0.2510
  172SAPE    HY19470   4.772   3.570   6.621  1.7199 -1.1509 -3.1460
  172SAPE   O3119471   4.814   3.522   6.824  0.3782  0.1488 -0.2976
  172SAPE   C3119472   4.741   3.627   6.870  0.1148 -0.0876  0.1144
  172SAPE   O3219473   4.713   3.720   6.802  0.0294 -0.0662  0.0189
  172SAPE   C3219474   4.707   3.603   7.016  0.1977  0.4959  0.2222
  172SAPE   H2X19475   4.796   3.554   7.062 -0.9390 -0.4261  1.5099
  172SAPE   H2Y19476   4.622   3.532   7.013  0.7913 -0.1743 -1.1364
  172SAPE   C2319477   5.328   3.692   7.004  0.6096  0.4301  0.7928
  172SAPE   H3R19478   5.339   3.798   6.972  0.2897 -0.1350 -1.2946
  172SAPE   H3S19479   5.432   3.666   7.033  0.9651  1.3451  0.3427
  172SAPE   C2419480   5.236   3.698   7.127  0.2955  0.0633  0.0636
  172SAPE   H4R19481   5.135   3.737   7.102  1.3994  0.4397 -4.1723
  172SAPE   H4S19482   5.266   3.781   7.194  0.7764  0.0566 -0.1430
  172SAPE   C2519483   5.243   3.568   7.202 -0.6543  0.3155  0.0975
  172SAPE   H5R19484   5.228   3.485   7.130  0.0077 -2.4412  3.0201
  172SAPE   C2619485   5.271   3.547   7.329  0.2799 -0.4124  1.0726
  172SAPE   H6R19486   5.286   3.444   7.365 -0.1383 -0.5149  0.9616
  172SAPE   C2719487   5.296   3.656   7.428  0.5513 -0.6479 -0.3979
  172SAPE   H7R19488   5.225   3.739   7.406  2.0821  0.5808 -0.8273
  172SAPE   H7S19489   5.392   3.709   7.409  1.0680 -0.5595  2.2399
  172SAPE   C2819490   5.264   3.618   7.569 -0.1555  0.2806  0.0932
  172SAPE   H8R19491   5.157   3.613   7.593 -0.7239 -1.3683 -2.5101
  172SAPE   C2919492   5.351   3.594   7.670  0.0433  0.6223  0.0650
  172SAPE   H9R19493   5.319   3.551   7.766  0.2390  1.4060  0.4818
  172SAPE  C21019494   5.506   3.604   7.654  0.0696 -0.0324  0.8639
  172SAPE  H10R19495   5.542   3.611   7.549 -0.4939  0.7938  0.7216
  172SAPE  H10S19496   5.559   3.512   7.687  0.5860  0.1976  0.6974
  172SAPE  C21119497   5.565   3.726   7.716 -0.8504  0.0536  0.2946
  172SAPE  H11R19498   5.585   3.811   7.649 -0.3661  0.7491  1.3092
  172SAPE  C21219499   5.594   3.745   7.850 -0.1763  0.3501 -0.2361
  172SAPE  H12R19500   5.624   3.848   7.878  0.2830  0.5536 -1.4637
  172SAPE  C21319501   5.597   3.634   7.958  0.3595  0.3261 -0.4858
  172SAPE  H13R19502   5.515   3.560   7.957 -0.0534  0.7481  0.7954
  172SAPE  H13S19503   5.591   3.672   8.063 -0.6417 -0.5639 -0.2162
  172SAPE  C21419504   5.715   3.539   7.945 -0.5620  0.2171 -0.1227
  172SAPE  H14R19505   5.715   3.460   7.869 -0.7768 -1.5163  1.6456
  172SAPE  C21519506   5.833   3.544   8.020 -0.0846  0.5670  0.5525
  172SAPE  H15R19507   5.907   3.464   8.006 -0.0957  0.9524 -1.9904
  172SAPE  C21619508   5.855   3.639   8.140  0.2526 -0.2006  0.7048
  172SAPE  H16R19509   5.939   3.593   8.195  0.9224  3.4629  2.9100
  172SAPE  H16S19510   5.771   3.657   8.210 -2.2901  1.3648 -2.6083
  172SAPE  C21719511   5.897   3.782   8.103  0.3090  0.5907  0.0336
  172SAPE  H17R19512   5.801   3.829   8.073 -0.4642  0.1722  1.7774
  172SAPE  H17S19513   5.974   3.775   8.023  0.4055  1.8452  0.0015
  172SAPE  C21819514   5.947   3.865   8.220  0.3146 -0.1505  0.5321
  172SAPE  H18R19515   5.896   3.836   8.314  0.5178 -1.9581  0.1024
  172SAPE  H18S19516   5.933   3.973   8.197  2.0715  0.0517  0.3282
  172SAPE  C21919517   6.098   3.843   8.233 -0.6635  0.7454  0.8192
  172SAPE  H19R19518   6.147   3.882   8.141 -0.5933 -5.0420 -1.8313
  172SAPE  H19S19519   6.123   3.735   8.236 -1.3498  0.4983 -1.5736
  172SAPE  C22019520   6.165   3.893   8.361  0.1220 -0.2789  0.9450
  172SAPE  H20R19521   6.268   3.860   8.383  1.1227  2.3701  0.4228
  172SAPE  H20S19522   6.100   3.868   8.448 -0.6018 -0.6644  0.2988
  172SAPE  H20T19523   6.166   4.004   8.366 -0.0080 -0.2911  1.3405
  172SAPE   C3319524   4.673   3.728   7.102  0.3308 -0.0724 -0.1334
  172SAPE   H3X19525   4.575   3.774   7.075 -0.4040 -1.4618  0.1217
  172SAPE   H3Y19526   4.745   3.806   7.069  0.0685 -0.1598 -0.9296
  172SAPE   C3419527   4.690   3.704   7.256  0.7778  0.1239  0.1846
  172SAPE   H4X19528   4.634   3.612   7.284 -0.1537  0.3788 -0.8239
  172SAPE   H4Y19529   4.647   3.789   7.313 -0.5655 -1.7961  2.0982
  172SAPE   C3519530   4.837   3.697   7.296 -0.6483  0.7335 -0.7080
  172SAPE   H5X19531   4.885   3.784   7.247  0.2174  0.8307  0.2931
  172SAPE   H5Y19532   4.885   3.603   7.260  1.4894  1.2740  0.6118
  172SAPE   C3619533   4.860   3.705   7.448  0.3878  0.8106  0.1145
  172SAPE   H6X19534   4.798   3.791   7.481  0.7007  1.2963 -0.5317
  172SAPE   H6Y19535   4.967   3.716   7.476  1.3471 -0.5758 -2.7590
  172SAPE   C3719536   4.801   3.585   7.528  0.0039 -0.2296 -0.8585
  172SAPE   H7X19537   4.861   3.497   7.496  0.7618 -0.5072  1.2431
  172SAPE   H7Y19538   4.707   3.548   7.482 -0.2489 -0.1649 -0.3958
  172SAPE   C3819539   4.774   3.610   7.675 -0.0856  1.3005 -0.0344
  172SAPE   H8X19540   4.705   3.533   7.714 -1.2953  0.4157 -3.6992
  172SAPE   H8Y19541   4.736   3.712   7.695 -4.1486 -0.4284  1.7011
  172SAPE   C3919542   4.903   3.577   7.747 -0.6548 -0.2286 -1.2302
  172SAPE   H9X19543   4.991   3.626   7.698 -0.1190  1.4307  1.2890
  172SAPE   H9Y19544   4.921   3.468   7.740  0.5638 -0.2696  1.5776
  172SAPE  C31019545   4.905   3.609   7.895 -0.4169  0.4247  0.9553
  172SAPE  H10X19546   4.827   3.560   7.957  0.2718 -0.2804  1.2841
  172SAPE  H10Y19547   4.902   3.719   7.906  0.6690  0.7450 -1.5461
  172SAPE  C31119548   5.039   3.564   7.957  0.2420  0.4567 -0.6162
  172SAPE  H11X19549   5.128   3.596   7.900 -0.2469 -0.7668 -2.0996
  172SAPE  H11Y19550   5.045   3.453   7.948  0.1345  0.5277 -1.6092
  172SAPE  C31219551   5.043   3.611   8.103  0.4952  0.1863 -0.0295
  172SAPE  H12X19552   4.940   3.591   8.139  0.8445  0.6837  1.2668
  172SAPE  H12Y19553   5.055   3.721   8.116  0.5453  0.1990 -0.1837
  172SAPE  C31319554   5.147   3.551   8.203  0.5087 -0.2376  0.4043
  172SAPE  H13X19555   5.250   3.555   8.160  0.2878  0.6621 -0.0509
  172SAPE  H13Y19556   5.127   3.442   8.214  0.8299 -0.2208  1.2577
  172SAPE  C31419557   5.136   3.612   8.339  0.0847  0.2805 -0.1941
  172SAPE  H14X19558   5.029   3.608   8.371 -0.2931  2.9524 -1.0704
  172SAPE  H14Y19559   5.179   3.714   8.335  0.7450 -0.0058 -0.4317
  172SAPE  C31519560   5.209   3.525   8.447  0.7138  0.0992 -0.1635
  172SAPE  H15X19561   5.176   3.419   8.454  1.4629 -0.2566 -1.6149
  172SAPE  H15Y19562   5.183   3.551   8.551  0.5898  1.3016 -0.4844
  172SAPE  C31619563   5.363   3.525   8.422  0.2632 -0.3133  0.2117
  172SAPE  H16X19564   5.398   3.616   8.369  1.2868 -1.1870 -0.6431
  172SAPE  H16Y19565   5.387   3.450   8.343  0.4920 -1.0282  0.9493
  172SAPE  C31719566   5.452   3.502   8.547 -0.1291 -0.0393 -0.4585
  172SAPE  H17X19567   5.409   3.420   8.608  2.6928  0.3686  2.1648
  172SAPE  H17Y19568   5.442   3.584   8.621  1.7496 -1.8190  1.8312
  172SAPE  C31819569   5.600   3.481   8.516 -0.0754  0.1925 -0.5885
  172SAPE  H18X19570   5.646   3.566   8.460  0.4653 -0.1945 -0.7281
  172SAPE  H18Y19571   5.615   3.385   8.463 -0.2652 -0.4799  0.5663
  172SAPE  H18Z19572   5.662   3.472   8.608 -0.7213  0.4984 -0.1159
  173SOPE     N19573   5.716   0.791  10.941  0.1752 -0.3245 -0.0224
  173SOPE   HN119574   5.637   0.806  10.875 -1.2791  0.4914  1.8472
  173SOPE   HN219575   5.797   0.852  10.921  1.1026 -1.3468  0.5763
  173SOPE   HN319576   5.751   0.693  10.930  1.2432  0.2378 -1.8677
  173SOPE   C1219577   5.668   0.802  11.080  0.0985 -0.5135 -0.1690
  173SOPE  H12A19578   5.758   0.776  11.140  0.5277  3.8800  1.2828
  173SOPE  H12B19579   5.585   0.731  11.103 -0.6742  0.8403  1.3354
  173SOPE   C1119580   5.626   0.947  11.111 -0.0997  0.0229  0.2574
  173SOPE  H11A19581   5.714   1.016  11.110  1.2866 -1.6996  0.4666
  173SOPE  H11B19582   5.609   0.944  11.220 -1.1190 -0.1672  0.0917
  173SOPE     P19583   5.536   1.110  10.920  0.0143  0.0794 -0.0119
  173SOPE   O1319584   5.585   1.235  10.978  0.0395 -0.1586 -0.1350
  173SOPE   O1419585   5.407   1.125  10.852 -0.6580 -1.4896  0.2956
  173SOPE   O1219586   5.522   0.996  11.030 -0.1678  0.1446  0.4436
  173SOPE   O1119587   5.637   1.040  10.823 -0.4547  0.2217  0.0913
  173SOPE    C119588   5.748   1.090  10.764 -0.9729 -0.0813 -0.6923
  173SOPE    HA19589   5.834   1.022  10.781 -0.7843  0.4501  0.5630
  173SOPE    HB19590   5.789   1.187  10.800 -0.4381 -0.4762 -0.2436
  173SOPE    C219591   5.731   1.114  10.613 -0.2454 -0.3101  0.2400
  173SOPE    HS19592   5.832   1.149  10.581 -0.4645  0.0305 -0.0722
  173SOPE   O2119593   5.657   1.239  10.588 -0.3093  0.1278  0.3205
  173SOPE   C2119594   5.702   1.355  10.622 -0.5877 -0.3535  0.7568
  173SOPE   O2219595   5.817   1.375  10.666 -0.0698  0.2821 -0.3132
  173SOPE   C2219596   5.596   1.465  10.605  0.4318 -0.4239 -0.4409
  173SOPE   H2R19597   5.659   1.557  10.598  0.8681 -0.7169 -0.3509
  173SOPE   H2S19598   5.530   1.462  10.694  0.0599 -0.3212 -0.7078
  173SOPE    C319599   5.662   0.998  10.540  0.8865 -0.2892 -0.0514
  173SOPE    HX19600   5.561   0.982  10.582  0.4010 -1.4280 -1.5910
  173SOPE    HY19601   5.714   0.905  10.573 -0.8056 -0.8490  1.0854
  173SOPE   O3119602   5.670   1.013  10.400  0.7060 -0.3263  0.3246
  173SOPE   C3119603   5.555   1.020  10.332 -0.2366 -0.3366  0.5971
  173SOPE   O3219604   5.447   0.998  10.379 -0.0826  0.1678  0.6118
  173SOPE   C3219605   5.590   1.074  10.191  0.2481  0.3144  0.4607
  173SOPE   H2X19606   5.682   1.024  10.154 -0.4068  0.5615 -1.5185
  173SOPE   H2Y19607   5.625   1.180  10.186 -0.0020  0.2938 -2.3362
  173SOPE   C2319608   5.516   1.466  10.470  0.2335  0.1790  0.3004
  173SOPE   H3R19609   5.428   1.529  10.496 -0.3307 -0.6557  0.4059
  173SOPE   H3S19610   5.469   1.366  10.458 -1.0837  0.7162  0.8650
  173SOPE   C2419611   5.580   1.509  10.342 -0.7974 -0.5867  0.0831
  173SOPE   H4R19612   5.638   1.603  10.348 -1.2232 -0.2806 -0.6763
  173SOPE   H4S19613   5.651   1.429  10.310  0.0499  0.2088 -0.0328
  173SOPE   C2519614   5.489   1.520  10.220 -0.5304 -0.3037 -0.1821
  173SOPE   H5R19615   5.549   1.544  10.130 -2.1185 -2.2006 -1.7858
  173SOPE   H5S19616   5.420   1.438  10.190  0.6731 -0.5597 -2.3100
  173SOPE   C2619617   5.411   1.652  10.227  0.5557 -0.2728 -0.1541
  173SOPE   H6R19618   5.320   1.643  10.288 -0.4687 -0.7204 -1.7143
  173SOPE   H6S19619   5.479   1.734  10.259  0.5617 -0.1089 -0.5801
  173SOPE   C2719620   5.365   1.710  10.081  0.5087 -0.0930 -0.0341
  173SOPE   H7R19621   5.334   1.817  10.078 -0.0321 -0.2221  0.7634
  173SOPE   H7S19622   5.457   1.699  10.020  1.1195  1.7514  0.5256
  173SOPE   C2819623   5.248   1.633  10.004 -0.4860 -0.2462 -0.3663
  173SOPE   H8R19624   5.250   1.682   9.904 -2.4453 -1.2256 -0.9082
  173SOPE   H8S19625   5.279   1.529   9.979 -1.2686 -0.8439  1.0970
  173SOPE   C2919626   5.111   1.622  10.063  0.2272 -0.2124 -0.5383
  173SOPE   H9119627   5.102   1.567  10.158 -5.2401  0.7522 -0.3033
  173SOPE  C21019628   4.997   1.653   9.992  0.5640 -0.4800 -0.3965
  173SOPE  H10119629   4.898   1.621  10.028  0.0528  0.0986 -1.2684
  173SOPE  C21119630   4.982   1.711   9.854  0.1116 -0.9805 -0.1170
  173SOPE  H11R19631   5.072   1.770   9.826 -0.2381 -0.8476 -0.9582
  173SOPE  H11S19632   4.887   1.769   9.853  0.2011 -0.7819  1.3200
  173SOPE  C21219633   4.971   1.595   9.750  0.0202 -0.0158  0.3753
  173SOPE  H12R19634   4.878   1.540   9.776  0.4230 -0.6404  0.5057
  173SOPE  H12S19635   5.059   1.528   9.759 -0.2929 -0.1751  2.7309
  173SOPE  C21319636   4.952   1.662   9.617 -0.0940  0.1299  0.2895
  173SOPE  H13R19637   5.050   1.709   9.593 -1.5243  2.2859 -1.4388
  173SOPE  H13S19638   4.876   1.742   9.624 -1.9055 -1.5532  0.1851
  173SOPE  C21419639   4.914   1.571   9.497 -0.1470 -0.4730  0.3331
  173SOPE  H14R19640   4.822   1.516   9.528 -1.0282  0.6766 -0.1991
  173SOPE  H14S19641   4.989   1.492   9.479  0.6599 -0.1757  2.2725
  173SOPE  C21519642   4.886   1.652   9.368  0.3009 -0.8804 -0.0556
  173SOPE  H15R19643   4.979   1.710   9.347 -0.0592  0.6961  2.3562
  173SOPE  H15S19644   4.804   1.728   9.370 -0.4023 -1.6365  0.1887
  173SOPE  C21619645   4.863   1.554   9.251  0.8809 -0.4913 -0.5250
  173SOPE  H16R19646   4.795   1.476   9.290 -3.1394  2.6712 -0.8475
  173SOPE  H16S19647   4.962   1.508   9.230  1.3091 -0.9561  2.2678
  173SOPE  C21719648   4.817   1.601   9.112 -0.6880  0.0977  0.0452
  173SOPE  H17R19649   4.715   1.643   9.124 -0.2993  0.8885  0.5822
  173SOPE  H17S19650   4.807   1.512   9.046 -3.3289  0.6365 -0.3383
  173SOPE  C21819651   4.919   1.703   9.043 -1.1089 -0.3242 -0.0799
  173SOPE  H18R19652   4.925   1.794   9.106  0.5500  0.7788 -1.7722
  173SOPE  H18S19653   4.897   1.736   8.939  1.5408 -0.0681 -0.5987
  173SOPE  H18T19654   5.011   1.642   9.040 -2.0513 -1.9089  2.0258
  173SOPE   C3319655   5.474   1.050  10.097  0.2553  0.0697 -0.1069
  173SOPE   H3X19656   5.378   1.087  10.137 -0.1024 -1.5410  0.5661
  173SOPE   H3Y19657   5.443   0.943  10.090  0.0831 -0.0141  1.5982
  173SOPE   C3419658   5.507   1.104   9.956 -0.4424  1.3154 -0.6962
  173SOPE   H4X19659   5.586   1.038   9.915 -0.6447  0.3734  0.3916
  173SOPE   H4Y19660   5.541   1.209   9.968  1.7954  0.4753  0.7909
  173SOPE   C3519661   5.386   1.085   9.862  0.3221  0.4293 -0.9958
  173SOPE   H5X19662   5.304   1.145   9.906  1.7593  1.3450  0.5083
  173SOPE   H5Y19663   5.354   0.979   9.864  1.7866 -0.0077 -0.0550
  173SOPE   C3619664   5.426   1.134   9.721 -0.0755 -0.4825  0.0158
  173SOPE   H6X19665   5.493   1.058   9.674  0.6954  0.6315 -0.7042
  173SOPE   H6Y19666   5.482   1.227   9.744 -0.3289 -0.1088 -0.8746
  173SOPE   C3719667   5.303   1.152   9.617  0.1632 -0.1839  0.4921
  173SOPE   H7X19668   5.222   1.215   9.658 -1.8355 -2.6071  0.3653
  173SOPE   H7Y19669   5.254   1.055   9.595  3.1777 -1.2060 -2.1661
  173SOPE   C3819670   5.351   1.217   9.490 -0.0170  0.9102  0.4582
  173SOPE   H8X19671   5.436   1.156   9.453 -0.2658  0.2734  0.9239
  173SOPE   H8Y19672   5.404   1.312   9.511  0.4800  0.5334  0.9325
  173SOPE   C3919673   5.240   1.256   9.388  0.8965 -0.1743  0.2012
  173SOPE   H9X19674   5.291   1.321   9.314 -0.2329  2.5879  1.7675
  173SOPE   H9Y19675   5.161   1.315   9.440 -1.0468 -3.3772  1.0100
  173SOPE  C31019676   5.181   1.141   9.306 -0.0262 -0.5305  0.2144
  173SOPE  H10X19677   5.151   1.063   9.379 -0.2521 -1.2681 -0.6553
  173SOPE  H10Y19678   5.273   1.106   9.255  0.4681 -2.4482  2.3083
  173SOPE  C31119679   5.067   1.195   9.209 -0.0001  0.3219  0.3287
  173SOPE  H11X19680   5.114   1.275   9.149 -0.7634 -0.2166 -0.9993
  173SOPE  H11Y19681   4.977   1.233   9.263  0.8848  1.8429  0.7640
  173SOPE  C31219682   5.024   1.096   9.099  0.4534  0.5584  0.1159
  173SOPE  H12X19683   4.955   1.147   9.029  1.4189 -0.5698 -1.7097
  173SOPE  H12Y19684   4.962   1.021   9.151  2.0701  1.6597  3.8379
  173SOPE  C31319685   5.141   1.037   9.019  0.0327  0.9206  0.9395
  173SOPE  H13X19686   5.213   0.977   9.078 -0.1575  1.1429  1.4026
  173SOPE  H13Y19687   5.191   1.120   8.965  1.2093 -2.0193 -2.7018
  173SOPE  C31419688   5.088   0.932   8.920  0.1789  0.2903 -0.2656
  173SOPE  H14X19689   4.985   0.899   8.947 -0.1363 -0.2069 -2.0280
  173SOPE  H14Y19690   5.160   0.848   8.907  0.4673  0.7891 -2.0016
  173SOPE  C31519691   5.064   0.996   8.781  0.2697 -0.7754 -0.3568
  173SOPE  H15X19692   5.154   1.057   8.760 -0.2990 -0.2958 -1.3961
  173SOPE  H15Y19693   4.974   1.061   8.790  0.0612 -1.0769 -0.2393
  173SOPE  C31619694   5.035   0.895   8.675 -0.4170 -0.7343  0.4005
  173SOPE  H16X19695   4.938   0.934   8.635  0.5139  0.2960 -0.9264
  173SOPE  H16Y19696   5.022   0.798   8.728 -1.7127 -0.6871  0.2057
  173SOPE  C31719697   5.140   0.907   8.559 -0.5729 -0.9605 -0.2331
  173SOPE  H17X19698   5.243   0.897   8.599  0.4304  0.9838 -2.1988
  173SOPE  H17Y19699   5.126   1.012   8.524  1.4390 -1.1467 -1.6823
  173SOPE  C31819700   5.120   0.797   8.446 -0.8698  0.3282  0.6878
  173SOPE  H18X19701   5.207   0.794   8.376 -1.6306 -3.0273 -0.2185
  173SOPE  H18Y19702   5.032   0.832   8.388 -0.6173 -1.6954 -0.9656
  173SOPE  H18Z19703   5.096   0.696   8.485 -1.9682 -0.2334 -1.3695
  174SOPE     N19704   5.139   1.052  10.894  0.0714  0.3723  0.2781
  174SOPE   HN119705   5.129   1.081  10.993 -2.8602  1.4935 -0.2692
  174SOPE   HN219706   5.240   1.052  10.872 -0.0250 -0.5995 -0.2029
  174SOPE   HN319707   5.084   1.120  10.838  0.0999  0.9838  0.9818
  174SOPE   C1219708   5.104   0.902  10.889 -0.2385  0.4339  0.1736
  174SOPE  H12A19709   4.996   0.890  10.914 -0.5416  0.7011 -1.0174
  174SOPE  H12B19710   5.154   0.851  10.974 -0.3858 -0.2096 -0.1281
  174SOPE   C1119711   5.145   0.838  10.752  0.2800  0.5827  0.0105
  174SOPE  H11A19712   5.101   0.899  10.670  0.2195 -1.0212 -1.1699
  174SOPE  H11B19713   5.099   0.737  10.750  0.4233  0.5263 -0.5296
  174SOPE     P19714   5.382   0.721  10.769  0.2348  0.4471  0.0205
  174SOPE   O1319715   5.342   0.645  10.891  0.0788  0.2349 -0.3672
  174SOPE   O1419716   5.523   0.751  10.753  0.2694 -0.1010  0.7710
  174SOPE   O1219717   5.289   0.842  10.739  0.4767 -0.0673  0.0582
  174SOPE   O1119718   5.340   0.636  10.651 -0.0048  0.1317 -0.5546
  174SOPE    C119719   5.381   0.638  10.511  0.2189  0.1245  0.5850
  174SOPE    HA19720   5.389   0.533  10.475  0.9666  0.2464  0.3949
  174SOPE    HB19721   5.476   0.693  10.497  1.9104 -3.5458 -3.4224
  174SOPE    C219722   5.271   0.695  10.415  0.3069  0.1152  0.0925
  174SOPE    HS19723   5.253   0.800  10.447  0.6197 -0.6004  2.7651
  174SOPE   O2119724   5.156   0.604  10.416  0.1739  0.0872  0.0378
  174SOPE   C2119725   5.043   0.667  10.429 -0.2942  0.1336  0.1461
  174SOPE   O2219726   5.022   0.785  10.429  0.0834  0.0743  0.2825
  174SOPE   C2219727   4.925   0.565  10.433 -0.4229 -0.3444  0.7116
  174SOPE   H2R19728   4.845   0.605  10.498 -1.6673 -0.0340 -0.9593
  174SOPE   H2S19729   4.972   0.470  10.465 -2.1774 -0.9809  1.4427
  174SOPE    C319730   5.319   0.708  10.273  0.6018  0.6939  1.1635
  174SOPE    HX19731   5.366   0.609  10.254 -2.2267 -0.4095 -0.3811
  174SOPE    HY19732   5.391   0.793  10.271 -1.1737  2.2036 -0.3605
  174SOPE   O3119733   5.207   0.726  10.179  0.1739  0.3653  0.0876
  174SOPE   C3119734   5.242   0.732  10.054  0.3456  0.3659 -0.3359
  174SOPE   O3219735   5.355   0.705  10.008 -0.3383 -0.2264  0.2305
  174SOPE   C3219736   5.121   0.753   9.971  0.4478 -0.3255 -0.3741
  174SOPE   H2X19737   5.116   0.863   9.958 -1.9815 -0.3789 -0.1409
  174SOPE   H2Y19738   5.025   0.718  10.016  0.7186 -0.7243 -0.1087
  174SOPE   C2319739   4.863   0.541  10.295 -0.6521 -0.2269  0.2702
  174SOPE   H3R19740   4.938   0.525  10.214 -2.3121 -2.2365 -0.9242
  174SOPE   H3S19741   4.798   0.630  10.279 -1.5413 -1.0507 -0.8240
  174SOPE   C2419742   4.778   0.411  10.300 -0.8745 -0.2283  0.2111
  174SOPE   H4R19743   4.846   0.324  10.312  0.0452  0.2522 -1.3351
  174SOPE   H4S19744   4.723   0.419  10.397 -0.8033 -0.4367  0.2680
  174SOPE   C2519745   4.689   0.394  10.173 -0.2133  0.1705  0.5484
  174SOPE   H5R19746   4.627   0.303  10.189 -1.2088  1.3304  3.6947
  174SOPE   H5S19747   4.648   0.495  10.153 -2.0958 -0.7330 -0.3317
  174SOPE   C2619748   4.771   0.373  10.045 -0.1086 -0.3048  0.2226
  174SOPE   H6R19749   4.850   0.444  10.011 -0.1543  0.0357  0.8302
  174SOPE   H6S19750   4.823   0.276  10.057  4.1387  1.9574  1.2871
  174SOPE   C2719751   4.670   0.355   9.934  0.5964 -0.0434  0.5188
  174SOPE   H7R19752   4.729   0.320   9.846  0.5966  1.2472  0.0028
  174SOPE   H7S19753   4.603   0.271   9.964 -1.1185  0.2096 -2.3942
  174SOPE   C2819754   4.585   0.475   9.897  0.2091 -0.8911 -0.0301
  174SOPE   H8R19755   4.498   0.442   9.837 -1.5498 -0.5539  2.2388
  174SOPE   H8S19756   4.537   0.518   9.988  0.5967  1.4378 -0.9164
  174SOPE   C2919757   4.665   0.590   9.834  0.0751  0.8590 -0.0485
  174SOPE   H9119758   4.666   0.675   9.904 -1.0741  2.0249 -1.4339
  174SOPE  C21019759   4.723   0.596   9.711  0.8802 -0.1722 -0.3824
  174SOPE  H10119760   4.782   0.686   9.686 -1.3179  2.0074  1.9128
  174SOPE  C21119761   4.709   0.476   9.616  0.2016  0.1677  0.0506
  174SOPE  H11R19762   4.777   0.398   9.655 -0.5735 -1.1578 -1.1937
  174SOPE  H11S19763   4.743   0.507   9.515 -3.0490 -3.2919 -2.2548
  174SOPE  C21219764   4.582   0.392   9.570 -0.2465  0.1950 -0.2051
  174SOPE  H12R19765   4.502   0.461   9.536  1.8713  1.7126 -2.2438
  174SOPE  H12S19766   4.532   0.350   9.660 -2.7223  0.8105 -1.2588
  174SOPE  C21319767   4.601   0.291   9.460 -0.8123  0.5281 -0.3139
  174SOPE  H13R19768   4.499   0.253   9.438 -0.8539 -0.1962  1.1178
  174SOPE  H13S19769   4.672   0.211   9.489 -2.0194 -0.2537  0.5086
  174SOPE  C21419770   4.653   0.362   9.329 -0.0607 -0.2341  0.5849
  174SOPE  H14R19771   4.757   0.402   9.335 -0.6209  1.8985 -2.7020
  174SOPE  H14S19772   4.577   0.437   9.297  0.1352 -0.2057  0.1761
  174SOPE  C21519773   4.673   0.271   9.209 -0.0052  0.2056  0.1248
  174SOPE  H15R19774   4.725   0.179   9.243 -0.3054  0.2395  0.6829
  174SOPE  H15S19775   4.748   0.316   9.140  0.3027  0.2194  0.4655
  174SOPE  C21619776   4.541   0.230   9.137 -0.3124  0.5356  0.4081
  174SOPE  H16R19777   4.457   0.302   9.145 -0.2272  0.6636  0.1385
  174SOPE  H16S19778   4.496   0.133   9.167 -0.4222 -0.1142 -1.8352
  174SOPE  C21719779   4.567   0.218   8.992 -0.6775 -0.0081 -0.7153
  174SOPE  H17R19780   4.605   0.317   8.960 -2.3851  0.6906 -0.6122
  174SOPE  H17S19781   4.465   0.208   8.950 -1.4090 -0.0613  1.0102
  174SOPE  C21819782   4.654   0.106   8.934 -0.1618 -0.7524  0.1786
  174SOPE  H18R19783   4.673   0.137   8.829  1.2041  1.3796  1.0119
  174SOPE  H18S19784   4.597   0.012   8.922  0.7107 -1.4173  1.1778
  174SOPE  H18T19785   4.751   0.084   8.984  0.3516 -1.9696 -1.3118
  174SOPE   C3319786   5.129   0.694   9.829  0.8862  0.5986 -0.3572
  174SOPE   H3X19787   5.027   0.672   9.790  0.8023 -0.8384  0.6427
  174SOPE   H3Y19788   5.175   0.594   9.834  0.1422  0.2616 -0.1402
  174SOPE   C3419789   5.196   0.790   9.733 -0.0888  0.7164 -0.5920
  174SOPE   H4X19790   5.303   0.796   9.763  0.1309 -2.9077 -0.4785
  174SOPE   H4Y19791   5.146   0.887   9.752  0.7250  0.8265  1.1138
  174SOPE   C3519792   5.170   0.763   9.582 -0.1701  0.4786 -0.4271
  174SOPE   H5X19793   5.225   0.670   9.558 -0.1242  0.7561 -1.4121
  174SOPE   H5Y19794   5.214   0.838   9.513  0.9547 -0.5041 -0.7859
  174SOPE   C3619795   5.024   0.748   9.546 -0.0756 -0.5024  0.2199
  174SOPE   H6X19796   4.962   0.827   9.594 -1.0643 -1.0597 -0.1237
  174SOPE   H6Y19797   4.982   0.649   9.576 -0.7179 -0.6865 -1.2668
  174SOPE   C3719798   5.005   0.760   9.395 -0.1589  0.3507 -0.1540
  174SOPE   H7X19799   5.095   0.720   9.344  0.6834  1.7265  0.2312
  174SOPE   H7Y19800   5.028   0.865   9.367  3.2853 -0.2991 -0.0382
  174SOPE   C3819801   4.875   0.703   9.338  0.2708  0.2153  0.1535
  174SOPE   H8X19802   4.790   0.769   9.365 -0.1560 -1.0984  2.0964
  174SOPE   H8Y19803   4.874   0.600   9.380  0.0156 -0.3354 -1.1917
  174SOPE   C3919804   4.861   0.712   9.181 -0.1007 -0.6192 -0.7232
  174SOPE   H9X19805   4.941   0.641   9.153  0.1989 -1.2052  1.5059
  174SOPE   H9Y19806   4.893   0.814   9.152  1.4130 -1.2549 -1.3192
  174SOPE  C31019807   4.727   0.680   9.117  0.1255  0.2446  0.1078
  174SOPE  H10X19808   4.676   0.601   9.177 -2.2545  1.3179 -0.4744
  174SOPE  H10Y19809   4.744   0.637   9.017  0.9230  0.1921  0.2587
  174SOPE  C31119810   4.638   0.803   9.097 -0.7109  0.7944 -0.0669
  174SOPE  H11X19811   4.680   0.859   9.011 -0.8453  0.1561 -0.5519
  174SOPE  H11Y19812   4.642   0.867   9.188  0.2832 -0.2195  0.6102
  174SOPE  C31219813   4.487   0.763   9.064 -0.1810  0.2245 -0.7812
  174SOPE  H12X19814   4.495   0.678   8.993  0.8677 -2.5425  2.4808
  174SOPE  H12Y19815   4.440   0.854   9.023  1.2916  2.4039  2.1628
  174SOPE  C31319816   4.405   0.717   9.181  0.1630 -0.3608 -0.1414
  174SOPE  H13X19817   4.425   0.608   9.190  3.0861  0.1872  0.4728
  174SOPE  H13Y19818   4.302   0.733   9.144  0.6561 -0.5752 -1.6249
  174SOPE  C31419819   4.431   0.781   9.314  0.1087 -0.2041 -0.2195
  174SOPE  H14X19820   4.399   0.887   9.304  1.2867  0.1229 -0.5328
  174SOPE  H14Y19821   4.538   0.768   9.338  0.2370 -0.2536 -0.8208
  174SOPE  C31519822   4.346   0.726   9.432 -0.2143  1.0319 -0.6553
  174SOPE  H15X19823   4.335   0.616   9.428  1.1545  0.8537  0.0488
  174SOPE  H15Y19824   4.241   0.757   9.416 -0.8105  0.7392  2.3680
  174SOPE  C31619825   4.413   0.774   9.557  0.2572  0.0126 -0.1069
  174SOPE  H16X19826   4.456   0.875   9.544 -1.3000  0.9374  1.7078
  174SOPE  H16Y19827   4.499   0.705   9.572  0.6364 -0.0521 -2.4397
  174SOPE  C31719828   4.322   0.773   9.678 -0.0713 -0.3231  0.1980
  174SOPE  H17X19829   4.267   0.870   9.676 -0.6835 -0.5590  3.0704
  174SOPE  H17Y19830   4.385   0.777   9.769  0.3574 -0.9523 -0.0713
  174SOPE  C31819831   4.242   0.640   9.693  0.0330  0.6706 -0.0275
  174SOPE  H18X19832   4.179   0.603   9.609  1.3014  0.1623 -0.7673
  174SOPE  H18Y19833   4.192   0.635   9.792 -0.2226 -0.5289 -0.2098
  174SOPE  H18Z19834   4.316   0.558   9.703  1.7556  2.0338 -1.1371
  175SOPE     N19835   0.284   1.864  10.852 -0.0576 -0.0929  0.3000
  175SOPE   HN119836   0.229   1.952  10.858 -1.5407 -1.0793  1.4490
  175SOPE   HN219837   0.236   1.773  10.866  2.3728 -1.6318 -0.9284
  175SOPE   HN319838   0.353   1.854  10.929 -0.3164  0.3886  0.5956
  175SOPE   C1219839   0.347   1.866  10.720  0.0461  0.3281  0.6573
  175SOPE  H12A19840   0.376   1.762  10.691  1.3313  0.2477  2.1313
  175SOPE  H12B19841   0.432   1.937  10.722  1.0447 -0.7728 -1.2856
  175SOPE   C1119842   0.249   1.906  10.604 -0.0777 -0.0589  0.1310
  175SOPE  H11A19843   0.188   1.819  10.573  0.2165 -0.7426  1.4142
  175SOPE  H11B19844   0.314   1.932  10.518  0.1149 -1.6855 -0.2307
  175SOPE     P19845   0.191   2.165  10.590 -0.1866  0.2682  0.3285
  175SOPE   O1319846   0.332   2.204  10.632  0.1541 -0.0585 -0.2292
  175SOPE   O1419847   0.077   2.251  10.640 -0.1548  0.6157  0.0325
  175SOPE   O1219848   0.169   2.019  10.633 -0.1111  0.3383 -0.7340
  175SOPE   O1119849   0.184   2.156  10.435  0.6504 -0.9255 -0.6130
  175SOPE    C119850   0.063   2.118  10.371  0.2266 -0.1330 -0.1818
  175SOPE    HA19851  -0.028   2.138  10.432  1.2058  1.7127  0.7415
  175SOPE    HB19852   0.073   2.009  10.359 -2.8983 -0.3482 -1.2171
  175SOPE    C219853   0.041   2.194  10.238  0.1230  0.7863  0.1988
  175SOPE    HS19854   0.011   2.295  10.272 -1.9582  0.1592  0.3003
  175SOPE   O2119855  -0.066   2.127  10.172 -1.0158  0.2753 -0.2924
  175SOPE   C2119856  -0.152   2.192  10.099 -0.6864 -0.1784  0.6159
  175SOPE   O2219857  -0.158   2.315  10.085  0.1054  0.5539  0.1319
  175SOPE   C2219858  -0.235   2.083  10.024 -0.4147  0.8099 -0.1387
  175SOPE   H2R19859  -0.300   2.034  10.099  0.3492 -1.3610 -0.8696
  175SOPE   H2S19860  -0.161   2.004   9.998 -1.8976 -1.0533  1.2260
  175SOPE    C319861   0.166   2.185  10.149 -0.4743  0.8229 -0.4031
  175SOPE    HX19862   0.190   2.077  10.142 -1.8622  0.5185 -0.7123
  175SOPE    HY19863   0.251   2.239  10.196 -1.2777  2.8813 -1.2661
  175SOPE   O3119864   0.131   2.223  10.017  0.6981  0.3132  0.0635
  175SOPE   C3119865   0.130   2.358   9.997 -0.3888 -0.3420  0.5172
  175SOPE   O3219866   0.164   2.444  10.070 -0.6970  0.0361  0.2906
  175SOPE   C3219867   0.097   2.375   9.852 -0.1810 -0.0627  0.3702
  175SOPE   H2X19868  -0.009   2.344   9.841 -0.1472  0.1852 -0.6474
  175SOPE   H2Y19869   0.152   2.308   9.784 -1.6887  0.0258 -0.9537
  175SOPE   C2319870  -0.314   2.136   9.901  0.5319 -0.0271  0.0600
  175SOPE   H3R19871  -0.356   2.238   9.917 -3.5537 -1.7050  0.8113
  175SOPE   H3S19872  -0.406   2.076   9.883  1.5166 -1.8773  1.0774
  175SOPE   C2419873  -0.233   2.130   9.775 -0.1463 -0.1671  0.2253
  175SOPE   H4R19874  -0.137   2.183   9.788  0.9144 -2.3932  1.8837
  175SOPE   H4S19875  -0.213   2.022   9.757 -0.0030 -0.1641  0.3628
  175SOPE   C2519876  -0.312   2.185   9.651 -0.8058 -0.1900 -0.6778
  175SOPE   H5R19877  -0.388   2.108   9.625 -0.7855 -0.5084  0.2027
  175SOPE   H5S19878  -0.377   2.272   9.676 -2.6910 -2.2623  1.7883
  175SOPE   C2619879  -0.218   2.211   9.535 -0.8582  0.0351 -0.7679
  175SOPE   H6R19880  -0.266   2.291   9.474 -0.8706  0.0668 -0.7160
  175SOPE   H6S19881  -0.122   2.251   9.572 -0.6733 -2.2951  1.3440
  175SOPE   C2719882  -0.182   2.082   9.453  0.2956  0.4950  0.3218
  175SOPE   H7R19883  -0.110   2.009   9.495  1.4303  1.3732 -0.0642
  175SOPE   H7S19884  -0.265   2.011   9.432  0.9908 -0.1265 -0.3650
  175SOPE   C2819885  -0.116   2.119   9.315 -0.4814 -0.1135  1.0639
  175SOPE   H8R19886  -0.033   2.191   9.328  1.0468 -1.4103 -1.2889
  175SOPE   H8S19887  -0.075   2.024   9.273 -0.0497 -0.6070  2.5582
  175SOPE   C2919888  -0.208   2.176   9.212  0.4289  0.0383 -0.2746
  175SOPE   H9119889  -0.227   2.284   9.228 -1.0153 -0.3818  1.0420
  175SOPE  C21019890  -0.283   2.114   9.121  0.1243 -0.1370  0.0008
  175SOPE  H10119891  -0.361   2.174   9.071  0.5720 -0.5521 -1.2289
  175SOPE  C21119892  -0.287   1.964   9.106 -0.3298 -0.2080  0.1868
  175SOPE  H11R19893  -0.394   1.934   9.109 -0.9926  2.1198  0.4694
  175SOPE  H11S19894  -0.244   1.915   9.196 -0.9126 -1.6438 -0.3060
  175SOPE  C21219895  -0.232   1.911   8.975  0.2393 -0.1968 -0.2457
  175SOPE  H12R19896  -0.232   1.987   8.894  1.1888 -1.3158 -1.3286
  175SOPE  H12S19897  -0.300   1.830   8.941  0.4393 -0.9196  1.0190
  175SOPE  C21319898  -0.091   1.850   8.993  0.2835  0.0189 -0.8028
  175SOPE  H13R19899  -0.072   1.771   9.070  1.6668 -2.1608 -3.2974
  175SOPE  H13S19900  -0.021   1.924   9.038  0.7088 -1.9206  1.8396
  175SOPE  C21419901  -0.031   1.798   8.860 -0.7478  0.3363  0.3120
  175SOPE  H14R19902  -0.080   1.825   8.765 -1.2071  1.1091  0.7663
  175SOPE  H14S19903  -0.043   1.688   8.866 -0.5494  0.3047  0.1418
  175SOPE  C21519904   0.122   1.832   8.851 -0.3174  0.5089 -0.1451
  175SOPE  H15R19905   0.176   1.794   8.941 -1.2109 -0.8436 -0.1605
  175SOPE  H15S19906   0.131   1.942   8.866  2.8023  0.2396  0.3617
  175SOPE  C21619907   0.193   1.789   8.720  0.8151 -1.1297 -0.2963
  175SOPE  H16R19908   0.139   1.830   8.632  1.7848 -2.1037 -1.3498
  175SOPE  H16S19909   0.179   1.679   8.712 -2.4805 -0.9414  1.8116
  175SOPE  C21719910   0.340   1.825   8.718  0.6023  0.3393 -0.0999
  175SOPE  H17R19911   0.355   1.927   8.762 -1.2248  1.3907 -1.8431
  175SOPE  H17S19912   0.379   1.839   8.615 -1.0242 -0.6380 -0.8509
  175SOPE  C21819913   0.432   1.719   8.782 -0.1115 -0.3372 -0.3263
  175SOPE  H18R19914   0.414   1.625   8.727 -2.1526 -0.4646  0.5320
  175SOPE  H18S19915   0.403   1.707   8.888 -0.2893 -1.6478 -0.5228
  175SOPE  H18T19916   0.542   1.738   8.776 -0.4161  1.4516 -0.6474
  175SOPE   C3319917   0.132   2.519   9.804 -0.0425  0.3740  0.5742
  175SOPE   H3X19918   0.242   2.530   9.789 -0.0345 -2.7555 -2.2935
  175SOPE   H3Y19919   0.108   2.590   9.886 -0.0240  1.1617 -0.0976
  175SOPE   C3419920   0.060   2.562   9.676  0.3863 -0.0943 -0.2824
  175SOPE   H4X19921   0.038   2.669   9.657 -1.4722 -0.2736  0.7779
  175SOPE   H4Y19922  -0.038   2.512   9.663  0.4121  0.5325 -3.2744
  175SOPE   C3519923   0.138   2.519   9.550  0.2791  0.6492  0.4113
  175SOPE   H5X19924   0.156   2.411   9.562  0.8750  1.0518  3.4633
  175SOPE   H5Y19925   0.236   2.572   9.542  0.6586 -0.0262  0.5865
  175SOPE   C3619926   0.059   2.535   9.415 -0.1269  0.7783 -0.0097
  175SOPE   H6X19927   0.056   2.643   9.388 -0.0386  0.3456 -1.7729
  175SOPE   H6Y19928  -0.043   2.496   9.436 -0.5804  1.1977 -1.4356
  175SOPE   C3719929   0.127   2.453   9.306  0.4821  0.1043  0.5066
  175SOPE   H7X19930   0.122   2.345   9.331  0.0518  0.1336  0.5523
  175SOPE   H7Y19931   0.231   2.489   9.286 -1.0080  4.6193  0.3088
  175SOPE   C3819932   0.049   2.472   9.177  0.0259  0.5066  0.5194
  175SOPE   H8X19933   0.044   2.578   9.145 -2.4946  1.0444  2.5004
  175SOPE   H8Y19934  -0.051   2.424   9.189 -0.2726  1.1046  0.4543
  175SOPE   C3919935   0.111   2.385   9.066 -0.3037  1.0298 -0.6684
  175SOPE   H9X19936   0.126   2.282   9.106  0.0884  1.3056 -0.1073
  175SOPE   H9Y19937   0.208   2.411   9.020  0.0675  1.0945  0.1334
  175SOPE  C31019938   0.004   2.367   8.954 -0.3298 -0.1317  1.2671
  175SOPE  H10X19939  -0.018   2.464   8.905 -1.6020 -0.6988  0.6902
  175SOPE  H10Y19940  -0.096   2.328   8.982 -1.6525  2.3106  0.1219
  175SOPE  C31119941   0.055   2.261   8.859  0.0052  0.0509  0.3375
  175SOPE  H11X19942   0.077   2.172   8.921 -2.2995 -0.6987  0.1194
  175SOPE  H11Y19943   0.150   2.291   8.810 -0.3718  1.3398  0.3803
  175SOPE  C31219944  -0.051   2.224   8.748 -0.7607 -0.2179 -0.2343
  175SOPE  H12X19945  -0.153   2.208   8.791 -0.7271 -0.8826 -0.3985
  175SOPE  H12Y19946  -0.028   2.130   8.694  0.6895  0.0870 -0.1595
  175SOPE  C31319947  -0.059   2.316   8.625 -0.1825 -0.3392 -0.1947
  175SOPE  H13X19948   0.045   2.341   8.596  0.1512 -0.4778  0.8698
  175SOPE  H13Y19949  -0.111   2.410   8.656 -0.3767 -1.4236  2.8982
  175SOPE  C31419950  -0.123   2.252   8.505  0.3539 -0.1460  0.4427
  175SOPE  H14X19951  -0.225   2.216   8.533  1.6541 -3.3866  1.2158
  175SOPE  H14Y19952  -0.060   2.169   8.467  1.8816 -0.0258  2.6327
  175SOPE  C31519953  -0.154   2.356   8.403  0.3765  0.4177  0.1810
  175SOPE  H15X19954  -0.062   2.416   8.388  0.4600  0.1571 -0.3709
  175SOPE  H15Y19955  -0.235   2.411   8.456  1.0255  1.4141  0.1371
  175SOPE  C31619956  -0.205   2.291   8.275  0.0892 -0.0760 -0.4414
  175SOPE  H16X19957  -0.121   2.233   8.232 -1.0134 -2.1947  0.1803
  175SOPE  H16Y19958  -0.252   2.367   8.208 -1.6455  0.7971  1.6917
  175SOPE  C31719959  -0.320   2.185   8.289 -0.1039 -0.2794 -0.4035
  175SOPE  H17X19960  -0.402   2.235   8.344  0.2579  0.8134 -0.8353
  175SOPE  H17Y19961  -0.300   2.104   8.362 -0.4661  0.9730  1.0979
  175SOPE  C31819962  -0.372   2.133   8.156 -0.1848 -0.1544 -0.4707
  175SOPE  H18X19963  -0.420   2.221   8.107 -0.9386  1.4919  3.0696
  175SOPE  H18Y19964  -0.448   2.056   8.182 -2.1787  1.8777 -0.1464
  175SOPE  H18Z19965  -0.293   2.091   8.090  0.0557  1.8851 -1.5263
  176SOPE     N19966   0.126   0.925  11.025  0.1501  0.1288  0.2454
  176SOPE   HN119967   0.101   0.837  11.074 -0.3714 -0.3828 -0.9186
  176SOPE   HN219968   0.228   0.926  11.003  0.3785  0.4084  1.3264
  176SOPE   HN319969   0.092   1.001  11.087 -1.2891  0.4985 -0.9730
  176SOPE   C1219970   0.052   0.924  10.894 -0.0691 -0.0647  0.0039
  176SOPE  H12A19971   0.068   0.827  10.844  1.2212  0.9568 -1.6012
  176SOPE  H12B19972   0.099   1.003  10.831  0.1700 -0.2496 -0.0507
  176SOPE   C1119973  -0.098   0.950  10.906 -0.2783  0.0354 -0.3951
  176SOPE  H11A19974  -0.145   0.856  10.942 -0.5331 -0.4560 -1.9460
  176SOPE  H11B19975  -0.144   0.957  10.805  0.8513  0.9854 -0.8632
  176SOPE     P19976  -0.207   1.197  10.955 -0.1154 -0.0230 -0.6144
  176SOPE   O1319977  -0.128   1.302  11.021  0.0085 -0.4406  0.3179
  176SOPE   O1419978  -0.348   1.176  11.001 -0.3307 -0.9982 -0.0522
  176SOPE   O1219979  -0.126   1.066  10.986  0.1356 -0.4457  0.2501
  176SOPE   O1119980  -0.206   1.224  10.801 -0.0134  0.0192  0.4036
  176SOPE    C119981  -0.188   1.355  10.752 -1.2200 -0.1005  0.9046
  176SOPE    HA19982  -0.081   1.386  10.754 -1.4283  0.8833 -1.6667
  176SOPE    HB19983  -0.240   1.434  10.811 -0.1287  0.7901  0.7107
  176SOPE    C219984  -0.248   1.361  10.616  0.1761 -0.6743  0.6191
  176SOPE    HS19985  -0.182   1.299  10.552 -0.0109  0.0331 -0.2824
  176SOPE   O2119986  -0.257   1.494  10.577  0.0728 -0.0650 -0.1936
  176SOPE   C2119987  -0.158   1.547  10.507 -0.3992  0.0922  1.0602
  176SOPE   O2219988  -0.067   1.486  10.459 -0.5645  0.3458  0.2595
  176SOPE   C2219989  -0.159   1.698  10.508 -0.0869 -0.4751 -0.3202
  176SOPE   H2R19990  -0.083   1.732  10.581 -0.9079  0.2857  0.1993
  176SOPE   H2S19991  -0.260   1.733  10.537 -0.5811 -1.9350 -0.2317
  176SOPE    C319992  -0.391   1.305  10.609 -0.2436 -0.1664 -0.2299
  176SOPE    HX19993  -0.459   1.376  10.660  0.3748  0.8220 -0.7860
  176SOPE    HY19994  -0.392   1.213  10.672 -1.5665 -0.0026  0.0044
  176SOPE   O3119995  -0.443   1.280  10.477  0.2698  0.1531 -0.3462
  176SOPE   C3119996  -0.575   1.247  10.481 -0.9849 -0.2723 -0.1212
  176SOPE   O3219997  -0.630   1.213  10.583 -0.2387 -0.8456 -0.1046
  176SOPE   C3219998  -0.645   1.264  10.342 -0.5649  0.6570 -0.4486
  176SOPE   H2X19999  -0.674   1.160  10.314 -0.3831  0.7659 -1.0569
  176SOPE   H2Y20000  -0.571   1.301  10.267  1.8661 -0.8821  1.1255
  176SOPE   C2320001  -0.129   1.756  10.371  0.9651  0.1378  0.5052
  176SOPE   H3R20002  -0.021   1.769  10.348  1.0662  0.3147  1.0697
  176SOPE   H3S20003  -0.175   1.855  10.390 -0.3481 -0.3384 -0.0872
  176SOPE   C2420004  -0.209   1.700  10.253  1.2747 -0.1692  0.2733
  176SOPE   H4R20005  -0.188   1.739  10.152 -1.9385 -0.5682 -0.6087
  176SOPE   H4S20006  -0.173   1.595  10.243  1.5888  0.0851 -1.2889
  176SOPE   C2520007  -0.363   1.701  10.266  0.9188  0.3413 -0.3926
  176SOPE   H5R20008  -0.416   1.645  10.346 -1.8226  4.6967  1.0143
  176SOPE   H5S20009  -0.395   1.807  10.261 -0.5797 -0.0338  0.7606
  176SOPE   C2620010  -0.440   1.654  10.143 -0.0678  0.0586 -0.9430
  176SOPE   H6R20011  -0.406   1.551  10.121  0.8741 -0.0340  0.9103
  176SOPE   H6S20012  -0.548   1.645  10.165  0.4975 -1.0909  1.4319
  176SOPE   C2720013  -0.406   1.727  10.018  0.3343 -0.6326  0.7377
  176SOPE   H7R20014  -0.449   1.830  10.019  2.2615  0.1991  0.8493
  176SOPE   H7S20015  -0.299   1.754  10.005 -0.6425  2.5548 -1.4779
  176SOPE   C2820016  -0.446   1.654   9.884  0.4761  0.5298 -0.5685
  176SOPE   H8R20017  -0.380   1.568   9.860 -0.1080 -0.4476  1.1513
  176SOPE   H8S20018  -0.542   1.600   9.872  0.9087 -0.8578  1.7773
  176SOPE   C2920019  -0.432   1.747   9.763 -0.4090  0.2839  0.5289
  176SOPE   H9120020  -0.333   1.755   9.716  0.1055 -0.9001  1.3970
  176SOPE  C21020021  -0.531   1.812   9.708  0.2934  0.5389  0.0944
  176SOPE  H10120022  -0.508   1.890   9.634 -0.6790  1.7369  1.0255
  176SOPE  C21120023  -0.678   1.798   9.749  0.2579  0.2326 -0.0499
  176SOPE  H11R20024  -0.711   1.897   9.786  1.4405  0.7332 -0.3389
  176SOPE  H11S20025  -0.690   1.724   9.832  0.3157  0.1034 -0.1575
  176SOPE  C21220026  -0.783   1.744   9.647 -0.2872 -0.5640 -0.0902
  176SOPE  H12R20027  -0.886   1.782   9.661  0.0820  0.5270 -0.2556
  176SOPE  H12S20028  -0.780   1.633   9.647 -0.2198 -0.5787  1.9891
  176SOPE  C21320029  -0.746   1.787   9.505  0.2102  0.4336 -0.5919
  176SOPE  H13R20030  -0.652   1.741   9.468 -0.8702 -0.8286 -1.8034
  176SOPE  H13S20031  -0.722   1.896   9.497  2.0051  0.1479  0.6535
  176SOPE  C21420032  -0.866   1.744   9.422  0.2677  0.2176 -0.0485
  176SOPE  H14R20033  -0.955   1.801   9.457  0.9277  0.9398  0.4737
  176SOPE  H14S20034  -0.887   1.636   9.432 -1.4433  0.0343 -4.7401
  176SOPE  C21520035  -0.830   1.776   9.275 -0.3849  0.0064  0.5320
  176SOPE  H15R20036  -0.742   1.714   9.246 -1.6339 -0.9563 -1.3644
  176SOPE  H15S20037  -0.797   1.882   9.271 -0.8709  0.1368 -0.2062
  176SOPE  C21620038  -0.946   1.753   9.178 -0.5345 -0.5842  0.3042
  176SOPE  H16R20039  -1.035   1.818   9.196  0.1129  0.6643 -0.9063
  176SOPE  H16S20040  -0.977   1.648   9.198  0.2122 -1.0303 -0.8629
  176SOPE  C21720041  -0.905   1.767   9.032 -0.0936  0.2176 -0.7583
  176SOPE  H17R20042  -0.986   1.720   8.972  1.2056 -1.1517 -1.4764
  176SOPE  H17S20043  -0.809   1.713   9.020 -0.0218 -0.3656  2.1584
  176SOPE  C21820044  -0.879   1.909   8.975 -0.0730  0.0199 -0.1627
  176SOPE  H18R20045  -0.834   1.970   9.056 -0.5246  0.9306 -0.5995
  176SOPE  H18S20046  -0.970   1.968   8.951  0.9034  1.3502 -0.6681
  176SOPE  H18T20047  -0.809   1.914   8.890 -0.6879 -0.9588 -0.7382
  176SOPE   C3320048  -0.770   1.360  10.339  0.2970 -0.3283  0.1774
  176SOPE   H3X20049  -0.728   1.463  10.350  1.0521 -0.6991  0.7922
  176SOPE   H3Y20050  -0.841   1.338  10.422  1.8791  1.8177  2.1605
  176SOPE   C3420051  -0.841   1.343  10.207 -0.0844  0.5580 -0.3591
  176SOPE   H4X20052  -0.939   1.394  10.219  0.4948  1.5537  0.1873
  176SOPE   H4Y20053  -0.858   1.233  10.202  2.4058  0.1951 -1.1144
  176SOPE   C3520054  -0.766   1.407  10.087 -0.9210 -0.8707 -0.4610
  176SOPE   H5X20055  -0.673   1.350  10.068 -1.9763 -3.4851  1.8586
  176SOPE   H5Y20056  -0.729   1.508  10.112  1.0223 -1.1764 -1.9954
  176SOPE   C3620057  -0.834   1.391   9.949  0.0855 -0.2081 -0.3896
  176SOPE   H6X20058  -0.868   1.287   9.928  2.9812 -1.3487  0.4044
  176SOPE   H6Y20059  -0.762   1.414   9.868  1.8496 -0.6526  1.0428
  176SOPE   C3720060  -0.956   1.479   9.941  0.1975 -0.8624  0.7970
  176SOPE   H7X20061  -0.941   1.583   9.978  0.6594  0.2429 -2.3482
  176SOPE   H7Y20062  -1.036   1.435  10.003 -0.1412 -1.8011 -0.2986
  176SOPE   C3820063  -1.017   1.477   9.801  0.6620  0.1790  0.2439
  176SOPE   H8X20064  -1.022   1.374   9.760 -0.7183 -0.3292  1.6499
  176SOPE   H8Y20065  -0.953   1.532   9.729  0.0570  1.4785  0.7028
  176SOPE   C3920066  -1.157   1.539   9.802  0.1887 -0.1820  0.5168
  176SOPE   H9X20067  -1.146   1.643   9.837  1.2710 -0.4427  0.9722
  176SOPE   H9Y20068  -1.222   1.491   9.879 -1.6364  0.5315 -0.5670
  176SOPE  C31020069  -1.238   1.538   9.669 -0.9495  0.9911  0.5199
  176SOPE  H10X20070  -1.237   1.433   9.632  3.3075  1.3161 -0.6148
  176SOPE  H10Y20071  -1.175   1.587   9.592 -1.9128 -1.9245 -2.2761
  176SOPE  C31120072  -1.378   1.588   9.689  0.3998 -0.5140  0.4060
  176SOPE  H11X20073  -1.366   1.691   9.730 -1.1569  0.7647 -2.1488
  176SOPE  H11Y20074  -1.426   1.535   9.773 -1.1731  0.3854  0.0905
  176SOPE  C31220075  -1.463   1.592   9.561 -0.0363  0.1082 -0.6471
  176SOPE  H12X20076  -1.557   1.649   9.571 -1.2703 -2.2025  1.4231
  176SOPE  H12Y20077  -1.497   1.492   9.527 -0.6725 -0.8934  2.7141
  176SOPE  C31320078  -1.386   1.646   9.440  0.0474 -0.1439  0.3319
  176SOPE  H13X20079  -1.310   1.571   9.410 -0.6144  0.0420 -1.8594
  176SOPE  H13Y20080  -1.335   1.744   9.458  0.5305 -0.2715 -0.3293
  176SOPE  C31420081  -1.472   1.665   9.315 -0.3692 -0.1055  0.2248
  176SOPE  H14X20082  -1.552   1.741   9.328 -0.2124  0.2446 -0.7850
  176SOPE  H14Y20083  -1.510   1.564   9.293 -2.3596  1.2124 -2.6334
  176SOPE  C31520084  -1.389   1.703   9.188  0.3023  0.6656 -0.4618
  176SOPE  H15X20085  -1.299   1.642   9.166 -0.0025 -0.3444  1.0550
  176SOPE  H15Y20086  -1.353   1.808   9.197 -2.6441  1.6472  0.4758
  176SOPE  C31620087  -1.478   1.690   9.058  0.0681  0.1811  0.2072
  176SOPE  H16X20088  -1.578   1.736   9.070  0.5892  0.9137  1.9890
  176SOPE  H16Y20089  -1.501   1.584   9.039  1.9898  0.1118 -2.0211
  176SOPE  C31720090  -1.403   1.743   8.930  0.5585 -0.2830  0.6324
  176SOPE  H17X20091  -1.296   1.720   8.945  0.7046 -0.7291 -0.9836
  176SOPE  H17Y20092  -1.420   1.853   8.924 -3.8610 -0.8323  1.5308
  176SOPE  C31820093  -1.454   1.681   8.797  0.2264  0.1988 -0.0555
  176SOPE  H18X20094  -1.441   1.749   8.710 -0.1626  0.3356 -0.0088
  176SOPE  H18Y20095  -1.563   1.676   8.819  0.3296 -0.7926  0.2418
  176SOPE  H18Z20096  -1.424   1.576   8.779 -1.7269 -0.4691  0.4527
  177SOPE     N20097   6.071   5.907  10.853  0.0828  0.0389  0.4268
  177SOPE   HN120098   6.160   5.961  10.859 -1.6444  3.0238  0.1026
  177SOPE   HN220099   6.083   5.815  10.808  1.5743 -0.2487  1.3902
  177SOPE   HN320100   6.006   5.958  10.790 -0.4153  0.9044  1.6093
  177SOPE   C1220101   6.015   5.878  10.984 -0.2534  0.2964 -0.1759
  177SOPE  H12A20102   6.052   5.948  11.062  0.5158 -1.7253  1.3226
  177SOPE  H12B20103   6.049   5.776  11.010 -2.2346 -0.5332 -0.7301
  177SOPE   C1120104   5.867   5.855  10.956  0.0518  0.0312  0.7404
  177SOPE  H11A20105   5.819   5.814  11.047 -1.0277 -0.8835 -0.2187
  177SOPE  H11B20106   5.848   5.773  10.883  0.9227  0.5945 -0.1271
  177SOPE     P20107   5.728   6.067  11.012 -0.2712 -0.1603  0.2256
  177SOPE   O1320108   5.835   6.138  11.086  0.1095  0.1673 -0.1918
  177SOPE   O1420109   5.639   5.986  11.095 -0.0300 -0.1192 -0.4430
  177SOPE   O1220110   5.795   5.974  10.905 -0.0161  0.6230 -0.1994
  177SOPE   O1120111   5.644   6.162  10.921  0.8671 -0.3484 -0.0686
  177SOPE    C120112   5.596   6.116  10.793  0.2698  0.2374 -1.0259
  177SOPE    HA20113   5.498   6.166  10.779 -0.2414 -0.5785 -0.3814
  177SOPE    HB20114   5.574   6.008  10.795  0.8943  0.1404  1.4671
  177SOPE    C220115   5.676   6.166  10.675 -0.0608 -0.3367 -0.1785
  177SOPE    HS20116   5.779   6.129  10.694  0.2321  0.8545  0.5764
  177SOPE   O2120117   5.667   6.312  10.677 -0.3093 -0.0077  0.3649
  177SOPE   C2120118   5.769   6.370  10.617  0.5120  0.6119 -0.2601
  177SOPE   O2220119   5.862   6.307  10.573  0.7020 -0.4890 -0.5036
  177SOPE   C2220120   5.760   6.527  10.626 -0.3330 -0.2006  0.0129
  177SOPE   H2R20121   5.848   6.552  10.563  0.5651 -1.8191  0.5935
  177SOPE   H2S20122   5.763   6.551  10.734  1.0324 -3.8883  0.8567
  177SOPE    C320123   5.618   6.106  10.539 -0.0416  0.2301  0.1591
  177SOPE    HX20124   5.625   5.996  10.554  2.0593  0.2940 -0.1702
  177SOPE    HY20125   5.687   6.127  10.455 -3.0443  0.8906 -2.2115
  177SOPE   O3120126   5.484   6.157  10.515  0.0118  0.2203 -0.1201
  177SOPE   C3120127   5.394   6.063  10.479 -0.5757  0.3164 -0.0667
  177SOPE   O3220128   5.416   5.944  10.482  0.1897 -0.6126  0.2973
  177SOPE   C3220129   5.256   6.134  10.472  0.1441 -0.4970 -0.1550
  177SOPE   H2X20130   5.277   6.238  10.439 -0.1961 -0.5192 -0.4442
  177SOPE   H2Y20131   5.223   6.140  10.578  1.2719  0.7978  0.1270
  177SOPE   C2320132   5.630   6.582  10.569  0.5602 -0.3047  0.1723
  177SOPE   H3R20133   5.625   6.692  10.583  1.1964 -0.3262  0.5786
  177SOPE   H3S20134   5.550   6.529  10.625 -0.1549 -0.7439 -1.2214
  177SOPE   C2420135   5.603   6.533  10.424 -0.3917  0.7249  0.1766
  177SOPE   H4R20136   5.697   6.525  10.365 -0.9187  2.1665 -0.8714
  177SOPE   H4S20137   5.548   6.437  10.426 -0.2214  0.6504  1.6051
  177SOPE   C2520138   5.515   6.621  10.336 -0.0330 -0.2332  0.2657
  177SOPE   H5R20139   5.417   6.643  10.384  1.1851  0.5765  2.4916
  177SOPE   H5S20140   5.561   6.721  10.326 -2.1613  0.8694  1.2342
  177SOPE   C2620141   5.485   6.558  10.195  0.1319  0.4962  0.0298
  177SOPE   H6R20142   5.580   6.559  10.135 -0.6574 -0.6633 -1.2656
  177SOPE   H6S20143   5.447   6.454  10.200  2.3452 -0.3377  0.2159
  177SOPE   C2720144   5.383   6.639  10.111  0.0023  0.3846  0.0584
  177SOPE   H7R20145   5.297   6.663  10.176 -0.6386  0.2242 -0.7291
  177SOPE   H7S20146   5.431   6.736  10.085 -0.1580  0.1733 -1.0291
  177SOPE   C2820147   5.342   6.572   9.983  0.1571 -0.3228 -0.0784
  177SOPE   H8R20148   5.430   6.542   9.922 -0.3434  1.0256 -1.4807
  177SOPE   H8S20149   5.293   6.479  10.018  1.8293 -0.9134  0.7551
  177SOPE   C2920150   5.244   6.660   9.902 -0.3412 -0.4588  0.0089
  177SOPE   H9120151   5.169   6.719   9.956  0.6089  1.8154 -1.0912
  177SOPE  C21020152   5.252   6.679   9.767  0.3818  0.5716  0.3805
  177SOPE  H10120153   5.184   6.746   9.713  1.8882  1.9230  0.1073
  177SOPE  C21120154   5.356   6.608   9.681 -0.0414  0.2425  0.7917
  177SOPE  H11R20155   5.379   6.505   9.715 -3.5932 -0.4406  1.2553
  177SOPE  H11S20156   5.456   6.657   9.672 -0.1728  0.6681  1.6161
  177SOPE  C21220157   5.310   6.594   9.532  0.0977  0.0690 -0.4340
  177SOPE  H12R20158   5.316   6.697   9.491 -1.2566  0.6104  0.7019
  177SOPE  H12S20159   5.209   6.550   9.520  0.6253 -0.5076 -3.1446
  177SOPE  C21320160   5.397   6.508   9.435 -0.6654 -0.1152  0.1899
  177SOPE  H13R20161   5.416   6.406   9.475  1.4302  0.0328 -0.3528
  177SOPE  H13S20162   5.501   6.547   9.430 -1.1567  1.0146 -1.3853
  177SOPE  C21420163   5.338   6.486   9.295  0.5449 -0.1376 -0.1682
  177SOPE  H14R20164   5.294   6.576   9.248  1.3634  0.8734  0.9782
  177SOPE  H14S20165   5.251   6.417   9.297  1.4008 -1.2080  0.6710
  177SOPE  C21520166   5.453   6.423   9.208  0.6334 -0.3629  0.2319
  177SOPE  H15R20167   5.460   6.313   9.216 -0.5920 -0.5615 -1.2864
  177SOPE  H15S20168   5.548   6.478   9.229 -0.9880  1.7240  2.4563
  177SOPE  C21620169   5.437   6.425   9.056  0.0269 -0.4092 -0.7888
  177SOPE  H16R20170   5.434   6.528   9.013 -0.1496 -0.8569 -1.8610
  177SOPE  H16S20171   5.336   6.385   9.034 -1.2743  1.7469  1.0561
  177SOPE  C21720172   5.552   6.343   8.990  0.1281 -0.1962 -0.2262
  177SOPE  H17R20173   5.529   6.235   8.994 -0.9458  0.0647  0.7220
  177SOPE  H17S20174   5.641   6.379   9.046  0.7963  0.3710 -1.6067
  177SOPE  C21820175   5.573   6.379   8.841 -0.2630  0.0944  0.3128
  177SOPE  H18R20176   5.594   6.488   8.832 -1.1459 -0.0065 -3.9490
  177SOPE  H18S20177   5.483   6.350   8.782  0.0944 -1.0321  0.3199
  177SOPE  H18T20178   5.659   6.325   8.796  0.1329  1.7631 -0.9590
  177SOPE   C3320179   5.153   6.057  10.381 -0.2709 -0.0034  0.8458
  177SOPE   H3X20180   5.056   6.111  10.388  0.0550  0.6573  0.3482
  177SOPE   H3Y20181   5.136   5.959  10.430  2.2432  0.1493  2.1424
  177SOPE   C3420182   5.194   6.032  10.228  0.5666 -0.5734 -0.4084
  177SOPE   H4X20183   5.099   5.996  10.183 -1.0002  0.0467  2.2631
  177SOPE   H4Y20184   5.276   5.958  10.214  0.7752 -0.7669  1.5913
  177SOPE   C3520185   5.234   6.165  10.161 -0.3042 -0.3338  0.0609
  177SOPE   H5X20186   5.339   6.185  10.189 -1.0600 -0.0451  2.8459
  177SOPE   H5Y20187   5.165   6.238  10.208 -2.7410 -1.9373 -0.9132
  177SOPE   C3620188   5.216   6.169  10.005  0.6389 -0.1923 -0.0577
  177SOPE   H6X20189   5.237   6.068   9.964 -0.5376 -0.1985 -0.6587
  177SOPE   H6Y20190   5.293   6.233   9.958  0.7242  0.0802  0.4513
  177SOPE   C3720191   5.087   6.239   9.950  0.1851 -0.5389  0.0140
  177SOPE   H7X20192   5.075   6.341   9.992 -2.1357 -0.7127 -0.1815
  177SOPE   H7Y20193   5.002   6.176   9.985 -0.5658  0.3639 -0.1777
  177SOPE   C3820194   5.091   6.253   9.799  0.0502  0.5477  0.4570
  177SOPE   H8X20195   5.119   6.154   9.757 -2.1982  0.2009 -0.3088
  177SOPE   H8Y20196   5.176   6.319   9.771  0.7431 -0.9730 -1.0232
  177SOPE   C3920197   4.965   6.317   9.737  0.2605 -0.2091 -0.6008
  177SOPE   H9X20198   4.962   6.425   9.766 -0.0883 -0.3863  0.0280
  177SOPE   H9Y20199   4.872   6.270   9.776  0.6785 -1.4001 -1.0322
  177SOPE  C31020200   4.967   6.300   9.588 -0.7538 -0.2595 -0.0213
  177SOPE  H10X20201   4.961   6.190   9.571  0.0149 -0.4531  0.9106
  177SOPE  H10Y20202   5.059   6.344   9.545 -0.6465  0.6689  1.1380
  177SOPE  C31120203   4.866   6.384   9.503 -0.3985  0.4681  0.5690
  177SOPE  H11X20204   4.887   6.492   9.522  1.7786  0.4302 -1.4066
  177SOPE  H11Y20205   4.760   6.361   9.529 -0.8209 -2.0689 -3.0699
  177SOPE  C31220206   4.885   6.345   9.358  0.0964 -0.1129 -0.1568
  177SOPE  H12X20207   4.873   6.235   9.348 -1.1277 -0.0347  0.3589
  177SOPE  H12Y20208   4.991   6.362   9.331  0.3407 -3.0569 -1.1975
  177SOPE  C31320209   4.807   6.434   9.261 -0.1521 -0.1576  0.0821
  177SOPE  H13X20210   4.827   6.543   9.262 -2.7536  0.3423  2.7986
  177SOPE  H13Y20211   4.701   6.435   9.295 -0.2615 -0.2780 -0.2525
  177SOPE  C31420212   4.816   6.366   9.118  0.1205 -0.8594  0.0764
  177SOPE  H14X20213   4.730   6.409   9.062 -2.0326  1.6062  4.9183
  177SOPE  H14Y20214   4.793   6.259   9.135 -0.4389 -0.9326 -1.0915
  177SOPE  C31520215   4.950   6.380   9.049 -0.0967  0.4510  0.5226
  177SOPE  H15X20216   5.035   6.345   9.111 -0.6231 -1.8040  0.0207
  177SOPE  H15Y20217   4.957   6.483   9.008 -2.3799  1.0504  1.5451
  177SOPE  C31620218   4.953   6.294   8.911  0.0544 -0.4531 -0.1026
  177SOPE  H16X20219   4.847   6.293   8.877 -0.4760 -1.0895  1.5739
  177SOPE  H16Y20220   4.974   6.190   8.943  0.9560  0.1637  1.3573
  177SOPE  C31720221   5.049   6.346   8.810  0.3261  0.0051  0.1920
  177SOPE  H17X20222   5.146   6.377   8.855  1.4198 -1.9858 -0.6760
  177SOPE  H17Y20223   5.013   6.434   8.753  0.9008 -0.0833 -0.3219
  177SOPE  C31820224   5.111   6.238   8.719 -1.1160  0.1262 -0.3833
  177SOPE  H18X20225   5.168   6.156   8.769 -0.9340  0.6333  0.2505
  177SOPE  H18Y20226   5.184   6.278   8.646 -0.4042 -0.1860  0.1536
  177SOPE  H18Z20227   5.028   6.190   8.663 -0.8862  0.0326 -0.6447
  178SOPE     N20228   3.214   4.091  10.688  0.1298  0.7046 -0.7986
  178SOPE   HN120229   3.136   4.094  10.620 -1.2163 -2.6956  0.4959
  178SOPE   HN220230   3.302   4.109  10.635  0.9827  2.0278  1.0121
  178SOPE   HN320231   3.211   4.004  10.745 -2.1506  0.6889 -0.9055
  178SOPE   C1220232   3.199   4.206  10.780  0.0394 -0.3989 -0.0460
  178SOPE  H12A20233   3.211   4.292  10.711 -1.4122 -1.9872 -2.3259
  178SOPE  H12B20234   3.281   4.209  10.855 -0.0252  0.4784 -0.0144
  178SOPE   C1120235   3.058   4.204  10.858 -0.9340 -0.3928  0.5227
  178SOPE  H11A20236   3.036   4.299  10.910 -0.2352  1.9278 -3.2232
  178SOPE  H11B20237   3.052   4.120  10.930 -3.3874  0.0072  0.8318
  178SOPE     P20238   2.867   4.300  10.697 -0.0121 -0.0760  0.2295
  178SOPE   O1320239   2.794   4.370  10.806  0.6908 -0.0823  0.3884
  178SOPE   O1420240   2.775   4.245  10.602 -0.4283 -0.1847  0.2075
  178SOPE   O1220241   2.953   4.190  10.762 -0.2389 -0.4146  0.8251
  178SOPE   O1120242   2.973   4.405  10.637  0.4452 -0.8260 -0.4022
  178SOPE    C120243   2.917   4.507  10.550 -0.7903  0.0118 -0.1451
  178SOPE    HA20244   2.982   4.597  10.557 -1.9252  0.9137 -1.1406
  178SOPE    HB20245   2.821   4.551  10.583 -0.1153  1.8014 -0.5284
  178SOPE    C220246   2.928   4.459  10.402 -0.1818  0.0076 -0.2274
  178SOPE    HS20247   2.874   4.362  10.392  0.1320 -0.0674 -1.2241
  178SOPE   O2120248   3.071   4.453  10.380  0.6225 -0.1333  0.6175
  178SOPE   C2120249   3.122   4.328  10.380  0.4843  0.3725 -0.3867
  178SOPE   O2220250   3.061   4.224  10.389  0.0982 -0.3468 -0.5135
  178SOPE   C2220251   3.269   4.341  10.350  0.5615  0.1981  0.2547
  178SOPE   H2R20252   3.323   4.244  10.344 -0.9646 -0.6738  0.3323
  178SOPE   H2S20253   3.311   4.390  10.440 -0.1668 -0.2453  0.8333
  178SOPE    C320254   2.870   4.556  10.297 -0.3268 -0.5893 -0.6399
  178SOPE    HX20255   2.924   4.652  10.310 -2.0619  0.6359 -2.3534
  178SOPE    HY20256   2.761   4.559  10.317 -0.4664 -2.5392 -1.0137
  178SOPE   O3120257   2.888   4.504  10.161  0.3984  0.0016 -0.1852
  178SOPE   C3120258   2.831   4.595  10.079 -0.6481  0.4481  0.0982
  178SOPE   O3220259   2.758   4.683  10.113  0.2185 -0.0447  0.4400
  178SOPE   C3220260   2.891   4.559   9.944  0.1416 -0.2745 -0.2244
  178SOPE   H2X20261   2.881   4.449   9.930  0.6558  0.0024 -3.1421
  178SOPE   H2Y20262   2.997   4.573   9.972 -0.1002 -3.8741  2.9524
  178SOPE   C2320263   3.299   4.423  10.220 -0.3089  0.4693 -0.5497
  178SOPE   H3R20264   3.409   4.431  10.206 -0.5440  2.2057 -1.4326
  178SOPE   H3S20265   3.260   4.526  10.233 -2.6835 -0.4532 -0.0595
  178SOPE   C2420266   3.246   4.349  10.097 -0.0526 -0.0957  0.2709
  178SOPE   H4R20267   3.302   4.257  10.066  0.9710  1.1787 -1.7654
  178SOPE   H4S20268   3.140   4.325  10.118  0.4180 -2.7914 -0.1610
  178SOPE   C2520269   3.253   4.436   9.968 -0.4103 -0.4065 -0.4272
  178SOPE   H5R20270   3.216   4.535  10.005 -1.3122 -0.4414 -1.2222
  178SOPE   H5S20271   3.357   4.457   9.934 -0.7134  1.6415 -0.1669
  178SOPE   C2620272   3.174   4.371   9.854 -0.1558  0.4897 -1.1160
  178SOPE   H6R20273   3.211   4.266   9.847 -2.1665 -0.2456 -1.0271
  178SOPE   H6S20274   3.065   4.361   9.875  0.4910 -0.9355  1.8031
  178SOPE   C2720275   3.175   4.449   9.723  0.3993  0.0490 -0.0408
  178SOPE   H7R20276   3.125   4.547   9.737  1.1162  0.4691 -0.4009
  178SOPE   H7S20277   3.280   4.477   9.698 -0.2156  2.0090 -0.5068
  178SOPE   C2820278   3.111   4.386   9.597 -0.4924 -0.0609  0.4075
  178SOPE   H8R20279   3.003   4.386   9.620 -0.4418 -0.0733  0.6453
  178SOPE   H8S20280   3.132   4.455   9.512  0.2016 -0.1340  0.5087
  178SOPE   C2920281   3.151   4.250   9.548 -0.5703  0.5721  0.6601
  178SOPE   H9120282   3.176   4.191   9.638 -1.7380  1.1210  1.3439
  178SOPE  C21020283   3.156   4.205   9.418  0.2928  0.2909  0.5112
  178SOPE  H10120284   3.189   4.100   9.406  0.0158  0.0824  1.5205
  178SOPE  C21120285   3.117   4.288   9.294  0.2963 -0.3575 -0.6837
  178SOPE  H11R20286   3.181   4.277   9.204 -0.3118  1.7884 -1.4035
  178SOPE  H11S20287   3.096   4.392   9.326 -2.7554 -1.1664  0.1497
  178SOPE  C21220288   2.981   4.248   9.242 -0.1604  0.2391  0.2174
  178SOPE  H12R20289   2.896   4.266   9.311  0.8671  0.5419  1.4313
  178SOPE  H12S20290   2.977   4.142   9.207 -0.6848  1.2203 -2.7984
  178SOPE  C21320291   2.927   4.322   9.116  0.1078  0.0930 -0.0800
  178SOPE  H13R20292   2.912   4.425   9.155 -2.8775 -1.0312  1.8966
  178SOPE  H13S20293   2.827   4.290   9.080  0.8699  0.0086 -2.2464
  178SOPE  C21420294   3.018   4.318   8.991 -0.0170 -0.1547  0.4848
  178SOPE  H14R20295   3.022   4.211   8.962  2.5498  0.6897 -2.6555
  178SOPE  H14S20296   3.123   4.348   9.015  0.0200  2.6257 -2.7738
  178SOPE  C21520297   2.962   4.419   8.882  0.7637 -0.0088  0.1214
  178SOPE  H15R20298   2.962   4.521   8.927  0.8016  0.1060 -0.1388
  178SOPE  H15S20299   2.855   4.398   8.862  0.9598 -1.0841  0.1660
  178SOPE  C21620300   3.048   4.417   8.755  0.0906 -0.5188 -0.0441
  178SOPE  H16R20301   3.046   4.313   8.714 -0.1961 -0.5430  0.0297
  178SOPE  H16S20302   3.152   4.450   8.771  0.8059 -1.8684 -1.6955
  178SOPE  C21720303   2.985   4.504   8.640 -0.1449  0.3086 -0.2314
  178SOPE  H17R20304   2.980   4.609   8.676 -0.7567 -0.4921  2.1061
  178SOPE  H17S20305   2.885   4.458   8.628 -0.0138  0.4891 -2.1967
  178SOPE  C21820306   3.060   4.483   8.508 -0.2587 -0.7484  0.2695
  178SOPE  H18R20307   3.015   4.536   8.422  0.0373 -2.2199 -0.7967
  178SOPE  H18S20308   3.069   4.373   8.496  1.9966 -0.4219 -1.2424
  178SOPE  H18T20309   3.163   4.523   8.521 -0.0831 -0.6355 -1.3771
  178SOPE   C3320310   2.840   4.641   9.830  0.1472 -0.2335  0.0217
  178SOPE   H3X20311   2.920   4.668   9.758  0.1253  0.5055  0.2742
  178SOPE   H3Y20312   2.803   4.735   9.876 -0.6504  0.3114 -1.6971
  178SOPE   C3420313   2.735   4.560   9.757 -0.1880  0.5434 -0.3955
  178SOPE   H4X20314   2.644   4.531   9.813  0.1002  0.8059  0.2164
  178SOPE   H4Y20315   2.788   4.468   9.723 -1.3295  0.1540 -1.1460
  178SOPE   C3520316   2.689   4.612   9.616 -0.0092 -0.6768  0.9791
  178SOPE   H5X20317   2.630   4.703   9.638  0.8836  0.0990  0.1775
  178SOPE   H5Y20318   2.627   4.529   9.575  0.4263 -0.3699 -0.3176
  178SOPE   C3620319   2.801   4.640   9.522 -0.3824 -1.0611  0.3277
  178SOPE   H6X20320   2.886   4.570   9.540  0.8203  0.2466 -0.1416
  178SOPE   H6Y20321   2.835   4.742   9.548 -0.6293 -0.4268 -1.7362
  178SOPE   C3720322   2.758   4.614   9.378  0.3871 -0.3851 -0.3703
  178SOPE   H7X20323   2.723   4.509   9.376  0.3803 -0.4293  1.3711
  178SOPE   H7Y20324   2.844   4.629   9.310 -0.7091  1.7201 -1.3556
  178SOPE   C3820325   2.648   4.711   9.323 -0.0294 -0.1178  0.3656
  178SOPE   H8X20326   2.692   4.813   9.320 -0.1355 -0.0644  0.6981
  178SOPE   H8Y20327   2.567   4.720   9.397  1.1337 -1.5411  1.8590
  178SOPE   C3920328   2.595   4.682   9.184  0.4826 -0.2042 -0.0061
  178SOPE   H9X20329   2.540   4.774   9.154  0.1732  0.0449  1.2908
  178SOPE   H9Y20330   2.520   4.602   9.202  0.7544 -0.5717 -0.4989
  178SOPE  C31020331   2.703   4.632   9.080  0.9341 -0.2956 -0.6590
  178SOPE  H10X20332   2.752   4.537   9.111  1.1515 -0.1288 -0.4831
  178SOPE  H10Y20333   2.782   4.710   9.079  1.0875 -0.4478 -0.4326
  178SOPE  C31120334   2.644   4.633   8.940 -0.1004  0.9127 -0.4111
  178SOPE  H11X20335   2.575   4.546   8.941 -0.9091  1.5380  0.6136
  178SOPE  H11Y20336   2.723   4.614   8.865 -1.2271 -1.1884 -1.0933
  178SOPE  C31220337   2.577   4.763   8.893  0.3173  0.0747 -0.2802
  178SOPE  H12X20338   2.484   4.781   8.951  2.3313  0.7767  2.8781
  178SOPE  H12Y20339   2.533   4.741   8.793 -0.2002 -1.5716  0.2835
  178SOPE  C31320340   2.669   4.880   8.886  0.1484 -0.0435 -0.8215
  178SOPE  H13X20341   2.766   4.838   8.852 -0.0470 -0.3650 -0.9911
  178SOPE  H13Y20342   2.671   4.929   8.985 -1.7535 -1.8011  0.1158
  178SOPE  C31420343   2.618   4.988   8.787 -0.5364 -0.1029  0.1352
  178SOPE  H14X20344   2.509   5.001   8.805 -0.5581 -0.3579  0.1966
  178SOPE  H14Y20345   2.625   4.962   8.679  0.1932 -0.3424  0.2419
  178SOPE  C31520346   2.685   5.127   8.793  0.5030 -0.3387 -0.0552
  178SOPE  H15X20347   2.669   5.155   8.899 -1.9403 -2.8067  0.2743
  178SOPE  H15Y20348   2.642   5.192   8.714  0.7820 -0.5903 -0.4207
  178SOPE  C31620349   2.840   5.127   8.773 -1.1743  0.6689  0.1442
  178SOPE  H16X20350   2.853   5.094   8.668 -1.8782 -0.7649  0.4868
  178SOPE  H16Y20351   2.884   5.046   8.836  1.2752  2.2972  0.5625
  178SOPE  C31720352   2.883   5.277   8.798  0.7187  0.4401  0.1813
  178SOPE  H17X20353   2.979   5.290   8.852  1.2368  1.2196 -0.9070
  178SOPE  H17Y20354   2.801   5.333   8.848  0.5043  1.3634 -1.1626
  178SOPE  C31820355   2.904   5.338   8.659  0.1217  0.0602  0.2724
  178SOPE  H18X20356   2.948   5.440   8.668  1.9765 -0.6423 -0.8322
  178SOPE  H18Y20357   2.808   5.347   8.604  0.0749 -4.1818 -0.4292
  178SOPE  H18Z20358   2.969   5.279   8.591 -0.5236 -1.4341  0.9305
  179SOPE     N20359   1.775   6.511   6.349  0.3249  0.3627 -0.0937
  179SOPE   HN120360   1.700   6.564   6.300 -0.3222 -0.6549 -0.2161
  179SOPE   HN220361   1.864   6.561   6.366 -0.1913  1.3158 -0.1614
  179SOPE   HN320362   1.799   6.419   6.306  0.4426  0.1556  0.4058
  179SOPE   C1220363   1.720   6.477   6.483  0.1095  0.0753  0.2144
  179SOPE  H12A20364   1.685   6.373   6.465 -2.8075  1.2258 -1.0154
  179SOPE  H12B20365   1.633   6.542   6.507 -0.7396 -0.0821 -2.3459
  179SOPE   C1120366   1.828   6.486   6.592 -0.3638  0.4174 -0.5757
  179SOPE  H11A20367   1.781   6.471   6.691  0.3416  1.9590  0.0044
  179SOPE  H11B20368   1.877   6.586   6.583 -0.7102  0.7280  0.9689
  179SOPE     P20369   1.911   6.240   6.620 -0.3138  0.5924 -0.5932
  179SOPE   O1320370   2.009   6.151   6.554 -0.7234  0.2922 -0.2643
  179SOPE   O1420371   1.769   6.186   6.615 -0.3189 -0.2516 -0.0955
  179SOPE   O1220372   1.925   6.385   6.560 -0.0298  0.2760 -0.9353
  179SOPE   O1120373   1.959   6.247   6.773 -0.1735 -0.0125 -0.3933
  179SOPE    C120374   2.065   6.342   6.808 -0.1604  0.4156  0.1331
  179SOPE    HA20375   2.054   6.358   6.917 -0.8173  0.6376  0.0351
  179SOPE    HB20376   2.053   6.440   6.758 -0.7973  0.7702  0.9742
  179SOPE    C220377   2.206   6.294   6.780 -0.0882 -0.2307  0.2715
  179SOPE    HS20378   2.220   6.249   6.680  0.3919 -2.2298  1.2226
  179SOPE   O2120379   2.231   6.198   6.884 -0.0714 -0.4903  0.7146
  179SOPE   C2120380   2.344   6.131   6.867 -0.2791 -0.1950  0.3417
  179SOPE   O2220381   2.409   6.130   6.769  0.2397  0.0185  0.1446
  179SOPE   C2220382   2.371   6.050   6.999  0.0769  0.7948  0.3890
  179SOPE   H2R20383   2.272   6.015   7.037  1.1173 -0.6295  1.8250
  179SOPE   H2S20384   2.413   6.124   7.070  0.0972 -0.2071  1.4417
  179SOPE    C320385   2.311   6.417   6.779 -0.1678 -0.4585  0.2999
  179SOPE    HX20386   2.274   6.497   6.711 -1.1002  1.7252  3.2621
  179SOPE    HY20387   2.405   6.370   6.743  1.2981  2.4690  0.2242
  179SOPE   O3120388   2.316   6.483   6.908  0.5703 -0.1865  0.6266
  179SOPE   C3120389   2.419   6.447   6.982  0.1341 -0.7302  0.8599
  179SOPE   O3220390   2.515   6.392   6.935  0.0115 -0.5014  0.2603
  179SOPE   C3220391   2.386   6.482   7.123  0.4227  0.6816 -0.1338
  179SOPE   H2X20392   2.293   6.431   7.158  0.2781  0.0283 -1.4317
  179SOPE   H2Y20393   2.368   6.591   7.125  1.1829  0.7936  0.4335
  179SOPE   C2320394   2.466   5.927   6.994  0.1237  0.1428 -0.1887
  179SOPE   H3R20395   2.563   5.950   6.945 -0.3504  1.7375 -0.3984
  179SOPE   H3S20396   2.418   5.853   6.926  1.6331 -1.5482  0.5473
  179SOPE   C2420397   2.487   5.862   7.130  0.1277  0.1878  0.3432
  179SOPE   H4R20398   2.386   5.848   7.176 -0.0546  2.1715  0.5642
  179SOPE   H4S20399   2.535   5.762   7.118  1.4585  0.8878 -0.2388
  179SOPE   C2520400   2.582   5.945   7.217  0.1274 -0.1519 -0.1010
  179SOPE   H5R20401   2.681   5.952   7.167  0.2198 -0.3925  0.0501
  179SOPE   H5S20402   2.535   6.045   7.227 -0.5120 -0.7789  3.9879
  179SOPE   C2620403   2.609   5.882   7.355  0.1325 -0.2801  0.4714
  179SOPE   H6R20404   2.509   5.850   7.390 -0.4986 -0.4236 -1.4033
  179SOPE   H6S20405   2.663   5.787   7.339  2.1160  1.1646 -1.8953
  179SOPE   C2720406   2.685   5.964   7.456 -0.1012  0.5386 -0.3468
  179SOPE   H7R20407   2.790   5.978   7.421  0.6314 -0.4861  1.3693
  179SOPE   H7S20408   2.620   6.054   7.455 -0.5541  0.2265  0.5038
  179SOPE   C2820409   2.690   5.891   7.598  0.4217 -0.0415  0.3167
  179SOPE   H8R20410   2.745   5.794   7.600  2.8511  1.2829 -0.2517
  179SOPE   H8S20411   2.747   5.963   7.661  0.4621  0.5455 -0.3787
  179SOPE   C2920412   2.554   5.872   7.663 -0.1085  0.8125  0.1021
  179SOPE   H9120413   2.468   5.865   7.594 -0.8722  0.7761  1.0358
  179SOPE  C21020414   2.526   5.852   7.794 -0.4549 -0.7894 -0.2136
  179SOPE  H10120415   2.420   5.840   7.823 -0.8785 -0.6657 -1.6524
  179SOPE  C21120416   2.636   5.843   7.897 -0.0153 -0.2740 -0.4801
  179SOPE  H11R20417   2.611   5.930   7.961  0.8387 -1.5501  1.6508
  179SOPE  H11S20418   2.738   5.847   7.853  0.9460  2.4717  1.8661
  179SOPE  C21220419   2.630   5.715   7.973  0.3813  0.4285 -0.4068
  179SOPE  H12R20420   2.648   5.628   7.907 -2.2131 -1.3852  1.1952
  179SOPE  H12S20421   2.533   5.704   8.024 -0.6409 -1.1656 -2.6063
  179SOPE  C21320422   2.736   5.708   8.089  0.4447  0.8144  0.7566
  179SOPE  H13R20423   2.724   5.801   8.148  0.9004  1.1082  0.3850
  179SOPE  H13S20424   2.841   5.695   8.055 -0.1164  1.7308 -1.4237
  179SOPE  C21420425   2.716   5.578   8.169  0.1858 -0.3036  0.2339
  179SOPE  H14R20426   2.807   5.546   8.224 -0.9454  0.3373  2.5478
  179SOPE  H14S20427   2.710   5.500   8.089 -1.6257  0.6938 -0.6307
  179SOPE  C21520428   2.606   5.585   8.270  0.3415 -0.1654  0.2126
  179SOPE  H15R20429   2.546   5.492   8.264 -0.7364  0.5466 -0.3453
  179SOPE  H15S20430   2.538   5.673   8.263 -1.8669 -1.8198  0.3588
  179SOPE  C21620431   2.660   5.600   8.412 -0.4315  0.0335  0.6963
  179SOPE  H16R20432   2.723   5.691   8.421  1.6654 -1.3453  0.3823
  179SOPE  H16S20433   2.733   5.521   8.440  0.1831  1.0115  1.9052
  179SOPE  C21720434   2.553   5.610   8.522 -0.5405 -0.3402  0.0233
  179SOPE  H17R20435   2.485   5.522   8.520 -0.8820 -0.0660 -0.5926
  179SOPE  H17S20436   2.480   5.687   8.490 -0.9411 -0.3181  0.9877
  179SOPE  C21820437   2.621   5.623   8.658 -0.8202  0.1198  0.1538
  179SOPE  H18R20438   2.704   5.696   8.651 -2.7778  2.5447  1.2219
  179SOPE  H18S20439   2.659   5.523   8.688 -0.9098  0.2574  0.7460
  179SOPE  H18T20440   2.551   5.664   8.735 -0.3367  0.0968  0.6088
  179SOPE   C3320441   2.501   6.460   7.224  0.1579  0.3369 -0.4015
  179SOPE   H3X20442   2.576   6.537   7.195  0.3925  0.4495  0.4941
  179SOPE   H3Y20443   2.529   6.354   7.209 -3.9753 -0.8412 -0.5552
  179SOPE   C3420444   2.454   6.471   7.370  0.1649 -0.5632  0.3033
  179SOPE   H4X20445   2.350   6.430   7.373 -0.2928  0.2363 -3.0321
  179SOPE   H4Y20446   2.456   6.579   7.395 -1.9862  0.7516 -4.7119
  179SOPE   C3520447   2.540   6.396   7.475 -0.0171  0.3781  0.3347
  179SOPE   H5X20448   2.639   6.446   7.479 -0.5396  1.5343 -0.9514
  179SOPE   H5Y20449   2.565   6.293   7.441  0.9103  0.2305  1.3993
  179SOPE   C3620450   2.475   6.387   7.616 -0.1431 -1.2070  0.9434
  179SOPE   H6X20451   2.371   6.351   7.605 -0.4397 -0.1403  0.1330
  179SOPE   H6Y20452   2.468   6.486   7.667 -0.8535 -0.5331 -0.4356
  179SOPE   C3720453   2.558   6.299   7.714 -0.1520 -0.9335  0.0939
  179SOPE   H7X20454   2.664   6.331   7.726  0.2206 -1.9397 -0.4082
  179SOPE   H7Y20455   2.568   6.206   7.654  2.4526  0.4064 -1.6408
  179SOPE   C3820456   2.500   6.290   7.853 -0.5069  0.1277  0.1479
  179SOPE   H8X20457   2.528   6.193   7.899 -0.8176 -0.2624 -0.4780
  179SOPE   H8Y20458   2.389   6.298   7.856 -0.5952  0.3266 -2.2274
  179SOPE   C3920459   2.545   6.416   7.935 -0.9052 -0.2591  0.3617
  179SOPE   H9X20460   2.495   6.506   7.892 -1.5805 -0.8411 -0.0692
  179SOPE   H9Y20461   2.655   6.425   7.945 -0.8771 -1.3876  1.0368
  179SOPE  C31020462   2.486   6.412   8.078  0.5298 -0.2716 -0.0532
  179SOPE  H10X20463   2.392   6.354   8.063 -0.9909  1.1922  3.2122
  179SOPE  H10Y20464   2.453   6.512   8.112 -0.1936 -0.8119  0.8680
  179SOPE  C31120465   2.583   6.351   8.184 -0.3991  1.0478 -0.0931
  179SOPE  H11X20466   2.671   6.415   8.204  0.1787  0.4431 -0.6814
  179SOPE  H11Y20467   2.634   6.259   8.147 -1.5691 -0.1895  1.2927
  179SOPE  C31220468   2.520   6.303   8.320 -0.1078 -0.1271  0.2384
  179SOPE  H12X20469   2.484   6.394   8.373 -1.8954 -1.3544  1.1833
  179SOPE  H12Y20470   2.598   6.271   8.392  0.3966  3.9421  1.6268
  179SOPE  C31320471   2.414   6.195   8.296 -0.4409 -0.1629 -0.5290
  179SOPE  H13X20472   2.347   6.237   8.218 -1.6284 -3.3449 -1.3242
  179SOPE  H13Y20473   2.342   6.186   8.381 -1.6895 -2.5817 -1.7666
  179SOPE  C31420474   2.472   6.062   8.258 -0.5573  0.4501  0.5808
  179SOPE  H14X20475   2.533   6.014   8.338 -3.2193 -1.8063  1.3358
  179SOPE  H14Y20476   2.537   6.071   8.169 -0.2546  3.6889  1.0471
  179SOPE  C31520477   2.370   5.951   8.210  0.5623 -0.7314 -0.8620
  179SOPE  H15X20478   2.342   5.888   8.297  1.3815 -1.3541 -1.0367
  179SOPE  H15Y20479   2.425   5.896   8.130  0.6769 -3.1282  0.7982
  179SOPE  C31620480   2.243   6.004   8.144  0.3981 -0.3044  0.1085
  179SOPE  H16X20481   2.280   6.067   8.061  0.1740 -1.1759 -0.6656
  179SOPE  H16Y20482   2.199   6.069   8.222  0.8829 -1.0665  1.0329
  179SOPE  C31720483   2.144   5.901   8.106  0.7219  0.5117 -0.6599
  179SOPE  H17X20484   2.197   5.814   8.062 -1.1923 -0.7951 -0.4120
  179SOPE  H17Y20485   2.087   5.961   8.032 -0.3081 -0.6852 -0.8455
  179SOPE  C31820486   2.068   5.848   8.225  0.3828  0.2421  0.8197
  179SOPE  H18X20487   2.148   5.810   8.292  0.8958 -1.6861 -0.8315
  179SOPE  H18Y20488   2.011   5.760   8.187  2.8549 -0.3370 -1.7215
  179SOPE  H18Z20489   2.003   5.925   8.271  1.0553 -0.3281  2.7706
  180SOPE     N20490   1.232   6.400   5.910 -0.1655 -0.0235  0.5407
  180SOPE   HN120491   1.219   6.375   5.810 -2.8052 -1.2202  1.1534
  180SOPE   HN220492   1.149   6.372   5.966 -1.9366 -0.3749 -2.1904
  180SOPE   HN320493   1.229   6.504   5.916  0.3782  0.0256 -0.0085
  180SOPE   C1220494   1.347   6.336   5.974  0.0440 -0.8116  0.3661
  180SOPE  H12A20495   1.440   6.371   5.924 -0.7107  0.5646 -0.0879
  180SOPE  H12B20496   1.341   6.227   5.954 -1.3807 -0.8021  0.6749
  180SOPE   C1120497   1.337   6.381   6.122 -0.4875  0.1583  0.4985
  180SOPE  H11A20498   1.427   6.346   6.178  1.6702  1.8830 -1.7671
  180SOPE  H11B20499   1.249   6.339   6.174 -1.6066 -2.4180 -3.2928
  180SOPE     P20500   1.388   6.595   6.257 -0.0910 -0.1249 -0.2522
  180SOPE   O1320501   1.314   6.722   6.272 -0.9350 -0.3674  0.4993
  180SOPE   O1420502   1.532   6.606   6.236 -0.6336  0.2224 -0.1470
  180SOPE   O1220503   1.334   6.527   6.123 -0.2727  0.1459  0.3452
  180SOPE   O1120504   1.353   6.480   6.369 -0.3365 -0.2551  0.7093
  180SOPE    C120505   1.233   6.506   6.447  0.1657  0.6447  0.7878
  180SOPE    HA20506   1.179   6.410   6.462 -0.2263  1.2095  3.2794
  180SOPE    HB20507   1.163   6.570   6.390 -0.1212 -0.2775  0.0904
  180SOPE    C220508   1.266   6.557   6.587 -0.3214  0.5767 -0.3621
  180SOPE    HS20509   1.340   6.639   6.587 -0.4490  0.6931 -0.4190
  180SOPE   O2120510   1.325   6.441   6.654  0.5400 -0.4617  0.4146
  180SOPE   C2120511   1.438   6.464   6.719 -0.1587 -0.3386  0.2188
  180SOPE   O2220512   1.520   6.548   6.689 -0.1311  0.2371 -0.1969
  180SOPE   C2220513   1.438   6.361   6.836 -0.0303  0.7241  0.3498
  180SOPE   H2R20514   1.404   6.260   6.805 -1.0251  0.5834  1.8393
  180SOPE   H2S20515   1.360   6.387   6.911 -0.1748 -0.5109  0.6369
  180SOPE    C320516   1.129   6.589   6.648  0.1523  0.6027  0.0810
  180SOPE    HX20517   1.061   6.501   6.648 -1.8085  1.9988  2.9958
  180SOPE    HY20518   1.083   6.673   6.591  1.3366  2.0796  1.2644
  180SOPE   O3120519   1.154   6.638   6.780 -0.8264  0.1280 -0.0320
  180SOPE   C3120520   1.125   6.550   6.881 -0.4385 -0.2351 -0.0614
  180SOPE   O3220521   1.082   6.436   6.863 -0.2060 -0.6606  0.5672
  180SOPE   C3220522   1.117   6.622   7.019  0.2594  0.9256  0.1504
  180SOPE   H2X20523   1.057   6.714   7.005  1.3128  1.2263 -2.8447
  180SOPE   H2Y20524   1.221   6.655   7.042 -0.1025  0.9423  1.7814
  180SOPE   C2320525   1.576   6.335   6.906  0.3262  0.0235  0.3000
  180SOPE   H3R20526   1.653   6.323   6.828 -0.3310  0.4582 -0.4261
  180SOPE   H3S20527   1.578   6.231   6.945 -0.7357  0.1213  0.6488
  180SOPE   C2420528   1.603   6.431   7.025 -0.4646 -0.8234 -0.4247
  180SOPE   H4R20529   1.694   6.398   7.079 -0.5311 -0.3865 -0.0362
  180SOPE   H4S20530   1.616   6.532   6.980  1.0269 -0.4559  0.7703
  180SOPE   C2520531   1.506   6.441   7.146  0.5040 -0.1481  0.5222
  180SOPE   H5R20532   1.562   6.507   7.217 -0.8248  3.5232 -1.6992
  180SOPE   H5S20533   1.404   6.477   7.121  1.5106  0.3007 -3.1380
  180SOPE   C2620534   1.482   6.305   7.213  0.3229  0.5059 -0.2535
  180SOPE   H6R20535   1.396   6.257   7.161  0.1882 -1.5536  1.7980
  180SOPE   H6S20536   1.573   6.241   7.214  0.3444  0.4640 -2.5403
  180SOPE   C2720537   1.443   6.321   7.364  0.5314 -0.3290  0.0719
  180SOPE   H7R20538   1.374   6.407   7.379 -1.0130 -1.3806 -0.8368
  180SOPE   H7S20539   1.385   6.233   7.397  1.5079 -0.8124  0.4888
  180SOPE   C2820540   1.559   6.335   7.467  0.9681  0.7281 -0.2533
  180SOPE   H8R20541   1.626   6.246   7.463 -0.2219 -0.1897  0.0791
  180SOPE   H8S20542   1.626   6.410   7.419  1.5921 -1.4547 -2.9849
  180SOPE   C2920543   1.538   6.378   7.607 -0.8127 -0.6149 -0.4418
  180SOPE   H9120544   1.456   6.452   7.607 -0.3964 -0.1494 -2.2604
  180SOPE  C21020545   1.593   6.331   7.721 -0.0913 -0.4643 -0.0900
  180SOPE  H10120546   1.568   6.383   7.814 -1.3192  1.6332 -1.5461
  180SOPE  C21120547   1.689   6.212   7.738  0.1095  0.0712 -0.3810
  180SOPE  H11R20548   1.727   6.188   7.637 -0.1257 -2.4364  0.0940
  180SOPE  H11S20549   1.629   6.123   7.767 -0.2530  0.0002 -1.3097
  180SOPE  C21220550   1.809   6.225   7.835 -0.0245  0.0374  0.4227
  180SOPE  H12R20551   1.871   6.315   7.819  0.0663 -0.2904 -1.1623
  180SOPE  H12S20552   1.883   6.143   7.828  2.4314  2.2543 -0.3326
  180SOPE  C21320553   1.763   6.250   7.979  0.0808  0.1399 -0.2462
  180SOPE  H13R20554   1.682   6.326   7.988  0.7695  0.7402  1.0370
  180SOPE  H13S20555   1.845   6.287   8.044  0.7914 -1.1547 -0.4025
  180SOPE  C21420556   1.730   6.119   8.047 -1.2894  0.0679  0.2020
  180SOPE  H14R20557   1.817   6.051   8.033 -1.8958 -0.3129 -1.7531
  180SOPE  H14S20558   1.633   6.079   8.011 -0.9047 -0.1126 -0.6531
  180SOPE  C21520559   1.729   6.134   8.198 -0.5471  0.1800  0.0916
  180SOPE  H15R20560   1.660   6.201   8.254  0.7913 -0.8115  3.0688
  180SOPE  H15S20561   1.827   6.176   8.228  0.6283 -0.9490 -2.0250
  180SOPE  C21620562   1.722   5.993   8.266  1.1374 -0.6011 -0.5426
  180SOPE  H16R20563   1.797   5.924   8.222 -0.8906 -2.2927 -1.4588
  180SOPE  H16S20564   1.622   5.944   8.275  1.1582 -0.3680  1.0816
  180SOPE  C21720565   1.770   5.994   8.415  1.0490  0.5821  0.0626
  180SOPE  H17R20566   1.687   6.051   8.463  0.0429 -3.0995  2.9419
  180SOPE  H17S20567   1.873   6.033   8.426  1.6715 -1.2249  0.8030
  180SOPE  C21820568   1.757   5.860   8.482  0.5160  0.2728 -0.6191
  180SOPE  H18R20569   1.850   5.799   8.475 -0.3941 -1.1414 -0.5960
  180SOPE  H18S20570   1.680   5.790   8.443  1.0219 -1.1667  0.9037
  180SOPE  H18T20571   1.737   5.860   8.592 -0.9935  1.0025 -0.8840
  180SOPE   C3320572   1.073   6.531   7.126 -0.1181  0.2175 -0.0475
  180SOPE   H3X20573   1.114   6.431   7.103 -2.0002 -0.1958 -1.7296
  180SOPE   H3Y20574   0.963   6.512   7.123 -0.3808  1.4001  1.4868
  180SOPE   C3420575   1.114   6.565   7.272 -0.5111  0.3662 -0.8219
  180SOPE   H4X20576   1.070   6.652   7.325 -1.2932 -1.5453  1.7859
  180SOPE   H4Y20577   1.224   6.581   7.274 -0.5901  0.8286  1.3121
  180SOPE   C3520578   1.076   6.446   7.361 -0.3130 -0.0876 -0.3123
  180SOPE   H5X20579   1.115   6.354   7.313 -0.6269  0.4236 -1.5416
  180SOPE   H5Y20580   0.966   6.432   7.349  0.1580 -3.3641 -1.2983
  180SOPE   C3620581   1.110   6.464   7.513 -0.5819 -0.2214 -0.1794
  180SOPE   H6X20582   1.058   6.559   7.537 -0.8770 -0.7055  1.1719
  180SOPE   H6Y20583   1.220   6.480   7.506 -0.7312  0.4317 -1.0869
  180SOPE   C3720584   1.078   6.344   7.602 -0.3994  0.0302  0.5683
  180SOPE   H7X20585   1.095   6.245   7.554  1.2285  0.9581 -0.8086
  180SOPE   H7Y20586   0.973   6.352   7.638 -1.2259 -0.4646 -1.6537
  180SOPE   C3820587   1.151   6.345   7.741  0.4107 -0.1873 -0.1041
  180SOPE   H8X20588   1.115   6.431   7.801 -0.5666 -1.6691  1.4756
  180SOPE   H8Y20589   1.260   6.350   7.720  0.3189 -1.2346 -0.8499
  180SOPE   C3920590   1.134   6.214   7.821 -0.0725 -0.5663  0.2268
  180SOPE   H9X20591   1.211   6.148   7.774  0.7635 -0.1418  0.9837
  180SOPE   H9Y20592   1.032   6.173   7.812 -0.1349 -0.3036 -0.2555
  180SOPE  C31020593   1.160   6.229   7.971  0.1780 -0.1299 -0.0435
  180SOPE  H10X20594   1.116   6.143   8.027 -0.0451 -1.2166 -1.8179
  180SOPE  H10Y20595   1.100   6.312   8.014 -1.2814  0.1488 -2.4981
  180SOPE  C31120596   1.306   6.240   8.003 -0.2613 -0.3134  0.5816
  180SOPE  H11X20597   1.351   6.289   7.914 -2.1799 -1.4210 -1.0538
  180SOPE  H11Y20598   1.352   6.139   7.996 -0.6246 -0.9969  5.7666
  180SOPE  C31220599   1.359   6.293   8.138 -0.0879 -0.5817  0.0899
  180SOPE  H12X20600   1.375   6.402   8.125  1.0111 -1.0702 -3.0521
  180SOPE  H12Y20601   1.463   6.255   8.146  0.3339  0.4517 -0.3226
  180SOPE  C31320602   1.287   6.245   8.260 -0.2643  1.1416  0.3882
  180SOPE  H13X20603   1.296   6.135   8.251  1.1444  1.2889 -0.0717
  180SOPE  H13Y20604   1.177   6.258   8.252 -0.2714  0.7437 -0.1194
  180SOPE  C31420605   1.348   6.269   8.398 -0.2012 -0.3825  0.3290
  180SOPE  H14X20606   1.335   6.377   8.421 -0.0326 -0.8322  2.6578
  180SOPE  H14Y20607   1.458   6.258   8.392 -0.5377 -4.6329  0.9241
  180SOPE  C31520608   1.294   6.174   8.502 -0.3150 -0.1952 -0.2763
  180SOPE  H15X20609   1.186   6.166   8.478 -0.3309 -0.5306 -0.0999
  180SOPE  H15Y20610   1.292   6.223   8.602  0.0910  1.4152 -1.0406
  180SOPE  C31620611   1.355   6.035   8.483 -0.3892  0.0844 -0.3410
  180SOPE  H16X20612   1.460   6.042   8.449  0.2991  0.4092  1.7849
  180SOPE  H16Y20613   1.297   5.973   8.411 -1.1293  0.6689 -0.2628
  180SOPE  C31720614   1.357   5.951   8.613 -0.6593 -0.0194 -0.5428
  180SOPE  H17X20615   1.412   6.018   8.684 -0.3820  0.2640 -1.0230
  180SOPE  H17Y20616   1.418   5.859   8.598  0.7430  0.1995  3.1330
  180SOPE  C31820617   1.218   5.901   8.657 -0.3767  0.9958 -0.2217
  180SOPE  H18X20618   1.222   5.845   8.753  0.0199  1.1141 -0.1712
  180SOPE  H18Y20619   1.167   5.843   8.578 -1.4855  0.3737  0.9207
  180SOPE  H18Z20620   1.158   5.992   8.678  1.5109  2.1458  0.3429
  181SOPE     N20621   0.517   3.820   5.975  0.1205  0.0872  0.0162
  181SOPE   HN120622   0.472   3.732   6.007 -1.8757  1.3827  0.8949
  181SOPE   HN220623   0.448   3.895   5.954 -1.2494 -0.9867  0.5594
  181SOPE   HN320624   0.563   3.803   5.883 -1.4740 -0.9241 -0.6057
  181SOPE   C1220625   0.608   3.880   6.078  0.4682 -0.5361 -0.3279
  181SOPE  H12A20626   0.547   3.949   6.141  0.8825 -1.0006  0.5875
  181SOPE  H12B20627   0.688   3.933   6.023  1.5966 -1.5367  0.3426
  181SOPE   C1120628   0.683   3.769   6.163  0.9818  0.2021  0.1073
  181SOPE  H11A20629   0.608   3.719   6.228  2.9994  0.5726  2.7954
  181SOPE  H11B20630   0.748   3.837   6.222  1.7553 -1.1531  0.8260
  181SOPE     P20631   0.891   3.688   6.043  0.0512  0.1711  0.2247
  181SOPE   O1320632   0.916   3.821   5.987 -0.2240  0.3418 -0.4043
  181SOPE   O1420633   0.936   3.569   5.960  0.5628  0.1168  0.3282
  181SOPE   O1220634   0.742   3.669   6.078 -0.5274 -0.0037  0.0695
  181SOPE   O1120635   0.977   3.674   6.171 -0.0217  0.2937  0.3581
  181SOPE    C120636   0.984   3.553   6.242 -0.2525 -0.1257 -0.0741
  181SOPE    HA20637   1.084   3.505   6.232 -0.1291 -0.2346  1.4452
  181SOPE    HB20638   0.903   3.480   6.221 -0.6804 -0.5355  2.7516
  181SOPE    C220639   0.959   3.579   6.393 -0.5902 -0.0176 -0.1451
  181SOPE    HS20640   0.853   3.609   6.401 -0.9274  0.1288 -3.9192
  181SOPE   O2120641   1.053   3.685   6.436  0.8236 -0.1604 -0.2942
  181SOPE   C2120642   1.009   3.804   6.436  0.2932 -1.0567  0.1364
  181SOPE   O2220643   0.893   3.843   6.415  0.1909 -0.0481 -0.6067
  181SOPE   C2220644   1.117   3.893   6.489  0.5340 -0.1979  0.3052
  181SOPE   H2R20645   1.207   3.918   6.428 -0.2287  2.5895  0.2933
  181SOPE   H2S20646   1.152   3.846   6.584  0.1274 -0.5338  0.2896
  181SOPE    C320647   0.992   3.451   6.487  0.4454 -0.3184  0.2220
  181SOPE    HX20648   1.100   3.428   6.483  0.2557 -1.1034 -0.5889
  181SOPE    HY20649   0.948   3.356   6.450 -0.7857  0.2404  0.2166
  181SOPE   O3120650   0.939   3.466   6.616  0.0604  0.3208 -0.1352
  181SOPE   C3120651   1.023   3.525   6.707  0.3253 -0.6968 -0.1033
  181SOPE   O3220652   1.136   3.554   6.692  0.1270  0.3891 -0.1430
  181SOPE   C3220653   0.942   3.568   6.835 -0.0618  0.0510  0.7437
  181SOPE   H2X20654   0.883   3.476   6.856 -0.4394 -0.3263 -1.7691
  181SOPE   H2Y20655   0.870   3.648   6.810 -1.4780 -0.4257  3.0995
  181SOPE   C2320656   1.066   4.035   6.529 -0.5338  0.2235  0.0423
  181SOPE   H3R20657   0.999   4.069   6.447 -0.5010  1.5419  0.5484
  181SOPE   H3S20658   1.149   4.109   6.532  1.4783 -1.9605  0.0376
  181SOPE   C2420659   0.981   4.020   6.656  0.6467 -0.0242 -0.1792
  181SOPE   H4R20660   0.901   3.943   6.642  0.8693 -0.6063  1.5376
  181SOPE   H4S20661   1.046   4.005   6.745  0.9285  0.6984 -0.2649
  181SOPE   C2520662   0.917   4.154   6.694  0.2258  0.2227 -0.0880
  181SOPE   H5R20663   1.007   4.218   6.711 -0.6252  0.9628  1.7792
  181SOPE   H5S20664   0.866   4.202   6.609  0.9953  0.8733 -0.1898
  181SOPE   C2620665   0.823   4.149   6.812  1.0510 -0.0139 -0.1029
  181SOPE   H6R20666   0.730   4.094   6.788  1.2925 -0.7915  0.6951
  181SOPE   H6S20667   0.876   4.078   6.879  1.0447  0.3952  0.3334
  181SOPE   C2720668   0.795   4.279   6.892 -0.9904  0.5605  0.2079
  181SOPE   H7R20669   0.887   4.321   6.938 -0.9750  0.3301  0.3893
  181SOPE   H7S20670   0.746   4.355   6.828 -0.3529  1.8480  1.2437
  181SOPE   C2820671   0.701   4.255   7.004  0.3784  1.0058 -0.0416
  181SOPE   H8R20672   0.670   4.352   7.049 -0.9004 -0.5337  2.4937
  181SOPE   H8S20673   0.613   4.213   6.950  3.4042 -0.1629 -4.3745
  181SOPE   C2920674   0.732   4.153   7.112  0.0250 -0.0640  0.0896
  181SOPE   H9120675   0.729   4.046   7.086  2.4728 -0.6349  1.9062
  181SOPE  C21020676   0.777   4.181   7.238  0.1410  0.1314  0.6662
  181SOPE  H10120677   0.792   4.090   7.299  2.5542  0.1136  0.0631
  181SOPE  C21120678   0.800   4.317   7.296  0.8736 -0.1040  0.1623
  181SOPE  H11R20679   0.697   4.352   7.319  0.1312 -2.2123  0.1120
  181SOPE  H11S20680   0.847   4.381   7.219  0.1394 -0.6645 -0.7607
  181SOPE  C21220681   0.888   4.321   7.418  0.0686 -0.1687  0.1008
  181SOPE  H12R20682   0.961   4.405   7.417  0.5382 -0.5736 -0.2842
  181SOPE  H12S20683   0.947   4.228   7.433  0.4709  0.3061  1.5910
  181SOPE  C21320684   0.803   4.317   7.543  0.2768 -0.0250  0.1126
  181SOPE  H13R20685   0.723   4.240   7.547 -2.8286  2.8689 -2.9501
  181SOPE  H13S20686   0.742   4.410   7.552 -1.7554 -1.4988  2.0131
  181SOPE  C21420687   0.873   4.307   7.682  0.5509 -0.3283  0.2859
  181SOPE  H14R20688   0.938   4.396   7.670  0.9636 -0.6656  0.0197
  181SOPE  H14S20689   0.944   4.222   7.686  0.5391 -0.3218  0.6751
  181SOPE  C21520690   0.792   4.333   7.808 -0.2005 -0.7296  0.4219
  181SOPE  H15R20691   0.869   4.321   7.887  1.4566 -1.4018 -1.2439
  181SOPE  H15S20692   0.716   4.252   7.812 -0.0435 -0.9852 -1.2285
  181SOPE  C21620693   0.739   4.470   7.823  0.4442  0.7002  0.3615
  181SOPE  H16R20694   0.639   4.487   7.777  0.0388  0.1992  1.0404
  181SOPE  H16S20695   0.813   4.544   7.786  0.1761  0.7575 -0.0734
  181SOPE  C21720696   0.723   4.501   7.978  0.2121  0.7494 -0.0857
  181SOPE  H17R20697   0.826   4.515   8.016  0.7946 -1.6983 -0.6628
  181SOPE  H17S20698   0.664   4.418   8.022 -0.0557  0.9225 -0.1180
  181SOPE  C21820699   0.647   4.625   8.004  0.0740 -0.9081 -0.4235
  181SOPE  H18R20700   0.706   4.718   7.993 -1.0737 -0.3257 -1.8268
  181SOPE  H18S20701   0.591   4.626   8.101  2.0569 -3.2104  0.7946
  181SOPE  H18T20702   0.565   4.640   7.930 -0.8254  2.1996  1.1064
  181SOPE   C3320703   1.032   3.607   6.949 -0.5268  0.3182 -0.0411
  181SOPE   H3X20704   1.102   3.690   6.924  0.1972  0.6417  2.8963
  181SOPE   H3Y20705   1.107   3.529   6.972 -0.3513  0.9409  1.5403
  181SOPE   C3420706   0.950   3.649   7.070  0.3048  0.2050 -0.6575
  181SOPE   H4X20707   0.884   3.561   7.087  1.2579 -0.3249  0.4151
  181SOPE   H4Y20708   0.877   3.728   7.043 -0.9060 -0.4529  0.6506
  181SOPE   C3520709   1.038   3.660   7.192  0.8783  0.4933 -0.2231
  181SOPE   H5X20710   1.131   3.712   7.160  1.0465  1.2030  1.3718
  181SOPE   H5Y20711   1.072   3.564   7.235 -0.0457  0.2469 -0.0338
  181SOPE   C3620712   0.967   3.736   7.307  0.4196 -0.5269 -0.0805
  181SOPE   H6X20713   0.866   3.691   7.322 -0.9927  1.6022 -2.6985
  181SOPE   H6Y20714   0.952   3.839   7.269 -2.5469 -0.6523  0.6180
  181SOPE   C3720715   1.049   3.752   7.440 -0.5288 -0.3227 -1.2752
  181SOPE   H7X20716   1.070   3.860   7.458  0.5158 -0.5733 -0.9631
  181SOPE   H7Y20717   1.148   3.702   7.423  0.1317  0.3314  0.5339
  181SOPE   C3820718   0.975   3.697   7.567 -0.2605  0.7816  0.4233
  181SOPE   H8X20719   0.966   3.588   7.549  1.1338  1.0352 -2.1242
  181SOPE   H8Y20720   0.866   3.722   7.572 -0.3791  0.7953 -1.5520
  181SOPE   C3920721   1.053   3.735   7.691 -0.0098 -0.3173 -0.3722
  181SOPE   H9X20722   1.161   3.714   7.676  0.0715 -0.5707  0.5342
  181SOPE   H9Y20723   1.027   3.672   7.779  0.9557 -1.5416 -0.9420
  181SOPE  C31020724   1.031   3.879   7.744 -0.0150 -0.1288 -0.1602
  181SOPE  H10X20725   0.922   3.900   7.739  0.1982  1.1600  0.2831
  181SOPE  H10Y20726   1.078   3.949   7.672  0.6818 -1.7847 -1.3526
  181SOPE  C31120727   1.070   3.910   7.889  0.1938  0.7038  0.2951
  181SOPE  H11X20728   1.181   3.903   7.885  0.2527  1.5216  0.4383
  181SOPE  H11Y20729   1.040   3.824   7.953 -0.3308  0.0204 -0.8616
  181SOPE  C31220730   1.018   4.043   7.941 -0.1921 -0.2353  0.0260
  181SOPE  H12X20731   0.909   4.053   7.959 -0.7578 -3.9127 -0.9779
  181SOPE  H12Y20732   1.044   4.127   7.874  2.5586 -2.1518 -1.4063
  181SOPE  C31320733   1.084   4.078   8.079  0.2678  0.1633  0.1009
  181SOPE  H13X20734   1.194   4.091   8.068  0.2313  1.1829  0.8954
  181SOPE  H13Y20735   1.081   3.990   8.146 -0.2173  1.0317  1.2280
  181SOPE  C31420736   1.010   4.188   8.149  0.0970 -1.0158 -0.4258
  181SOPE  H14X20737   0.906   4.154   8.170  0.4200  0.2468  3.5020
  181SOPE  H14Y20738   1.000   4.275   8.080  1.1786 -0.3728  0.2250
  181SOPE  C31520739   1.076   4.235   8.279  0.9870  0.4823 -0.1371
  181SOPE  H15X20740   1.133   4.148   8.319 -1.4922 -1.2940 -0.3382
  181SOPE  H15Y20741   1.002   4.253   8.360 -1.9616 -1.0850 -2.4046
  181SOPE  C31620742   1.168   4.351   8.250  0.0070 -0.3544 -0.2324
  181SOPE  H16X20743   1.107   4.427   8.197  0.4425 -0.6500 -1.1533
  181SOPE  H16Y20744   1.245   4.325   8.174 -0.1420  2.0549 -1.2303
  181SOPE  C31720745   1.240   4.393   8.381 -0.4349 -0.2357  0.4128
  181SOPE  H17X20746   1.312   4.313   8.407 -1.6467 -1.6819 -0.6241
  181SOPE  H17Y20747   1.159   4.390   8.457 -1.1371 -0.5947 -0.3390
  181SOPE  C31820748   1.321   4.522   8.379 -0.7936  0.3715 -0.7924
  181SOPE  H18X20749   1.370   4.531   8.479 -0.4301 -0.6792 -0.8640
  181SOPE  H18Y20750   1.266   4.614   8.351 -2.9756 -0.2140  1.3153
  181SOPE  H18Z20751   1.413   4.503   8.320  0.0468 -0.4300  0.7192
  182SOPE     N20752   1.840   5.371   6.185  0.0347 -0.1626  0.9063
  182SOPE   HN120753   1.861   5.276   6.222  1.5545 -1.2112 -2.4784
  182SOPE   HN220754   1.862   5.365   6.084 -0.3037  1.1254  0.7442
  182SOPE   HN320755   1.911   5.433   6.229 -0.0527 -0.0410  0.8772
  182SOPE   C1220756   1.704   5.435   6.214 -0.0032  0.6342  0.7936
  182SOPE  H12A20757   1.626   5.396   6.146  0.9892 -1.0363  0.5714
  182SOPE  H12B20758   1.706   5.542   6.187  1.7458  0.6593  0.9374
  182SOPE   C1120759   1.673   5.421   6.360 -0.2792  0.4413  0.3411
  182SOPE  H11A20760   1.666   5.315   6.393  1.8003  0.3668  0.6369
  182SOPE  H11B20761   1.568   5.457   6.357  0.2450  1.9314 -1.0924
  182SOPE     P20762   1.711   5.644   6.487  0.5107 -0.0808  0.2613
  182SOPE   O1320763   1.565   5.645   6.506  0.2891 -0.1929  0.0195
  182SOPE   O1420764   1.775   5.738   6.393 -0.0541  0.2712  0.1306
  182SOPE   O1220765   1.757   5.504   6.442 -0.0971 -0.2037 -0.0769
  182SOPE   O1120766   1.792   5.667   6.630  0.8833 -0.0102 -0.0681
  182SOPE    C120767   1.751   5.603   6.751  0.3553 -0.2778 -0.7831
  182SOPE    HA20768   1.834   5.543   6.794  0.6547  0.7779  0.1434
  182SOPE    HB20769   1.659   5.540   6.747  1.2635 -1.6236 -0.6871
  182SOPE    C220770   1.714   5.710   6.860  0.6399  0.3055 -0.6073
  182SOPE    HS20771   1.624   5.759   6.817 -0.8656 -1.2283  0.7408
  182SOPE   O2120772   1.829   5.794   6.892  0.4533  0.1326 -0.6656
  182SOPE   C2120773   1.804   5.918   6.927 -0.7455 -0.0523  0.0573
  182SOPE   O2220774   1.697   5.973   6.919 -0.3982  0.6634 -0.0995
  182SOPE   C2220775   1.942   5.971   6.984 -0.2909  0.6785  0.4283
  182SOPE   H2R20776   1.994   6.018   6.898  1.6410  2.2352  2.4062
  182SOPE   H2S20777   1.998   5.878   7.009 -3.3833 -1.1235  0.9897
  182SOPE    C320778   1.663   5.646   7.002 -0.7582 -0.3626 -1.0478
  182SOPE    HX20779   1.732   5.566   7.039 -2.4479 -1.0686  0.6526
  182SOPE    HY20780   1.578   5.578   6.981 -1.8552  0.1539  1.5291
  182SOPE   O3120781   1.633   5.734   7.108 -0.9305  0.2301  0.1561
  182SOPE   C3120782   1.519   5.801   7.103 -0.1059 -0.4825  0.0575
  182SOPE   O3220783   1.437   5.783   7.018 -0.0722  0.1925 -0.2531
  182SOPE   C3220784   1.509   5.899   7.220 -0.4574 -0.4696  0.5732
  182SOPE   H2X20785   1.420   5.963   7.202  1.4120  1.8811 -0.7716
  182SOPE   H2Y20786   1.595   5.969   7.206 -0.3094 -0.6811  0.4218
  182SOPE   C2320787   1.922   6.069   7.095 -0.1107 -0.5508 -0.1410
  182SOPE   H3R20788   1.877   6.024   7.186  0.0828  1.1824  0.8405
  182SOPE   H3S20789   1.862   6.158   7.064  0.9928  0.0288 -0.6319
  182SOPE   C2420790   2.053   6.116   7.159 -0.2825 -0.9300 -0.7328
  182SOPE   H4R20791   2.103   6.018   7.170  1.0184 -0.2732 -0.7331
  182SOPE   H4S20792   2.110   6.186   7.093 -0.1421  0.1896  0.5473
  182SOPE   C2520793   2.033   6.184   7.290  0.4613  0.1448 -0.7787
  182SOPE   H5R20794   2.008   6.289   7.264  1.8015  0.7177  0.2065
  182SOPE   H5S20795   1.951   6.144   7.353  2.1271 -1.3432  0.4968
  182SOPE   C2620796   2.163   6.205   7.365 -0.3673 -0.4033 -0.5700
  182SOPE   H6R20797   2.251   6.212   7.297  0.7180  0.0112  0.8667
  182SOPE   H6S20798   2.159   6.293   7.432  0.5977  0.2739 -1.3804
  182SOPE   C2720799   2.194   6.082   7.448 -0.5290 -0.2916  0.6427
  182SOPE   H7R20800   2.181   5.983   7.401 -0.6564 -0.7673  1.6669
  182SOPE   H7S20801   2.304   6.083   7.466 -1.1178 -1.8428  4.9456
  182SOPE   C2820802   2.121   6.084   7.592 -0.7548  0.0335  0.3638
  182SOPE   H8R20803   2.137   6.185   7.635 -1.8056  0.3609  0.0125
  182SOPE   H8S20804   2.011   6.072   7.578 -0.5252 -0.1121 -1.4850
  182SOPE   C2920805   2.176   5.973   7.677  0.8425  0.1025 -0.3218
  182SOPE   H9120806   2.257   6.015   7.738  1.3274  1.4165 -1.8417
  182SOPE  C21020807   2.128   5.848   7.712  0.5560  0.2725 -0.7958
  182SOPE  H10120808   2.182   5.782   7.781 -0.5120 -1.6764 -1.7814
  182SOPE  C21120809   2.002   5.783   7.654  0.0971 -0.2740 -0.1490
  182SOPE  H11R20810   2.003   5.673   7.640 -0.9178 -0.3031 -0.0039
  182SOPE  H11S20811   1.980   5.825   7.554  1.2608  0.6488 -0.0352
  182SOPE  C21220812   1.882   5.817   7.747  0.5626 -0.3315  0.9761
  182SOPE  H12R20813   1.789   5.785   7.695  1.1246  1.1503 -1.0399
  182SOPE  H12S20814   1.877   5.928   7.757 -4.1226 -0.5802  2.1657
  182SOPE  C21320815   1.887   5.742   7.886  0.3018  0.0749  0.5267
  182SOPE  H13R20816   1.794   5.760   7.944  1.2675 -0.4445  2.2558
  182SOPE  H13S20817   1.965   5.800   7.940  1.4854  0.3886 -1.4692
  182SOPE  C21420818   1.910   5.592   7.884 -0.6625  0.5064  0.1449
  182SOPE  H14R20819   2.015   5.577   7.851  0.3755  1.1589  2.9409
  182SOPE  H14S20820   1.841   5.532   7.822 -0.0769  0.2685 -0.2787
  182SOPE  C21520821   1.906   5.523   8.021  0.8279 -0.0638 -0.1466
  182SOPE  H15R20822   1.809   5.535   8.075  2.0758  3.2136  1.4867
  182SOPE  H15S20823   1.977   5.576   8.088  1.1032  0.4418 -0.8448
  182SOPE  C21620824   1.940   5.377   8.028  0.0160  0.7202 -0.7469
  182SOPE  H16R20825   2.046   5.362   8.001 -0.6683 -2.8920 -1.5873
  182SOPE  H16S20826   1.883   5.326   7.947 -1.8016  1.8909 -0.2543
  182SOPE  C21720827   1.891   5.299   8.156 -0.3858 -0.5171 -0.3304
  182SOPE  H17R20828   1.785   5.323   8.181  0.4400  0.9643  1.9048
  182SOPE  H17S20829   1.942   5.336   8.248  1.9598 -2.1833 -0.9222
  182SOPE  C21820830   1.919   5.147   8.148 -0.5225  0.2602  0.5324
  182SOPE  H18R20831   1.862   5.092   8.226 -0.6442  1.8019  1.5492
  182SOPE  H18S20832   2.024   5.119   8.171 -0.5733 -1.9635 -1.7533
  182SOPE  H18T20833   1.886   5.099   8.054  0.0461  0.0327  0.4476
  182SOPE   C3320834   1.502   5.825   7.356  0.3488 -0.1831 -0.4213
  182SOPE   H3X20835   1.597   5.768   7.368 -0.4900 -1.4428  0.3085
  182SOPE   H3Y20836   1.420   5.752   7.345  0.4091 -0.2978 -0.0851
  182SOPE   C3420837   1.478   5.924   7.477  0.6083 -0.2188  0.3841
  182SOPE   H4X20838   1.392   5.988   7.448  0.0844 -0.0425  2.2595
  182SOPE   H4Y20839   1.559   5.999   7.490  1.6769 -1.3505  0.2494
  182SOPE   C3520840   1.440   5.851   7.602 -0.3325 -0.1247 -0.8239
  182SOPE   H5X20841   1.535   5.815   7.647  0.1591  2.3858  0.2186
  182SOPE   H5Y20842   1.370   5.770   7.575 -1.9915  0.4653  1.5142
  182SOPE   C3620843   1.385   5.940   7.717 -0.1386  0.0764 -0.4151
  182SOPE   H6X20844   1.293   5.990   7.678 -0.0966 -1.6148 -2.7809
  182SOPE   H6Y20845   1.460   6.012   7.754 -0.2515 -0.2395  0.4427
  182SOPE   C3720846   1.340   5.862   7.844  0.0844 -0.5470 -0.0952
  182SOPE   H7X20847   1.274   5.775   7.824 -2.6294  1.4127 -0.0802
  182SOPE   H7Y20848   1.264   5.927   7.893  1.9651  2.6504 -1.2851
  182SOPE   C3820849   1.452   5.820   7.937 -0.6719  0.5443  0.2232
  182SOPE   H8X20850   1.517   5.908   7.957  1.1735 -0.6101 -0.5528
  182SOPE   H8Y20851   1.501   5.737   7.883 -2.0663 -0.3078  0.2529
  182SOPE   C3920852   1.406   5.785   8.075  1.2404 -0.0938  0.2833
  182SOPE   H9X20853   1.315   5.722   8.070  2.4509 -2.1373  2.5882
  182SOPE   H9Y20854   1.372   5.877   8.126 -0.7102  0.5777 -2.1354
  182SOPE  C31020855   1.505   5.708   8.160 -0.9393 -0.4132  0.6306
  182SOPE  H10X20856   1.601   5.765   8.156 -0.4930 -1.1735  0.2557
  182SOPE  H10Y20857   1.545   5.613   8.119 -0.2905 -0.1778  0.7068
  182SOPE  C31120858   1.474   5.672   8.303  1.0180 -0.3336 -0.2584
  182SOPE  H11X20859   1.455   5.766   8.358 -0.7574 -0.7296 -0.1705
  182SOPE  H11Y20860   1.560   5.621   8.351  1.9251 -0.1890 -1.7086
  182SOPE  C31220861   1.366   5.569   8.333  0.3344  0.5072 -0.0620
  182SOPE  H12X20862   1.399   5.477   8.281 -1.6947  0.0347 -0.5607
  182SOPE  H12Y20863   1.269   5.603   8.292  0.5937  1.3390 -0.0081
  182SOPE  C31320864   1.345   5.525   8.482 -0.1009 -0.2802  0.6060
  182SOPE  H13X20865   1.297   5.612   8.532  0.4067  0.3883 -0.0632
  182SOPE  H13Y20866   1.445   5.519   8.530  0.6800  0.8815 -0.8335
  182SOPE  C31420867   1.266   5.400   8.487 -0.6667  0.0396 -0.3772
  182SOPE  H14X20868   1.178   5.421   8.423 -0.8223 -1.6007 -0.7199
  182SOPE  H14Y20869   1.245   5.386   8.595  2.2411  0.7703  0.3247
  182SOPE  C31520870   1.349   5.284   8.445  0.3834  0.2571 -0.1492
  182SOPE  H15X20871   1.450   5.304   8.487  0.2110  1.3459 -0.2414
  182SOPE  H15Y20872   1.359   5.267   8.336  0.2503 -2.4806  0.2320
  182SOPE  C31620873   1.311   5.150   8.511 -0.4483 -0.3965  0.2316
  182SOPE  H16X20874   1.262   5.177   8.606  1.5259  2.7040  0.4208
  182SOPE  H16Y20875   1.400   5.084   8.524 -0.9211 -1.2253 -0.6161
  182SOPE  C31720876   1.199   5.081   8.426  0.0316 -0.8726 -0.4033
  182SOPE  H17X20877   1.211   5.095   8.316 -1.2318  0.0573 -0.4347
  182SOPE  H17Y20878   1.108   5.140   8.452  1.6494  0.7655  1.7835
  182SOPE  C31820879   1.164   4.935   8.476  0.0746  0.1786 -0.1008
  182SOPE  H18X20880   1.148   4.925   8.586 -0.4756  1.2795 -0.0685
  182SOPE  H18Y20881   1.244   4.860   8.466 -1.6432 -1.5619 -1.2374
  182SOPE  H18Z20882   1.065   4.904   8.435 -1.3706  1.7294  2.0878
  183SOPE     N20883   4.289   3.686   6.110  0.6468 -0.0126 -0.0390
  183SOPE   HN120884   4.313   3.768   6.051  1.6487 -0.2847 -0.0167
  183SOPE   HN220885   4.377   3.642   6.145  1.0184  1.2129  0.6006
  183SOPE   HN320886   4.245   3.617   6.046 -2.5467  1.8858 -0.0129
  183SOPE   C1220887   4.197   3.729   6.228  0.5963 -0.6504 -0.1606
  183SOPE  H12A20888   4.094   3.741   6.187 -0.0704 -0.6034  1.5042
  183SOPE  H12B20889   4.240   3.827   6.258  0.2185 -0.3734 -0.5123
  183SOPE   C1120890   4.201   3.623   6.343  0.0741 -0.6064  0.2793
  183SOPE  H11A20891   4.167   3.674   6.436 -1.7280 -0.8613 -0.2113
  183SOPE  H11B20892   4.305   3.597   6.370  0.6703  0.1727 -1.1926
  183SOPE     P20893   4.160   3.365   6.351 -0.1429 -0.5346  0.0214
  183SOPE   O1320894   4.299   3.352   6.303 -0.1660  0.0493  0.0166
  183SOPE   O1420895   4.056   3.270   6.301 -1.1100  0.5442  0.0143
  183SOPE   O1220896   4.109   3.511   6.327 -0.7696 -0.2162 -0.1426
  183SOPE   O1120897   4.179   3.355   6.508  0.3256  0.7880  0.4465
  183SOPE    C120898   4.080   3.398   6.603  0.0995 -0.2043 -0.3680
  183SOPE    HA20899   4.014   3.314   6.634 -1.4336  1.3655  0.7944
  183SOPE    HB20900   4.016   3.479   6.560  0.0064  0.5109  1.0785
  183SOPE    C220901   4.152   3.444   6.732 -0.4595  0.0402  0.1816
  183SOPE    HS20902   4.233   3.516   6.707  0.2222 -0.3148  1.3514
  183SOPE   O2120903   4.209   3.329   6.795  0.6321  0.0391  0.3331
  183SOPE   C2120904   4.315   3.363   6.875 -0.0488  0.4874 -0.1181
  183SOPE   O2220905   4.352   3.482   6.901  0.3472 -0.4332  0.5813
  183SOPE   C2220906   4.370   3.232   6.930 -0.6532  0.2021 -0.2295
  183SOPE   H2R20907   4.422   3.173   6.851 -0.7721 -1.7221  1.0819
  183SOPE   H2S20908   4.281   3.168   6.949 -1.1974  0.1478 -2.7977
  183SOPE    C320909   4.043   3.521   6.823 -0.2628 -0.2039  0.4971
  183SOPE    HX20910   4.009   3.615   6.774 -0.8566 -0.4400  0.4632
  183SOPE    HY20911   4.092   3.565   6.912  1.3329  0.4377 -0.6661
  183SOPE   O3120912   3.935   3.434   6.858  0.3541  0.7332  0.3832
  183SOPE   C3120913   3.956   3.367   6.969  0.3825  0.6161 -0.8903
  183SOPE   O3220914   4.057   3.375   7.039  0.1501  0.7672  0.5912
  183SOPE   C3220915   3.834   3.289   7.006  0.2298  0.1079 -0.2311
  183SOPE   H2X20916   3.843   3.204   6.935 -0.5214  0.1231 -0.3530
  183SOPE   H2Y20917   3.746   3.353   6.983 -0.1100  0.2247  1.3021
  183SOPE   C2320918   4.459   3.241   7.057 -0.0829 -0.3517  0.5589
  183SOPE   H3R20919   4.529   3.328   7.058 -0.4696 -0.0253 -0.1532
  183SOPE   H3S20920   4.525   3.157   7.086  0.5891  0.9628  2.9189
  183SOPE   C2420921   4.363   3.271   7.182 -0.0636  0.1045  0.6525
  183SOPE   H4R20922   4.288   3.349   7.157  1.6422  1.6851  0.3460
  183SOPE   H4S20923   4.310   3.179   7.214 -0.4789 -0.0572 -0.4770
  183SOPE   C2520924   4.453   3.329   7.292  0.8244 -0.9949 -0.5949
  183SOPE   H5R20925   4.537   3.259   7.315  2.2206  0.6020 -0.7054
  183SOPE   H5S20926   4.500   3.425   7.263  0.3908 -1.0347 -1.4267
  183SOPE   C2620927   4.379   3.336   7.425 -0.2600 -0.0149 -0.2335
  183SOPE   H6R20928   4.287   3.395   7.409 -0.3625 -0.2992 -0.7160
  183SOPE   H6S20929   4.350   3.232   7.451 -1.0347  0.2722  0.0538
  183SOPE   C2720930   4.466   3.397   7.544 -1.0147 -0.4318  0.6170
  183SOPE   H7R20931   4.532   3.311   7.563 -1.0343 -0.6457 -0.2840
  183SOPE   H7S20932   4.520   3.484   7.501 -2.4843 -0.6337 -1.7179
  183SOPE   C2820933   4.395   3.423   7.681  0.4315 -0.5998  0.0015
  183SOPE   H8R20934   4.440   3.513   7.728 -1.0325  0.7150 -1.0780
  183SOPE   H8S20935   4.295   3.464   7.659  0.3213 -2.2436 -2.7243
  183SOPE   C2920936   4.377   3.301   7.764  0.5014  0.1813 -0.4730
  183SOPE   H9120937   4.348   3.212   7.706  1.5890 -0.1057 -0.5800
  183SOPE  C21020938   4.396   3.301   7.899 -0.1324 -1.2112 -0.7229
  183SOPE  H10120939   4.365   3.210   7.952  0.0824  0.1906  1.8767
  183SOPE  C21120940   4.444   3.417   7.980 -0.1427 -0.2082 -0.2186
  183SOPE  H11R20941   4.523   3.469   7.922  0.7682 -1.0027  0.2947
  183SOPE  H11S20942   4.498   3.387   8.073 -1.0062  0.0145  0.3559
  183SOPE  C21220943   4.339   3.524   8.012  0.6544 -0.1709  0.0119
  183SOPE  H12R20944   4.267   3.489   8.089 -1.5614  0.0290 -1.9287
  183SOPE  H12S20945   4.282   3.550   7.920  1.5812  2.7754  0.2068
  183SOPE  C21320946   4.402   3.647   8.072  0.6590  0.0596  0.1800
  183SOPE  H13R20947   4.326   3.713   8.120  0.4899  1.4545 -1.9764
  183SOPE  H13S20948   4.452   3.705   7.992  0.7606 -0.5632 -0.2149
  183SOPE  C21420949   4.513   3.626   8.185 -0.0184  0.4618  0.6550
  183SOPE  H14R20950   4.617   3.605   8.150 -0.5271 -0.0646 -0.5611
  183SOPE  H14S20951   4.482   3.541   8.250  0.0735  0.6991  1.0085
  183SOPE  C21520952   4.523   3.757   8.276 -0.2314  0.5043 -0.4028
  183SOPE  H15R20953   4.429   3.760   8.335 -0.2897  0.3042 -0.4834
  183SOPE  H15S20954   4.507   3.846   8.211 -1.8144  0.4698 -0.0828
  183SOPE  C21620955   4.656   3.759   8.351 -0.2031 -0.3213  0.3935
  183SOPE  H16R20956   4.742   3.787   8.286  1.0147 -2.6477  0.9490
  183SOPE  H16S20957   4.683   3.665   8.405  0.8131  0.2338  0.8606
  183SOPE  C21720958   4.652   3.878   8.446 -1.1400 -0.1271 -0.9006
  183SOPE  H17R20959   4.573   3.863   8.522 -2.1487 -3.4892 -2.5188
  183SOPE  H17S20960   4.643   3.968   8.380 -2.7023  0.5109  0.1392
  183SOPE  C21820961   4.784   3.907   8.526  0.1984  0.2562 -0.1601
  183SOPE  H18R20962   4.772   3.991   8.597 -1.9244  0.6230 -0.9097
  183SOPE  H18S20963   4.863   3.936   8.454  1.7702  1.1426  1.8600
  183SOPE  H18T20964   4.819   3.821   8.588  0.4652  1.0121  0.7418
  183SOPE   C3320965   3.838   3.247   7.156 -0.0023 -0.0772 -1.0563
  183SOPE   H3X20966   3.934   3.191   7.159  0.8605  1.4571  0.4935
  183SOPE   H3Y20967   3.763   3.174   7.193 -0.6732  0.2706 -1.7068
  183SOPE   C3420968   3.841   3.364   7.264  0.2399 -0.5965 -0.3229
  183SOPE   H4X20969   3.749   3.425   7.252 -0.7286 -2.0403 -0.3560
  183SOPE   H4Y20970   3.933   3.422   7.242 -0.6421 -0.2545 -3.3276
  183SOPE   C3520971   3.861   3.306   7.408  0.2833  0.8319 -0.1381
  183SOPE   H5X20972   3.955   3.248   7.421  0.7201  1.5058 -0.2795
  183SOPE   H5Y20973   3.767   3.252   7.432  2.6351 -2.9286  0.9919
  183SOPE   C3620974   3.857   3.422   7.511  0.2219  0.0118 -0.2939
  183SOPE   H6X20975   3.756   3.456   7.543  0.4942  0.2157  0.3577
  183SOPE   H6Y20976   3.921   3.500   7.465 -0.3188  0.9095  0.4679
  183SOPE   C3720977   3.909   3.383   7.653 -0.0951  0.2367  0.2455
  183SOPE   H7X20978   4.019   3.379   7.647 -0.1442  0.7708 -1.1550
  183SOPE   H7Y20979   3.874   3.288   7.698  0.9080  0.7277  2.1251
  183SOPE   C3820980   3.881   3.494   7.764  0.3785 -0.5094 -0.0595
  183SOPE   H8X20981   3.774   3.491   7.794 -0.0920  0.4540 -1.6087
  183SOPE   H8Y20982   3.906   3.587   7.711  0.7253 -0.1999  0.6445
  183SOPE   C3920983   3.967   3.469   7.894 -0.1228 -0.0630  0.0454
  183SOPE   H9X20984   4.070   3.497   7.863 -0.7819  3.0936  0.4785
  183SOPE   H9Y20985   3.966   3.365   7.933 -2.0685 -1.1655 -2.7766
  183SOPE  C31020986   3.906   3.549   8.011 -0.2324 -0.9670  0.4066
  183SOPE  H10X20987   3.812   3.504   8.051 -0.9731 -0.2006 -0.4417
  183SOPE  H10Y20988   3.869   3.648   7.977 -0.2390 -0.8775  0.6697
  183SOPE  C31120989   4.002   3.561   8.125  0.0488 -0.3346 -0.3193
  183SOPE  H11X20990   4.078   3.634   8.089 -2.2916  1.8981 -0.9382
  183SOPE  H11Y20991   4.038   3.461   8.158 -2.3902 -0.4230  2.2806
  183SOPE  C31220992   3.929   3.619   8.254  0.3640  0.3536 -0.7903
  183SOPE  H12X20993   3.989   3.611   8.348  0.3436 -0.4711 -0.8461
  183SOPE  H12Y20994   3.851   3.546   8.284  0.5179 -0.5857 -2.6479
  183SOPE  C31320995   3.886   3.763   8.241  0.2796 -0.0943 -0.2499
  183SOPE  H13X20996   3.831   3.792   8.149 -0.6484 -0.4398  0.1961
  183SOPE  H13Y20997   3.984   3.815   8.255 -0.3110  0.8826  0.2897
  183SOPE  C31420998   3.804   3.799   8.365  0.0177 -0.0926 -0.6355
  183SOPE  H14X20999   3.862   3.773   8.456 -0.4074  1.0144 -0.0428
  183SOPE  H14Y21000   3.710   3.741   8.371  0.3463 -0.8762 -2.6828
  183SOPE  C31521001   3.775   3.946   8.362  0.4848  0.4461 -0.5843
  183SOPE  H15X21002   3.730   3.985   8.268 -0.6089 -0.1587 -0.3268
  183SOPE  H15Y21003   3.872   3.999   8.371  0.9645 -0.2898 -1.2928
  183SOPE  C31621004   3.697   3.992   8.493  0.4432 -0.3917 -0.8419
  183SOPE  H16X21005   3.623   3.912   8.512 -2.2018  1.8270 -1.4744
  183SOPE  H16Y21006   3.632   4.081   8.476  0.5676 -0.2305 -0.4868
  183SOPE  C31721007   3.781   4.019   8.616 -0.3594  0.1004 -0.4598
  183SOPE  H17X21008   3.852   4.102   8.591 -2.6732  1.0501 -4.2322
  183SOPE  H17Y21009   3.847   3.931   8.633  0.8423  1.2304  0.8804
  183SOPE  C31821010   3.698   4.056   8.741  0.2592  0.7497  0.3424
  183SOPE  H18X21011   3.655   3.964   8.787 -0.8593 -0.4775 -2.9354
  183SOPE  H18Y21012   3.618   4.128   8.717 -0.7581 -0.1743  0.9385
  183SOPE  H18Z21013   3.769   4.107   8.809 -0.0120  0.6946  0.6648
  184SOPE     N21014   3.165   4.057   5.999  0.6047  0.4348 -1.2452
  184SOPE   HN121015   3.095   4.004   6.055  3.8024  0.2341  2.8304
  184SOPE   HN221016   3.116   4.100   5.919 -1.2997  0.4018 -0.1342
  184SOPE   HN321017   3.238   3.990   5.966 -1.3981 -0.3441 -4.2873
  184SOPE   C1221018   3.211   4.169   6.094  0.0305 -1.1534 -0.2606
  184SOPE  H12A21019   3.114   4.216   6.122  0.3051 -1.3787  1.0885
  184SOPE  H12B21020   3.268   4.247   6.040 -0.2557  0.9909  2.4662
  184SOPE   C1121021   3.270   4.116   6.224 -0.9711 -0.4857  0.5376
  184SOPE  H11A21022   3.202   4.057   6.289 -0.3689 -0.9678  0.7335
  184SOPE  H11B21023   3.298   4.205   6.284 -0.0667 -0.7230  0.4741
  184SOPE     P21024   3.528   4.070   6.243 -0.4040  0.0090 -0.0071
  184SOPE   O1321025   3.574   4.196   6.174  0.0943  0.5164  0.2456
  184SOPE   O1421026   3.613   3.955   6.231 -0.3443  0.4530 -0.2231
  184SOPE   O1221027   3.386   4.044   6.184 -0.0681 -0.1031 -0.3427
  184SOPE   O1121028   3.494   4.093   6.406 -0.4998  0.4768 -0.2909
  184SOPE    C121029   3.513   3.976   6.489 -0.1998  0.1196 -0.0169
  184SOPE    HA21030   3.619   3.944   6.493 -0.1617 -0.2954 -3.5598
  184SOPE    HB21031   3.454   3.896   6.439 -0.0733 -0.1785  0.3067
  184SOPE    C221032   3.460   3.997   6.635 -0.3478 -0.4044  0.1072
  184SOPE    HS21033   3.538   4.064   6.677  0.8337 -2.4394  1.2572
  184SOPE   O2121034   3.450   3.868   6.700  0.3760  0.1250 -0.0532
  184SOPE   C2121035   3.563   3.821   6.757 -0.4751  0.0636 -0.3937
  184SOPE   O2221036   3.667   3.881   6.773 -0.5145  0.1589  0.2619
  184SOPE   C2221037   3.547   3.676   6.795  0.2314  0.6902  0.2080
  184SOPE   H2R21038   3.558   3.615   6.703 -1.8186  2.2516 -1.1342
  184SOPE   H2S21039   3.440   3.659   6.821  0.2261 -0.3151 -0.4322
  184SOPE    C321040   3.321   4.072   6.625 -0.6268  1.1583 -0.3732
  184SOPE    HX21041   3.273   3.997   6.558  0.4738  0.0085  0.1124
  184SOPE    HY21042   3.325   4.173   6.577 -0.1807  0.6996 -1.3073
  184SOPE   O3121043   3.268   4.078   6.760 -0.1437 -0.3794 -0.6234
  184SOPE   C3121044   3.290   4.192   6.836  0.5463  0.6942  1.1067
  184SOPE   O3221045   3.359   4.288   6.797 -0.0274  0.7918  0.1429
  184SOPE   C3221046   3.206   4.178   6.964 -0.3592 -0.4144 -0.4191
  184SOPE   H2X21047   3.169   4.074   6.978 -0.5149 -0.1241  1.4984
  184SOPE   H2Y21048   3.118   4.244   6.947 -0.3961 -0.3625 -0.0353
  184SOPE   C2321049   3.654   3.614   6.885 -0.1105  0.9119 -0.5740
  184SOPE   H3R21050   3.750   3.604   6.830  0.5723 -3.0494  1.1646
  184SOPE   H3S21051   3.615   3.514   6.912 -0.9970  1.3968 -0.0442
  184SOPE   C2421052   3.674   3.686   7.015 -0.2678 -0.0798  0.2413
  184SOPE   H4R21053   3.755   3.634   7.071 -0.1589  2.6042  2.6798
  184SOPE   H4S21054   3.710   3.788   6.987  0.4456 -0.7156 -1.1950
  184SOPE   C2521055   3.551   3.721   7.099 -0.2143 -0.3733 -0.2398
  184SOPE   H5R21056   3.491   3.801   7.050  1.0796  0.4728 -0.4714
  184SOPE   H5S21057   3.499   3.623   7.104  2.3882 -1.7426  1.3651
  184SOPE   C2621058   3.564   3.726   7.258 -0.0125  0.5154  0.2562
  184SOPE   H6R21059   3.596   3.630   7.303 -0.0357 -0.7238 -2.2725
  184SOPE   H6S21060   3.650   3.795   7.272  1.6067 -1.5960  1.1198
  184SOPE   C2721061   3.443   3.777   7.342  0.2440  0.4555  0.7442
  184SOPE   H7R21062   3.397   3.865   7.293 -0.2447 -0.6867 -0.9041
  184SOPE   H7S21063   3.366   3.701   7.315  0.3717 -0.6132  3.3167
  184SOPE   C2821064   3.469   3.789   7.495  0.5944 -0.4751 -0.5203
  184SOPE   H8R21065   3.511   3.884   7.534 -2.2792  0.8555 -0.4778
  184SOPE   H8S21066   3.362   3.809   7.518  0.6887 -1.1187  0.4944
  184SOPE   C2921067   3.499   3.658   7.560  0.1224 -0.4010 -0.2060
  184SOPE   H9121068   3.494   3.571   7.493  0.8020 -0.6591  0.0777
  184SOPE  C21021069   3.561   3.647   7.684 -0.3362  0.2931 -0.4363
  184SOPE  H10121070   3.575   3.547   7.728 -0.3597  0.2281 -0.5774
  184SOPE  C21121071   3.600   3.755   7.778 -0.8858  0.3284 -0.0407
  184SOPE  H11R21072   3.599   3.856   7.733  0.9458  0.9921  1.3601
  184SOPE  H11S21073   3.703   3.734   7.812 -0.8783  0.3266 -0.0638
  184SOPE  C21221074   3.510   3.776   7.901  0.4192  0.6054 -0.2127
  184SOPE  H12R21075   3.407   3.802   7.870 -0.0133  1.8937  2.1800
  184SOPE  H12S21076   3.542   3.865   7.961  0.5075  0.6854 -0.3772
  184SOPE  C21321077   3.521   3.658   7.997  0.0275 -0.5290  0.0640
  184SOPE  H13R21078   3.629   3.648   8.025 -0.2684 -2.3956  0.6464
  184SOPE  H13S21079   3.493   3.571   7.934 -0.1489 -0.5211  0.1331
  184SOPE  C21421080   3.449   3.677   8.132 -0.2489  0.0672  0.0118
  184SOPE  H14R21081   3.508   3.736   8.206 -0.5446  0.9069 -0.4141
  184SOPE  H14S21082   3.429   3.578   8.177 -1.6200 -1.2688 -3.3642
  184SOPE  C21521083   3.312   3.739   8.109  0.6993  0.1985  0.3170
  184SOPE  H15R21084   3.246   3.670   8.050  2.0077 -0.9915  0.2197
  184SOPE  H15S21085   3.313   3.840   8.063 -3.2502  1.1171  2.0171
  184SOPE  C21621086   3.243   3.761   8.246 -0.2108 -0.1260 -0.1766
  184SOPE  H16R21087   3.313   3.812   8.316 -2.3259  0.5733  1.4781
  184SOPE  H16S21088   3.224   3.662   8.290  1.3845 -1.8192 -3.1261
  184SOPE  C21721089   3.118   3.843   8.230 -0.0826  0.4940  0.6288
  184SOPE  H17R21090   3.071   3.802   8.138  1.2100 -2.7717  1.3615
  184SOPE  H17S21091   3.128   3.952   8.210 -1.4119  0.1962 -1.8218
  184SOPE  C21821092   3.022   3.831   8.351  0.3662 -0.2281  0.3821
  184SOPE  H18R21093   3.021   3.725   8.386 -1.7375 -0.8747 -1.5131
  184SOPE  H18S21094   2.923   3.879   8.335  0.7478  0.5986  0.5171
  184SOPE  H18T21095   3.074   3.899   8.421  0.6921  2.3400 -2.2848
  184SOPE   C3321096   3.273   4.218   7.096  0.1547  0.2904  0.7918
  184SOPE   H3X21097   3.313   4.321   7.084 -0.6656  0.4532 -0.6661
  184SOPE   H3Y21098   3.364   4.156   7.111  1.4157  1.7964 -0.3863
  184SOPE   C3421099   3.177   4.204   7.209 -0.2000  0.2214 -0.3752
  184SOPE   H4X21100   3.115   4.111   7.206 -1.4825  0.9807  1.6359
  184SOPE   H4Y21101   3.107   4.289   7.196 -0.4280  0.4326  2.0886
  184SOPE   C3521102   3.239   4.233   7.354 -1.0122  0.4783 -0.3775
  184SOPE   H5X21103   3.345   4.263   7.338 -0.6930 -0.3377  0.1945
  184SOPE   H5Y21104   3.238   4.133   7.401 -1.5696  1.3675  1.5311
  184SOPE   C3621105   3.152   4.321   7.447 -0.0839 -0.4108 -0.0009
  184SOPE   H6X21106   3.088   4.386   7.385 -0.7412 -1.1213 -0.0724
  184SOPE   H6Y21107   3.215   4.377   7.520  0.1272 -0.5177 -0.1000
  184SOPE   C3721108   3.054   4.226   7.518 -0.8567 -0.3388  0.5033
  184SOPE   H7X21109   3.000   4.158   7.449  0.0197 -0.8976  0.3556
  184SOPE   H7Y21110   2.971   4.291   7.552 -0.7674 -0.0037  0.0856
  184SOPE   C3821111   3.109   4.141   7.629  0.6364 -0.1341  0.3436
  184SOPE   H8X21112   3.155   4.208   7.705  0.9684 -0.5400  0.5005
  184SOPE   H8Y21113   3.189   4.070   7.601  0.7873 -0.5074  1.6845
  184SOPE   C3921114   3.001   4.058   7.697  0.3295  0.6066 -0.2725
  184SOPE   H9X21115   3.051   3.959   7.707 -1.7323 -0.7748 -2.8231
  184SOPE   H9Y21116   2.916   4.048   7.625  1.1240  0.8815 -1.2615
  184SOPE  C31021117   2.948   4.127   7.828  0.5149 -0.5079  0.0821
  184SOPE  H10X21118   2.900   4.223   7.797 -0.2143 -0.8581  0.1267
  184SOPE  H10Y21119   3.039   4.149   7.887 -0.3818  0.0482  1.2839
  184SOPE  C31121120   2.846   4.048   7.907 -0.3629 -0.4540 -0.4146
  184SOPE  H11X21121   2.895   3.951   7.928 -0.3664  0.1264  2.3762
  184SOPE  H11Y21122   2.758   4.033   7.841  1.2426  0.2545 -2.7933
  184SOPE  C31221123   2.802   4.111   8.047 -0.0166 -1.0808  0.1806
  184SOPE  H12X21124   2.894   4.157   8.089 -1.3316  0.7159  1.1482
  184SOPE  H12Y21125   2.760   4.021   8.098 -1.1793 -1.2369 -1.0187
  184SOPE  C31321126   2.697   4.230   8.032  0.3677  0.3645  0.3487
  184SOPE  H13X21127   2.744   4.312   7.974  1.3475 -1.2046 -1.1031
  184SOPE  H13Y21128   2.680   4.264   8.137 -0.4025  0.1381  0.3026
  184SOPE  C31421129   2.564   4.174   7.983 -0.4461  0.5154  0.8976
  184SOPE  H14X21130   2.541   4.088   8.050  0.5165 -0.1536  0.3664
  184SOPE  H14Y21131   2.590   4.131   7.884  2.4906  0.4781  1.6425
  184SOPE  C31521132   2.444   4.267   7.955  0.9177  0.0401 -0.2791
  184SOPE  H15X21133   2.368   4.205   7.904  1.0044 -0.2059 -0.1058
  184SOPE  H15Y21134   2.458   4.355   7.889 -0.0491 -0.9585 -1.8225
  184SOPE  C31621135   2.368   4.325   8.081  1.0203  0.2197  0.6640
  184SOPE  H16X21136   2.433   4.398   8.132 -0.3253  0.5088  2.0190
  184SOPE  H16Y21137   2.359   4.233   8.143 -1.0715 -0.0117  0.0730
  184SOPE  C31721138   2.229   4.383   8.036 -1.4754  0.1328  0.3896
  184SOPE  H17X21139   2.163   4.302   7.997 -0.2292  0.1391 -1.8485
  184SOPE  H17Y21140   2.249   4.445   7.946  1.8572 -0.5834  0.5484
  184SOPE  C31821141   2.159   4.462   8.144 -0.9089 -0.2944  0.0396
  184SOPE  H18X21142   2.232   4.536   8.183 -0.2104 -0.3811 -1.0638
  184SOPE  H18Y21143   2.114   4.399   8.223 -0.8473  0.6634  0.8465
  184SOPE  H18Z21144   2.069   4.507   8.098 -0.7857  1.7462  1.7096
  185SAPI   C1221145   6.487   0.097  11.007  0.0678  1.0766 -0.3011
  185SAPI    H221146   6.495   0.124  10.900  1.6778 -1.1233 -0.7714
  185SAPI    O221147   6.536  -0.040  11.000  0.4341 -0.2347 -1.1699
  185SAPI   HO221148   6.468  -0.107  11.003  0.3781 -0.2613 -2.7942
  185SAPI   C1321149   6.583   0.193  11.088 -0.0242 -0.1218  0.3112
  185SAPI    H321150   6.543   0.295  11.070  2.6206  0.6870 -1.2214
  185SAPI    O321151   6.711   0.191  11.028 -0.5362  0.2236  0.0854
  185SAPI   HO321152   6.734   0.098  11.026 -0.1585  0.2814  1.3279
  185SAPI   C1421153   6.596   0.165  11.235 -0.1578 -0.6346 -0.3970
  185SAPI    H421154   6.636   0.061  11.232  1.6594  0.0437  0.0051
  185SAPI    O421155   6.688   0.249  11.307 -0.2458 -0.2603  0.1608
  185SAPI   HO421156   6.724   0.319  11.251 -0.8794  0.6016  0.8128
  185SAPI   C1521157   6.450   0.159  11.291  0.7760  0.0347 -0.2973
  185SAPI    H521158   6.413   0.260  11.264 -2.3029 -1.0841 -0.4935
  185SAPI    O521159   6.444   0.146  11.430 -0.1108  0.2395 -0.3590
  185SAPI   HO521160   6.365   0.186  11.469 -0.1589  1.6842 -1.8891
  185SAPI   C1621161   6.357   0.067  11.218  0.1127  0.5462  0.3543
  185SAPI    H621162   6.387  -0.037  11.242 -0.4906  0.5195  1.0141
  185SAPI    O621163   6.226   0.078  11.269  0.5493  0.7924  0.1056
  185SAPI   HO621164   6.172   0.007  11.234  0.8788  1.6958 -2.3135
  185SAPI   C1121165   6.351   0.109  11.071  0.0185 -0.0331  0.1873
  185SAPI    H121166   6.322   0.216  11.061 -0.6931 -0.1787  0.6603
  185SAPI     P21167   6.133   0.068  10.919  0.3239 -0.1086 -0.7962
  185SAPI   O1321168   6.067   0.182  10.988  0.3327  0.4718  0.2122
  185SAPI   O1421169   6.042  -0.045  10.890 -0.4403 -0.3954  0.4855
  185SAPI   O1221170   6.270   0.020  11.002  0.0822  0.0720  0.0534
  185SAPI   O1121171   6.193   0.122  10.780 -0.1023 -0.1519 -0.2085
  185SAPI    C121172   6.252   0.040  10.681 -0.5698  0.6055  0.3074
  185SAPI    HA21173   6.351   0.083  10.656 -0.6890  0.5488 -0.2704
  185SAPI    HB21174   6.251  -0.068  10.710 -1.1091  0.3252 -0.7312
  185SAPI    C221175   6.177   0.046  10.542  0.0039  0.3010  0.0293
  185SAPI    HS21176   6.222  -0.014  10.461 -0.3908  1.6081 -1.1747
  185SAPI   O2121177   6.170   0.182  10.499 -0.0147 -0.4873 -0.2048
  185SAPI   C2121178   6.282   0.230  10.460  0.8540  0.0430  1.1941
  185SAPI   O2221179   6.385   0.163  10.432  0.4358  0.0626 -0.5234
  185SAPI   C2221180   6.261   0.384  10.442 -0.3997 -0.9037 -0.1865
  185SAPI   H2R21181   6.241   0.422  10.545 -1.1602  2.0556 -1.3615
  185SAPI   H2S21182   6.362   0.418  10.411 -0.1163 -0.7948  0.8268
  185SAPI    C321183   6.027   0.004  10.557 -0.0487 -0.0486 -0.3354
  185SAPI    HX21184   5.965   0.082  10.607  0.1031 -0.6634  0.8064
  185SAPI    HY21185   6.021  -0.086  10.621  0.2261 -0.3520 -0.7322
  185SAPI   O3121186   5.974  -0.023  10.424  0.1969  0.6312  0.4711
  185SAPI   C3121187   5.887   0.072  10.376 -0.7113 -0.0288  0.3534
  185SAPI   O3221188   5.848   0.165  10.436 -0.0857 -0.2169  0.0501
  185SAPI   C3221189   5.860   0.039  10.229 -0.3749  0.1471  0.4473
  185SAPI   H2X21190   5.813  -0.062  10.223  2.2843 -1.1717  1.1056
  185SAPI   H2Y21191   5.959   0.027  10.181 -0.5678 -2.6605  0.6357
  185SAPI   C2321192   6.145   0.426  10.361 -0.3052 -0.2389  0.0069
  185SAPI   H3R21193   6.124   0.531  10.391 -2.1011 -0.4337 -0.5201
  185SAPI   H3S21194   6.057   0.359  10.371 -1.3248  1.3232  1.7836
  185SAPI   C2421195   6.169   0.443  10.209 -0.1911 -0.0132 -0.8109
  185SAPI   H4R21196   6.252   0.513  10.187  1.9586 -1.7282  1.6320
  185SAPI   H4S21197   6.077   0.492  10.171 -0.0644  0.6861 -0.2136
  185SAPI   C2521198   6.205   0.313  10.139  0.8675  0.1956  0.4035
  185SAPI   H5R21199   6.238   0.229  10.202  0.3630 -0.1612  0.1929
  185SAPI   C2621200   6.201   0.297  10.006 -0.2026 -0.4592  0.3346
  185SAPI   H6R21201   6.220   0.196   9.966  1.9359  0.8611 -2.1638
  185SAPI   C2721202   6.165   0.402   9.899 -0.0471 -0.3543 -0.3030
  185SAPI   H7R21203   6.247   0.398   9.825  0.3030  0.7986 -0.0002
  185SAPI   H7S21204   6.158   0.503   9.945  0.4426 -0.2023 -0.5589
  185SAPI   C2821205   6.031   0.358   9.842  0.6240 -0.6419 -0.0607
  185SAPI   H8R21206   5.962   0.319   9.919  1.9653 -0.7947  1.0919
  185SAPI   C2921207   5.982   0.367   9.716 -0.8677  0.1374  0.0980
  185SAPI   H9R21208   5.879   0.332   9.701 -0.2796 -1.5708 -0.0703
  185SAPI  C21021209   6.053   0.439   9.601 -0.3099  0.5314  0.1273
  185SAPI  H10R21210   6.090   0.354   9.540 -0.6733  1.2639 -1.1260
  185SAPI  H10S21211   6.147   0.484   9.640  2.0574 -2.9253 -1.4073
  185SAPI  C21121212   5.959   0.531   9.527 -1.0447  0.0153 -0.5405
  185SAPI  H11R21213   5.941   0.633   9.564  0.8032 -0.6823  2.4590
  185SAPI  C21221214   5.896   0.489   9.410  0.4582 -0.3541 -0.0339
  185SAPI  H12R21215   5.827   0.555   9.357  2.1780  0.9878 -0.6406
  185SAPI  C21321216   5.913   0.359   9.342 -0.1499 -0.4824  0.3796
  185SAPI  H13R21217   5.810   0.327   9.313 -0.2701  0.9214 -0.8112
  185SAPI  H13S21218   5.939   0.281   9.416 -1.8359 -1.9402 -0.5137
  185SAPI  C21421219   6.006   0.363   9.220  0.7559  0.3042 -0.3821
  185SAPI  H14R21220   6.112   0.353   9.245  0.4612  0.7421  1.1104
  185SAPI  C21521221   5.977   0.401   9.095 -0.0799  0.8367 -0.1326
  185SAPI  H15R21222   6.060   0.418   9.024 -1.1396  0.8081 -1.3836
  185SAPI  C21621223   5.849   0.448   9.039 -0.3457 -0.3789 -0.2411
  185SAPI  H16R21224   5.768   0.452   9.115 -0.6195 -0.4422 -0.5265
  185SAPI  H16S21225   5.824   0.373   8.961  1.3470 -1.7103  0.4719
  185SAPI  C21721226   5.855   0.587   8.960  0.2408 -0.2982  0.1019
  185SAPI  H17R21227   5.752   0.605   8.923  0.0853  1.4969  1.3457
  185SAPI  H17S21228   5.919   0.566   8.872 -0.1474  1.5270 -0.6443
  185SAPI  C21821229   5.896   0.702   9.050  0.5078 -0.1808  0.3677
  185SAPI  H18R21230   6.005   0.699   9.067  0.8196  1.3865 -1.3079
  185SAPI  H18S21231   5.848   0.692   9.150  0.2022  0.3262  0.2723
  185SAPI  C21921232   5.846   0.841   9.004 -0.1318 -0.0295  0.0993
  185SAPI  H19R21233   5.739   0.827   8.979 -0.1327  0.7097 -0.3438
  185SAPI  H19S21234   5.901   0.878   8.915 -1.1094  0.2663 -0.3911
  185SAPI  C22021235   5.866   0.952   9.108 -0.2235 -0.4750 -0.8926
  185SAPI  H20R21236   5.825   1.051   9.080  3.0967  1.2630  0.0475
  185SAPI  H20S21237   5.975   0.964   9.124 -0.2159 -0.2865 -1.0851
  185SAPI  H20T21238   5.805   0.910   9.191 -0.5719 -0.7164 -1.2671
  185SAPI   C3321239   5.780   0.139  10.159 -0.9807 -0.1518 -0.3254
  185SAPI   H3X21240   5.850   0.225  10.148 -0.0384 -0.9186 -0.3943
  185SAPI   H3Y21241   5.709   0.178  10.235 -0.6513  1.9817 -1.0708
  185SAPI   C3421242   5.709   0.108  10.024 -0.1989 -0.4264  0.5405
  185SAPI   H4X21243   5.626   0.034  10.030  0.0815 -0.8009 -0.1529
  185SAPI   H4Y21244   5.788   0.074   9.954  0.4018  0.0641  0.9703
  185SAPI   C3521245   5.641   0.234   9.964  0.3200 -0.7136  0.2345
  185SAPI   H5X21246   5.719   0.299   9.920 -0.5460  0.2745  0.1441
  185SAPI   H5Y21247   5.592   0.290  10.046 -4.1794 -0.0564 -2.7467
  185SAPI   C3621248   5.543   0.204   9.852 -0.1878 -0.3112 -0.8270
  185SAPI   H6X21249   5.465   0.283   9.847 -1.7710 -1.9038 -1.4741
  185SAPI   H6Y21250   5.495   0.104   9.855  1.9138 -1.3549 -0.4427
  185SAPI   C3721251   5.626   0.201   9.718 -0.7181  0.5537  0.6317
  185SAPI   H7X21252   5.709   0.127   9.725  0.6977  2.1311  0.9142
  185SAPI   H7Y21253   5.660   0.304   9.695  1.9582 -0.8417 -2.0324
  185SAPI   C3821254   5.539   0.163   9.605  0.3366 -0.3913 -0.3271
  185SAPI   H8X21255   5.443   0.219   9.604  0.3426 -0.3857 -0.4814
  185SAPI   H8Y21256   5.523   0.053   9.616  1.0010 -0.5773 -1.1736
  185SAPI   C3921257   5.606   0.189   9.479  0.3644  0.5341 -0.1898
  185SAPI   H9X21258   5.706   0.142   9.471 -0.5666 -1.7925  1.4182
  185SAPI   H9Y21259   5.609   0.299   9.460 -0.9112  0.8040  1.0651
  185SAPI  C31021260   5.536   0.125   9.359  0.7421  0.7655 -0.0233
  185SAPI  H10X21261   5.433   0.167   9.360  0.3483 -0.1919  0.8662
  185SAPI  H10Y21262   5.535   0.014   9.372  0.2934  0.9833  2.0129
  185SAPI  C31121263   5.594   0.153   9.226  0.2364  0.7907  0.0789
  185SAPI  H11X21264   5.685   0.090   9.215  0.8190  1.5200  0.6803
  185SAPI  H11Y21265   5.619   0.261   9.221  3.4064  0.2097  1.7905
  185SAPI  C31221266   5.497   0.129   9.102 -0.1219  0.0616  0.8778
  185SAPI  H12X21267   5.399   0.179   9.109 -0.6013 -0.6887 -0.3525
  185SAPI  H12Y21268   5.469   0.023   9.087 -0.4086  0.0810  1.2970
  185SAPI  C31321269   5.570   0.178   8.980  0.3039 -0.2530  1.0001
  185SAPI  H13X21270   5.629   0.270   8.994  1.2033 -0.8946  1.4706
  185SAPI  H13Y21271   5.485   0.212   8.917  2.7391 -0.2104 -2.3889
  185SAPI  C31421272   5.649   0.062   8.906  0.6026  0.0155 -0.5489
  185SAPI  H14X21273   5.580  -0.024   8.903 -2.2684  2.2172  0.6399
  185SAPI  H14Y21274   5.743   0.035   8.959  0.5073  1.8600  0.6169
  185SAPI  C31521275   5.691   0.114   8.767  0.6199 -0.0164 -0.0552
  185SAPI  H15X21276   5.754   0.205   8.771  2.0403 -0.9461 -0.6850
  185SAPI  H15Y21277   5.596   0.132   8.713 -0.9949 -1.1990  2.3386
  185SAPI  C31621278   5.761   0.003   8.693 -0.3256  0.8227  0.6148
  185SAPI  H16X21279   5.684  -0.070   8.660 -1.0383  1.5725  0.6085
  185SAPI  H16Y21280   5.839  -0.045   8.756 -0.4107 -1.0752 -0.6964
  185SAPI  C31721281   5.825   0.041   8.564  0.0266  0.1897 -0.0808
  185SAPI  H17X21282   5.763   0.091   8.487 -0.4483  1.9057  1.3887
  185SAPI  H17Y21283   5.864  -0.055   8.522  0.5084  0.0421  0.6801
  185SAPI  C31821284   5.950   0.124   8.592  0.2340  0.4398  0.3194
  185SAPI  H18X21285   6.002   0.118   8.494 -0.8865 -0.8522 -0.2116
  185SAPI  H18Y21286   6.015   0.087   8.674 -0.8609 -3.4233 -0.4455
  185SAPI  H18Z21287   5.917   0.228   8.614 -0.1744  0.1066  1.2840
  186SAPI   C1221288   5.737   5.478  10.490  0.0547  0.0421  0.7459
  186SAPI    H221289   5.822   5.407  10.499  0.9566  0.9934 -0.2077
  186SAPI    O221290   5.754   5.552  10.369  0.1882  0.8682 -0.1242
  186SAPI   HO221291   5.736   5.496  10.294  2.4453  0.6658 -0.5448
  186SAPI   C1321292   5.605   5.406  10.490 -0.8953  0.6395 -0.7244
  186SAPI    H321293   5.609   5.356  10.589  0.9998 -1.1037 -1.6348
  186SAPI    O321294   5.609   5.294  10.401  0.2750  0.0802 -0.1744
  186SAPI   HO321295   5.689   5.301  10.348  1.1872  1.2666  1.3062
  186SAPI   C1421296   5.498   5.505  10.482 -0.3571 -0.1835 -0.0234
  186SAPI    H421297   5.499   5.561  10.386 -0.4511  1.9684  1.1825
  186SAPI    O421298   5.374   5.432  10.489 -0.1686  0.6204  0.0566
  186SAPI   HO421299   5.303   5.468  10.436  0.1111  0.7776 -0.2141
  186SAPI   C1521300   5.505   5.612  10.594 -0.0018 -0.0653  0.2868
  186SAPI    H521301   5.493   5.547  10.684  0.9962 -0.1892  0.3410
  186SAPI    O521302   5.394   5.699  10.594  0.0078 -0.0632 -0.5153
  186SAPI   HO521303   5.435   5.784  10.575  1.8258 -0.5704  0.9725
  186SAPI   C1621304   5.641   5.683  10.611 -0.1892 -0.2414 -0.3921
  186SAPI    H621305   5.647   5.755  10.527 -1.7115  0.0294 -0.2845
  186SAPI    O621306   5.637   5.756  10.733 -0.2833  0.1451 -0.0606
  186SAPI   HO621307   5.709   5.819  10.737 -0.2588  0.0173  2.1143
  186SAPI   C1121308   5.747   5.575  10.613 -0.4032 -0.1528 -0.1938
  186SAPI    H121309   5.743   5.512  10.704 -2.7404  0.6231  0.2760
  186SAPI     P21310   6.010   5.562  10.685  0.0227  0.3099 -0.2071
  186SAPI   O1321311   5.964   5.435  10.755 -0.2835  0.2078 -0.6083
  186SAPI   O1421312   6.084   5.663  10.766 -1.1713  0.2676  0.4179
  186SAPI   O1221313   5.880   5.634  10.620  0.0072  0.1653 -0.9284
  186SAPI   O1121314   6.081   5.521  10.553  0.1817 -0.5664  0.0138
  186SAPI    C121315   6.101   5.604  10.439  0.3248 -0.3770 -0.3865
  186SAPI    HA21316   6.007   5.612  10.380 -1.9529 -1.4428  2.9824
  186SAPI    HB21317   6.138   5.703  10.473 -0.2876 -0.2569 -0.0798
  186SAPI    C221318   6.204   5.545  10.337 -1.0408  0.1442  0.0569
  186SAPI    HS21319   6.287   5.508  10.402 -0.9013  1.1459  0.4515
  186SAPI   O2121320   6.243   5.651  10.256  0.3833  0.3289 -0.0158
  186SAPI   C2121321   6.333   5.739  10.306  0.3714 -0.2876 -0.2568
  186SAPI   O2221322   6.370   5.738  10.423  0.2564 -0.0717 -0.3968
  186SAPI   C2221323   6.360   5.854  10.203 -0.3642 -0.3114  0.1963
  186SAPI   H2R21324   6.262   5.886  10.164  0.2883  1.5293  0.0143
  186SAPI   H2S21325   6.411   5.938  10.256  0.8986  0.0761 -1.5689
  186SAPI    C321326   6.149   5.425  10.252  0.1196  0.2864  0.2416
  186SAPI    HX21327   6.079   5.467  10.176  1.1217  1.0236 -0.2765
  186SAPI    HY21328   6.080   5.362  10.312 -0.6601 -0.0808 -1.0182
  186SAPI   O3121329   6.249   5.349  10.190 -0.2644  0.1513 -0.0529
  186SAPI   C3121330   6.319   5.254  10.254 -0.2459  0.3854 -0.4427
  186SAPI   O3221331   6.298   5.219  10.370  0.5751  0.2224 -0.0071
  186SAPI   C3221332   6.437   5.197  10.165  0.2998 -0.1732  0.5280
  186SAPI   H2X21333   6.397   5.166  10.066  0.5128 -1.5499  0.8645
  186SAPI   H2Y21334   6.452   5.095  10.206  0.2925 -0.9529 -1.3765
  186SAPI   C2321335   6.450   5.818  10.086  0.3527 -0.5359 -0.3096
  186SAPI   H3R21336   6.412   5.723  10.043 -0.1345 -0.2120 -0.5907
  186SAPI   H3S21337   6.554   5.795  10.119  0.2637  1.9500  1.8836
  186SAPI   C2421338   6.451   5.932   9.979 -0.6179  0.6225 -0.0599
  186SAPI   H4R21339   6.522   5.903   9.898 -0.0571  0.4028  0.5064
  186SAPI   H4S21340   6.499   6.021  10.025  2.5322 -1.0396  0.0192
  186SAPI   C2521341   6.318   5.973   9.916 -0.1728 -0.6656  0.0118
  186SAPI   H5R21342   6.273   6.058   9.969 -0.7518  0.2839 -1.9800
  186SAPI   C2621343   6.263   5.930   9.799  0.3549 -0.0615 -0.3107
  186SAPI   H6R21344   6.170   5.978   9.764  0.3168  0.0861 -0.0070
  186SAPI   C2721345   6.326   5.826   9.706 -0.0574 -0.4320 -0.3159
  186SAPI   H7R21346   6.436   5.833   9.702 -0.0825 -0.2632 -0.7114
  186SAPI   H7S21347   6.291   5.840   9.602  0.0182 -1.7384 -0.5243
  186SAPI   C2821348   6.292   5.681   9.756 -0.9043  0.0315  0.4440
  186SAPI   H8R21349   6.222   5.677   9.841  0.0937 -0.3700  1.2533
  186SAPI   C2921350   6.300   5.577   9.668  0.5233  0.2819  0.1509
  186SAPI   H9R21351   6.256   5.483   9.705 -0.5234 -0.0398 -1.8610
  186SAPI  C21021352   6.341   5.584   9.522 -0.0343  0.1606  0.2853
  186SAPI  H10R21353   6.427   5.516   9.507 -0.3012  0.2484 -1.8479
  186SAPI  H10S21354   6.371   5.687   9.493 -1.0653  0.7092  1.1308
  186SAPI  C21121355   6.220   5.538   9.442 -0.4730  0.0721  0.0078
  186SAPI  H11R21356   6.147   5.473   9.493 -1.1869  0.1317 -0.9353
  186SAPI  C21221357   6.200   5.556   9.315  1.0245 -0.7964 -0.0497
  186SAPI  H12R21358   6.103   5.529   9.271  2.3488 -1.2866 -2.7949
  186SAPI  C21321359   6.288   5.628   9.220 -0.5130 -0.2350  0.0784
  186SAPI  H13R21360   6.387   5.583   9.243 -0.6076  0.0387  1.0660
  186SAPI  H13S21361   6.292   5.737   9.245  1.2887 -0.0664 -0.8796
  186SAPI  C21421362   6.255   5.618   9.079 -0.2999  0.3519  0.4411
  186SAPI  H14R21363   6.162   5.670   9.053  0.6244  2.6739  1.6947
  186SAPI  C21521364   6.331   5.572   8.975 -0.7291 -0.0244 -0.4089
  186SAPI  H15R21365   6.278   5.558   8.880  0.1324 -0.3004 -0.8490
  186SAPI  C21621366   6.465   5.511   8.969 -1.1440 -0.2127  0.0364
  186SAPI  H16R21367   6.468   5.403   8.997 -0.1294 -0.2423 -0.1637
  186SAPI  H16S21368   6.531   5.555   9.046  1.6350 -0.2212 -2.2268
  186SAPI  C21721369   6.548   5.522   8.830 -0.5842  0.3119 -0.3670
  186SAPI  H17R21370   6.657   5.540   8.846 -0.4124 -1.2055  0.2572
  186SAPI  H17S21371   6.510   5.620   8.794 -1.3377  1.0364  2.3000
  186SAPI  C21821372   6.524   5.408   8.734 -0.2344 -0.0023  0.2009
  186SAPI  H18R21373   6.422   5.427   8.694 -0.5103 -1.6608  0.0844
  186SAPI  H18S21374   6.535   5.315   8.794 -0.9960  0.3976  0.9871
  186SAPI  C21921375   6.627   5.397   8.623  0.4534  0.4910 -0.7876
  186SAPI  H19R21376   6.625   5.304   8.562 -2.0889  1.3973 -2.1503
  186SAPI  H19S21377   6.719   5.405   8.685 -0.0687 -0.5110  0.1390
  186SAPI  C22021378   6.610   5.515   8.527 -0.0422 -0.0827  0.5850
  186SAPI  H20R21379   6.650   5.613   8.562  1.6967  0.1392 -1.8838
  186SAPI  H20S21380   6.504   5.519   8.495  0.0293  1.0103  0.4672
  186SAPI  H20T21381   6.672   5.496   8.437 -0.5848 -0.8219  0.3583
  186SAPI   C3321382   6.570   5.278  10.179 -0.3036 -0.3547  0.6434
  186SAPI   H3X21383   6.661   5.229  10.139  0.7715  1.0081  1.3840
  186SAPI   H3Y21384   6.596   5.288  10.286 -0.8449 -1.6864  0.9083
  186SAPI   C3421385   6.563   5.418  10.105  0.4107  0.0866  0.5494
  186SAPI   H4X21386   6.665   5.461  10.103  0.9923 -1.1317  2.3588
  186SAPI   H4Y21387   6.496   5.486  10.162  0.8762 -0.3175  1.5941
  186SAPI   C3521388   6.516   5.411   9.958 -0.3500  0.5028 -0.2568
  186SAPI   H5X21389   6.537   5.513   9.918  2.4832  0.2154  0.4569
  186SAPI   H5Y21390   6.407   5.390   9.945 -0.0966  0.0495 -1.7222
  186SAPI   C3621391   6.596   5.319   9.873 -0.2133  0.3864  0.6569
  186SAPI   H6X21392   6.567   5.211   9.876  1.4345 -0.1396 -1.0666
  186SAPI   H6Y21393   6.702   5.328   9.905  0.8155  2.6489 -3.1490
  186SAPI   C3721394   6.591   5.364   9.723 -0.0877  0.3167 -0.0427
  186SAPI   H7X21395   6.628   5.468   9.712 -1.3365  0.9252  1.2848
  186SAPI   H7Y21396   6.482   5.370   9.701  0.0833 -1.8642 -1.7406
  186SAPI   C3821397   6.652   5.267   9.620 -0.6748  0.1224  0.3658
  186SAPI   H8X21398   6.591   5.175   9.624 -0.8999  0.2907  0.7785
  186SAPI   H8Y21399   6.761   5.251   9.634 -0.7882 -0.7433  0.2346
  186SAPI   C3921400   6.641   5.326   9.479  0.2005 -0.4990  0.4584
  186SAPI   H9X21401   6.712   5.411   9.492 -0.9168  0.6276 -0.6152
  186SAPI   H9Y21402   6.541   5.365   9.449 -0.1942  0.0514  2.3919
  186SAPI  C31021403   6.701   5.222   9.382 -0.8828 -0.2148 -0.8057
  186SAPI  H10X21404   6.637   5.132   9.393 -0.2351 -0.6405 -0.4532
  186SAPI  H10Y21405   6.800   5.183   9.416 -1.4927 -1.5345 -0.4920
  186SAPI  C31121406   6.718   5.269   9.236 -0.5688 -0.2122  0.2707
  186SAPI  H11X21407   6.792   5.352   9.241 -0.2060 -0.5701  0.9348
  186SAPI  H11Y21408   6.618   5.304   9.203  0.6967  2.8290 -0.4847
  186SAPI  C31221409   6.760   5.150   9.149 -0.5981  0.1628  0.2857
  186SAPI  H12X21410   6.710   5.057   9.184  1.5158 -1.5161 -1.0260
  186SAPI  H12Y21411   6.866   5.131   9.177 -0.4453  1.5453  0.6764
  186SAPI  C31321412   6.729   5.172   9.005  0.8980  0.0040 -1.0536
  186SAPI  H13X21413   6.786   5.259   8.965  1.0519  2.2223  3.6861
  186SAPI  H13Y21414   6.623   5.207   9.004  1.3370  1.3500 -1.9433
  186SAPI  C31421415   6.745   5.059   8.908  0.0949 -0.3533  0.5428
  186SAPI  H14X21416   6.701   5.096   8.813  1.7999 -2.5097 -1.1353
  186SAPI  H14Y21417   6.691   4.963   8.930  0.1694 -0.2279  1.3078
  186SAPI  C31521418   6.894   5.030   8.903 -0.4771 -0.4181  0.3442
  186SAPI  H15X21419   6.927   5.018   9.009  0.9372  1.1994  0.1243
  186SAPI  H15Y21420   6.952   5.123   8.881  0.0956 -0.8292  0.0894
  186SAPI  C31621421   6.922   4.915   8.809 -0.3503  1.5412  0.5000
  186SAPI  H16X21422   6.941   4.960   8.709 -2.6886 -0.0786 -0.7311
  186SAPI  H16Y21423   6.837   4.843   8.809  0.5625  0.3536 -2.4077
  186SAPI  C31721424   7.034   4.830   8.862  0.0538 -0.2512 -0.1556
  186SAPI  H17X21425   6.975   4.767   8.931 -0.0834  1.4452  1.3309
  186SAPI  H17Y21426   7.093   4.902   8.924 -0.6524  0.5749 -0.4359
  186SAPI  C31821427   7.111   4.757   8.757  0.7702 -0.6583  0.1752
  186SAPI  H18X21428   7.193   4.696   8.802  1.2185 -0.7356 -0.7382
  186SAPI  H18Y21429   7.152   4.823   8.678 -4.8209 -0.5531 -2.8938
  186SAPI  H18Z21430   7.059   4.673   8.707  1.9180 -0.0740 -2.0773
  187SAPI   C1221431   3.033   0.292   6.113 -0.3383 -0.8780 -0.8382
  187SAPI    H221432   3.077   0.304   6.214  0.0704 -0.6767 -1.0376
  187SAPI    O221433   2.903   0.349   6.113  0.4802 -0.4378 -0.0474
  187SAPI   HO221434   2.849   0.297   6.172  0.4721  1.2806  1.4742
  187SAPI   C1321435   3.116   0.356   6.002  0.3617 -1.0310 -0.1460
  187SAPI    H321436   3.220   0.319   6.012  0.0194 -1.8784  0.3787
  187SAPI    O321437   3.117   0.499   6.022 -0.0536 -0.2069  0.1828
  187SAPI   HO321438   3.027   0.528   6.039 -0.8720 -1.4175 -1.9257
  187SAPI   C1421439   3.064   0.311   5.861  0.2805 -0.7392  0.0956
  187SAPI    H421440   2.958   0.343   5.851  0.3461 -0.4882  0.1956
  187SAPI    O421441   3.134   0.379   5.759 -0.0570  0.6037  0.3211
  187SAPI   HO421442   3.164   0.462   5.796  0.1621 -0.1594  1.8692
  187SAPI   C1521443   3.070   0.155   5.845 -0.2836  0.0446 -1.0468
  187SAPI    H521444   3.175   0.119   5.858 -0.1965 -0.1607 -2.2279
  187SAPI    O521445   3.042   0.110   5.717 -0.2848 -0.1421  0.1552
  187SAPI   HO521446   3.120   0.066   5.684 -0.2788  0.1185 -0.1818
  187SAPI   C1621447   2.983   0.092   5.955 -0.3732  0.1821  0.8036
  187SAPI    H621448   2.879   0.127   5.933 -0.1853 -0.8144 -1.8938
  187SAPI    O621449   2.981  -0.048   5.947 -0.0920  0.4934  0.2123
  187SAPI   HO621450   2.997  -0.076   6.038  0.9871  0.8928  0.1503
  187SAPI   C1121451   3.024   0.135   6.101 -0.1452  0.1550  0.1471
  187SAPI    H121452   3.128   0.096   6.110 -0.1676  0.1896  0.5999
  187SAPI     P21453   2.990  -0.039   6.301 -0.3592  0.1355 -0.0226
  187SAPI   O1321454   3.031  -0.153   6.208 -0.1872 -0.1809 -0.3322
  187SAPI   O1421455   2.884  -0.054   6.400  0.1175  0.7975 -0.4736
  187SAPI   O1221456   2.935   0.079   6.200  0.1080 -0.0394 -0.0495
  187SAPI   O1121457   3.123   0.017   6.363  0.3783 -0.9689 -0.4582
  187SAPI    C121458   3.131   0.138   6.439 -0.0344 -0.4151 -1.1552
  187SAPI    HA21459   3.189   0.211   6.378 -1.0083  1.1687 -0.2300
  187SAPI    HB21460   3.033   0.179   6.472  0.1023 -0.2169 -0.9911
  187SAPI    C221461   3.227   0.126   6.557  0.0613 -0.4261  0.3712
  187SAPI    HS21462   3.323   0.086   6.519 -0.0400 -0.7553  0.4634
  187SAPI   O2121463   3.172   0.031   6.650  0.1477  0.0464 -0.1204
  187SAPI   C2121464   3.080   0.064   6.726 -0.6159 -0.2730  0.2004
  187SAPI   O2221465   3.008   0.166   6.720 -0.5094  0.5660  0.0163
  187SAPI   C2221466   3.054  -0.055   6.819 -0.3987 -0.2275  0.4524
  187SAPI   H2R21467   3.002  -0.135   6.762 -0.3556  1.7494 -2.4920
  187SAPI   H2S21468   3.146  -0.111   6.844  0.1590 -0.2448 -1.6100
  187SAPI    C321469   3.259   0.269   6.621 -1.0915 -0.5466 -0.6688
  187SAPI    HX21470   3.164   0.317   6.655  0.0356  0.2014  1.5097
  187SAPI    HY21471   3.290   0.341   6.543 -0.6972  0.8671  0.7581
  187SAPI   O3121472   3.344   0.265   6.740  0.2378 -0.2116  0.5937
  187SAPI   C3121473   3.469   0.230   6.721 -0.0045  0.8756 -0.8478
  187SAPI   O3221474   3.520   0.215   6.613 -0.6269 -0.2233  0.2453
  187SAPI   C3221475   3.539   0.199   6.857 -0.0209 -0.7644  0.9199
  187SAPI   H2X21476   3.579   0.298   6.887 -4.3557  1.2604  0.5019
  187SAPI   H2Y21477   3.614   0.118   6.852  0.3261 -0.3921  0.0693
  187SAPI   C2321478   2.995  -0.003   6.954 -0.5755 -0.2488  0.3053
  187SAPI   H3R21479   2.913   0.069   6.933 -0.6132 -0.4778 -0.3675
  187SAPI   H3S21480   3.074   0.056   7.004  0.6412 -1.8518  0.3441
  187SAPI   C2421481   2.944  -0.114   7.045  0.7328  0.4773  0.0090
  187SAPI   H4R21482   3.032  -0.171   7.083 -0.0884 -0.3803  0.6495
  187SAPI   H4S21483   2.867  -0.176   6.995  1.2033  1.1277 -1.5525
  187SAPI   C2521484   2.881  -0.045   7.163 -0.1039 -0.1056  0.2882
  187SAPI   H5R21485   2.772  -0.030   7.160 -0.1138 -0.3722 -1.7937
  187SAPI   C2621486   2.944  -0.018   7.277 -0.7799 -0.3118 -0.9082
  187SAPI   H6R21487   2.897   0.048   7.352 -1.2235 -1.5288 -0.1035
  187SAPI   C2721488   3.093  -0.047   7.305  0.3209 -0.3160 -0.3332
  187SAPI   H7R21489   3.151   0.036   7.349  1.2754 -0.8620 -0.5456
  187SAPI   H7S21490   3.156  -0.062   7.215  1.6606  0.8832  0.3983
  187SAPI   C2821491   3.107  -0.162   7.391  0.3612  0.1849  0.4094
  187SAPI   H8R21492   3.118  -0.261   7.345 -0.3944 -0.0428  0.7090
  187SAPI   C2921493   3.102  -0.164   7.525 -0.2081  0.1600 -0.4753
  187SAPI   H9R21494   3.122  -0.262   7.572  0.5622  0.6906  0.3212
  187SAPI  C21021495   3.078  -0.055   7.625 -0.1471  0.5476  0.0995
  187SAPI  H10R21496   3.079   0.044   7.573 -2.4005 -0.2423 -1.5414
  187SAPI  H10S21497   3.169  -0.056   7.689 -0.7812  0.9611  1.0153
  187SAPI  C21121498   2.946  -0.072   7.708 -0.0396  0.0461 -0.4308
  187SAPI  H11R21499   2.853  -0.058   7.650  1.1873  1.3263 -2.1118
  187SAPI  C21221500   2.941  -0.096   7.843 -0.8973 -0.1072  0.3748
  187SAPI  H12R21501   2.839  -0.112   7.879 -1.7218  0.2672 -1.7388
  187SAPI  C21321502   3.045  -0.104   7.943  0.6713 -0.4160 -0.4006
  187SAPI  H13R21503   3.011  -0.064   8.041  2.6705  2.0376 -0.6532
  187SAPI  H13S21504   3.133  -0.042   7.913  1.5539 -1.1976  0.5089
  187SAPI  C21421505   3.102  -0.242   7.950 -0.1955  0.1988  0.8094
  187SAPI  H14R21506   3.157  -0.269   7.858 -1.3978 -0.7989  0.3733
  187SAPI  C21521507   3.091  -0.323   8.062  0.0383  0.0029  0.3135
  187SAPI  H15R21508   3.120  -0.429   8.058 -1.6443 -0.4745  0.2323
  187SAPI  C21621509   3.017  -0.279   8.189  0.4951  0.1504  0.2597
  187SAPI  H16R21510   2.985  -0.373   8.238  0.0421  0.1238 -0.0851
  187SAPI  H16S21511   2.922  -0.234   8.155  0.0827 -0.2004  0.9471
  187SAPI  C21721512   3.112  -0.204   8.279 -0.0057 -0.3652  0.3548
  187SAPI  H17R21513   3.158  -0.109   8.243  0.2549 -0.4936  0.3500
  187SAPI  H17S21514   3.201  -0.268   8.296 -0.1341 -0.8231 -0.6197
  187SAPI  C21821515   3.041  -0.174   8.413  0.1192  0.3268  0.3842
  187SAPI  H18R21516   3.112  -0.154   8.496 -0.7649  2.5483  0.6539
  187SAPI  H18S21517   2.970  -0.252   8.447  0.9324 -0.2312  0.8196
  187SAPI  C21921518   2.958  -0.041   8.403  0.8355  0.5068 -0.7416
  187SAPI  H19R21519   2.866  -0.060   8.343 -0.0278 -2.5227  1.4263
  187SAPI  H19S21520   3.015   0.035   8.345 -1.0607  3.6646  1.4245
  187SAPI  C22021521   2.917   0.016   8.535 -0.7723  0.2468  0.3940
  187SAPI  H20R21522   2.832  -0.042   8.575 -0.8866  0.2407  0.1472
  187SAPI  H20S21523   2.884   0.121   8.517 -1.7996 -0.1991 -0.3744
  187SAPI  H20T21524   2.997   0.030   8.610  0.8736 -0.7914 -1.1272
  187SAPI   C3321525   3.434   0.156   6.968  0.0476 -0.7209  0.0811
  187SAPI   H3X21526   3.393   0.061   6.927 -0.8353  0.1668 -1.1339
  187SAPI   H3Y21527   3.354   0.234   6.973 -0.3690 -1.0157 -1.5437
  187SAPI   C3421528   3.499   0.130   7.098 -0.0681 -0.8462 -1.0399
  187SAPI   H4X21529   3.573   0.210   7.119 -0.7660 -0.4473 -0.0569
  187SAPI   H4Y21530   3.554   0.035   7.076 -2.0464 -2.7767  1.9509
  187SAPI   C3521531   3.403   0.103   7.213 -0.2901  0.0116  0.2735
  187SAPI   H5X21532   3.364  -0.001   7.211  1.0193 -0.5877  3.0816
  187SAPI   H5Y21533   3.320   0.177   7.207 -1.4953 -1.2696  0.8478
  187SAPI   C3621534   3.481   0.132   7.344  0.3746  0.1760 -0.5637
  187SAPI   H6X21535   3.515   0.238   7.341 -0.0710  0.3672  0.7156
  187SAPI   H6Y21536   3.566   0.062   7.356 -0.2283 -0.2350  1.5297
  187SAPI   C3721537   3.399   0.091   7.464  0.1030  0.4893  0.2506
  187SAPI   H7X21538   3.411  -0.020   7.470  1.0914  0.6451  1.4354
  187SAPI   H7Y21539   3.293   0.122   7.475  0.7878  2.9853  0.0838
  187SAPI   C3821540   3.464   0.142   7.599 -0.2371 -0.7441  0.5805
  187SAPI   H8X21541   3.464   0.252   7.604  2.0212 -0.7485  1.3481
  187SAPI   H8Y21542   3.568   0.102   7.610  0.4872  0.1839 -2.3446
  187SAPI   C3921543   3.384   0.095   7.722  0.3549  0.7299  0.4611
  187SAPI   H9X21544   3.377  -0.016   7.726 -1.4567  0.8346  0.6359
  187SAPI   H9Y21545   3.287   0.148   7.709 -0.5479 -1.2023 -1.0498
  187SAPI  C31021546   3.453   0.143   7.853 -0.1149  0.0255 -0.1640
  187SAPI  H10X21547   3.497   0.244   7.839  1.4557 -0.6888 -0.5193
  187SAPI  H10Y21548   3.533   0.079   7.897  1.4197  1.2486 -1.1242
  187SAPI  C31121549   3.358   0.139   7.974 -0.0298 -0.1722  0.3760
  187SAPI  H11X21550   3.309   0.039   7.969  0.0797 -0.2105  0.0777
  187SAPI  H11Y21551   3.274   0.209   7.952  0.8487  0.7076 -0.2230
  187SAPI  C31221552   3.421   0.169   8.118  0.1759  0.0683  0.2392
  187SAPI  H12X21553   3.333   0.182   8.185  0.1818 -1.4486  0.5424
  187SAPI  H12Y21554   3.480   0.263   8.119 -1.5432  1.1810  0.4968
  187SAPI  C31321555   3.511   0.056   8.176  0.1603 -0.5508  0.7435
  187SAPI  H13X21556   3.513   0.082   8.284 -0.9031 -1.0092  0.8799
  187SAPI  H13Y21557   3.616   0.064   8.143  0.5446  2.0889  2.4444
  187SAPI  C31421558   3.450  -0.080   8.165 -0.1233  0.0840 -0.1428
  187SAPI  H14X21559   3.492  -0.122   8.071  0.5619 -2.0688  1.0684
  187SAPI  H14Y21560   3.339  -0.076   8.165 -0.1282 -0.0368  0.1697
  187SAPI  C31521561   3.504  -0.186   8.268  0.2970 -0.6436 -0.1300
  187SAPI  H15X21562   3.613  -0.198   8.252  0.0717 -3.2391  0.0260
  187SAPI  H15Y21563   3.465  -0.286   8.238  0.3587  0.0952 -2.8252
  187SAPI  C31621564   3.461  -0.143   8.412 -0.2473 -0.6237  1.2788
  187SAPI  H16X21565   3.368  -0.083   8.402  0.1695  0.0499  1.3648
  187SAPI  H16Y21566   3.543  -0.080   8.454  0.1951 -0.8798  0.8068
  187SAPI  C31721567   3.437  -0.259   8.512  0.1373 -0.2302 -0.3257
  187SAPI  H17X21568   3.532  -0.314   8.525 -0.2281 -0.8629 -0.2841
  187SAPI  H17Y21569   3.354  -0.325   8.476 -0.3070 -0.0820  0.4108
  187SAPI  C31821570   3.409  -0.207   8.656  0.1940 -0.3590  0.0859
  187SAPI  H18X21571   3.380  -0.287   8.729  2.3317 -0.4887  0.8139
  187SAPI  H18Y21572   3.343  -0.119   8.672 -0.7713 -0.8583 -1.0648
  187SAPI  H18Z21573   3.503  -0.166   8.698 -1.2615  1.3576  1.7951
  188SAPI   C1221574   5.053   2.747   6.391  0.0058 -0.1293 -0.1254
  188SAPI    H221575   4.976   2.757   6.470 -1.1841 -1.1559 -1.1375
  188SAPI    O221576   4.986   2.726   6.274  0.2238  0.1590  0.1259
  188SAPI   HO221577   4.898   2.692   6.293 -0.3605  1.4999 -0.1283
  188SAPI   C1321578   5.138   2.871   6.392  0.5190  0.7348 -0.0368
  188SAPI    H321579   5.197   2.882   6.486  1.6480 -0.4561 -0.5991
  188SAPI    O321580   5.057   2.987   6.393  0.1230 -0.2827 -0.2140
  188SAPI   HO321581   5.028   3.009   6.304  1.7660  3.8140  0.1502
  188SAPI   C1421582   5.231   2.857   6.277  0.3259  0.0620  0.4564
  188SAPI    H421583   5.186   2.827   6.180  0.4036 -2.0608  1.0573
  188SAPI    O421584   5.306   2.977   6.252 -0.4551  0.2581 -0.5712
  188SAPI   HO421585   5.337   2.967   6.162 -2.6676 -1.7716 -1.1885
  188SAPI   C1521586   5.325   2.742   6.303 -0.2245 -0.4599 -0.8472
  188SAPI    H521587   5.367   2.750   6.405 -1.2810 -3.4987 -0.1197
  188SAPI    O521588   5.417   2.717   6.195 -0.3326 -0.1227 -0.0856
  188SAPI   HO521589   5.469   2.638   6.209 -1.8629 -1.3502 -1.1250
  188SAPI   C1621590   5.243   2.609   6.315 -0.5545 -0.1393 -0.1380
  188SAPI    H621591   5.186   2.579   6.225  0.6474 -0.4594 -0.8059
  188SAPI    O621592   5.331   2.501   6.344  0.0308 -0.0695  0.1926
  188SAPI   HO621593   5.294   2.450   6.417  0.0403  0.9601  0.9250
  188SAPI   C1121594   5.148   2.633   6.424  0.8861  0.0601  0.4605
  188SAPI    H121595   5.198   2.672   6.515 -0.7207  0.5057  1.1849
  188SAPI     P21596   5.080   2.423   6.582  0.4352 -0.4993  0.3499
  188SAPI   O1321597   5.220   2.391   6.566  0.2231 -0.1288  0.5210
  188SAPI   O1421598   4.988   2.303   6.574  0.1955  0.5162  0.2765
  188SAPI   O1221599   5.059   2.529   6.460  0.0066  0.2504 -0.1520
  188SAPI   O1121600   5.053   2.512   6.722 -0.4230  0.0696  0.6077
  188SAPI    C121601   4.920   2.551   6.753 -0.0563  0.5279 -0.4505
  188SAPI    HA21602   4.926   2.661   6.767  2.0097  0.4840 -0.9442
  188SAPI    HB21603   4.847   2.533   6.670 -1.1934  0.7084  0.4953
  188SAPI    C221604   4.857   2.482   6.873 -0.2528 -0.5495 -0.6543
  188SAPI    HS21605   4.754   2.522   6.878 -0.0198  0.0297 -0.5104
  188SAPI   O2121606   4.935   2.509   6.993 -0.8790  0.4437  0.2163
  188SAPI   C2121607   4.954   2.636   7.021  0.3980 -0.1838 -0.9571
  188SAPI   O2221608   4.896   2.732   6.978  0.5970 -0.3566 -0.0561
  188SAPI   C2221609   5.061   2.641   7.126  0.3961  0.1733  0.0594
  188SAPI   H2R21610   5.065   2.539   7.170  1.2808 -0.2773 -1.0468
  188SAPI   H2S21611   5.161   2.667   7.086  0.4614 -0.9381 -0.5170
  188SAPI    C321612   4.855   2.329   6.849  0.2181 -0.5133  0.0231
  188SAPI    HX21613   4.959   2.293   6.831  0.2713  0.3012 -1.4282
  188SAPI    HY21614   4.796   2.319   6.755 -1.8040 -2.1168  1.4351
  188SAPI   O3121615   4.791   2.259   6.965  0.1707 -0.0202 -0.2837
  188SAPI   C3121616   4.777   2.130   6.964 -0.0511 -0.8914  0.4362
  188SAPI   O3221617   4.828   2.049   6.886 -0.1628 -0.1955 -0.0463
  188SAPI   C3221618   4.698   2.091   7.087  0.2180 -1.2401 -0.0257
  188SAPI   H2X21619   4.685   1.980   7.091 -0.8510 -1.0927  0.6992
  188SAPI   H2Y21620   4.601   2.144   7.080  1.0594  0.1355 -1.8444
  188SAPI   C2321621   5.018   2.747   7.236  0.1383  0.6766 -0.2604
  188SAPI   H3R21622   5.016   2.847   7.189  0.4054 -0.2726 -2.3344
  188SAPI   H3S21623   5.090   2.734   7.320  1.0725  0.9930 -1.0061
  188SAPI   C2421624   4.877   2.721   7.303  0.1382 -0.2538 -0.6370
  188SAPI   H4R21625   4.794   2.746   7.234  0.4264 -0.5737 -1.0951
  188SAPI   H4S21626   4.869   2.797   7.384  2.0024  0.0304 -0.7116
  188SAPI   C2521627   4.858   2.584   7.362 -0.1746 -0.3987 -0.2393
  188SAPI   H5R21628   4.828   2.503   7.295 -2.1571  0.5643 -0.5651
  188SAPI   C2621629   4.869   2.554   7.492 -0.2653  0.3121  0.1839
  188SAPI   H6R21630   4.875   2.448   7.522 -1.7441  0.7975  2.3305
  188SAPI   C2721631   4.897   2.645   7.613 -0.5510 -0.6419  0.1341
  188SAPI   H7R21632   4.816   2.613   7.681 -1.3652  1.3625  0.1449
  188SAPI   H7S21633   4.875   2.746   7.571  0.0046  0.0518  1.4795
  188SAPI   C2821634   5.042   2.629   7.651  0.0262 -0.2790  0.2474
  188SAPI   H8R21635   5.107   2.611   7.563 -1.4187 -0.6852 -0.7593
  188SAPI   C2921636   5.097   2.623   7.778 -0.0092 -0.7212  0.5567
  188SAPI   H9R21637   5.206   2.619   7.791  0.3930 -1.6429 -2.5061
  188SAPI  C21021638   5.021   2.640   7.900 -0.1087 -0.3944  0.3740
  188SAPI  H10R21639   4.912   2.622   7.895  0.0413 -1.6078  1.1287
  188SAPI  H10S21640   5.045   2.742   7.937  1.6081 -0.4054 -0.6518
  188SAPI  C21121641   5.066   2.549   8.013 -0.2549 -0.5757 -0.6456
  188SAPI  H11R21642   5.170   2.516   8.001 -0.0963 -1.1048  2.0041
  188SAPI  C21221643   4.996   2.519   8.115  0.5828  0.1834 -0.6624
  188SAPI  H12R21644   5.051   2.456   8.186 -0.8893  0.1602  0.4733
  188SAPI  C21321645   4.852   2.550   8.138 -0.6940 -0.3630  0.0763
  188SAPI  H13R21646   4.802   2.528   8.041 -1.0011  2.4517 -0.4543
  188SAPI  H13S21647   4.828   2.656   8.165  0.3819  0.0560 -0.5617
  188SAPI  C21421648   4.789   2.459   8.247 -0.1143  0.3782 -0.3139
  188SAPI  H14R21649   4.779   2.354   8.215 -1.0199  0.9386 -1.9177
  188SAPI  C21521650   4.760   2.498   8.372  0.0532 -0.4042  1.1155
  188SAPI  H15R21651   4.719   2.422   8.440  0.2781 -1.0673  0.5087
  188SAPI  C21621652   4.784   2.637   8.430  0.5008 -0.1432  0.0959
  188SAPI  H16R21653   4.858   2.698   8.374  1.7746 -0.0565  1.8578
  188SAPI  H16S21654   4.811   2.636   8.538 -0.5281 -0.6442  0.3540
  188SAPI  C21721655   4.647   2.710   8.406  0.5476 -0.0593 -0.4001
  188SAPI  H17R21656   4.635   2.727   8.297 -0.8050  0.3154 -0.2090
  188SAPI  H17S21657   4.652   2.805   8.463  1.9603 -1.5855  2.1036
  188SAPI  C21821658   4.526   2.640   8.462 -0.7690  0.5406  0.0754
  188SAPI  H18R21659   4.556   2.593   8.558 -1.0884  0.4710  0.1383
  188SAPI  H18S21660   4.493   2.553   8.402  0.3558 -1.1347  1.8160
  188SAPI  C21921661   4.409   2.737   8.484  0.0277 -0.4540 -0.4733
  188SAPI  H19R21662   4.388   2.801   8.395 -0.0406 -0.2395 -0.3051
  188SAPI  H19S21663   4.440   2.810   8.561  0.5050 -1.8329  0.6527
  188SAPI  C22021664   4.279   2.663   8.512  0.2559 -0.4842  0.2195
  188SAPI  H20R21665   4.287   2.607   8.607  1.6372 -0.1816  0.2943
  188SAPI  H20S21666   4.248   2.595   8.430 -1.7870 -1.1196  1.4878
  188SAPI  H20T21667   4.192   2.734   8.513  1.1536  0.6372  0.0985
  188SAPI   C3321668   4.770   2.143   7.216  0.4481  0.2042  0.1927
  188SAPI   H3X21669   4.757   2.252   7.198  0.4909  0.4530  1.6152
  188SAPI   H3Y21670   4.877   2.113   7.218  0.1449 -0.9957 -1.0239
  188SAPI   C3421671   4.693   2.110   7.350  0.0810  0.0590 -0.1809
  188SAPI   H4X21672   4.681   2.000   7.357 -0.7485 -0.0070 -2.3431
  188SAPI   H4Y21673   4.590   2.147   7.337  0.6353  2.6201  2.2077
  188SAPI   C3521674   4.760   2.161   7.479 -0.1522 -0.5014 -0.2229
  188SAPI   H5X21675   4.784   2.269   7.466 -0.0960 -0.5038 -0.1384
  188SAPI   H5Y21676   4.856   2.104   7.486  0.5252  0.9164  2.5617
  188SAPI   C3621677   4.694   2.136   7.608 -0.1855  0.3544  0.5047
  188SAPI   H6X21678   4.686   2.025   7.618  1.2839  0.1674 -0.2053
  188SAPI   H6Y21679   4.594   2.184   7.609 -0.0541  0.7171 -2.1020
  188SAPI   C3721680   4.774   2.181   7.727 -0.3707 -0.3110  0.0437
  188SAPI   H7X21681   4.765   2.291   7.738 -0.6947 -0.2746 -0.5515
  188SAPI   H7Y21682   4.880   2.157   7.703 -0.1189  1.0480 -0.2907
  188SAPI   C3821683   4.726   2.119   7.863  0.7832 -0.5823 -0.5990
  188SAPI   H8X21684   4.733   2.009   7.869  0.4807 -0.5694  0.1426
  188SAPI   H8Y21685   4.618   2.141   7.881  0.4047 -0.2634 -3.0612
  188SAPI   C3921686   4.793   2.180   7.985  0.0920 -0.8824 -0.3527
  188SAPI   H9X21687   4.775   2.289   7.990 -2.1319 -1.2494  0.2327
  188SAPI   H9Y21688   4.902   2.182   7.965  0.2929 -0.1393  0.8447
  188SAPI  C31021689   4.761   2.098   8.119  0.2787 -0.8928 -0.0760
  188SAPI  H10X21690   4.813   2.153   8.200 -0.8618  0.7767 -0.4490
  188SAPI  H10Y21691   4.801   1.995   8.110  0.1826 -1.0410  1.1340
  188SAPI  C31121692   4.611   2.090   8.155 -0.1095 -0.1967  0.0576
  188SAPI  H11X21693   4.548   2.055   8.071 -0.3729 -2.2627  1.0624
  188SAPI  H11Y21694   4.573   2.192   8.174 -0.0269 -0.3401  1.0206
  188SAPI  C31221695   4.582   1.994   8.272 -0.1905  0.1164 -0.7918
  188SAPI  H12X21696   4.630   1.898   8.245  1.3184  1.2641 -2.3129
  188SAPI  H12Y21697   4.471   1.982   8.269  0.0069 -1.6956 -2.5255
  188SAPI  C31321698   4.630   2.045   8.404  0.0372  0.6664 -0.4157
  188SAPI  H13X21699   4.559   2.120   8.444 -2.2661 -0.4769 -2.2593
  188SAPI  H13Y21700   4.730   2.091   8.389  1.1264 -2.0124 -1.8833
  188SAPI  C31421701   4.645   1.931   8.510 -0.2084  0.0404  1.0507
  188SAPI  H14X21702   4.699   1.844   8.466 -0.5273 -0.4619  1.6471
  188SAPI  H14Y21703   4.545   1.887   8.530 -0.4493  0.4841  0.8224
  188SAPI  C31521704   4.705   1.975   8.643  0.4554 -0.0837  0.2161
  188SAPI  H15X21705   4.693   1.901   8.725 -1.3500  0.8787  0.8364
  188SAPI  H15Y21706   4.652   2.064   8.683 -0.0033 -0.1018 -0.3595
  188SAPI  C31621707   4.850   2.018   8.634  0.0269 -0.2450 -0.1913
  188SAPI  H16X21708   4.862   2.088   8.720  0.3939 -1.0959  0.4614
  188SAPI  H16Y21709   4.871   2.073   8.540  0.8486  0.6800  0.5198
  188SAPI  C31721710   4.949   1.897   8.642 -0.1842 -0.0708  0.4804
  188SAPI  H17X21711   4.948   1.845   8.544  1.5497  0.2126  0.2920
  188SAPI  H17Y21712   4.917   1.828   8.723 -2.2201  1.3952  0.9597
  188SAPI  C31821713   5.094   1.940   8.659 -0.1641 -0.1321 -0.4156
  188SAPI  H18X21714   5.112   1.944   8.768 -1.4709  1.2682 -0.2323
  188SAPI  H18Y21715   5.099   2.042   8.614  4.4298 -0.4497 -0.8742
  188SAPI  H18Z21716   5.172   1.882   8.606  0.0106  0.1335 -0.4516
  189POPC     N21717   4.514   3.799  11.057 -0.7082 -0.4556  0.0026
  189POPC   C1221718   4.599   3.926  11.053  0.1336  0.2389  0.2177
  189POPC  H12A21719   4.703   3.900  11.043 -0.8665 -3.6719 -0.6639
  189POPC  H12B21720   4.591   3.981  11.146 -0.5780 -1.3124  1.0863
  189POPC   C1321721   4.535   3.728  10.926  0.5929  0.5261 -0.2417
  189POPC  H13A21722   4.501   3.625  10.926  2.1077  0.0189  0.3511
  189POPC  H13B21723   4.485   3.789  10.853  0.9836  1.7745  0.5225
  189POPC  H13C21724   4.641   3.718  10.910  0.4860 -2.5253  0.5903
  189POPC   C1421725   4.570   3.707  11.155  0.0443 -0.6987  0.0816
  189POPC  H14A21726   4.565   3.769  11.243  1.1814  0.1595 -0.4479
  189POPC  H14B21727   4.521   3.614  11.179  1.8022 -1.3679  1.2132
  189POPC  H14C21728   4.675   3.689  11.133 -0.0187 -1.1632  0.1530
  189POPC   C1521729   4.372   3.832  11.079 -0.4562 -0.1981 -0.8957
  189POPC  H15A21730   4.373   3.917  11.145 -0.7967  1.1829 -2.6397
  189POPC  H15B21731   4.309   3.746  11.100  0.5963 -1.2246 -1.9107
  189POPC  H15C21732   4.327   3.886  10.997 -2.5971  2.2155  1.7580
  189POPC   C1121733   4.581   4.022  10.927 -0.5839  0.1971  0.7783
  189POPC  H11A21734   4.475   4.056  10.921 -0.3003  1.2269  1.4251
  189POPC  H11B21735   4.613   3.965  10.838 -0.8195 -0.7110  1.2615
  189POPC     P21736   4.820   4.142  10.905  0.6066 -0.1388 -0.4893
  189POPC   O1321737   4.898   4.021  10.956  0.0284  0.4758  0.3753
  189POPC   O1421738   4.879   4.275  10.929  0.4287 -0.5918  0.5483
  189POPC   O1221739   4.666   4.138  10.954 -0.2414  0.3765 -0.9698
  189POPC   O1121740   4.806   4.130  10.754 -0.2467 -0.1487  0.0497
  189POPC    C121741   4.750   4.225  10.668 -0.1461 -0.4323 -0.3725
  189POPC    HA21742   4.800   4.324  10.681 -0.6698 -0.4013  1.4021
  189POPC    HB21743   4.642   4.231  10.691  0.0671 -1.1233  0.8269
  189POPC    C221744   4.782   4.180  10.521  0.0233  0.4305 -0.2161
  189POPC    HS21745   4.761   4.258  10.445  0.7847  1.4041  0.5438
  189POPC   O2121746   4.703   4.065  10.490  0.1427  0.0879 -0.3540
  189POPC   C2121747   4.573   4.083  10.488  0.4568 -0.3178  0.0295
  189POPC   O2221748   4.517   4.191  10.470  0.1276  0.0221  0.7027
  189POPC   C2221749   4.492   3.952  10.514  0.7185 -0.0330 -0.2834
  189POPC   H2R21750   4.387   3.986  10.501  1.0517  1.8602  1.5892
  189POPC   H2S21751   4.520   3.934  10.620 -0.6737 -0.6160 -0.0037
  189POPC    C321752   4.931   4.140  10.501  0.2598  1.0354 -0.5220
  189POPC    HX21753   4.954   4.062  10.576 -0.0825  0.6726 -0.7916
  189POPC    HY21754   4.993   4.230  10.519 -0.1323  1.1238  0.4072
  189POPC   O3121755   4.952   4.099  10.366  0.3209  0.0780 -0.2583
  189POPC   C3121756   4.970   3.965  10.345 -0.1054 -0.5251  0.1302
  189POPC   O3221757   4.965   3.885  10.436 -0.7770 -0.4013 -0.2765
  189POPC   C3221758   5.001   3.929  10.202  0.1585 -0.0247  0.8308
  189POPC   H2X21759   5.066   3.839  10.204  0.3755  0.1149  0.1235
  189POPC   H2Y21760   5.065   4.006  10.155 -0.0699 -0.9469 -1.0719
  189POPC   C2321761   4.538   3.830  10.419  0.6153  0.1893 -0.6414
  189POPC   H3R21762   4.526   3.730  10.467  0.5088  0.0858 -0.8851
  189POPC   H3S21763   4.648   3.836  10.404  1.0506  1.3391  2.5738
  189POPC   C2421764   4.468   3.830  10.283 -0.5061  0.0885 -0.8620
  189POPC   H4R21765   4.505   3.925  10.240  1.6573 -0.4734 -0.3307
  189POPC   H4S21766   4.358   3.839  10.293 -0.6768  0.4572 -2.9033
  189POPC   C2521767   4.513   3.714  10.196  0.0689  0.1452 -0.9867
  189POPC   H5R21768   4.494   3.621  10.254  0.5322 -0.3535 -1.6263
  189POPC   H5S21769   4.623   3.720  10.177 -0.2703  2.0730 -2.4836
  189POPC   C2621770   4.433   3.716  10.070 -0.1110  0.6809  0.2170
  189POPC   H6R21771   4.435   3.817  10.023 -2.2211  0.4412 -0.4670
  189POPC   H6S21772   4.329   3.682  10.091 -0.4794  1.1931 -0.7279
  189POPC   C2721773   4.490   3.617   9.962  0.2217  0.0529 -0.0144
  189POPC   H7R21774   4.467   3.516  10.002 -1.7892  0.2543 -0.6214
  189POPC   H7S21775   4.601   3.614   9.950  0.5509 -1.4229  3.0204
  189POPC   C2821776   4.420   3.626   9.830 -0.4072 -0.2286 -0.7258
  189POPC   H8R21777   4.309   3.620   9.843 -0.2075 -2.5137  0.2206
  189POPC   H8S21778   4.448   3.540   9.765 -0.0822 -0.8860  0.2715
  189POPC   C2921779   4.445   3.760   9.753  0.7028 -0.1273 -0.5166
  189POPC   H9121780   4.393   3.851   9.784 -4.0416 -3.3813  1.6479
  189POPC  C21021781   4.525   3.760   9.638  0.5176  0.6201 -0.5095
  189POPC  H10121782   4.544   3.859   9.593 -1.1037  0.0307 -2.5612
  189POPC  C21121783   4.587   3.635   9.577  0.2135 -0.2299  0.3362
  189POPC  H11R21784   4.605   3.555   9.652  1.7156  0.1791  0.4366
  189POPC  H11S21785   4.694   3.653   9.550  0.2862  1.7071  1.8706
  189POPC  C21221786   4.519   3.583   9.447  0.0313  0.6665  0.1178
  189POPC  H12R21787   4.411   3.562   9.461  0.6235 -0.8410  2.8565
  189POPC  H12S21788   4.570   3.487   9.423 -1.4877 -0.4055  1.1334
  189POPC  C21321789   4.535   3.682   9.330 -0.0659  0.4473  0.4549
  189POPC  H13R21790   4.645   3.692   9.315 -0.4378  1.0387 -2.1498
  189POPC  H13S21791   4.505   3.783   9.366 -0.0019  0.7845 -0.4153
  189POPC  C21421792   4.455   3.646   9.204 -0.6272 -0.2000  0.4087
  189POPC  H14R21793   4.349   3.636   9.236 -0.9911  1.6376 -0.1726
  189POPC  H14S21794   4.496   3.548   9.170  3.3486  1.1736  0.9612
  189POPC  C21521795   4.457   3.756   9.099  0.1469  0.3701  0.3686
  189POPC  H15R21796   4.564   3.781   9.082  0.9875 -1.1998  3.0874
  189POPC  H15S21797   4.411   3.846   9.144 -1.1352 -0.2061  0.2251
  189POPC  C21621798   4.395   3.705   8.965 -0.0564 -0.2208 -0.6006
  189POPC  H16R21799   4.291   3.671   8.985 -0.2602  1.2109  0.8915
  189POPC  H16S21800   4.455   3.619   8.928  0.2872 -0.0942 -0.3429
  189POPC  C21721801   4.406   3.813   8.861 -0.4471 -0.5787 -0.4413
  189POPC  H17R21802   4.511   3.842   8.839 -0.4065  0.2109  0.7783
  189POPC  H17S21803   4.355   3.899   8.910  0.4144 -1.4983  2.1338
  189POPC  C21821804   4.346   3.778   8.720  0.1173 -0.4928  0.4096
  189POPC  H18R21805   4.402   3.842   8.648 -1.2256  0.6223  0.3405
  189POPC  H18S21806   4.236   3.777   8.708  0.3156 -1.4613 -1.4236
  189POPC  H18T21807   4.381   3.678   8.686 -3.0981 -2.2664  2.0524
  189POPC   C3321808   4.877   3.916  10.111  0.5566 -0.2453 -0.1836
  189POPC   H3X21809   4.805   3.843  10.153  1.0288 -1.4928 -1.5003
  189POPC   H3Y21810   4.909   3.869  10.016  0.6036 -0.7682  0.0882
  189POPC   C3421811   4.789   4.041  10.074 -0.3734 -0.6140 -0.8126
  189POPC   H4X21812   4.851   4.134  10.072 -0.5370 -0.5151 -1.7695
  189POPC   H4Y21813   4.715   4.063  10.153  0.1759  0.3870 -0.5678
  189POPC   C3521814   4.730   4.033   9.934 -0.4845  0.5956 -0.3386
  189POPC   H5X21815   4.660   3.946   9.937  1.2925 -0.8620 -0.7829
  189POPC   H5Y21816   4.813   4.040   9.861  0.5650  0.2338  0.8057
  189POPC   C3621817   4.645   4.155   9.910 -0.2004 -0.2395 -0.2634
  189POPC   H6X21818   4.707   4.247   9.903 -0.5953 -0.0166 -0.8443
  189POPC   H6Y21819   4.567   4.174   9.986 -0.3666  1.6740 -0.9007
  189POPC   C3721820   4.572   4.126   9.772  0.0209  0.2321 -0.2695
  189POPC   H7X21821   4.473   4.175   9.785 -0.1854 -0.5048  1.0470
  189POPC   H7Y21822   4.549   4.019   9.753 -4.1307  0.9849  0.1625
  189POPC   C3821823   4.648   4.195   9.656 -0.8424  0.5381  1.0464
  189POPC   H8X21824   4.754   4.162   9.655 -0.0299  2.9677 -2.8922
  189POPC   H8Y21825   4.640   4.303   9.681  0.5895  0.5181  1.6477
  189POPC   C3921826   4.592   4.151   9.520 -0.0693 -0.2436  0.0493
  189POPC   H9X21827   4.481   4.156   9.524 -0.0931  1.3103 -2.2350
  189POPC   H9Y21828   4.612   4.044   9.498 -2.8295 -1.2974  2.3315
  189POPC  C31021829   4.640   4.231   9.397 -0.5588  0.1775 -0.5307
  189POPC  H10X21830   4.743   4.196   9.374 -0.3255  1.6739 -1.8939
  189POPC  H10Y21831   4.642   4.340   9.418 -0.5569 -0.0025  0.4211
  189POPC  C31121832   4.562   4.202   9.262 -0.1107  0.2683 -0.1595
  189POPC  H11X21833   4.460   4.244   9.279 -1.1552 -2.4354  0.4778
  189POPC  H11Y21834   4.558   4.093   9.241  1.4939  0.0430  0.6112
  189POPC  C31221835   4.616   4.278   9.143  0.1504 -0.3820 -0.5951
  189POPC  H12X21836   4.726   4.291   9.146 -0.0690  2.0866 -1.6426
  189POPC  H12Y21837   4.580   4.384   9.139  1.8085  0.3587  2.1605
  189POPC  C31321838   4.581   4.208   9.007  0.4861 -0.1783 -0.2668
  189POPC  H13X21839   4.470   4.208   9.002  0.4293  2.1920  0.5970
  189POPC  H13Y21840   4.621   4.104   9.006  1.6743  0.2447 -2.9663
  189POPC  C31421841   4.627   4.286   8.882  0.2204 -0.0712 -0.4071
  189POPC  H14X21842   4.734   4.317   8.890  0.0914  0.7061 -1.5687
  189POPC  H14Y21843   4.565   4.378   8.879  2.9876  1.9531  1.8350
  189POPC  C31521844   4.604   4.216   8.746 -0.0606 -0.2404 -0.5447
  189POPC  H15X21845   4.512   4.153   8.751 -0.1549 -0.0818 -0.2288
  189POPC  H15Y21846   4.679   4.141   8.715  0.3544  0.2289 -0.6766
  189POPC  C31621847   4.573   4.316   8.631  0.0384 -0.0492 -0.0027
  189POPC  H16X21848   4.663   4.374   8.602 -0.1565  0.0494 -0.4122
  189POPC  H16Y21849   4.497   4.389   8.664  0.8278  0.5988  0.3950
  189POPC  H16Z21850   4.531   4.256   8.547  0.3551 -0.2422 -0.0261
  190POPC     N21851   6.432   0.763  11.377 -0.9170  0.0951 -0.2868
  190POPC   C1221852   6.371   0.775  11.242  0.3176  0.1333 -0.7550
  190POPC  H12A21853   6.342   0.879  11.239  1.4093  0.4550 -0.4005
  190POPC  H12B21854   6.277   0.724  11.228 -0.5792  1.2539  0.9737
  190POPC   C1321855   6.454   0.621  11.410  0.0675 -0.0529  0.1431
  190POPC  H13A21856   6.534   0.583  11.349 -0.6625 -0.6325 -0.4713
  190POPC  H13B21857   6.489   0.615  11.512 -1.5443 -0.8613  0.6758
  190POPC  H13C21858   6.364   0.561  11.407  0.5271 -0.7225 -0.4024
  190POPC   C1421859   6.560   0.841  11.383  0.2796 -0.3241  0.5330
  190POPC  H14A21860   6.596   0.839  11.485 -0.2587  2.1157  0.7963
  190POPC  H14B21861   6.639   0.799  11.322  1.4382  4.3271 -1.3337
  190POPC  H14C21862   6.552   0.945  11.354 -1.2395 -1.0132 -1.6229
  190POPC   C1521863   6.341   0.811  11.479  0.2893 -0.0169  0.3583
  190POPC  H15A21864   6.391   0.810  11.575 -0.3325  1.4716  0.7184
  190POPC  H15B21865   6.254   0.748  11.480 -0.2970  0.7948  1.2863
  190POPC  H15C21866   6.311   0.913  11.460 -0.5381 -0.1180  1.0969
  190POPC   C1121867   6.459   0.746  11.118  0.1875  0.1776 -0.0272
  190POPC  H11A21868   6.519   0.839  11.109 -1.7489  1.2812 -2.0255
  190POPC  H11B21869   6.398   0.752  11.026 -0.8699 -1.8299  0.5201
  190POPC     P21870   6.685   0.613  11.116 -0.1499  0.1348  0.3210
  190POPC   O1321871   6.739   0.483  11.166 -0.2202 -0.2503  0.0980
  190POPC   O1421872   6.752   0.737  11.166 -0.4562 -0.1180  0.1647
  190POPC   O1221873   6.524   0.618  11.123 -0.2888 -0.2895 -0.6754
  190POPC   O1121874   6.715   0.620  10.966  0.2215 -0.4507 -0.2027
  190POPC    C121875   6.627   0.539  10.878 -0.3560 -0.3567 -0.0648
  190POPC    HA21876   6.536   0.600  10.858  0.7581  1.0665 -0.7985
  190POPC    HB21877   6.601   0.437  10.914 -0.0544  0.5094  2.7008
  190POPC    C221878   6.676   0.507  10.738 -0.3080 -0.1103  0.1012
  190POPC    HS21879   6.763   0.439  10.754  0.0975  0.4656  0.3854
  190POPC   O2121880   6.718   0.633  10.679  0.1229 -0.2064 -0.1856
  190POPC   C2121881   6.805   0.623  10.580 -0.0692 -0.4045  0.0483
  190POPC   O2221882   6.875   0.524  10.555  0.3523  0.0211  0.0700
  190POPC   C2221883   6.802   0.753  10.491  0.5856 -0.0633 -0.9541
  190POPC   H2R21884   6.887   0.815  10.526  1.2790 -1.3173 -0.3762
  190POPC   H2S21885   6.708   0.809  10.509  0.3018 -0.6538 -0.5945
  190POPC    C321886   6.567   0.437  10.647 -0.3314  0.5431  0.2250
  190POPC    HX21887   6.479   0.505  10.649 -0.6253  0.1705 -0.0442
  190POPC    HY21888   6.530   0.345  10.697 -0.4472  0.5650  0.1771
  190POPC   O3121889   6.603   0.414  10.504  0.2293  0.3473  0.2844
  190POPC   C3121890   6.678   0.309  10.492 -0.1056  0.1197  0.4008
  190POPC   O3221891   6.702   0.229  10.582 -0.1815 -0.3401 -0.1440
  190POPC   C3221892   6.729   0.294  10.344  0.7780  0.7187  0.3015
  190POPC   H2X21893   6.817   0.225  10.347  0.8886  0.8245 -0.3661
  190POPC   H2Y21894   6.765   0.392  10.306 -0.6950  0.2107 -2.5302
  190POPC   C2321895   6.823   0.734  10.345  0.1907 -0.5624  0.2325
  190POPC   H3R21896   6.900   0.658  10.324  2.4777  1.9780 -0.9023
  190POPC   H3S21897   6.873   0.827  10.308  1.4360 -0.4868  2.0493
  190POPC   C2421898   6.692   0.726  10.260  0.0612 -0.4582  0.9211
  190POPC   H4R21899   6.628   0.815  10.282  0.5569  0.1855 -0.2352
  190POPC   H4S21900   6.637   0.637  10.296  1.6089 -2.0768 -0.6397
  190POPC   C2521901   6.719   0.715  10.108 -0.1074  0.0559 -0.1283
  190POPC   H5R21902   6.791   0.642  10.066 -1.2069 -1.4836  0.5845
  190POPC   H5S21903   6.745   0.810  10.059 -2.4574  0.7509 -0.0945
  190POPC   C2621904   6.591   0.672  10.026  0.3976 -0.5687 -0.9948
  190POPC   H6R21905   6.502   0.730  10.058  0.1421  0.1843 -3.0387
  190POPC   H6S21906   6.584   0.561  10.021  0.1404 -0.4754 -2.7334
  190POPC   C2721907   6.609   0.715   9.877  0.5105  0.0427  0.1679
  190POPC   H7R21908   6.708   0.682   9.839  1.8366  0.9757  2.6766
  190POPC   H7S21909   6.604   0.826   9.886 -0.4138  0.0048  0.2308
  190POPC   C2821910   6.509   0.667   9.777  1.3110 -0.1266  0.0089
  190POPC   H8R21911   6.534   0.724   9.685 -2.2518  0.2142 -0.8395
  190POPC   H8S21912   6.417   0.719   9.812  2.2413  1.8591 -0.4276
  190POPC   C2921913   6.500   0.515   9.745 -0.7965  0.5975  0.0327
  190POPC   H9121914   6.500   0.440   9.825  1.6877  0.6061  0.0684
  190POPC  C21021915   6.499   0.457   9.622 -0.6067 -0.1493 -0.1194
  190POPC  H10121916   6.503   0.349   9.604 -0.0246 -0.0318 -0.7257
  190POPC  C21121917   6.498   0.532   9.488  0.6858  0.4610  0.1994
  190POPC  H11R21918   6.553   0.470   9.415 -0.3691  1.0466 -1.1129
  190POPC  H11S21919   6.530   0.638   9.492  0.3702  0.5830 -0.5608
  190POPC  C21221920   6.362   0.533   9.419 -0.3849 -0.1101  0.7524
  190POPC  H12R21921   6.297   0.582   9.495  0.1523 -1.0651  1.8502
  190POPC  H12S21922   6.319   0.433   9.400  1.1539 -0.5778 -0.3690
  190POPC  C21321923   6.363   0.617   9.289  0.8662 -0.5948  0.1466
  190POPC  H13R21924   6.416   0.712   9.311  0.3847 -0.1398 -0.6386
  190POPC  H13S21925   6.258   0.645   9.263 -0.1777 -1.6918  3.0491
  190POPC  C21421926   6.422   0.536   9.172  0.1099  0.1352  0.4777
  190POPC  H14R21927   6.353   0.449   9.166  1.0661 -0.4948 -1.7390
  190POPC  H14S21928   6.528   0.505   9.183 -0.1452 -1.0226 -0.2557
  190POPC  C21521929   6.395   0.611   9.043  0.1870 -1.2867  0.5648
  190POPC  H15R21930   6.446   0.709   9.048 -0.5506 -0.9910  2.9651
  190POPC  H15S21931   6.289   0.639   9.030  1.0675  1.0822 -1.9795
  190POPC  C21621932   6.439   0.544   8.911  0.2917  0.3626  0.1263
  190POPC  H16R21933   6.550   0.545   8.918  0.3302 -0.5973 -0.3467
  190POPC  H16S21934   6.422   0.610   8.823  0.4469  2.7718  1.8516
  190POPC  C21721935   6.364   0.413   8.889  0.2075  0.4402  0.0565
  190POPC  H17R21936   6.263   0.442   8.854  0.6816  2.2541  0.1331
  190POPC  H17S21937   6.345   0.355   8.982  2.7324 -0.3331  0.1147
  190POPC  C21821938   6.419   0.321   8.786 -0.0639 -0.2415 -0.5689
  190POPC  H18R21939   6.495   0.253   8.831 -0.8393  1.5405  3.6554
  190POPC  H18S21940   6.452   0.377   8.696  0.7467  1.2375  0.6349
  190POPC  H18T21941   6.348   0.241   8.757 -0.1124 -0.4047 -0.0059
  190POPC   C3321942   6.625   0.236  10.247 -0.4942 -0.2979 -0.0867
  190POPC   H3X21943   6.542   0.307  10.228 -0.0516  0.4639  0.8137
  190POPC   H3Y21944   6.587   0.140  10.288 -0.7177 -0.6174 -1.0154
  190POPC   C3421945   6.689   0.212  10.115 -0.6033  0.2659  0.4618
  190POPC   H4X21946   6.786   0.165  10.141 -1.7356 -1.7923  1.0656
  190POPC   H4Y21947   6.725   0.303  10.062  0.5984 -0.1893  0.4662
  190POPC   C3521948   6.589   0.143  10.024  0.0990 -0.1915  0.4752
  190POPC   H5X21949   6.497   0.203  10.007  0.8126  0.9399  0.5043
  190POPC   H5Y21950   6.561   0.046  10.070 -0.7820 -0.1108  0.1020
  190POPC   C3621951   6.648   0.122   9.882 -0.2276  0.0846 -0.4730
  190POPC   H6X21952   6.724   0.043   9.897 -0.5392  0.0083  0.7473
  190POPC   H6Y21953   6.695   0.217   9.850 -0.7917  2.2073  4.6097
  190POPC   C3721954   6.530   0.087   9.792 -0.7296  0.1151 -0.6081
  190POPC   H7X21955   6.454   0.168   9.793  0.9530  1.7258  0.1955
  190POPC   H7Y21956   6.483  -0.009   9.821  0.0313  0.2193  0.9841
  190POPC   C3821957   6.560   0.080   9.635  0.2443  0.1378  0.2165
  190POPC   H8X21958   6.621  -0.009   9.611 -1.8015 -1.1717 -0.2368
  190POPC   H8Y21959   6.623   0.168   9.612 -1.3998  1.4252  0.4970
  190POPC   C3921960   6.440   0.070   9.541  0.0609  0.1579 -0.1960
  190POPC   H9X21961   6.386   0.167   9.535  0.9002  0.6327 -0.0806
  190POPC   H9Y21962   6.368   0.000   9.591 -1.3409 -0.0747 -2.4746
  190POPC  C31021963   6.462   0.035   9.395  0.2160 -0.6519  0.0628
  190POPC  H10X21964   6.366   0.022   9.341 -0.4102  0.9847  0.7273
  190POPC  H10Y21965   6.511  -0.064   9.401 -2.5285 -2.1353 -1.1232
  190POPC  C31121966   6.544   0.138   9.320 -0.2606 -0.1527 -0.1305
  190POPC  H11X21967   6.630   0.173   9.380  0.2229 -0.3580 -0.6987
  190POPC  H11Y21968   6.487   0.226   9.282 -0.8699  0.9509  3.1332
  190POPC  C31221969   6.596   0.076   9.187 -0.0051  0.1648  0.4169
  190POPC  H12X21970   6.506   0.048   9.129 -0.4252 -0.6391  1.4310
  190POPC  H12Y21971   6.657  -0.008   9.226  0.5442  1.6316  2.8518
  190POPC  C31321972   6.684   0.164   9.100  0.3011  0.0781  0.3693
  190POPC  H13X21973   6.762   0.220   9.156 -0.5517  0.7578  0.8928
  190POPC  H13Y21974   6.618   0.244   9.061  0.3692  0.4116  0.9234
  190POPC  C31421975   6.746   0.085   8.984  0.1165  1.3873 -0.2687
  190POPC  H14X21976   6.664   0.059   8.914  1.8390  0.6602 -2.0811
  190POPC  H14Y21977   6.811  -0.002   9.010 -0.1274  1.3073  0.0710
  190POPC  C31521978   6.834   0.183   8.907  0.0289  0.3377  0.9351
  190POPC  H15X21979   6.924   0.222   8.960  0.7572 -0.0398 -0.0004
  190POPC  H15Y21980   6.774   0.275   8.893  0.4546  0.3317 -1.1543
  190POPC  C31621981   6.878   0.128   8.764  0.2406 -0.3345 -0.0203
  190POPC  H16X21982   6.934   0.033   8.779 -1.8357 -1.7330 -0.8138
  190POPC  H16Y21983   6.941   0.202   8.711 -0.2108 -1.4863 -2.2297
  190POPC  H16Z21984   6.803   0.096   8.688  0.6456  1.9612 -1.4378
  191POPC     N21985   1.134   1.256   6.295 -0.0004 -0.4024  0.9498
  191POPC   C1221986   1.071   1.274   6.435  0.4289  0.3765  0.7431
  191POPC  H12A21987   1.106   1.367   6.478  0.1419  0.8049  0.0527
  191POPC  H12B21988   1.106   1.191   6.495 -1.0284 -2.0237 -1.5791
  191POPC   C1321989   1.112   1.376   6.222 -0.9477  0.0136 -0.2898
  191POPC  H13A21990   1.006   1.396   6.215 -0.4642  2.5431 -0.6266
  191POPC  H13B21991   1.159   1.450   6.284 -1.4793  0.9429 -0.9908
  191POPC  H13C21992   1.169   1.367   6.131 -0.4669 -3.8458  0.2806
  191POPC   C1421993   1.284   1.230   6.303 -0.3133  0.8815  0.1627
  191POPC  H14A21994   1.321   1.219   6.202 -0.1044 -0.9743  0.4131
  191POPC  H14B21995   1.338   1.301   6.364  0.1049 -0.6290  1.6014
  191POPC  H14C21996   1.295   1.133   6.350 -0.7529 -0.1418 -1.7910
  191POPC   C1521997   1.076   1.136   6.223 -0.2722 -1.1929 -0.0817
  191POPC  H15A21998   1.111   1.131   6.121  1.0997  0.9756  0.2551
  191POPC  H15B21999   0.968   1.144   6.224 -0.3148 -1.7724  2.5522
  191POPC  H15C22000   1.095   1.046   6.278 -0.8160 -0.9149  0.5738
  191POPC   C1122001   0.913   1.276   6.444 -0.0244 -0.1480 -0.1938
  191POPC  H11A22002   0.882   1.269   6.551  1.1745 -0.4177  0.1468
  191POPC  H11B22003   0.881   1.178   6.404 -1.1863 -0.2772  1.0178
  191POPC     P22004   0.772   1.502   6.441  0.0643  0.0684  0.0291
  191POPC   O1322005   0.647   1.510   6.361  0.0282  0.4963  0.7083
  191POPC   O1422006   0.856   1.624   6.454 -0.1641 -0.6084  0.6250
  191POPC   O1222007   0.853   1.386   6.375  0.7813 -0.4025  0.0611
  191POPC   O1122008   0.748   1.451   6.585 -0.2439  0.9874  0.4932
  191POPC    C122009   0.645   1.355   6.613  0.5107  0.2381 -0.1663
  191POPC    HA22010   0.666   1.304   6.709  1.2412  0.8771  0.0208
  191POPC    HB22011   0.645   1.276   6.535  1.2662  1.6869 -1.6577
  191POPC    C222012   0.491   1.406   6.620  0.2894 -0.2100 -0.4105
  191POPC    HS22013   0.472   1.459   6.524  0.5288  1.3087  0.3617
  191POPC   O2122014   0.478   1.505   6.720 -0.3735 -0.1404 -0.1436
  191POPC   C2122015   0.361   1.569   6.714  0.0968  0.0877 -0.3567
  191POPC   O2222016   0.275   1.555   6.630 -0.0084 -1.6460 -0.3944
  191POPC   C2222017   0.351   1.651   6.847 -0.2131  0.3581  0.8899
  191POPC   H2R22018   0.402   1.749   6.838 -2.9086  1.8127  0.7247
  191POPC   H2S22019   0.387   1.590   6.933 -0.4548 -2.1391 -0.7541
  191POPC    C322020   0.400   1.286   6.638 -0.2892 -0.3260  0.5104
  191POPC    HX22021   0.421   1.223   6.549 -0.0663 -0.4625  0.6573
  191POPC    HY22022   0.293   1.314   6.645 -0.2888 -0.1849 -0.0269
  191POPC   O3122023   0.439   1.201   6.742  0.1235 -0.3765 -0.3287
  191POPC   C3122024   0.383   1.226   6.860 -0.1530 -0.0742  0.3740
  191POPC   O3222025   0.302   1.314   6.879 -0.3403 -0.3114 -0.2135
  191POPC   C3222026   0.440   1.129   6.958  0.1858  0.0400 -0.3562
  191POPC   H2X22027   0.549   1.151   6.967  0.2089  0.3556 -1.2793
  191POPC   H2Y22028   0.433   1.027   6.915  2.9587 -0.7009  0.8483
  191POPC   C2322029   0.206   1.694   6.875 -0.0057  0.2230 -0.7807
  191POPC   H3R22030   0.143   1.603   6.882 -1.4125  1.3530  2.2654
  191POPC   H3S22031   0.175   1.747   6.783  0.8749  2.9144  0.4386
  191POPC   C2422032   0.184   1.778   6.999  0.2542  0.3553 -0.3779
  191POPC   H4R22033   0.079   1.815   7.003  0.2461  0.3724 -0.7088
  191POPC   H4S22034   0.242   1.870   6.979  1.9689 -0.8435 -1.0128
  191POPC   C2522035   0.247   1.727   7.126  0.3905 -0.1268  0.2293
  191POPC   H5R22036   0.356   1.727   7.105  0.2978  0.6112 -0.2768
  191POPC   H5S22037   0.215   1.624   7.154  0.9337  0.4260  2.9643
  191POPC   C2622038   0.209   1.819   7.249  0.5467  0.1624 -0.4961
  191POPC   H6R22039   0.101   1.845   7.245  0.4935 -0.2760 -2.5856
  191POPC   H6S22040   0.263   1.914   7.231  0.9298  0.1990  0.7746
  191POPC   C2722041   0.239   1.759   7.381 -0.2490  0.6308 -0.0073
  191POPC   H7R22042   0.348   1.741   7.370 -0.3195  0.7408 -0.8978
  191POPC   H7S22043   0.195   1.660   7.402  0.6706  0.4666  1.1963
  191POPC   C2822044   0.192   1.847   7.508  0.1602  0.1018 -0.3985
  191POPC   H8R22045   0.088   1.877   7.486 -0.9990 -0.8588  3.3717
  191POPC   H8S22046   0.263   1.931   7.525 -1.2603  0.9354  1.5728
  191POPC   C2922047   0.174   1.767   7.640  0.1982  0.7958 -0.3435
  191POPC   H9122048   0.227   1.672   7.654  0.0304  1.2041  3.7921
  191POPC  C21022049   0.124   1.828   7.750 -0.1074 -0.9387 -0.1551
  191POPC  H10122050   0.105   1.768   7.841  6.1137 -1.0201  1.2804
  191POPC  C21122051   0.066   1.971   7.760 -0.4842  0.3330  0.0699
  191POPC  H11R22052   0.010   2.000   7.668  0.2716 -1.0680 -0.8570
  191POPC  H11S22053   0.158   2.033   7.763  0.6122 -1.3582  2.4298
  191POPC  C21222054  -0.003   1.984   7.896 -0.6927 -0.3126  0.5579
  191POPC  H12R22055  -0.087   1.912   7.900 -0.8681 -0.1651 -0.3019
  191POPC  H12S22056  -0.039   2.089   7.894 -0.5117 -0.2630 -0.6019
  191POPC  C21322057   0.099   1.961   8.013 -0.5669  0.8804  0.3901
  191POPC  H13R22058   0.177   2.040   8.005  0.4379 -0.0680  0.7482
  191POPC  H13S22059   0.158   1.867   8.007  0.0277  1.3551 -1.7745
  191POPC  C21422060   0.036   1.995   8.144  0.3880 -0.1495  0.2269
  191POPC  H14R22061  -0.013   2.094   8.137  1.1262  0.2748  1.0187
  191POPC  H14S22062   0.114   2.008   8.222 -0.0114  0.0934  0.5866
  191POPC  C21522063  -0.077   1.889   8.180  0.1844 -0.1517 -0.7678
  191POPC  H15R22064  -0.161   1.880   8.108 -2.3633 -0.5475  2.1668
  191POPC  H15S22065  -0.122   1.918   8.277  0.6468 -0.1991 -0.5401
  191POPC  C21622066  -0.023   1.748   8.196  1.7658 -0.1054  0.1896
  191POPC  H16R22067   0.065   1.743   8.263  0.5976  0.6442  1.7881
  191POPC  H16S22068   0.001   1.705   8.096 -1.5694  0.2059 -0.7960
  191POPC  C21722069  -0.122   1.643   8.253  0.2627 -1.0668  0.5572
  191POPC  H17R22070  -0.079   1.541   8.241 -2.0760 -1.7529 -2.5936
  191POPC  H17S22071  -0.217   1.638   8.196 -0.2242 -5.4383  1.5784
  191POPC  C21822072  -0.140   1.658   8.402  0.0635  0.3413 -0.8891
  191POPC  H18R22073  -0.240   1.613   8.421 -0.0474  0.1244 -1.9439
  191POPC  H18S22074  -0.138   1.765   8.429 -0.7218  0.2979 -0.6419
  191POPC  H18T22075  -0.062   1.598   8.453 -0.2958 -1.1810 -2.0966
  191POPC   C3322076   0.379   1.147   7.102 -0.2536  0.1033 -0.8395
  191POPC   H3X22077   0.276   1.105   7.100 -0.3039  0.2409 -1.0627
  191POPC   H3Y22078   0.377   1.246   7.151  1.7290  0.5505 -1.6284
  191POPC   C3422079   0.465   1.059   7.199 -0.0924 -0.2135  0.9417
  191POPC   H4X22080   0.570   1.095   7.200  0.1205 -0.7170 -1.4426
  191POPC   H4Y22081   0.459   0.958   7.155  1.8415 -0.0224  0.2133
  191POPC   C3522082   0.407   1.049   7.345  0.0420 -0.0309  0.5103
  191POPC   H5X22083   0.305   1.005   7.351  0.4569 -0.9299  1.1178
  191POPC   H5Y22084   0.423   1.147   7.395  0.4694 -0.0784  0.4673
  191POPC   C3622085   0.490   0.954   7.438  0.1892 -0.2367 -0.3437
  191POPC   H6X22086   0.600   0.962   7.422  0.1592  2.4154  0.4743
  191POPC   H6Y22087   0.449   0.856   7.408 -1.4126  0.5234 -0.7271
  191POPC   C3722088   0.467   0.974   7.589  0.2725 -0.7773 -0.9026
  191POPC   H7X22089   0.365   0.939   7.616  0.5863 -1.7451 -0.9393
  191POPC   H7Y22090   0.473   1.084   7.597 -0.3509 -0.8820  1.1224
  191POPC   C3822091   0.553   0.891   7.674  0.8020  0.3784 -1.1148
  191POPC   H8X22092   0.662   0.910   7.672  1.2406 -1.5720  1.1145
  191POPC   H8Y22093   0.533   0.785   7.645 -0.0120 -0.0782  0.9698
  191POPC   C3922094   0.517   0.922   7.816 -0.0665  1.0613 -0.4276
  191POPC   H9X22095   0.555   0.839   7.878  0.2602  0.8091 -0.9580
  191POPC   H9Y22096   0.407   0.925   7.830 -0.0105  0.1629  0.1631
  191POPC  C31022097   0.575   1.055   7.870 -0.9738  0.9159  0.3488
  191POPC  H10X22098   0.521   1.144   7.832 -2.7136 -0.2284  0.0874
  191POPC  H10Y22099   0.676   1.067   7.826 -1.3702  0.7785 -0.6162
  191POPC  C31122100   0.582   1.055   8.016 -0.2826  0.1258 -0.9572
  191POPC  H11X22101   0.661   0.983   8.049  0.1390 -0.1663 -2.5908
  191POPC  H11Y22102   0.490   1.025   8.071  1.2448 -0.5016  1.3750
  191POPC  C31222103   0.633   1.194   8.068 -0.1899  0.6385  0.0715
  191POPC  H12X22104   0.570   1.271   8.019 -2.6245 -0.4543  1.3780
  191POPC  H12Y22105   0.736   1.211   8.031 -0.8838  0.3061 -2.1029
  191POPC  C31322106   0.627   1.206   8.220  0.6234 -0.4632 -0.0508
  191POPC  H13X22107   0.527   1.171   8.255  1.2111 -1.5356  0.6001
  191POPC  H13Y22108   0.630   1.314   8.243  1.2846 -0.3569 -0.6179
  191POPC  C31422109   0.732   1.126   8.296 -0.4941 -0.2363  0.4242
  191POPC  H14X22110   0.829   1.175   8.274 -0.5033 -0.1724  0.5251
  191POPC  H14Y22111   0.735   1.022   8.257  0.8276 -0.2404  0.5113
  191POPC  C31522112   0.702   1.125   8.447  0.9503 -0.3618  0.1781
  191POPC  H15X22113   0.723   1.019   8.475  3.2628 -0.2987 -1.2233
  191POPC  H15Y22114   0.596   1.140   8.476  0.9470  2.0158 -0.9547
  191POPC  C31622115   0.781   1.240   8.509 -0.6353 -0.1192  0.4080
  191POPC  H16X22116   0.890   1.241   8.485 -0.1735  1.3920  2.5061
  191POPC  H16Y22117   0.775   1.251   8.619 -1.4982  2.8825  0.0793
  191POPC  H16Z22118   0.745   1.338   8.472 -1.1965 -0.6867 -0.5646
  192POPC     N22119   6.387   3.688   5.876  0.9651  0.2611  0.0557
  192POPC   C1222120   6.444   3.695   6.015 -0.0177 -0.5368 -0.7557
  192POPC  H12A22121   6.521   3.770   6.023 -0.2069 -0.4094 -0.1605
  192POPC  H12B22122   6.482   3.595   6.030  0.6597 -0.3033 -0.8724
  192POPC   C1322123   6.508   3.704   5.783 -0.7405 -0.1917  0.2688
  192POPC  H13A22124   6.575   3.623   5.809  0.7995  1.2130  0.7720
  192POPC  H13B22125   6.478   3.691   5.680  1.5766 -1.3717 -0.3070
  192POPC  H13C22126   6.552   3.802   5.793 -4.0599  1.2747  1.1433
  192POPC   C1422127   6.318   3.555   5.853  0.1834  0.5168  0.6202
  192POPC  H14A22128   6.270   3.560   5.757 -0.5573 -0.7535  0.9103
  192POPC  H14B22129   6.386   3.470   5.855 -0.8168 -0.2836  1.5421
  192POPC  H14C22130   6.240   3.543   5.927 -1.9789 -1.4578 -1.9063
  192POPC   C1522131   6.285   3.794   5.856 -0.1767 -0.0006 -0.5522
  192POPC  H15A22132   6.209   3.773   5.930  2.0234 -3.3830  0.9027
  192POPC  H15B22133   6.243   3.780   5.758  1.8091 -0.4036 -1.3563
  192POPC  H15C22134   6.334   3.890   5.865 -3.0385  1.8154 -3.3988
  192POPC   C1122135   6.351   3.712   6.140 -0.0051  0.5513  0.5095
  192POPC  H11A22136   6.293   3.806   6.134 -1.6865 -0.4358  0.7862
  192POPC  H11B22137   6.415   3.720   6.230  0.9415  2.4148 -0.2971
  192POPC     P22138   6.316   3.473   6.225  0.3493 -0.1329 -0.0260
  192POPC   O1322139   6.446   3.427   6.171 -0.0651 -0.3038 -0.8153
  192POPC   O1422140   6.197   3.381   6.219 -0.3187  0.3647  0.0621
  192POPC   O1222141   6.268   3.596   6.154  0.0652 -0.2365  0.0057
  192POPC   O1122142   6.327   3.526   6.368  0.2210 -0.1161  0.5364
  192POPC    C122143   6.219   3.560   6.458 -0.3897 -0.0268 -0.4236
  192POPC    HA22144   6.249   3.542   6.564 -0.7199 -0.9850 -0.4980
  192POPC    HB22145   6.133   3.496   6.430 -0.8253  1.8225 -3.6332
  192POPC    C222146   6.177   3.710   6.436  0.1388  0.7697 -0.1736
  192POPC    HS22147   6.157   3.717   6.327 -1.6965 -0.0837  0.0893
  192POPC   O2122148   6.289   3.788   6.480 -0.4090 -0.1381 -0.3188
  192POPC   C2122149   6.289   3.912   6.432 -0.2741 -0.0152  0.4600
  192POPC   O2222150   6.206   3.966   6.360  0.4005  0.3842 -0.3021
  192POPC   C2222151   6.431   3.959   6.452  0.6608  0.9870 -0.6699
  192POPC   H2R22152   6.495   3.907   6.378 -1.8106 -1.4567 -1.1820
  192POPC   H2S22153   6.459   3.942   6.558 -1.4270  3.7369  0.4118
  192POPC    C322154   6.049   3.745   6.508  0.4297  0.2493  0.1263
  192POPC    HX22155   5.967   3.683   6.466 -2.6130  3.3949  1.1473
  192POPC    HY22156   6.030   3.851   6.481 -1.0817  0.1675  0.7898
  192POPC   O3122157   6.058   3.717   6.647 -0.3454  0.2052  0.4298
  192POPC   C3122158   6.120   3.814   6.721 -0.3023  0.1753  0.7019
  192POPC   O3222159   6.148   3.927   6.679  0.0407  0.3732 -0.6568
  192POPC   C3222160   6.159   3.767   6.855  0.1045  0.5201  0.3491
  192POPC   H2X22161   6.268   3.749   6.865  0.1033  1.6842  2.7055
  192POPC   H2Y22162   6.101   3.674   6.876 -0.3256  1.0278  1.4352
  192POPC   C2322163   6.445   4.116   6.439 -0.0259  0.6685  0.3798
  192POPC   H3R22164   6.345   4.160   6.462  0.0620  0.3436  1.3941
  192POPC   H3S22165   6.464   4.138   6.332  0.8852  1.3356  0.6684
  192POPC   C2422166   6.555   4.174   6.528 -0.0478  0.0010 -0.6766
  192POPC   H4R22167   6.565   4.283   6.506 -1.1652 -0.3454 -3.0501
  192POPC   H4S22168   6.649   4.137   6.482  0.5805 -0.1394  0.7139
  192POPC   C2522169   6.543   4.159   6.682 -0.2940 -0.2751  0.2330
  192POPC   H5R22170   6.615   4.226   6.733 -2.0058  0.9376  1.1232
  192POPC   H5S22171   6.567   4.055   6.710 -1.1966 -1.0112 -1.6016
  192POPC   C2622172   6.398   4.183   6.720  0.0004 -0.1066  0.0612
  192POPC   H6R22173   6.328   4.106   6.680  0.3594 -0.7247  0.6155
  192POPC   H6S22174   6.357   4.280   6.686 -1.6337 -0.8897 -0.2811
  192POPC   C2722175   6.383   4.191   6.871  0.3788  0.3476  0.0828
  192POPC   H7R22176   6.441   4.107   6.913 -1.4690 -0.6213  0.7266
  192POPC   H7S22177   6.277   4.175   6.901  1.0171 -1.0486  1.6578
  192POPC   C2822178   6.428   4.322   6.939 -0.2667 -0.1975 -0.2789
  192POPC   H8R22179   6.392   4.311   7.043 -1.0872 -0.4838 -0.5885
  192POPC   H8S22180   6.364   4.409   6.912  0.2550  0.4260  0.4662
  192POPC   C2922181   6.576   4.350   6.936 -0.2148  0.2300 -0.4938
  192POPC   H9122182   6.614   4.407   6.850 -0.8383  0.9245 -0.3067
  192POPC  C21022183   6.667   4.300   7.026 -0.5374 -0.8317 -0.1913
  192POPC  H10122184   6.773   4.327   7.010 -0.3718 -1.0294  0.5487
  192POPC  C21122185   6.637   4.209   7.145  0.1898 -0.4346  0.4909
  192POPC  H11R22186   6.708   4.124   7.149  0.2816 -0.2936  2.0887
  192POPC  H11S22187   6.538   4.162   7.126  0.5163 -2.1132  2.7142
  192POPC  C21222188   6.640   4.302   7.272 -0.1499 -0.1961 -0.0732
  192POPC  H12R22189   6.741   4.346   7.289  0.5277 -1.6036 -0.4534
  192POPC  H12S22190   6.633   4.237   7.362 -0.5593 -0.7370 -0.5018
  192POPC  C21322191   6.537   4.417   7.283 -0.0041 -1.6202  0.1987
  192POPC  H13R22192   6.450   4.371   7.232 -0.8503  0.7596 -0.5511
  192POPC  H13S22193   6.558   4.504   7.219 -0.8145 -0.7977  1.0396
  192POPC  C21422194   6.495   4.454   7.425 -0.0347  0.2283 -0.2740
  192POPC  H14R22195   6.443   4.366   7.467  1.6874 -0.9443 -0.5418
  192POPC  H14S22196   6.427   4.542   7.423 -0.9774 -0.4550  1.2818
  192POPC  C21522197   6.622   4.496   7.515 -0.2182  0.0592 -0.0846
  192POPC  H15R22198   6.675   4.576   7.458 -0.5309  0.6016  0.3796
  192POPC  H15S22199   6.684   4.407   7.537 -1.8109 -0.7803  1.0083
  192POPC  C21622200   6.589   4.570   7.648  0.1522 -0.1200 -0.1662
  192POPC  H16R22201   6.563   4.489   7.719  1.6620  0.1036  0.6774
  192POPC  H16S22202   6.506   4.640   7.625  0.2475  0.3542  0.8837
  192POPC  C21722203   6.704   4.663   7.692 -0.6022  0.1993  0.0196
  192POPC  H17R22204   6.734   4.737   7.615  0.2846  1.1390  1.2481
  192POPC  H17S22205   6.784   4.587   7.700 -0.7767 -0.0602 -0.6461
  192POPC  C21822206   6.682   4.738   7.817  0.6308 -0.3498 -0.3926
  192POPC  H18R22207   6.674   4.671   7.905 -0.4043  2.3839  1.6408
  192POPC  H18S22208   6.598   4.808   7.800  0.4108 -0.4401  0.3064
  192POPC  H18T22209   6.764   4.812   7.824 -0.8326  1.3767 -1.2756
  192POPC   C3322210   6.125   3.870   6.960 -0.5247 -0.3283  0.1204
  192POPC   H3X22211   6.018   3.857   6.985 -1.0404  1.0366 -1.3029
  192POPC   H3Y22212   6.146   3.974   6.928  1.7097 -0.1681  2.0037
  192POPC   C3422213   6.198   3.846   7.090 -0.0954 -0.1781 -0.7076
  192POPC   H4X22214   6.305   3.876   7.089 -0.6174  1.8851  1.7036
  192POPC   H4Y22215   6.191   3.736   7.107 -1.3293 -0.2420 -1.5754
  192POPC   C3522216   6.134   3.926   7.208 -0.3257 -0.4656 -0.0144
  192POPC   H5X22217   6.025   3.908   7.212  0.0328 -2.8364 -0.5719
  192POPC   H5Y22218   6.154   4.033   7.182  4.2100 -0.8184  1.4231
  192POPC   C3622219   6.201   3.907   7.344  0.3599 -0.2260  0.7735
  192POPC   H6X22220   6.192   3.801   7.378  1.9103 -1.0248 -1.1998
  192POPC   H6Y22221   6.146   3.968   7.419  0.2387  1.0289 -0.3278
  192POPC   C3722222   6.340   3.969   7.348  0.3945 -1.0084 -0.7813
  192POPC   H7X22223   6.329   4.071   7.306 -1.4468 -0.5778  0.6970
  192POPC   H7Y22224   6.408   3.911   7.282  0.9614 -1.7674  0.4601
  192POPC   C3822225   6.414   3.974   7.485  0.3361 -0.0714  0.0883
  192POPC   H8X22226   6.507   4.030   7.462 -0.8233  0.7976 -2.6588
  192POPC   H8Y22227   6.446   3.872   7.515 -0.3795  0.2718  2.1157
  192POPC   C3922228   6.334   4.045   7.593 -0.3969  0.4155 -0.3684
  192POPC   H9X22229   6.264   3.971   7.638 -1.0507  1.4625  0.3537
  192POPC   H9Y22230   6.282   4.131   7.546 -0.8170  0.2907 -0.1304
  192POPC  C31022231   6.420   4.105   7.703 -0.6124  0.0346  0.5170
  192POPC  H10X22232   6.487   4.187   7.671 -0.2328 -0.3067  0.4348
  192POPC  H10Y22233   6.491   4.026   7.736 -2.4344 -2.1612 -0.6730
  192POPC  C31122234   6.340   4.166   7.817 -0.1707 -0.2445  0.1032
  192POPC  H11X22235   6.302   4.083   7.880 -0.7682 -1.2340 -1.5204
  192POPC  H11Y22236   6.247   4.213   7.778 -0.2873 -1.8340 -1.5962
  192POPC  C31222237   6.423   4.262   7.907 -0.0813  0.0118  0.5797
  192POPC  H12X22238   6.465   4.351   7.856  1.9148  0.1143  2.3405
  192POPC  H12Y22239   6.512   4.212   7.950 -0.9989 -2.5502 -0.4124
  192POPC  C31322240   6.350   4.302   8.031  0.3078 -0.4070  0.5263
  192POPC  H13X22241   6.332   4.212   8.093  1.6758 -0.2053  1.2372
  192POPC  H13Y22242   6.246   4.334   8.007 -0.1267 -2.4391 -0.3249
  192POPC  C31422243   6.425   4.410   8.113  0.0866 -0.3947 -0.5500
  192POPC  H14X22244   6.460   4.483   8.037  1.6201 -2.1190 -1.5566
  192POPC  H14Y22245   6.519   4.367   8.154 -0.0980 -0.9199 -0.6794
  192POPC  C31522246   6.347   4.476   8.229  0.0767  1.2256 -0.2639
  192POPC  H15X22247   6.261   4.528   8.181  0.1841  1.6256 -0.0277
  192POPC  H15Y22248   6.415   4.544   8.285  0.2784  0.2279  0.6969
  192POPC  C31622249   6.283   4.389   8.333  1.1996  0.3354 -0.4491
  192POPC  H16X22250   6.362   4.319   8.368  0.5717 -0.8356 -1.3467
  192POPC  H16Y22251   6.214   4.319   8.281 -2.7211  2.4809  1.5824
  192POPC  H16Z22252   6.227   4.443   8.413  1.0559  1.4281 -1.2841
  193SOD    SOD22253   1.336   3.127   0.022  0.3089 -0.3332 -0.1898
  194SOD    SOD22254   5.119   1.074   3.475  0.2817 -0.0066 -0.1092
  195SOD    SOD22255   5.258   2.743   1.349  0.0057 -0.3029 -0.7831
  196SOD    SOD22256   0.381   0.433   0.227 -0.0073 -0.0713  0.5225
  197SOD    SOD22257   2.376   4.219   4.727  0.2489 -0.2501 -0.3696
  198SOD    SOD22258   2.989   6.763  11.015 -0.0428  0.2725  0.4043
  199SOD    SOD22259   1.861   2.155   6.059 -0.0517 -0.1197  0.1148
  200SOD    SOD22260   1.406   6.002   6.545 -0.2091 -0.2676  0.1143
  201SOD    SOD22261   5.574   4.000   4.387 -0.1618  0.1693 -0.5203
  202SOD    SOD22262   2.275   0.833   4.580 -0.0941 -0.0934 -0.0656
  203SOD    SOD22263   2.112   1.221   6.581 -0.3190  0.1716  0.8674
  204SOD    SOD22264   4.521   3.900  11.892  0.1422  0.1016  0.0368
  205SOD    SOD22265   3.263   3.234   5.517  0.2284  0.6886 -0.1219
  206SOD    SOD22266   1.744   2.812  10.934 -0.9593 -0.6429  0.3505
  207SOD    SOD22267   3.577   3.050  11.463 -0.2618 -0.5153  0.4728
  208SOD    SOD22268   1.205   4.066  11.553  0.3481 -0.0504  0.0862
  209SOD    SOD22269   2.963   3.557  16.027  0.4766  0.2262 -0.1605
  210SOD    SOD22270   3.229   6.370  14.392  0.1054  0.0697 -0.1003
  211SOD    SOD22271   1.338   0.514  11.848  0.0991  0.5456  0.0831
  212SOD    SOD22272   5.725   6.644   6.242  0.3726 -0.0011  0.1791
  213SOD    SOD22273   3.932   3.000   5.738 -0.0607 -0.0386  0.0602
  214SOD    SOD22274   3.857   0.654  12.587 -0.1583  0.8436 -0.4398
  215SOD    SOD22275   5.814   3.548  15.805  0.7071 -0.5077  0.0988
  216SOD    SOD22276   1.217   5.067  13.022 -0.3606 -0.0599  0.1272
  217SOD    SOD22277   1.399   3.994  15.156  0.2374 -0.4385  0.2318
  218SOD    SOD22278   5.502   3.344   0.988  0.0482  0.4144  0.3034
  219SOD    SOD22279   6.505   2.069  16.181 -0.1090  0.3073 -0.3788
  220SOD    SOD22280   3.586   3.597   3.973 -0.2381 -0.2832 -0.5699
  221SOD    SOD22281   3.411   1.311   5.596  0.2596 -0.0336 -0.0002
  222SOD    SOD22282   5.026   0.508  11.515  0.2442  0.1343  0.2495
  223SOD    SOD22283   1.887   5.551  16.614  0.4046  0.4998 -0.0032
  224SOD    SOD22284   2.480   0.012   2.655 -0.4030 -0.1959  0.4667
  225SOD    SOD22285   0.684   1.325  13.859 -0.4626  0.2611  0.0432
  226SOD    SOD22286   4.120   5.322  11.459  0.0145  0.1470 -0.2626
  227SOD    SOD22287   3.011   5.650   1.178  0.0614  0.0414  0.3686
  228SOD    SOD22288   5.366   5.048   3.829 -0.0865  0.0906  0.5333
  229SOD    SOD22289   0.920   0.751   5.710  0.3826  0.0119  0.1995
  230SOD    SOD22290   3.211   5.715   0.145 -0.3824  0.1767  0.1090
  231SOD    SOD22291   2.623   1.684   1.117 -0.2066 -0.2488 -0.5116
  232SOD    SOD22292   1.285   6.237   0.217  0.3323 -0.2318  0.5982
  233SOD    SOD22293   4.009   0.457  16.984 -0.1560  0.3054  0.9795
  234SOD    SOD22294   5.368   0.648  15.671 -0.3052 -0.4409 -0.0284
  235SOD    SOD22295   2.127   4.112   5.156 -0.0250 -0.2333  0.3242
  236SOD    SOD22296   3.502   2.616   0.053  0.0779  0.2226  0.1412
  237SOD    SOD22297   4.942   5.476  16.366 -0.3693  0.3319 -0.3886
  238SOD    SOD22298   5.036   2.657  14.744  0.0442  0.5777  0.2055
  239SOD    SOD22299   5.766   3.505   2.044 -0.1480 -0.2972  0.2045
  240SOD    SOD22300   3.068   6.508  13.358  0.3105  0.7005  0.2194
  241SOD    SOD22301   6.085   0.795  12.481 -0.1865  0.3767 -0.1844
  242SOD    SOD22302   3.983   1.877   1.001  0.1070  0.2875  0.1346
  243SOD    SOD22303   1.757   0.345  15.062  0.8094 -0.4922  0.5018
  244SOD    SOD22304   5.844   1.273   3.117  0.0023 -0.0734  0.2107
  245SOD    SOD22305   5.007   3.015  10.677  0.1579 -0.3063  0.6360
  246SOD    SOD22306   5.447   1.484   5.578  0.4866 -0.1091 -0.3383
  247SOD    SOD22307   4.735   2.568  15.930 -0.1484 -0.1437  0.0025
  248SOD    SOD22308   4.989   5.288   6.302  0.5447  0.1120  0.3359
  249SOD    SOD22309   4.788   3.929   5.900 -0.1439  0.5736 -0.3304
  250SOD    SOD22310   5.531   0.204  10.762  0.5035  0.4535  0.2133
  251SOD    SOD22311   2.338   4.842   2.461  0.2601 -0.1220 -0.0213
  252SOD    SOD22312   2.628   1.751  16.524 -0.1815 -0.2744  0.1560
  253SOD    SOD22313   0.534   1.447   1.709  0.0592 -0.2857 -0.3356
  254SOD    SOD22314   2.921   5.787  12.290 -0.2994  0.4827 -0.0159
  255SOD    SOD22315   0.173   3.779  14.205 -0.5687 -0.1406 -0.3184
  256SOD    SOD22316   1.838   3.548   6.137 -0.2085  0.1662 -0.3966
  257SOD    SOD22317   1.319   5.776   1.449  0.0108  0.0764  0.3718
  258SOD    SOD22318   5.115   4.561  14.474 -0.0610  0.4308  0.2426
  259SOD    SOD22319   6.527   3.164   4.659 -0.6222 -0.2260  0.2440
  260SOD    SOD22320   1.414   5.785  13.549  0.0800  0.3440 -0.4603
  261SOD    SOD22321   4.105   4.696  15.034 -0.0887 -0.0947 -0.2301
  262SOD    SOD22322   0.451   2.670   3.794  0.0882  0.1055 -0.1069
  263SOD    SOD22323   1.999   0.327   1.876  0.0249 -0.3225 -0.2711
  264SOD    SOD22324   2.766   5.509  13.046 -0.5361 -0.0702  0.2951
  265SOD    SOD22325   6.697   0.010   6.709 -0.0774 -0.1616  0.0818
  266SOD    SOD22326   2.460   1.498  13.271  0.2472  0.2286 -0.7051
  267SOD    SOD22327   5.928   4.724  11.486  0.0961 -0.2775 -0.0616
  268SOD    SOD22328   0.800   2.167  10.803 -0.2063 -0.2102  0.5075
  269SOD    SOD22329   2.697   0.002  12.298  0.2073  0.6129 -0.0407
  270CLA    CLA22330   5.660   3.572  12.409 -0.3844 -0.2692 -0.2101
  271CLA    CLA22331   1.468   6.728   0.191 -0.0447 -0.2367  0.1160
  272CLA    CLA22332   6.063   1.343  17.044 -0.2879  0.0172 -0.1985
  273CLA    CLA22333   4.883   5.003   3.287 -0.0888 -0.1043 -0.1739
  274CLA    CLA22334   1.075   3.623  15.261 -0.1859  0.0539  0.2390
  275CLA    CLA22335   2.153   5.630  17.136 -0.1433 -0.1131  0.5854
  276CLA    CLA22336   1.395   2.916   0.198  0.1066  0.2917  0.3384
  277CLA    CLA22337   3.012   2.651  15.896 -0.1249  0.2720 -0.1072
  278CLA    CLA22338   3.475   6.292  16.223 -0.2269  0.1243  0.1459
  279CLA    CLA22339   3.103   4.664   2.896 -0.2900 -0.2011  0.0094
  280CLA    CLA22340   4.187   6.091  15.692 -0.4712 -0.1749  0.1335
  281CLA    CLA22341   1.492   3.933  15.858 -0.0043  0.3170 -0.3614
  282CLA    CLA22342   5.619   2.598  15.614  0.0976  0.5752 -0.3119
  283CLA    CLA22343   3.898   5.189  12.438 -0.2344  0.0430  0.3884
  284CLA    CLA22344   4.003   4.857   0.932  0.8135  0.3538 -0.0422
  285CLA    CLA22345   4.459   5.209  16.616  0.0376  0.1532 -0.5209
  286CLA    CLA22346   3.341   3.876   5.812  0.2503  0.0586 -0.0277
  287CLA    CLA22347   4.550   5.832   4.928  0.6316 -0.4549  0.1696
  288CLA    CLA22348   1.453   5.519   3.985  0.1585 -0.0888 -0.3411
  289CLA    CLA22349   2.040   0.497   4.223  0.2524 -0.3547 -0.1220
  290CLA    CLA22350   3.276   1.412  16.507  0.1250  0.1478  0.0522
  291CLA    CLA22351   6.399   4.708  12.050 -0.0743 -0.4753  0.3566
  292CLA    CLA22352   2.019   4.655  15.931  0.2185  0.1070 -0.0279
  293CLA    CLA22353   4.008   5.587   3.483  0.2644  0.1033  0.1324
  294CLA    CLA22354   3.650   0.701   4.323 -0.1322  0.1173  0.1644
  295CLA    CLA22355   2.937   4.339   1.362  0.3614  0.3494 -0.1932
  296CLA    CLA22356   6.742   2.390   3.728 -0.0761  0.2834  0.0045
  297CLA    CLA22357   3.646   1.821   0.359  0.0039  0.0339 -0.6315
  298CLA    CLA22358   3.415   0.696  16.935  0.3887 -0.2699  0.4077
  299CLA    CLA22359   6.617   1.614   0.629  0.7559 -0.2262  0.0420
  300CLA    CLA22360   1.140   6.462  15.776 -0.3711  0.0143 -0.0223
  301CLA    CLA22361   1.542   1.991   0.706  0.0288 -0.8151  0.1653
  302CLA    CLA22362   5.768   0.954  14.827 -0.1872  0.5918 -0.2308
  303CLA    CLA22363   4.371   0.713  12.704  0.5375 -0.0292 -0.0880
  304CLA    CLA22364   1.227   3.148  15.021  0.0390  0.1456  0.0967
  305CLA    CLA22365   3.315   1.182  11.964  0.3256  0.0978  0.2036
  306CLA    CLA22366   3.219   5.457   4.460  0.0795  0.3778  0.1306
  307CLA    CLA22367   1.900   5.872   0.244  0.2329  0.1884 -0.0316
  308CLA    CLA22368   1.264   0.377   3.301 -0.5260  0.2330  0.0398
  309CLA    CLA22369   0.320   0.579   0.437  0.3079 -0.1438 -0.4062
  310CLA    CLA22370   1.524   6.445  13.460  0.0618 -0.3357  0.2428
  311CLA    CLA22371   2.822   5.378  13.747  0.3595 -0.3853 -0.0211
  312CLA    CLA22372   3.579   6.731  12.136 -0.3207  0.8850 -0.0783
  313CLA    CLA22373   2.066   4.489   1.827  0.2348  0.2157  0.0999
  314CLA    CLA22374   4.163   3.084   1.905 -0.0655  0.0767 -0.0369
  315CLA    CLA22375   1.974   1.946   1.322 -0.0464  0.0692  0.0098
  316CLA    CLA22376   2.765   2.534   1.642 -0.0108 -0.2804 -0.2010
  317CLA    CLA22377   4.820   4.573  15.865  0.4513  0.3986  0.0477
  318CLA    CLA22378   2.788   0.524  13.420 -0.4185  0.3943 -0.1976
  319CLA    CLA22379   2.345   3.472   4.584 -0.3096 -0.0047 -0.2984
  320CLA    CLA22380   0.368   5.538   5.097 -0.2434  0.4591  0.2764
  321CLA    CLA22381   1.637   5.401  13.445  0.1710  0.4654  0.3122
  322CLA    CLA22382   2.507   3.883   0.746 -0.2649 -0.2925  0.1876
  323TIP3   OH222383   0.918   2.898  14.560  0.4618  0.9137 -0.0664
  323TIP3    H122384   0.877   2.942  14.634  0.6666  0.1575  0.4951
  323TIP3    H222385   0.868   2.929  14.484  0.1018  1.5075  0.4021
  324TIP3   OH222386   4.028   6.433  13.864 -0.3284 -0.1441  0.0753
  324TIP3    H122387   4.073   6.493  13.924 -1.3615  1.5346 -0.7854
  324TIP3    H222388   4.085   6.357  13.858  0.4046  0.2098  2.1947
  325TIP3   OH222389   0.690   3.680   1.788 -0.1264 -0.1431  0.4767
  325TIP3    H122390   0.756   3.696   1.721 -0.1988 -1.7281  0.0090
  325TIP3    H222391   0.720   3.730   1.863  1.2007 -0.2224  0.0156
  326TIP3   OH222392   1.100   2.621   2.522  0.2937 -0.3665 -0.1469
  326TIP3    H122393   1.116   2.663   2.607  1.2441  0.7385 -0.8398
  326TIP3    H222394   1.185   2.584   2.498  0.4270  0.6465 -1.2994
  327TIP3   OH222395   3.311   6.737   6.010 -0.0626 -0.1474  0.1432
  327TIP3    H122396   3.353   6.688   6.081 -0.0779 -0.6230 -0.1773
  327TIP3    H222397   3.326   6.684   5.932  1.6357  1.3297 -0.5539
  328TIP3   OH222398   4.249   1.220  10.755  0.1510 -0.3659  0.2741
  328TIP3    H122399   4.322   1.194  10.699  0.3642  0.7245  0.0348
  328TIP3    H222400   4.202   1.286  10.704 -0.9036 -0.9303  0.5052
  329TIP3   OH222401   4.089   0.902   2.064 -0.1540 -0.0429  0.1074
  329TIP3    H122402   4.134   0.826   2.028 -2.3873 -0.4821 -1.8525
  329TIP3    H222403   4.118   0.975   2.010 -1.6726 -0.3090 -1.0890
  330TIP3   OH222404   6.331   2.884  15.654 -0.7347 -0.1467  0.5767
  330TIP3    H122405   6.361   2.805  15.608  0.9414  1.5026 -1.2700
  330TIP3    H222406   6.236   2.884  15.641 -0.3646  0.0547 -2.6644
  331TIP3   OH222407   4.800   6.771   4.700 -0.2072 -0.0643  0.5202
  331TIP3    H122408   4.710   6.798   4.714 -0.1846 -0.0054  0.5520
  331TIP3    H222409   4.800   6.732   4.613 -0.7100 -1.9611  1.3381
  332TIP3   OH222410   4.883   1.702  15.341 -0.0656 -0.5357  0.7952
  332TIP3    H122411   4.859   1.649  15.265  0.3020 -0.5369  0.6760
  332TIP3    H222412   4.800   1.720  15.385 -0.2824 -0.5203  0.3857
  333TIP3   OH222413   6.034   1.298   1.016  0.5670  0.1185  0.1536
  333TIP3    H122414   6.016   1.218   1.066  2.6896 -0.2001  0.4424
  333TIP3    H222415   6.113   1.278   0.966  1.0622  2.0054  0.1513
  334TIP3   OH222416   5.284   5.010  17.010  0.7646  0.9563  0.3402
  334TIP3    H122417   5.193   5.027  17.035  1.0164 -1.2727  3.0207
  334TIP3    H222418   5.333   5.085  17.043  0.2300  0.9409  1.1929
  335TIP3   OH222419   3.452   2.505  11.904  0.3937  0.2110  0.7807
  335TIP3    H122420   3.403   2.439  11.955  0.4641 -0.4865 -0.0502
  335TIP3    H222421   3.544   2.480  11.914  0.3642 -0.3667 -0.2782
  336TIP3   OH222422   4.726   6.319  14.090  1.0333  0.2402 -0.1040
  336TIP3    H122423   4.787   6.247  14.107 -0.5234 -0.7572  1.3618
  336TIP3    H222424   4.683   6.335  14.173  0.4067  2.0227 -0.7379
  337TIP3   OH222425   4.958   4.183   3.408 -0.4854  0.1514  0.0378
  337TIP3    H122426   5.011   4.259   3.435 -0.2486 -0.0418  0.1257
  337TIP3    H222427   4.931   4.203   3.319 -0.6240  0.4484  0.1464
  338TIP3   OH222428   2.987   2.593  14.961 -0.2465 -0.9106  0.4646
  338TIP3    H122429   2.935   2.569  15.038 -1.2881 -0.7392 -0.1795
  338TIP3    H222430   3.074   2.615  14.996 -0.9830  0.0658  1.6885
  339TIP3   OH222431   3.588   1.670  11.695  0.2694 -0.1522  0.0183
  339TIP3    H122432   3.523   1.730  11.733  0.9562  0.4324  0.2773
  339TIP3    H222433   3.590   1.693  11.602  1.4169  1.0680  0.3306
  340TIP3   OH222434   0.397   0.227   5.205 -0.0866  0.5759  0.2607
  340TIP3    H122435   0.356   0.147   5.237  2.5847 -1.0366 -0.2502
  340TIP3    H222436   0.491   0.214   5.220  0.6604  2.3828 -2.5012
  341TIP3   OH222437   5.479   1.796  15.653  0.3675  0.1414 -1.0167
  341TIP3    H122438   5.507   1.887  15.667  2.1138 -0.7007  1.0926
  341TIP3    H222439   5.549   1.743  15.691 -1.7535 -2.0808 -0.1124
  342TIP3   OH222440   5.259   1.898   4.446 -0.5478  0.2324 -0.2471
  342TIP3    H122441   5.245   1.937   4.532  0.2527  0.7995 -0.3736
  342TIP3    H222442   5.186   1.836   4.436 -2.4096  2.4072 -0.4834
  343TIP3   OH222443   2.384   0.122  17.202 -0.4084  0.5440  0.2507
  343TIP3    H122444   2.376   0.216  17.185 -1.2494  0.5527  0.6407
  343TIP3    H222445   2.321   0.105  17.272  1.3497  0.1012  1.7622
  344TIP3   OH222446   6.583   3.703  11.774 -0.4472  0.1613 -0.3367
  344TIP3    H122447   6.505   3.703  11.718  0.9853  1.5955 -2.3701
  344TIP3    H222448   6.577   3.784  11.823  0.1349  0.6206 -1.0223
  345TIP3   OH222449   0.553   5.798  13.942 -0.4121  0.0066 -1.2878
  345TIP3    H122450   0.511   5.868  13.892 -1.6020 -0.0564 -0.4248
  345TIP3    H222451   0.563   5.835  14.030 -1.7637 -1.1615 -0.6216
  346TIP3   OH222452   5.147   1.451  13.504 -0.3565 -0.1455  0.2689
  346TIP3    H122453   5.118   1.522  13.446  0.6447 -0.0240 -0.0950
  346TIP3    H222454   5.108   1.372  13.466 -0.4822  0.0534 -0.0252
  347TIP3   OH222455   5.157   2.550   0.712  0.1997  0.0178  0.1697
  347TIP3    H122456   5.143   2.529   0.620 -1.2037 -0.8164  0.5447
  347TIP3    H222457   5.231   2.611   0.713  1.2145 -1.1569 -1.3710
  348TIP3   OH222458   2.030   6.661  12.520  0.1271  0.1654  0.3206
  348TIP3    H122459   2.003   6.587  12.575  1.8527 -0.8696 -0.1643
  348TIP3    H222460   1.964   6.728  12.535 -1.5087 -1.5005  0.7582
  349TIP3   OH222461   5.816   6.724  12.503 -0.1218 -0.3628  0.0558
  349TIP3    H122462   5.809   6.659  12.573 -2.0488 -0.2552 -0.0293
  349TIP3    H222463   5.739   6.780  12.513  1.3542  1.7601 -0.0446
  350TIP3   OH222464   3.355   0.598  11.050 -0.0895 -0.0039  0.0931
  350TIP3    H122465   3.290   0.595  11.120  0.7238 -0.6469  0.8291
  350TIP3    H222466   3.376   0.691  11.040  0.5294  0.0171  1.4035
  351TIP3   OH222467   5.372   0.912   1.344  0.2907 -0.4033 -0.2279
  351TIP3    H122468   5.402   0.865   1.266  0.0548  0.4579 -0.8489
  351TIP3    H222469   5.382   0.849   1.416 -0.9812 -1.7605 -1.2045
  352TIP3   OH222470   1.058   0.206  16.845  0.1767 -1.2942 -0.3662
  352TIP3    H122471   1.065   0.114  16.819 -1.1262 -1.0932 -1.4514
  352TIP3    H222472   1.073   0.205  16.940 -0.6917 -2.7257 -0.2275
  353TIP3   OH222473   6.212   1.925   4.621  0.3091  0.1098 -0.0904
  353TIP3    H122474   6.289   1.867   4.623  0.1952 -0.2478 -3.0708
  353TIP3    H222475   6.137   1.866   4.624  0.1006  0.4371  2.3297
  354TIP3   OH222476   4.391   1.953   0.522  0.0553  0.6311  0.5716
  354TIP3    H122477   4.308   1.976   0.565 -1.4169 -0.1046 -1.7878
  354TIP3    H222478   4.401   2.019   0.453 -0.1295 -1.0381 -1.0902
  355TIP3   OH222479   5.475   4.255  12.872 -0.1629 -0.0523 -0.1131
  355TIP3    H122480   5.388   4.294  12.868 -0.1525 -0.1181 -1.1548
  355TIP3    H222481   5.531   4.316  12.823  0.2673 -0.2887  0.0835
  356TIP3   OH222482   6.111   5.561   5.879  1.2453  0.3226  0.1960
  356TIP3    H122483   6.150   5.615   5.811  0.0354  2.5656  1.2403
  356TIP3    H222484   6.041   5.513   5.835  0.0638  2.2260 -0.0372
  357TIP3   OH222485   3.156   6.016   1.715  0.4305 -0.0850 -0.2998
  357TIP3    H122486   3.150   5.923   1.697 -0.7183  0.3297 -2.2134
  357TIP3    H222487   3.198   6.053   1.636 -1.7763  1.3849 -0.8312
  358TIP3   OH222488   5.822   4.720  15.987  0.1434  0.0717 -0.2629
  358TIP3    H122489   5.869   4.715  16.070 -0.2122 -2.2304 -0.1550
  358TIP3    H222490   5.886   4.757  15.925  0.1940  2.4336  1.1537
  359TIP3   OH222491   5.291   3.491  11.407 -0.3004 -1.3381  0.4465
  359TIP3    H122492   5.336   3.551  11.467 -2.9793  0.6009  0.6263
  359TIP3    H222493   5.330   3.508  11.322  1.2160 -1.7210  1.0411
  360TIP3   OH222494   1.480   0.786  14.857  0.4086 -0.4617  0.1153
  360TIP3    H122495   1.568   0.756  14.834  0.3236 -0.6764  0.0715
  360TIP3    H222496   1.422   0.713  14.834  0.0200  0.3200 -1.3896
  361TIP3   OH222497   6.489   1.640  12.737 -0.4639  0.5104 -0.4901
  361TIP3    H122498   6.465   1.714  12.682  1.7784  2.7386  1.4499
  361TIP3    H222499   6.571   1.666  12.778  0.3883 -3.0652  0.2321
  362TIP3   OH222500   4.168   0.992  15.468  0.0958  0.0236  0.0913
  362TIP3    H122501   4.118   0.927  15.419  1.5114 -0.6205 -0.5253
  362TIP3    H222502   4.250   1.002  15.419 -1.2022  4.3461 -1.3913
  363TIP3   OH222503   5.431   5.326  16.851 -0.5528  0.0498 -0.0229
  363TIP3    H122504   5.430   5.422  16.847  0.2432  0.0277 -0.7907
  363TIP3    H222505   5.473   5.306  16.934 -0.9464  0.3623  0.2571
  364TIP3   OH222506   2.769   0.287   5.462  0.2599 -0.2066  0.3383
  364TIP3    H122507   2.774   0.361   5.402 -1.5542  0.2516  0.7106
  364TIP3    H222508   2.749   0.212   5.406  0.4776 -0.1160  0.1422
  365TIP3   OH222509   6.270   1.368   2.571  0.7742  0.2647 -0.0518
  365TIP3    H122510   6.211   1.310   2.523 -1.4201  2.4137 -0.0217
  365TIP3    H222511   6.232   1.375   2.658  0.2231  2.8121 -0.4600
  366TIP3   OH222512   4.056   1.015  12.627 -0.2419  0.3767  0.0078
  366TIP3    H122513   3.973   1.048  12.593 -0.0669  0.6020 -0.1973
  366TIP3    H222514   4.054   0.922  12.606 -0.5070  0.3515  0.1301
  367TIP3   OH222515   4.221   5.238  13.224  0.4850  0.1478 -0.1727
  367TIP3    H122516   4.274   5.181  13.168 -0.2650 -1.0301  0.2873
  367TIP3    H222517   4.163   5.284  13.164 -0.1060 -0.8875 -0.4026
  368TIP3   OH222518   0.474   0.407  15.184  0.3281 -0.1466 -0.1931
  368TIP3    H122519   0.471   0.351  15.261  0.8632  0.0701 -0.0127
  368TIP3    H222520   0.559   0.450  15.189 -0.7126  1.9049  0.5599
  369TIP3   OH222521   2.953   5.452   1.281 -0.4820 -0.4621 -0.4263
  369TIP3    H122522   3.032   5.399   1.285  0.3780  0.8822  1.6019
  369TIP3    H222523   2.893   5.412   1.344 -0.2559  0.2745  0.2740
  370TIP3   OH222524   6.688   5.463  13.805  0.0099 -0.4142  0.3355
  370TIP3    H122525   6.759   5.399  13.800 -0.0135 -0.5214  1.3762
  370TIP3    H222526   6.623   5.431  13.743  0.3853 -0.9122  0.1950
  371TIP3   OH222527   6.459   6.154  10.554 -0.4074 -0.1228  0.3449
  371TIP3    H122528   6.534   6.213  10.557 -0.6502  0.1746  0.5684
  371TIP3    H222529   6.497   6.067  10.541  0.0511 -0.1264  1.6406
  372TIP3   OH222530   1.133   2.200  15.311  0.0139  0.4133  0.6921
  372TIP3    H122531   1.059   2.259  15.302 -0.4244  0.0278  1.6806
  372TIP3    H222532   1.163   2.212  15.402 -0.8796 -1.7865  1.3054
  373TIP3   OH222533   0.754   3.482   3.918  0.6482 -0.2723  0.1654
  373TIP3    H122534   0.826   3.520   3.969 -2.3735  3.0716  2.1279
  373TIP3    H222535   0.748   3.537   3.840 -0.4614  0.1139  0.5207
  374TIP3   OH222536   1.515   3.670  13.675 -0.5370  0.0737  0.5640
  374TIP3    H122537   1.459   3.621  13.735 -0.8933 -1.5643 -1.0591
  374TIP3    H222538   1.469   3.668  13.591  2.1837 -1.8357 -0.9712
  375TIP3   OH222539   0.652   5.923  16.980 -0.5557 -0.4617 -0.1103
  375TIP3    H122540   0.733   5.923  16.928 -0.9459 -2.0898 -0.7360
  375TIP3    H222541   0.674   5.975  17.058  1.7323 -2.5589  0.7145
  376TIP3   OH222542   5.051   5.647   2.153  0.5831 -0.4720 -0.3109
  376TIP3    H122543   4.996   5.640   2.075  1.7236  1.2910 -1.3166
  376TIP3    H222544   5.110   5.572   2.147  0.4082 -0.5668 -0.9299
  377TIP3   OH222545   6.305   5.323  16.873 -0.3933 -0.2208 -0.2535
  377TIP3    H122546   6.286   5.319  16.966 -0.3270 -1.4632 -0.2874
  377TIP3    H222547   6.381   5.381  16.866  0.7374 -1.5821  0.6376
  378TIP3   OH222548   1.421   4.867   4.277  0.4285  0.3476  0.0763
  378TIP3    H122549   1.439   4.962   4.277 -1.6403  0.7585 -0.1047
  378TIP3    H222550   1.398   4.848   4.186  0.3257 -0.2362  0.2276
  379TIP3   OH222551   6.151   4.724   5.307  0.3027 -0.0484 -0.5789
  379TIP3    H122552   6.122   4.791   5.370  0.4962 -2.6108  2.3741
  379TIP3    H222553   6.073   4.703   5.256 -0.0351  1.6055 -0.7636
  380TIP3   OH222554   1.361   6.275  16.856 -0.2681 -0.8162  0.1187
  380TIP3    H122555   1.282   6.232  16.823 -1.3586 -0.0477  1.6649
  380TIP3    H222556   1.340   6.369  16.853  0.6648 -0.5938  0.3801
  381TIP3   OH222557   2.534   1.342   0.889 -1.0257 -0.5256  0.0305
  381TIP3    H122558   2.604   1.383   0.942  0.0187  1.2595 -2.6143
  381TIP3    H222559   2.548   1.248   0.901  1.7492 -0.2175 -0.2669
  382TIP3   OH222560   2.850   2.328   3.169  0.2148 -0.3934  0.2495
  382TIP3    H122561   2.935   2.286   3.160  1.7831  2.6874 -0.2794
  382TIP3    H222562   2.831   2.322   3.263  1.1326 -0.9618  0.4094
  383TIP3   OH222563   4.918   4.690   3.610  0.0435 -0.0183  0.2845
  383TIP3    H122564   4.829   4.663   3.588  0.1520 -1.1695  1.1916
  383TIP3    H222565   4.909   4.783   3.633 -0.7568  0.1143 -0.5378
  384TIP3   OH222566   6.475   1.802   4.969 -0.2175  0.0891  0.3306
  384TIP3    H122567   6.533   1.794   4.893 -0.8371 -0.3301 -0.1063
  384TIP3    H222568   6.472   1.713   5.006 -1.5312 -0.1821 -0.3710
  385TIP3   OH222569   1.940   2.100  10.927  0.4044  0.0548  0.2477
  385TIP3    H122570   1.919   2.008  10.944  3.7195 -0.6839  0.5134
  385TIP3    H222571   2.035   2.103  10.918  0.3393  3.4118 -0.1502
  386TIP3   OH222572   4.113   3.457  14.895  0.2724  0.1112  0.2800
  386TIP3    H122573   4.185   3.507  14.857  0.8628 -1.1727 -0.3395
  386TIP3    H222574   4.060   3.430  14.820 -0.9921  1.2277  0.7529
  387TIP3   OH222575   5.159   4.161   5.423  0.0259 -0.0334 -0.0980
  387TIP3    H122576   5.214   4.164   5.345 -1.9547  1.1275 -1.4891
  387TIP3    H222577   5.142   4.068   5.437  1.1999 -0.3107 -0.4496
  388TIP3   OH222578   1.394   2.205   3.399 -0.2448 -0.7439 -0.2824
  388TIP3    H122579   1.402   2.155   3.480 -2.7537 -0.0148  0.4726
  388TIP3    H222580   1.459   2.168   3.340 -0.3555 -3.2143  1.1073
  389TIP3   OH222581   6.250   2.877   1.588  0.1440 -0.3640  0.3795
  389TIP3    H122582   6.332   2.841   1.554  0.6699  0.6305  0.5750
  389TIP3    H222583   6.209   2.804   1.634  1.2687 -0.6706  0.9049
  390TIP3   OH222584   4.215   0.273  15.865  0.3583 -0.1097 -0.1451
  390TIP3    H122585   4.235   0.367  15.874 -0.3047 -0.0311  0.5368
  390TIP3    H222586   4.162   0.268  15.786  4.2756 -0.5141 -2.9246
  391TIP3   OH222587   0.850   2.119   4.191 -0.2775  0.4795  0.3677
  391TIP3    H122588   0.868   2.090   4.281 -0.3964  2.3320  1.0139
  391TIP3    H222589   0.936   2.137   4.154 -0.3567  1.9589  0.8942
  392TIP3   OH222590   0.577   6.348  12.630  0.3270 -0.1198 -1.2097
  392TIP3    H122591   0.604   6.440  12.629 -1.1600  0.4098  1.7494
  392TIP3    H222592   0.509   6.342  12.563 -1.3477  1.5511  0.2914
  393TIP3   OH222593   1.003   2.961   4.493  0.2691 -0.0607  0.0851
  393TIP3    H122594   0.957   2.881   4.517 -0.5617  0.0382 -1.1528
  393TIP3    H222595   1.016   3.007   4.576 -1.5850 -0.2280  0.4810
  394TIP3   OH222596   0.181   3.488  10.638  0.3336 -0.3649 -0.3174
  394TIP3    H122597   0.130   3.410  10.613 -0.1235  0.8072 -3.1860
  394TIP3    H222598   0.255   3.452  10.687 -0.3735 -2.5377 -0.7430
  395TIP3   OH222599   2.497   5.044   0.934  0.3679 -0.4646  0.2843
  395TIP3    H122600   2.412   5.041   0.889  1.4484 -1.4964 -1.7864
  395TIP3    H222601   2.519   4.952   0.949  0.4603 -0.1617  2.1577
  396TIP3   OH222602   0.126   6.101  14.407  0.0135 -0.6718  0.3541
  396TIP3    H122603   0.123   6.009  14.431 -1.6458  0.0662  3.3655
  396TIP3    H222604   0.045   6.116  14.358 -0.9671 -0.3502  2.0087
  397TIP3   OH222605   1.288   6.644   4.933  0.6695  0.4584  0.4259
  397TIP3    H122606   1.328   6.704   4.870  0.1228  1.4146  0.9730
  397TIP3    H222607   1.331   6.560   4.918  0.2188  0.5650 -1.5349
  398TIP3   OH222608   3.370   3.210  16.149  0.2878 -0.1547  0.3971
  398TIP3    H122609   3.289   3.236  16.192 -0.3268 -0.3183 -0.6362
  398TIP3    H222610   3.392   3.284  16.093 -0.2130 -0.8957 -0.8004
  399TIP3   OH222611   2.631   4.834   3.901  0.1634 -0.2715 -0.6508
  399TIP3    H122612   2.675   4.755   3.872  0.0180 -0.5966  0.0251
  399TIP3    H222613   2.619   4.823   3.995  0.4565  0.7031 -0.4924
  400TIP3   OH222614   2.634   6.762  17.190 -0.1848  0.1776 -0.0571
  400TIP3    H122615   2.593   6.846  17.212 -3.6576 -1.4518 -0.1031
  400TIP3    H222616   2.690   6.743  17.265 -1.8353  1.0309  1.4248
  401TIP3   OH222617   5.503   1.356   1.717  0.3103  0.7054  0.3787
  401TIP3    H122618   5.595   1.334   1.704 -0.2626 -1.8770  0.5477
  401TIP3    H222619   5.492   1.439   1.670  2.6012  0.8467  0.0151
  402TIP3   OH222620   2.294   3.581   5.107  0.1155  0.7018  0.0589
  402TIP3    H122621   2.284   3.637   5.030 -0.8331 -1.0716 -1.1384
  402TIP3    H222622   2.338   3.503   5.074 -0.7738 -0.2992  1.2168
  403TIP3   OH222623   2.301   1.720  15.821 -0.2366  0.3798 -0.8490
  403TIP3    H122624   2.268   1.711  15.732 -0.3144 -0.2766 -0.7543
  403TIP3    H222625   2.334   1.633  15.843  0.8802  0.8417 -0.6746
  404TIP3   OH222626   3.655   6.785  13.252  0.1086 -0.5729  0.3187
  404TIP3    H122627   3.600   6.831  13.316  1.8287  2.0220 -0.0246
  404TIP3    H222628   3.741   6.778  13.295  0.9365  0.0995 -1.2196
  405TIP3   OH222629   1.162   0.734  12.914  0.2205  0.0346  0.0246
  405TIP3    H122630   1.212   0.811  12.943  1.2664 -0.1072 -1.3001
  405TIP3    H222631   1.125   0.761  12.830  0.1778 -0.7467 -0.2043
  406TIP3   OH222632   1.127   5.118   4.196 -0.9102 -0.3195 -0.0463
  406TIP3    H122633   1.138   5.198   4.145  1.4648 -2.0311 -2.3104
  406TIP3    H222634   1.122   5.149   4.287 -1.1401  2.4621 -0.9525
  407TIP3   OH222635   4.639   1.343   1.185  0.2917  0.1852 -0.0182
  407TIP3    H122636   4.706   1.412   1.183 -0.8401  1.2696 -1.4100
  407TIP3    H222637   4.653   1.299   1.270  1.8407  1.2937  0.3319
  408TIP3   OH222638   3.287   0.827   1.040 -0.3851 -0.2700  0.3044
  408TIP3    H122639   3.279   0.786   1.126  0.4733  0.9857  0.9980
  408TIP3    H222640   3.241   0.910   1.049  0.7063  0.3854 -0.0960
  409TIP3   OH222641   2.687   5.270   2.570  0.0780  0.3787  0.3963
  409TIP3    H122642   2.629   5.268   2.646  0.0533  1.7759  0.4387
  409TIP3    H222643   2.629   5.255   2.495 -0.0336 -0.1470  0.5883
  410TIP3   OH222644   3.991   4.127   1.127  0.7390 -0.2743 -0.5748
  410TIP3    H122645   3.956   4.204   1.172  1.1615 -0.3598 -0.1007
  410TIP3    H222646   3.922   4.103   1.065 -0.1458 -0.5624  0.4966
  411TIP3   OH222647   0.703   2.048  14.930  0.8043 -0.2032 -0.4204
  411TIP3    H122648   0.757   2.125  14.914  1.0303 -0.2496  0.1161
  411TIP3    H222649   0.621   2.066  14.885  1.0621  0.1078 -0.7660
  412TIP3   OH222650   1.905   6.783   3.029 -0.6727 -0.2544  0.3960
  412TIP3    H122651   1.840   6.773   3.099  0.3388 -1.0221  1.2398
  412TIP3    H222652   1.925   6.876   3.028 -1.2625 -0.1217  0.6107
  413TIP3   OH222653   1.929   2.915  15.308  0.1600 -0.1695  0.0298
  413TIP3    H122654   1.898   2.879  15.225 -2.4071  0.0367  0.8567
  413TIP3    H222655   1.912   3.009  15.301  3.3114  0.4288 -0.5985
  414TIP3   OH222656   6.768   5.658   0.346 -0.2595  0.2824 -0.0451
  414TIP3    H122657   6.850   5.674   0.300 -0.7761  1.8186 -0.4536
  414TIP3    H222658   6.792   5.601   0.419  1.1036  0.4394 -0.3602
  415TIP3   OH222659   4.245   5.063  15.862 -0.5370  0.3217  0.4345
  415TIP3    H122660   4.189   4.995  15.823  0.7368 -1.0389  0.9655
  415TIP3    H222661   4.317   5.074  15.799  1.0621 -1.2599  1.9548
  416TIP3   OH222662   2.916   1.728   4.814  0.0751 -0.5216  0.3750
  416TIP3    H122663   2.996   1.710   4.862 -0.4564 -1.0636  1.0704
  416TIP3    H222664   2.859   1.654   4.833 -0.5708 -0.1724 -0.1607
  417TIP3   OH222665   1.341   0.249   2.870 -0.1245 -0.4155  0.3372
  417TIP3    H122666   1.351   0.329   2.920  0.7189  1.0547 -2.0724
  417TIP3    H222667   1.392   0.184   2.917  0.4976  0.8722  1.4702
  418TIP3   OH222668   4.717   4.251  12.070 -0.3259 -0.1991 -0.3908
  418TIP3    H122669   4.807   4.256  12.101 -0.8145  1.5864  0.8128
  418TIP3    H222670   4.692   4.159  12.082 -0.0740  0.1526  3.3506
  419TIP3   OH222671   1.459   0.267  12.902 -0.2005  0.5995 -0.1858
  419TIP3    H122672   1.413   0.188  12.930 -0.1365 -0.3573 -2.6262
  419TIP3    H222673   1.392   0.336  12.905 -1.4363 -0.4560 -2.1869
  420TIP3   OH222674   2.251   5.034  16.461  0.3534 -0.2168 -0.4498
  420TIP3    H122675   2.319   5.044  16.528  0.8784  1.5014 -1.2077
  420TIP3    H222676   2.300   5.017  16.380 -0.2148 -0.8329 -0.6697
  421TIP3   OH222677   5.777   1.017  11.854  0.0732  0.1044  0.0903
  421TIP3    H122678   5.709   0.954  11.830  2.0295 -1.4957 -1.4116
  421TIP3    H222679   5.843   0.966  11.900  1.4525  1.1411 -0.6861
  422TIP3   OH222680   2.896   3.478  15.826  0.1726 -0.1207  0.6427
  422TIP3    H122681   2.980   3.455  15.786  0.5317  0.4294  1.0743
  422TIP3    H222682   2.834   3.417  15.787  0.7447 -0.4277  0.1983
  423TIP3   OH222683   0.649   6.612   1.334 -0.2974  0.4711 -0.0770
  423TIP3    H122684   0.703   6.688   1.351  0.1630  0.0930  0.1559
  423TIP3    H222685   0.562   6.636   1.365 -0.0750  0.7741  0.3057
  424TIP3   OH222686   4.461   6.073  13.515 -0.0798  0.7786 -0.0183
  424TIP3    H122687   4.479   6.001  13.575  0.4547  0.8613 -0.0816
  424TIP3    H222688   4.365   6.072  13.505 -0.0429 -0.1815 -0.3477
  425TIP3   OH222689   4.685   2.024   4.198  0.3271  0.2583  0.2372
  425TIP3    H122690   4.711   2.040   4.107  2.4409  0.0585  0.7956
  425TIP3    H222691   4.619   2.092   4.215 -0.4078  0.0386 -1.5563
  426TIP3   OH222692   3.120   1.600   2.500 -0.5610  0.7116 -0.5410
  426TIP3    H122693   3.169   1.591   2.419 -0.2565 -1.2897 -0.1554
  426TIP3    H222694   3.029   1.585   2.475 -0.2575 -1.9334 -0.2191
  427TIP3   OH222695   4.151   1.506  16.976  0.3818 -0.7852  0.8035
  427TIP3    H122696   4.213   1.550  16.918  0.4590 -1.0204  0.7029
  427TIP3    H222697   4.085   1.572  16.996 -0.6006 -1.1826 -0.9765
  428TIP3   OH222698   0.311   5.650  14.241 -0.1556  0.7006 -0.2229
  428TIP3    H122699   0.294   5.591  14.167  0.5118  1.4470 -0.9730
  428TIP3    H222700   0.319   5.591  14.316  0.0878 -0.1393 -0.8924
  429TIP3   OH222701   5.694   6.207   2.265  0.5529 -0.1237 -0.1876
  429TIP3    H122702   5.702   6.138   2.199  0.3622 -0.4078  0.0890
  429TIP3    H222703   5.647   6.166   2.338  2.0358 -0.2356  0.7304
  430TIP3   OH222704   1.333   2.442  14.346 -0.3114 -0.3174 -0.2225
  430TIP3    H122705   1.428   2.428  14.351 -0.2331  0.8780  2.1030
  430TIP3    H222706   1.316   2.451  14.252  1.9294 -0.1574 -0.6500
  431TIP3   OH222707   0.616   1.549  10.740 -0.0114  0.6863 -0.1575
  431TIP3    H122708   0.532   1.525  10.700  0.7997 -0.3363 -1.2711
  431TIP3    H222709   0.595   1.624  10.797 -1.8494 -0.1356  0.2894
  432TIP3   OH222710   2.557   0.714  12.959  0.2958 -0.1477  0.3003
  432TIP3    H122711   2.644   0.729  12.923  0.3790 -0.7484  0.2461
  432TIP3    H222712   2.528   0.801  12.988  0.9852  0.0270  0.4850
  433TIP3   OH222713   5.894   3.786   4.897 -0.7824  0.0131  0.5105
  433TIP3    H122714   5.879   3.827   4.812  0.1221 -1.3777 -0.3361
  433TIP3    H222715   5.807   3.779   4.936 -1.2583  0.2709 -0.4767
  434TIP3   OH222716   1.325   5.315   5.454  0.3943  0.1075 -0.1684
  434TIP3    H122717   1.345   5.316   5.360 -2.3064 -1.2368 -0.8017
  434TIP3    H222718   1.230   5.308   5.458  0.5892 -1.5094  2.6714
  435TIP3   OH222719   0.672   0.909   3.395  0.6230 -0.1612 -0.1213
  435TIP3    H122720   0.622   0.912   3.476  1.5716  1.7332  0.4362
  435TIP3    H222721   0.606   0.908   3.326 -0.1824 -0.9631  0.6482
  436TIP3   OH222722   2.134   2.289   4.506 -0.4518 -0.5938 -0.0292
  436TIP3    H122723   2.191   2.330   4.441  0.9635 -2.1120  0.2007
  436TIP3    H222724   2.145   2.195   4.491 -1.1215 -0.9420  1.5323
  437TIP3   OH222725   5.611   1.501  13.797 -0.1003  0.2959  0.6644
  437TIP3    H122726   5.644   1.519  13.709 -0.0129  1.4359  0.9156
  437TIP3    H222727   5.543   1.435  13.785 -0.5957  0.9769 -0.3389
  438TIP3   OH222728   5.556   1.043   5.912 -0.1915  0.0539 -0.0979
  438TIP3    H122729   5.569   1.021   6.004 -0.1403 -0.3243 -0.1936
  438TIP3    H222730   5.465   1.016   5.894 -1.0963  2.5395  0.5323
  439TIP3   OH222731   6.318   3.697  11.711 -0.2321  0.6437 -0.7019
  439TIP3    H122732   6.249   3.648  11.667 -0.6928  1.1197 -0.5159
  439TIP3    H222733   6.279   3.723  11.794  0.7553 -0.5548  0.1482
  440TIP3   OH222734   0.307   1.598   0.985  0.1669 -0.4127  0.0299
  440TIP3    H122735   0.372   1.648   0.934 -0.2887  1.5054  1.2560
  440TIP3    H222736   0.236   1.582   0.924  0.6480 -0.1773 -0.5984
  441TIP3   OH222737   6.410   3.005   0.577 -0.5781 -0.4738  1.0715
  441TIP3    H122738   6.433   3.097   0.576  0.0446 -0.6127 -2.8292
  441TIP3    H222739   6.493   2.959   0.582 -0.8137 -0.8592  1.5240
  442TIP3   OH222740   3.210   1.843   0.884  0.2380 -0.3733 -0.7845
  442TIP3    H122741   3.180   1.817   0.971  0.1541  1.6878 -0.1867
  442TIP3    H222742   3.130   1.840   0.830  0.1774 -1.0572 -0.6647
  443TIP3   OH222743   2.803   6.547   1.238 -0.0732 -0.2795 -0.8182
  443TIP3    H122744   2.776   6.565   1.328 -2.5148  0.0060 -1.5849
  443TIP3    H222745   2.892   6.582   1.233  0.3368 -0.8505  1.6524
  444TIP3   OH222746   0.116   0.647  17.045 -0.5786 -0.1168 -0.3656
  444TIP3    H122747   0.082   0.687  16.965 -0.2527  0.9025 -0.0020
  444TIP3    H222748   0.039   0.612  17.090 -0.9327  0.5577 -0.4434
  445TIP3   OH222749   0.544   3.691  12.721  0.4311  0.4739  0.1346
  445TIP3    H122750   0.503   3.772  12.689  0.5119  0.8505  0.9919
  445TIP3    H222751   0.473   3.644  12.764  0.3297 -0.0296 -0.5678
  446TIP3   OH222752   6.419   0.955   3.938 -0.6257  0.6964  0.2260
  446TIP3    H122753   6.440   0.865   3.914 -0.2557  0.2652  2.0878
  446TIP3    H222754   6.471   0.972   4.016  0.4578  3.0474 -0.9357
  447TIP3   OH222755   0.843   4.368   4.498 -0.1312 -0.5667 -0.3809
  447TIP3    H122756   0.756   4.331   4.484 -0.8691  1.1733 -0.4829
  447TIP3    H222757   0.864   4.347   4.589 -1.5966  0.8822  0.3155
  448TIP3   OH222758   4.096   1.768   3.213 -0.3314 -0.4339 -0.3078
  448TIP3    H122759   4.187   1.748   3.230 -0.0712  0.0005 -1.1475
  448TIP3    H222760   4.086   1.860   3.236  0.1599  0.3080 -2.9346
  449TIP3   OH222761   0.605   2.411  16.219  0.0180 -0.6076 -0.0553
  449TIP3    H122762   0.576   2.339  16.276 -4.2438  2.7879  2.3566
  449TIP3    H222763   0.573   2.386  16.132 -3.0616 -0.8573  1.0891
  450TIP3   OH222764   1.134   5.968  12.137  0.2730  0.6078  0.4844
  450TIP3    H122765   1.046   5.964  12.173 -0.0888  1.9946 -0.1901
  450TIP3    H222766   1.121   5.962  12.042  0.9406  0.3883  0.4064
  451TIP3   OH222767   0.129   2.076  14.426  0.3799  0.1285  0.0671
  451TIP3    H122768   0.124   2.105  14.517 -1.1772 -0.2925  0.1352
  451TIP3    H222769   0.120   1.981  14.431  0.0386  0.1261 -0.5491
  452TIP3   OH222770   3.401   5.340  16.853  0.0036  0.7722  0.2944
  452TIP3    H122771   3.352   5.422  16.863 -0.4537  0.2758  2.6704
  452TIP3    H222772   3.366   5.300  16.774 -1.6350  1.6362  0.5655
  453TIP3   OH222773   1.650   5.217   4.953 -0.2539  0.0053  0.2711
  453TIP3    H122774   1.630   5.305   4.920 -1.0327 -0.2911 -0.0783
  453TIP3    H222775   1.589   5.160   4.906  0.5251 -0.7710  0.1965
  454TIP3   OH222776   5.522   0.531   5.918  0.5366 -0.0495 -0.3048
  454TIP3    H122777   5.606   0.552   5.959  1.0609  0.6410 -1.6634
  454TIP3    H222778   5.535   0.556   5.826 -0.7641 -1.0482 -0.7613
  455TIP3   OH222779   5.365   0.105  15.485  0.3720 -0.1444 -0.0669
  455TIP3    H122780   5.333   0.016  15.470 -1.9012  0.6993 -0.3962
  455TIP3    H222781   5.393   0.135  15.398  1.5248 -0.6737  0.1161
  456TIP3   OH222782   0.825   1.873   1.100 -0.1611  0.3831  0.3690
  456TIP3    H122783   0.901   1.928   1.115 -0.9273  1.4042  0.5974
  456TIP3    H222784   0.860   1.784   1.093  1.0753  0.8793  0.1292
  457TIP3   OH222785   5.492   5.883   3.551  0.1567  0.3422  0.2637
  457TIP3    H122786   5.577   5.914   3.520  0.8602  0.5285  2.3096
  457TIP3    H222787   5.432   5.898   3.477  1.9680 -0.1703 -1.3452
  458TIP3   OH222788   3.292   2.167  14.908  0.5883  0.1083  0.3663
  458TIP3    H122789   3.272   2.213  14.990  1.0308 -0.8775  1.0430
  458TIP3    H222790   3.289   2.074  14.932 -2.7662 -0.3528 -1.5036
  459TIP3   OH222791   1.655   1.380  16.176  0.2113 -0.0271 -0.3223
  459TIP3    H122792   1.635   1.290  16.151 -0.2010  0.8196 -3.2617
  459TIP3    H222793   1.672   1.424  16.093  1.2140  2.4245  1.1384
  460TIP3   OH222794   5.894   5.360  16.121  0.0168 -0.5058 -0.4673
  460TIP3    H122795   5.966   5.414  16.151  0.4791 -2.3430  1.9170
  460TIP3    H222796   5.935   5.277  16.094 -1.0627 -1.1735 -0.1058
  461TIP3   OH222797   4.106   4.044   3.704  0.0595 -0.1868 -0.1628
  461TIP3    H122798   4.020   4.043   3.661  0.2433  1.1923 -0.5937
  461TIP3    H222799   4.129   4.136   3.708  1.6492 -0.5679 -0.2847
  462TIP3   OH222800   1.096   3.845   2.869  0.0716 -0.1967 -0.4891
  462TIP3    H122801   1.132   3.854   2.957  0.1167 -1.9874 -0.2875
  462TIP3    H222802   1.019   3.902   2.868 -0.6518 -1.1234  1.1421
  463TIP3   OH222803   2.861   6.531  11.597  0.0025  0.0575  0.1863
  463TIP3    H122804   2.930   6.507  11.535 -1.1822  1.3373 -1.7038
  463TIP3    H222805   2.787   6.474  11.574 -0.9194  1.5139 -0.5782
  464TIP3   OH222806   1.022   2.297  14.247 -0.8242 -0.5071 -0.0995
  464TIP3    H122807   1.062   2.240  14.182  0.9273 -0.4172  0.8679
  464TIP3    H222808   1.057   2.266  14.331  0.4276  2.1365  0.4224
  465TIP3   OH222809   2.736   5.078   0.773 -0.6164 -0.9025 -0.4354
  465TIP3    H122810   2.651   5.070   0.816 -0.5161  1.1652  0.2086
  465TIP3    H222811   2.800   5.080   0.844 -0.3431  1.2446 -0.7138
  466TIP3   OH222812   5.217   0.390   1.061  0.1101 -0.1280 -0.3868
  466TIP3    H122813   5.252   0.334   0.992 -1.7504 -0.4446 -1.1120
  466TIP3    H222814   5.286   0.454   1.078  0.5231  0.0745 -2.6900
  467TIP3   OH222815   3.805   2.430  15.923  0.2538 -0.4703 -0.8283
  467TIP3    H122816   3.856   2.350  15.908 -0.3398 -1.1891  0.9254
  467TIP3    H222817   3.752   2.410  16.000 -0.7266  1.2226 -1.0617
  468TIP3   OH222818   0.570   4.674   5.455 -0.0276  0.7541  0.1301
  468TIP3    H122819   0.583   4.728   5.533  1.9956 -1.7499  1.5937
  468TIP3    H222820   0.643   4.696   5.398 -1.4115  2.4554 -1.0516
  469TIP3   OH222821   2.697   5.602   3.727  0.2396 -0.3416 -0.0044
  469TIP3    H122822   2.627   5.588   3.791  1.2763 -0.4501  1.1164
  469TIP3    H222823   2.652   5.637   3.650 -0.6486  2.6973  1.8423
  470TIP3   OH222824   2.527   4.689   2.612 -0.3666 -0.8284 -0.2091
  470TIP3    H122825   2.608   4.671   2.659  1.1487 -1.3729 -2.9117
  470TIP3    H222826   2.528   4.628   2.538 -2.0836  0.7511 -1.5984
  471TIP3   OH222827   5.260   5.690  14.902  0.0327  0.4926  0.0235
  471TIP3    H122828   5.181   5.646  14.873  0.5240  0.4967 -1.3567
  471TIP3    H222829   5.292   5.736  14.824  0.2988  2.1344  1.0718
  472TIP3   OH222830   6.262   1.820   0.610  0.9717 -0.0811 -0.0435
  472TIP3    H122831   6.187   1.813   0.669  2.2746  0.6825  1.7559
  472TIP3    H222832   6.338   1.808   0.667  2.3355  2.4731 -1.2432
  473TIP3   OH222833   5.216   4.337   3.118  0.2226 -0.0682  0.4491
  473TIP3    H122834   5.261   4.326   3.034  1.6226  0.3382  1.1316
  473TIP3    H222835   5.134   4.380   3.096  1.4919  1.9116 -0.4877
  474TIP3   OH222836   6.785   6.222   3.912 -0.3844  0.0193 -0.1401
  474TIP3    H122837   6.834   6.182   3.840  1.4183  1.3597  0.2957
  474TIP3    H222838   6.791   6.159   3.983  1.4574  0.4964  0.1693
  475TIP3   OH222839   6.424   0.339  14.970  0.1856  0.1990  0.0095
  475TIP3    H122840   6.438   0.280  14.896 -0.5450  1.4678 -1.1526
  475TIP3    H222841   6.510   0.379  14.985  0.3336 -0.0551 -0.1489
  476TIP3   OH222842   1.620   5.938   2.014  0.3104 -0.0667  0.5133
  476TIP3    H122843   1.529   5.944   1.985 -0.0305 -1.4417  1.2831
  476TIP3    H222844   1.644   6.029   2.032 -1.4982  0.1580  2.0476
  477TIP3   OH222845   0.867   0.423  13.988 -0.5463 -0.0657  0.0702
  477TIP3    H122846   0.773   0.418  14.009 -0.6719  0.5700 -0.3329
  477TIP3    H222847   0.911   0.414  14.072 -0.9125 -2.2428  0.0590
  478TIP3   OH222848   0.027   5.694   1.892 -0.4530 -0.4380  0.3419
  478TIP3    H122849   0.105   5.747   1.878  0.1366 -0.8992  1.7836
  478TIP3    H222850   0.037   5.620   1.831  0.4865 -0.7566  0.8676
  479TIP3   OH222851   2.399   3.676   6.438  0.1640 -0.0211 -0.2593
  479TIP3    H122852   2.438   3.622   6.369 -0.5231 -0.7569 -0.0866
  479TIP3    H222853   2.418   3.766   6.412  4.2194 -0.3614  1.1387
  480TIP3   OH222854   5.416   3.845  13.186  0.1565 -0.2468 -0.3913
  480TIP3    H122855   5.430   3.831  13.279 -0.2346  2.7557  0.1812
  480TIP3    H222856   5.446   3.934  13.170 -1.0897 -0.2051 -2.8602
  481TIP3   OH222857   5.934   2.372  12.495 -0.1657  0.2761 -0.0577
  481TIP3    H122858   5.941   2.463  12.468  1.0910  0.7415  1.7593
  481TIP3    H222859   5.940   2.374  12.590  0.2141 -1.7294 -0.0103
  482TIP3   OH222860   4.710   1.911   0.086  0.3808  0.0419 -0.1672
  482TIP3    H122861   4.732   1.844   0.151  1.1189 -0.3530 -0.8109
  482TIP3    H222862   4.658   1.865   0.021 -1.6359  0.7726  0.8829
  483TIP3   OH222863   6.489   6.543  16.813  0.5276  0.2307 -0.1996
  483TIP3    H122864   6.527   6.575  16.731 -0.1541  4.5058  1.0601
  483TIP3    H222865   6.397   6.569  16.808  0.6429  1.1965  2.2209
  484TIP3   OH222866   1.348   3.131  13.208  0.0209  0.2632 -0.1744
  484TIP3    H122867   1.302   3.212  13.231 -1.5269 -0.0052 -2.1998
  484TIP3    H222868   1.308   3.064  13.262  1.0092  0.7603  1.1954
  485TIP3   OH222869   2.886   3.246   0.863  0.5171 -0.5176 -0.3517
  485TIP3    H122870   2.902   3.193   0.786  1.2358 -0.4174 -0.2720
  485TIP3    H222871   2.968   3.244   0.912  0.4915  0.5152 -0.2575
  486TIP3   OH222872   2.045   0.997   5.374 -0.1959  0.3256  0.0373
  486TIP3    H122873   2.092   0.914   5.368 -0.1133  0.3723  0.0309
  486TIP3    H222874   2.114   1.062   5.390 -0.3693  0.2409  1.2210
  487TIP3   OH222875   1.359   0.406   1.570 -0.2151  0.2750 -0.1493
  487TIP3    H122876   1.273   0.364   1.577 -0.2049  0.3920  0.7274
  487TIP3    H222877   1.421   0.337   1.595 -0.0536  0.1797 -0.8195
  488TIP3   OH222878   2.588   5.846   6.191 -0.4711  0.0710  0.3935
  488TIP3    H122879   2.617   5.902   6.263  0.5726 -1.8275  1.4945
  488TIP3    H222880   2.640   5.875   6.116 -0.3601  0.9607  0.8064
  489TIP3   OH222881   3.862   0.518   4.016  0.0871 -0.2387  0.3511
  489TIP3    H122882   3.889   0.523   4.108  0.6866 -1.4444  0.2548
  489TIP3    H222883   3.778   0.563   4.013 -0.1729 -0.6168  1.5926
  490TIP3   OH222884   6.311   1.460  13.959  0.4557  0.8294 -0.1683
  490TIP3    H122885   6.235   1.490  13.909 -1.6908 -2.3846  1.0265
  490TIP3    H222886   6.308   1.512  14.040 -1.4313 -0.3539  0.5572
  491TIP3   OH222887   2.358   4.712  15.596 -0.1791 -0.4771  0.2870
  491TIP3    H122888   2.419   4.640  15.614  0.2606 -0.4644 -1.0602
  491TIP3    H222889   2.370   4.730  15.502 -4.2222 -2.2948 -0.6954
  492TIP3   OH222890   2.837   6.319  12.233 -0.4682 -0.0304 -0.3250
  492TIP3    H122891   2.844   6.304  12.327 -0.3929  1.8176 -0.0237
  492TIP3    H222892   2.919   6.362  12.209  0.1881 -1.8777 -1.5424
  493TIP3   OH222893   4.935   3.415   4.604 -0.0100 -0.1329 -0.3732
  493TIP3    H122894   4.963   3.383   4.519  1.2128 -0.6184  0.2033
  493TIP3    H222895   4.982   3.360   4.667 -0.3515  0.6915  0.6152
  494TIP3   OH222896   2.291   5.724  13.502 -0.0731  0.2858 -0.3800
  494TIP3    H122897   2.205   5.713  13.461 -0.6897  0.1136  0.9518
  494TIP3    H222898   2.307   5.641  13.547  0.5190  0.5476 -0.1028
  495TIP3   OH222899   4.294   4.328   3.464  0.9706  0.4172 -0.1871
  495TIP3    H122900   4.322   4.239   3.442  0.2129  0.0093  0.5089
  495TIP3    H222901   4.296   4.375   3.380 -0.4706 -0.7516 -0.9022
  496TIP3   OH222902   4.533   3.659   5.056 -0.8188 -0.3369 -0.0000
  496TIP3    H122903   4.512   3.685   5.146  0.6592 -1.1362  0.6045
  496TIP3    H222904   4.585   3.731   5.022 -1.2332 -0.1110 -0.1528
  497TIP3   OH222905   5.318   2.347  11.826 -0.4210  0.1001  0.3394
  497TIP3    H122906   5.390   2.406  11.849  0.3752 -0.6018 -0.2698
  497TIP3    H222907   5.266   2.396  11.762  0.2957  0.1142 -0.2455
  498TIP3   OH222908   2.555   1.633  15.959  0.3425  0.0163 -0.4683
  498TIP3    H122909   2.499   1.557  15.941 -1.6614  1.3119  0.1768
  498TIP3    H222910   2.615   1.636  15.884  0.0368 -1.8125 -0.8216
  499TIP3   OH222911   1.448   2.808   3.817 -0.4852 -0.0673  0.1896
  499TIP3    H122912   1.406   2.733   3.774 -0.2411  0.1942 -0.5077
  499TIP3    H222913   1.383   2.877   3.814  0.4695  0.7858 -2.1673
  500TIP3   OH222914   2.781   2.109  10.743  0.3276  0.0322 -0.9638
  500TIP3    H122915   2.750   2.175  10.681 -0.2521 -0.5945 -1.3349
  500TIP3    H222916   2.875   2.126  10.750  0.3203  0.3762 -1.6786
  501TIP3   OH222917   1.401   4.133  14.203  0.0700  0.3440 -0.2752
  501TIP3    H122918   1.384   4.105  14.293  1.0812  0.8166  0.0667
  501TIP3    H222919   1.417   4.227  14.211  1.2420  0.1898 -0.8095
  502TIP3   OH222920   0.475   1.099  15.489  0.5899  0.0039  0.1740
  502TIP3    H122921   0.382   1.085  15.472  0.7591 -0.7636 -0.1706
  502TIP3    H222922   0.496   1.038  15.560  0.6114  0.8855  0.9350
  503TIP3   OH222923   1.352   6.634   0.701  0.4526  0.6018  0.1316
  503TIP3    H122924   1.375   6.726   0.694  0.8908  0.5000  0.2085
  503TIP3    H222925   1.347   6.617   0.795 -0.7873  0.8309  0.1127
  504TIP3   OH222926   6.214   5.138  11.675  0.2990 -0.2146 -0.0583
  504TIP3    H122927   6.121   5.115  11.678 -0.0602  1.0340 -0.9996
  504TIP3    H222928   6.226   5.198  11.749 -0.2360  1.6471 -1.4630
  505TIP3   OH222929   5.786   1.859  16.037 -0.7331 -0.0465 -0.6781
  505TIP3    H122930   5.700   1.816  16.030 -0.9780  0.5471 -1.3137
  505TIP3    H222931   5.840   1.812  15.973 -0.7399 -0.0438 -0.6856
  506TIP3   OH222932   5.322   0.321  14.978  0.0713  0.3807 -0.0987
  506TIP3    H122933   5.284   0.409  14.973  0.8041  0.6402 -1.0972
  506TIP3    H222934   5.266   0.275  15.041 -0.5322  1.4494  0.1585
  507TIP3   OH222935   1.013   0.785  15.034  0.1744  0.3354 -0.3734
  507TIP3    H122936   0.955   0.835  15.091  0.7220 -0.0545  0.5464
  507TIP3    H222937   0.978   0.798  14.946  0.4869  2.5806 -0.1995
  508TIP3   OH222938   5.545   1.709   6.348  0.0876 -0.6685  0.6461
  508TIP3    H122939   5.627   1.680   6.387  0.4800  0.3717  0.6125
  508TIP3    H222940   5.564   1.716   6.254  0.2453  0.4781  0.7530
  509TIP3   OH222941   3.411   5.385  14.631  0.4343  0.4645 -0.1559
  509TIP3    H122942   3.400   5.417  14.720 -1.5980 -0.8619  0.1046
  509TIP3    H222943   3.503   5.361  14.625  0.7797  1.4037  1.2940
  510TIP3   OH222944   6.419   5.106  10.884 -0.2414 -0.3354  0.5017
  510TIP3    H122945   6.488   5.157  10.927 -1.3340 -0.4820  2.5024
  510TIP3    H222946   6.389   5.161  10.812  1.7261 -0.1360 -0.1986
  511TIP3   OH222947   5.295   4.650   5.700 -0.0734  0.1039  0.2695
  511TIP3    H122948   5.244   4.629   5.778 -1.0194  3.3921  0.5713
  511TIP3    H222949   5.377   4.601   5.711 -1.5096 -2.0700  1.6854
  512TIP3   OH222950   4.533   5.709   1.525  0.1710  0.0606  0.1460
  512TIP3    H122951   4.617   5.691   1.567  0.0827 -1.6252 -0.3654
  512TIP3    H222952   4.531   5.805   1.516  1.5826  0.1969  1.0649
  513TIP3   OH222953   3.967   3.542  12.241 -0.2281  0.4150  0.2722
  513TIP3    H122954   4.029   3.594  12.291  0.3095 -0.5870  0.6646
  513TIP3    H222955   4.021   3.479  12.193 -0.9046 -0.2885  0.4129
  514TIP3   OH222956   4.047   6.634  14.239 -0.1614  0.1049  0.4919
  514TIP3    H122957   4.011   6.648  14.151  1.4921 -0.6241 -0.3273
  514TIP3    H222958   3.985   6.574  14.281 -0.1705 -0.7873 -0.7400
  515TIP3   OH222959   6.754   6.082   3.379  0.6074  0.1771  0.3752
  515TIP3    H122960   6.764   6.108   3.287  1.4669 -1.0547  0.1199
  515TIP3    H222961   6.830   6.027   3.397  0.6509  0.7250  1.9457
  516TIP3   OH222962   1.167   6.740  11.508 -0.1678  0.2501  0.0175
  516TIP3    H122963   1.166   6.782  11.594  0.3343  2.0444 -0.8188
  516TIP3    H222964   1.162   6.813  11.446  0.9774 -0.9238 -1.4949
  517TIP3   OH222965   6.108   6.514   3.787 -0.0807 -0.5310  0.7054
  517TIP3    H122966   6.015   6.536   3.790  0.7202  3.6164 -1.1811
  517TIP3    H222967   6.150   6.578   3.845  1.8030 -0.7910 -0.3234
  518TIP3   OH222968   0.189   1.207  12.382 -0.3627  0.1976 -0.0085
  518TIP3    H122969   0.209   1.116  12.403  0.1391  0.2869 -0.0839
  518TIP3    H222970   0.167   1.246  12.467 -1.3419 -0.1730 -0.0781
  519TIP3   OH222971   3.030   2.277   2.857 -0.2414  0.3315 -0.0129
  519TIP3    H122972   3.066   2.216   2.792 -0.3013 -0.1748  0.4269
  519TIP3    H222973   2.959   2.229   2.899 -0.7702  0.9662 -0.1666
  520TIP3   OH222974   0.919   2.717  11.716 -0.1391 -0.4536  0.1976
  520TIP3    H122975   0.837   2.734  11.762 -0.6104 -1.5784 -0.2064
  520TIP3    H222976   0.943   2.629  11.742  2.8307  1.1476  3.1110
  521TIP3   OH222977   2.328   1.232   5.757 -0.0699 -0.4981 -0.0305
  521TIP3    H122978   2.342   1.139   5.737 -0.1238 -0.4574 -0.2574
  521TIP3    H222979   2.398   1.254   5.819  1.5478 -0.0117 -1.9941
  522TIP3   OH222980   4.872   1.609  16.419  0.4858 -0.3603 -0.4236
  522TIP3    H122981   4.787   1.577  16.452  0.2786 -1.3389 -1.8636
  522TIP3    H222982   4.882   1.567  16.334  0.8359  2.3978 -1.8026
  523TIP3   OH222983   3.319   1.745   0.362  0.2021  0.8593 -0.1298
  523TIP3    H122984   3.409   1.712   0.372 -0.6767 -2.1358 -1.5133
  523TIP3    H222985   3.327   1.815   0.297  1.8165  2.0606  1.3178
  524TIP3   OH222986   4.298   4.443  17.085  0.3726 -0.5600 -0.1116
  524TIP3    H122987   4.247   4.366  17.059  0.9129 -0.0148 -2.9317
  524TIP3    H222988   4.245   4.518  17.058  0.3201  0.0963  1.7038
  525TIP3   OH222989   2.148   1.199  16.077  0.0842 -0.1161 -0.6876
  525TIP3    H122990   2.166   1.224  16.168 -2.0548  1.6812 -0.7214
  525TIP3    H222991   2.066   1.151  16.082  0.0518 -0.1656 -1.6655
  526TIP3   OH222992   6.107   3.250   3.791 -0.2336 -0.3442 -0.4267
  526TIP3    H122993   6.125   3.221   3.880 -1.3122 -0.1216 -0.1332
  526TIP3    H222994   6.108   3.345   3.795 -0.1460 -0.3311 -0.6914
  527TIP3   OH222995   1.539   4.309   0.738  0.1726  0.2065  0.8484
  527TIP3    H122996   1.476   4.380   0.721 -0.4665 -0.4157  0.5884
  527TIP3    H222997   1.593   4.306   0.659 -1.7827 -1.6288 -0.4815
  528TIP3   OH222998   5.626   1.067   6.195 -0.1493  0.3312 -0.3131
  528TIP3    H122999   5.555   1.107   6.245  0.7549  0.9529  0.5059
  528TIP3    H223000   5.634   0.979   6.230  0.3475  0.7008  0.5243
  529TIP3   OH223001   3.478   6.360  10.272  0.1042  0.3343 -0.1323
  529TIP3    H123002   3.548   6.420  10.299  1.6252 -1.9751  1.1750
  529TIP3    H223003   3.509   6.273  10.299 -3.8431 -0.5929  1.6209
  530TIP3   OH223004   5.532   5.824  11.352  0.0847 -0.6572  0.0838
  530TIP3    H123005   5.578   5.882  11.291 -0.8600 -0.4800 -0.4649
  530TIP3    H223006   5.543   5.737  11.315  0.7429 -0.7272  0.4347
  531TIP3   OH223007   4.120   1.568   3.465 -0.1859  0.2561  0.3598
  531TIP3    H123008   4.027   1.548   3.458 -0.5450  2.5350 -2.7128
  531TIP3    H223009   4.132   1.646   3.410  3.6571 -0.4030  0.1039
  532TIP3   OH223010   6.672   2.446  14.445  0.2259  0.0319 -0.1956
  532TIP3    H123011   6.655   2.353  14.457 -1.4509 -0.0772 -2.9376
  532TIP3    H223012   6.764   2.451  14.419  0.0967 -0.9361 -0.8366
  533TIP3   OH223013   3.750   6.211   0.888 -0.5277  0.2367  0.0252
  533TIP3    H123014   3.704   6.232   0.807  0.6785  1.5947 -0.3275
  533TIP3    H223015   3.766   6.296   0.930 -0.0301 -0.3516  1.0568
  534TIP3   OH223016   6.465   5.635  13.564 -0.2375 -0.3927 -0.4011
  534TIP3    H123017   6.511   5.675  13.490  0.6967 -0.9860 -0.1492
  534TIP3    H223018   6.473   5.541  13.548 -2.1961 -0.5131 -0.8596
  535TIP3   OH223019   4.712   6.281   2.863 -0.0916  0.2667  0.1641
  535TIP3    H123020   4.784   6.301   2.803 -0.6020  1.2850 -0.1136
  535TIP3    H223021   4.634   6.276   2.807 -0.5917  1.3580  0.7463
  536TIP3   OH223022   5.535   6.422   0.855  0.5301  0.2706 -0.0989
  536TIP3    H123023   5.553   6.459   0.942  0.4826  1.2040 -0.4819
  536TIP3    H223024   5.442   6.401   0.857  0.1830  1.7277 -0.4487
  537TIP3   OH223025   1.407   0.397  14.877  0.3837 -0.4825 -0.1638
  537TIP3    H123026   1.328   0.406  14.824 -0.3165 -1.4245  0.6960
  537TIP3    H223027   1.390   0.451  14.954  0.7720 -0.3128 -0.1965
  538TIP3   OH223028   2.134   4.347  14.311  0.5760 -0.6315  0.0887
  538TIP3    H123029   2.070   4.398  14.361  0.3152  1.2458 -2.1045
  538TIP3    H223030   2.213   4.349  14.365  0.7519  2.5923 -0.1673
  539TIP3   OH223031   2.337   2.729   4.924  0.0497  0.2143 -0.3821
  539TIP3    H123032   2.284   2.769   4.855 -1.3924  0.3132  0.7601
  539TIP3    H223033   2.278   2.665   4.965  1.0651 -0.2186  0.4084
  540TIP3   OH223034   4.253   3.038  14.302 -0.0691 -0.2969 -0.4160
  540TIP3    H123035   4.227   3.118  14.257 -0.0457  0.3365  0.6848
  540TIP3    H223036   4.348   3.032  14.287  0.2420  0.8480  1.0050
  541TIP3   OH223037   6.319   0.607  14.965 -0.4392  0.4852 -0.0630
  541TIP3    H123038   6.338   0.513  14.966 -0.0098  0.5768  0.5586
  541TIP3    H223039   6.251   0.617  14.898 -0.8719 -0.3404  0.2522
  542TIP3   OH223040   2.859   0.157  16.175  0.3355  0.0763  0.2378
  542TIP3    H123041   2.863   0.068  16.209 -1.0453 -0.2727 -0.4992
  542TIP3    H223042   2.768   0.170  16.150  0.5543  1.6333  0.1611
  543TIP3   OH223043   1.896   5.726  11.887 -0.3599  0.1556 -0.3601
  543TIP3    H123044   1.846   5.771  11.955  0.7694  0.1221  0.5001
  543TIP3    H223045   1.916   5.640  11.924  1.0157  0.4571 -0.3736
  544TIP3   OH223046   4.476   2.283  13.100  0.5556 -0.0318 -0.1398
  544TIP3    H123047   4.489   2.372  13.068 -0.6996  0.7477  1.4392
  544TIP3    H223048   4.384   2.281  13.128  1.1993 -1.1319  1.9586
  545TIP3   OH223049   0.590   3.787   5.064 -0.4529  0.1357 -0.8472
  545TIP3    H123050   0.538   3.720   5.021 -0.1114 -1.1495  0.6976
  545TIP3    H223051   0.607   3.752   5.151  0.7563  1.7037 -0.4295
  546TIP3   OH223052   0.134   3.391  11.396  0.3089  0.0556  0.0774
  546TIP3    H123053   0.073   3.459  11.426  3.1162  2.2408  0.9891
  546TIP3    H223054   0.171   3.426  11.315  0.5700 -1.1444 -0.3336
  547TIP3   OH223055   0.256   1.223   4.043  0.0737  0.0659  0.3190
  547TIP3    H123056   0.199   1.235   4.119  0.1270 -0.5329  0.4611
  547TIP3    H223057   0.206   1.259   3.970 -0.5043 -0.4817  0.4356
  548TIP3   OH223058   3.663   5.934  14.872 -0.0485 -0.3748 -0.0678
  548TIP3    H123059   3.599   5.974  14.813  0.6512 -0.8698 -1.1872
  548TIP3    H223060   3.687   6.004  14.933 -0.7568  0.1490 -0.3899
  549TIP3   OH223061   1.747   4.887  16.942  0.3663 -0.0778  0.1597
  549TIP3    H123062   1.805   4.818  16.974 -1.9466 -2.0448  0.2430
  549TIP3    H223063   1.738   4.869  16.849 -0.1067  0.2172  0.1490
  550TIP3   OH223064   0.030   5.662   1.391 -0.0844 -0.4560  0.3398
  550TIP3    H123065  -0.024   5.629   1.319 -0.3064  0.1114  0.2490
  550TIP3    H223066   0.028   5.591   1.455 -0.6389 -0.5912  0.1821
  551TIP3   OH223067   2.166   1.205  15.271 -0.1438 -0.4532  0.1613
  551TIP3    H123068   2.124   1.120  15.285  1.8033 -1.5348 -0.3254
  551TIP3    H223069   2.168   1.215  15.176 -1.7360  0.8627  0.2539
  552TIP3   OH223070   0.191   4.472   5.096 -0.4626 -1.0781  0.1569
  552TIP3    H123071   0.224   4.439   5.179  3.4079 -1.6349 -1.4816
  552TIP3    H223072   0.136   4.402   5.061  1.8209 -2.8908  0.0698
  553TIP3   OH223073   5.648   3.968  15.138  0.0173 -0.0912 -0.1031
  553TIP3    H123074   5.636   3.946  15.045 -1.3867 -3.0494  0.7343
  553TIP3    H223075   5.559   3.983  15.170  0.4277  0.0191  0.9846
  554TIP3   OH223076   2.224   6.492  15.211 -0.1428 -0.0043  0.3134
  554TIP3    H123077   2.220   6.494  15.116 -0.0043  0.5221  0.3190
  554TIP3    H223078   2.253   6.403  15.232 -0.8587 -0.3447 -0.1075
  555TIP3   OH223079   3.090   4.702  16.757  0.0565 -0.3310  0.0802
  555TIP3    H123080   3.092   4.630  16.695  1.6588 -0.5841  0.3907
  555TIP3    H223081   3.179   4.739  16.754 -1.0853  2.4778 -1.0431
  556TIP3   OH223082   4.423   2.706   2.535  0.0122 -0.1689 -0.7556
  556TIP3    H123083   4.490   2.693   2.468 -0.8297 -2.0422 -1.2737
  556TIP3    H223084   4.401   2.617   2.564 -0.1233  0.5805  1.5389
  557TIP3   OH223085   1.298   1.238   5.599  0.9128 -0.0828 -0.2122
  557TIP3    H123086   1.368   1.273   5.654  0.7004  0.5964 -0.3709
  557TIP3    H223087   1.342   1.179   5.538  1.1815 -0.6558  0.5247
  558TIP3   OH223088   6.714   2.985   0.604 -0.2447 -0.5890 -0.5441
  558TIP3    H123089   6.790   2.942   0.565 -0.2166  0.4045 -1.6283
  558TIP3    H223090   6.693   2.932   0.681  0.1937 -2.1340 -1.4568
  559TIP3   OH223091   5.218   4.368   1.788  0.2892 -0.8576  0.3173
  559TIP3    H123092   5.215   4.463   1.792 -0.4381 -0.8405 -0.4329
  559TIP3    H223093   5.311   4.346   1.798  0.5790 -0.0217 -0.4970
  560TIP3   OH223094   0.623   3.102  14.526  0.7085  0.3834 -0.4176
  560TIP3    H123095   0.539   3.068  14.559  0.9051 -1.4939 -1.7839
  560TIP3    H223096   0.676   3.114  14.605 -1.1445  2.5162  0.5617
  561TIP3   OH223097   0.658   6.622   0.604 -0.1458  0.0703  0.3634
  561TIP3    H123098   0.753   6.629   0.610 -0.1459 -1.1122  2.0256
  561TIP3    H223099   0.631   6.586   0.688 -2.0298 -0.0513 -0.2664
  562TIP3   OH223100   4.096   5.852  14.944 -0.4844 -0.3055  0.8639
  562TIP3    H123101   4.088   5.869  14.850  1.6685 -0.4492  0.6280
  562TIP3    H223102   4.094   5.939  14.984 -2.1880 -0.2889  0.7662
  563TIP3   OH223103   1.677   3.283   4.183 -0.3802  0.1310  0.2152
  563TIP3    H123104   1.632   3.200   4.166 -0.3891 -0.1310  1.5103
  563TIP3    H223105   1.763   3.273   4.141 -0.2088 -0.6991  0.7656
  564TIP3   OH223106   0.117   3.199  15.628 -0.1257  0.0034  0.0522
  564TIP3    H123107   0.157   3.153  15.702 -0.7207 -2.5190 -1.1339
  564TIP3    H223108   0.170   3.278  15.618 -0.1037  0.4748  3.2092
  565TIP3   OH223109   2.498   5.644   2.176  0.1780 -0.2929  0.3153
  565TIP3    H123110   2.413   5.641   2.220  0.4369  1.1373  0.9152
  565TIP3    H223111   2.562   5.641   2.247  0.5964  2.3807  0.0776
  566TIP3   OH223112   3.771   4.299  14.405 -0.8969  0.1560 -0.2230
  566TIP3    H123113   3.728   4.312  14.490  0.1192  2.3379 -0.0029
  566TIP3    H223114   3.850   4.248  14.426 -0.7862  0.4577  0.1025
  567TIP3   OH223115   6.119   6.409   1.449 -0.3368  0.1474  0.2614
  567TIP3    H123116   6.189   6.434   1.509  0.1120  0.7148 -0.4973
  567TIP3    H223117   6.107   6.485   1.393 -2.6505  0.6437  1.3850
  568TIP3   OH223118   4.873   5.386  15.932 -0.7239  0.1863 -0.0861
  568TIP3    H123119   4.869   5.299  15.891 -0.4280 -0.5829  1.4618
  568TIP3    H223120   4.846   5.446  15.864 -0.0649 -1.0452 -1.4642
  569TIP3   OH223121   6.185   2.544  15.519  0.5216 -0.6421 -0.1363
  569TIP3    H123122   6.160   2.555  15.611  1.6321 -0.7527  0.1837
  569TIP3    H223123   6.101   2.537  15.473 -0.1244  1.8582  0.5443
  570TIP3   OH223124   2.927   4.042   3.106 -0.1228 -0.6545  0.4754
  570TIP3    H123125   2.870   4.091   3.047  1.6656  0.4878 -0.3472
  570TIP3    H223126   2.950   4.104   3.175  2.0847 -0.3155 -0.5209
  571TIP3   OH223127   5.687   2.779  15.887  0.5563  0.3082 -0.0171
  571TIP3    H123128   5.595   2.803  15.875  0.6381  0.4121 -0.4596
  571TIP3    H223129   5.716   2.756  15.799  0.7382 -0.4876  0.2555
  572TIP3   OH223130   2.047   4.174  14.849  0.3271 -0.1940 -0.6290
  572TIP3    H123131   2.007   4.177  14.935  0.7410  0.2298 -0.4478
  572TIP3    H223132   2.052   4.081  14.828 -0.7222 -0.2521 -0.6441
  573TIP3   OH223133   5.494   3.160  10.873  0.1117  0.0470  0.0046
  573TIP3    H123134   5.517   3.185  10.784 -0.4664 -1.2200 -0.5153
  573TIP3    H223135   5.553   3.210  10.929  0.5369  0.7756 -1.0959
  574TIP3   OH223136   4.366   1.781   5.217  0.1973 -0.7207 -0.7775
  574TIP3    H123137   4.378   1.839   5.293  1.9523  0.3518 -1.8331
  574TIP3    H223138   4.296   1.722   5.243  0.4344 -0.0560  1.5109
  575TIP3   OH223139   2.370   2.813   1.566 -0.2026 -0.2247 -0.0847
  575TIP3    H123140   2.434   2.811   1.637 -1.2063 -2.0410  0.8132
  575TIP3    H223141   2.399   2.745   1.505 -0.1022  0.3942 -0.7264
  576TIP3   OH223142   2.823   4.359  12.553 -0.3623  0.0174 -0.4611
  576TIP3    H123143   2.807   4.453  12.564  1.9728  0.3907  0.1197
  576TIP3    H223144   2.845   4.328  12.640 -1.9002 -1.2686 -0.5072
  577TIP3   OH223145   4.080   6.456   2.357 -0.4905 -0.1734  0.0648
  577TIP3    H123146   4.056   6.452   2.265 -1.5199 -1.7995  0.3964
  577TIP3    H223147   4.172   6.428   2.359  0.8158  3.6774 -0.8960
  578TIP3   OH223148   2.182   1.838  12.199 -1.0941 -0.3666 -0.5144
  578TIP3    H123149   2.211   1.843  12.290 -2.4382 -0.5915 -0.0513
  578TIP3    H223150   2.131   1.918  12.186 -0.3418 -0.0110 -1.2816
  579TIP3   OH223151   0.788   0.026  12.428  0.4941  0.0525 -0.5404
  579TIP3    H123152   0.877  -0.011  12.424  0.3186 -0.6270  1.1085
  579TIP3    H223153   0.801   0.118  12.450  0.7821 -0.1482  0.1403
  580TIP3   OH223154   3.095   4.784  15.394 -0.2603  0.4056  0.4838
  580TIP3    H123155   3.137   4.700  15.414 -0.0111  0.5717  0.6660
  580TIP3    H223156   3.014   4.783  15.446  1.6648  1.9597  3.6834
  581TIP3   OH223157   5.680   1.152   2.037  0.6174 -0.7310 -0.6212
  581TIP3    H123158   5.647   1.091   2.104  0.4533  0.2513  0.2129
  581TIP3    H223159   5.629   1.232   2.051  0.0303 -0.7672 -2.4428
  582TIP3   OH223160   3.241   3.799   3.235 -0.9951  0.5333  0.0732
  582TIP3    H123161   3.207   3.783   3.323  0.1921  0.2263  0.4832
  582TIP3    H223162   3.216   3.721   3.185  2.4169 -1.5414  1.3711
  583TIP3   OH223163   3.111   0.060   3.411 -0.9619  0.0701 -0.3873
  583TIP3    H123164   3.069   0.035   3.494 -1.3977 -0.6989 -0.8299
  583TIP3    H223165   3.169  -0.014   3.391 -1.4062 -0.0718 -1.1386
  584TIP3   OH223166   0.545   0.319  13.591  0.0392  0.0339 -0.2115
  584TIP3    H123167   0.574   0.254  13.528 -0.0929  0.4519 -0.7016
  584TIP3    H223168   0.568   0.282  13.676  0.4826 -0.3922 -0.5177
  585TIP3   OH223169   5.029   6.458   4.244  0.3543  0.5865  0.3221
  585TIP3    H123170   4.942   6.419   4.232  0.1171  1.7338 -1.9413
  585TIP3    H223171   5.013   6.542   4.285  0.4039  0.7176  0.0759
  586TIP3   OH223172   1.196   6.750  16.073 -0.1621 -0.4925  0.4343
  586TIP3    H123173   1.125   6.689  16.089 -0.0511 -0.5322  0.7954
  586TIP3    H223174   1.195   6.765  15.979 -0.6028 -0.5477  0.4305
  587TIP3   OH223175   6.494   1.575   2.365 -0.3734 -0.1009  0.4928
  587TIP3    H123176   6.405   1.593   2.334  1.2922  1.5467 -3.5989
  587TIP3    H223177   6.495   1.480   2.382 -3.0673 -0.0206  1.3280
  588TIP3   OH223178   3.240   6.018   1.222 -0.3332 -0.4297 -0.4297
  588TIP3    H123179   3.281   6.104   1.219 -1.8516  0.3082 -0.8441
  588TIP3    H223180   3.307   5.960   1.258  0.6225  0.9666  0.0730
  589TIP3   OH223181   2.566   5.120   5.398  0.0176  0.6009 -0.0352
  589TIP3    H123182   2.532   5.041   5.356 -0.1996  1.7263 -2.0649
  589TIP3    H223183   2.489   5.163   5.434 -0.0340  0.5085 -0.0355
  590TIP3   OH223184   1.049   6.553  14.791  0.0580 -0.4376 -0.5679
  590TIP3    H123185   0.975   6.586  14.739  0.5421 -0.2768 -1.1597
  590TIP3    H223186   1.020   6.467  14.823 -0.7759  0.0650  0.0476
  591TIP3   OH223187   3.255   0.883  11.514  0.3147 -0.6797  0.3316
  591TIP3    H123188   3.326   0.937  11.480  0.0220 -1.1735 -1.1256
  591TIP3    H223189   3.202   0.942  11.566  1.6976 -0.2687  1.3046
  592TIP3   OH223190   5.725   5.668  12.869  0.5666 -0.1613  0.5998
  592TIP3    H123191   5.673   5.648  12.947  1.3068  1.7405  1.6362
  592TIP3    H223192   5.781   5.741  12.897  1.7061 -0.2665 -1.3596
  593TIP3   OH223193   6.207   2.087   6.447 -0.0090 -0.4367 -0.4264
  593TIP3    H123194   6.288   2.057   6.489 -0.0176  0.2842  0.1240
  593TIP3    H223195   6.138   2.056   6.505 -0.1585 -1.4014 -1.1085
  594TIP3   OH223196   4.766   2.319  13.974  0.2502 -0.5539 -0.2511
  594TIP3    H123197   4.715   2.248  13.933 -0.3636  1.3192 -2.8796
  594TIP3    H223198   4.849   2.319  13.925  0.0475  0.8320 -0.6021
  595TIP3   OH223199   1.509   0.379  16.568  0.1245 -0.0010 -0.0218
  595TIP3    H123200   1.496   0.461  16.615  0.6333  0.1882 -0.2132
  595TIP3    H223201   1.434   0.325  16.594 -0.5879  0.7790 -0.4482
  596TIP3   OH223202   1.607   4.909  17.160  0.9270 -0.2124  0.4732
  596TIP3    H123203   1.523   4.870  17.137  1.4374 -0.7961 -0.4234
  596TIP3    H223204   1.645   4.937  17.077  1.2376  0.8528  0.9565
  597TIP3   OH223205   0.579   1.726   5.428 -0.2481 -0.7408  0.3855
  597TIP3    H123206   0.632   1.659   5.383 -0.0554 -0.4048  0.1086
  597TIP3    H223207   0.635   1.755   5.500 -0.6363 -1.4226  0.9729
  598TIP3   OH223208   6.746   0.691   3.983 -0.3842 -0.1223 -0.2413
  598TIP3    H123209   6.769   0.653   4.068  0.3270  2.0774  0.5666
  598TIP3    H223210   6.652   0.675   3.974 -0.0259 -2.4399 -0.1289
  599TIP3   OH223211   6.085   3.446   0.627 -0.2368 -0.0037 -0.3781
  599TIP3    H123212   6.110   3.490   0.546 -0.4311  0.9418  0.0775
  599TIP3    H223213   6.029   3.508   0.673 -0.0242 -0.4830  0.5480
  600TIP3   OH223214   3.733   0.451   4.513  0.1759  0.2172  0.0946
  600TIP3    H123215   3.720   0.401   4.433  0.5308  0.4362 -0.1004
  600TIP3    H223216   3.755   0.539   4.483 -1.3296  0.7374  0.4309
  601TIP3   OH223217   2.220   3.028   0.164  0.1736 -0.2029 -0.3272
  601TIP3    H123218   2.152   3.044   0.229  3.2552  0.4010  2.8866
  601TIP3    H223219   2.237   2.934   0.169  0.6791 -0.0939  0.0211
  602TIP3   OH223220   4.787   4.067  15.522  0.3341 -0.1085 -0.4563
  602TIP3    H123221   4.728   4.058  15.597  0.0581 -1.3648 -0.8105
  602TIP3    H223222   4.774   4.157  15.492 -0.6227 -0.0493  0.1201
  603TIP3   OH223223   0.331   6.695   0.360 -0.0125  0.2917  0.0800
  603TIP3    H123224   0.306   6.623   0.418  0.4568 -0.9426 -1.2236
  603TIP3    H223225   0.353   6.767   0.419  0.0634 -0.8095  1.4108
  604TIP3   OH223226   5.671   6.595   0.426 -0.0746  0.0185 -0.1475
  604TIP3    H123227   5.748   6.558   0.469 -0.8195 -0.2389  0.9819
  604TIP3    H223228   5.610   6.522   0.419 -0.1700  0.1892 -1.1647
  605TIP3   OH223229   6.200   0.631   0.360  0.2818 -0.2994 -0.3759
  605TIP3    H123230   6.254   0.684   0.300  0.2696 -0.9444 -0.9565
  605TIP3    H223231   6.144   0.695   0.404 -0.5717  0.0558 -1.9340
  606TIP3   OH223232   3.899   2.195   4.677  0.1618  0.3104 -0.1556
  606TIP3    H123233   3.922   2.144   4.600  0.2585  0.4181 -0.1979
  606TIP3    H223234   3.965   2.172   4.742 -0.4447 -0.4728  0.1937
  607TIP3   OH223235   3.486   0.327   3.868  0.0445 -0.8697  0.1356
  607TIP3    H123236   3.477   0.264   3.796 -1.3574 -0.1892 -0.2944
  607TIP3    H223237   3.486   0.413   3.825  2.1680 -0.5591  0.7033
  608TIP3   OH223238   1.086   2.881  13.208 -0.4442 -0.2585  0.5938
  608TIP3    H123239   1.066   2.969  13.177  2.3110  0.2502  0.1323
  608TIP3    H223240   1.051   2.823  13.141  0.5085  0.6159 -0.6820
  609TIP3   OH223241   1.022   4.421  14.340 -0.0598 -0.5195  0.4073
  609TIP3    H123242   1.083   4.398  14.269 -0.2118 -2.5133  0.9166
  609TIP3    H223243   1.059   4.502  14.377  0.2242  0.3493 -1.6922
  610TIP3   OH223244   2.250   5.745  11.920  0.6257  0.0836  0.2306
  610TIP3    H123245   2.215   5.820  11.967  2.0495  0.8051  0.1549
  610TIP3    H223246   2.229   5.761  11.828 -1.6628 -1.0561  0.5291
  611TIP3   OH223247   5.522   3.012  11.823  0.4227  0.8178  0.1958
  611TIP3    H123248   5.486   3.101  11.833 -0.5444  0.6652 -1.7062
  611TIP3    H223249   5.599   3.024  11.768  0.6211  0.5329  0.4094
  612TIP3   OH223250   2.174   0.382   1.210  0.4644 -0.1505  0.0984
  612TIP3    H123251   2.215   0.467   1.192  2.2045 -1.1547 -0.8251
  612TIP3    H223252   2.175   0.337   1.125 -0.8147 -0.9481  0.4919
  613TIP3   OH223253   6.139   2.122   3.839  0.3077  0.2523  0.0780
  613TIP3    H123254   6.153   2.215   3.860 -1.1153  0.4598  0.1902
  613TIP3    H223255   6.046   2.108   3.857 -0.4710 -0.1567 -3.9281
  614TIP3   OH223256   6.254   5.176  10.656  0.3980  0.0180 -0.9935
  614TIP3    H123257   6.299   5.092  10.658  0.3278 -0.0621 -2.2185
  614TIP3    H223258   6.255   5.201  10.563 -1.9504  0.0679 -1.0285
  615TIP3   OH223259   4.885   1.689   0.488 -0.5322  0.0634  0.2257
  615TIP3    H123260   4.835   1.671   0.409 -0.0808 -2.1002  0.4128
  615TIP3    H223261   4.903   1.783   0.484 -2.3978  0.3830 -1.1085
  616TIP3   OH223262   2.290   2.913  17.050 -0.0070 -0.3190  0.6935
  616TIP3    H123263   2.329   2.890  17.134 -0.2650  0.3412  0.9987
  616TIP3    H223264   2.362   2.951  17.000  0.7717 -3.0404 -0.3441
  617TIP3   OH223265   1.592   3.941  13.605 -0.0030 -0.2481 -0.1538
  617TIP3    H123266   1.609   3.857  13.649  1.2819  1.0208  1.8339
  617TIP3    H223267   1.502   3.963  13.630 -0.8358 -1.6587 -1.7822
  618TIP3   OH223268   3.836   2.657  14.609 -0.1391 -0.5457  0.1474
  618TIP3    H123269   3.781   2.728  14.575  0.7692  0.3666  0.5643
  618TIP3    H223270   3.913   2.657  14.553 -0.4557 -1.6988 -0.3107
  619TIP3   OH223271   0.900   6.520  13.576  0.0603  0.3265 -0.3691
  619TIP3    H123272   0.834   6.580  13.611 -0.8056 -0.8760  0.0938
  619TIP3    H223273   0.981   6.570  13.578 -0.2383  0.7588  2.0351
  620TIP3   OH223274   6.006   1.389  11.063 -0.0680  0.1276  0.3916
  620TIP3    H123275   5.922   1.396  11.017  2.3440  0.3349 -4.2736
  620TIP3    H223276   6.034   1.479  11.075  1.1758  0.0233 -1.4955
  621TIP3   OH223277   1.598   6.756  15.950 -0.2498 -0.4410 -0.1969
  621TIP3    H123278   1.520   6.770  15.897 -1.0387 -0.9570  0.8106
  621TIP3    H223279   1.567   6.706  16.026  1.0757 -0.7531  0.1531
  622TIP3   OH223280   0.075   0.928   2.922 -0.0289 -0.4843  0.0321
  622TIP3    H123281   0.042   0.882   2.845 -1.1074  1.2123 -0.5238
  622TIP3    H223282   0.144   0.870   2.956  0.4677 -1.2436 -2.1910
  623TIP3   OH223283   2.080   2.606  17.179  0.1637  0.0725  0.2455
  623TIP3    H123284   2.095   2.643  17.092 -2.4319 -0.0489 -0.2975
  623TIP3    H223285   2.082   2.511  17.165  0.5068  0.0452  0.4659
  624TIP3   OH223286   0.316   5.827  15.215  0.3921 -0.1839 -0.2636
  624TIP3    H123287   0.400   5.870  15.198 -0.2974  0.6344 -1.6972
  624TIP3    H223288   0.334   5.734  15.205  1.7096 -0.1989  2.0341
  625TIP3   OH223289   1.214   4.060  10.902  0.7838  0.2830 -0.7058
  625TIP3    H123290   1.129   4.041  10.862  0.8037  1.6714 -1.4697
  625TIP3    H223291   1.276   4.056  10.828  1.1676  0.5743 -0.4042
  626TIP3   OH223292   1.699   6.398  14.847 -0.0965  0.6659  0.1847
  626TIP3    H123293   1.790   6.410  14.821  0.2980  0.4699  1.4448
  626TIP3    H223294   1.680   6.472  14.904 -0.6296  0.5339  0.1845
  627TIP3   OH223295   5.433   3.560  13.643  0.7066  0.4330  0.1927
  627TIP3    H123296   5.449   3.643  13.598 -2.2356  0.8724 -0.1664
  627TIP3    H223297   5.425   3.585  13.735  1.1883  0.3395  0.2595
  628TIP3   OH223298   4.270   0.760   0.959  0.3477  0.0179  0.3129
  628TIP3    H123299   4.305   0.715   0.883  1.3092  0.8209  0.2696
  628TIP3    H223300   4.175   0.753   0.950  0.4679 -0.2722 -0.7158
  629TIP3   OH223301   5.527   6.102  15.770  0.0458  0.4219  0.0494
  629TIP3    H123302   5.494   6.103  15.860  1.6661 -0.3902  0.6643
  629TIP3    H223303   5.619   6.079  15.778  0.1696  0.1676 -1.8400
  630TIP3   OH223304   2.889   5.237   3.443 -0.7903  0.4180 -0.0598
  630TIP3    H123305   2.968   5.184   3.451 -1.4062 -1.3404 -4.3609
  630TIP3    H223306   2.823   5.191   3.495 -0.0568 -0.3721  0.1773
  631TIP3   OH223307   5.467   5.658  13.574  0.1539  0.5181 -0.5083
  631TIP3    H123308   5.413   5.703  13.639 -1.4546 -1.3001 -0.5268
  631TIP3    H223309   5.544   5.629  13.624 -0.3995  0.3591  0.2750
  632TIP3   OH223310   1.197   2.682   6.025  0.2244  0.2026  0.0950
  632TIP3    H123311   1.184   2.754   5.963 -0.2150  0.2655  0.2571
  632TIP3    H223312   1.108   2.658   6.052  0.4574  0.6609  1.2679
  633TIP3   OH223313   3.685   3.910  16.330  0.4645  0.4802  0.5186
  633TIP3    H123314   3.614   3.859  16.370 -0.8495 -0.4777 -2.8788
  633TIP3    H223315   3.684   3.994  16.377 -1.1397 -0.5284  2.3311
  634TIP3   OH223316   5.804   2.449   2.062  0.0513  0.8275 -0.5920
  634TIP3    H123317   5.877   2.410   2.014 -1.0598 -2.9099  0.5878
  634TIP3    H223318   5.742   2.475   1.993 -0.0209 -1.3362 -1.3862
  635TIP3   OH223319   1.161   0.605  14.069 -0.1312 -0.0183 -0.3869
  635TIP3    H123320   1.179   0.518  14.035 -1.0145 -0.3786  0.0601
  635TIP3    H223321   1.068   0.619  14.050 -0.0013  0.8119 -0.4287
  636TIP3   OH223322   4.040   1.242  13.727  0.1417 -0.1238  0.1998
  636TIP3    H123323   4.115   1.222  13.672 -0.5369  0.3438 -0.9166
  636TIP3    H223324   4.008   1.326  13.695 -0.3168  0.1111  1.2513
  637TIP3   OH223325   3.577   5.152   0.009 -0.5471  0.3641 -0.4407
  637TIP3    H123326   3.631   5.229   0.028 -1.2939  0.3256  2.0225
  637TIP3    H223327   3.633   5.097  -0.046  1.6451  0.6952  1.3614
  638TIP3   OH223328   2.041   1.752  14.046 -0.0572  0.5170  0.4923
  638TIP3    H123329   2.009   1.785  14.130 -0.5256  0.0073  0.5188
  638TIP3    H223330   1.970   1.768  13.985 -0.7294 -1.3706  0.7269
  639TIP3   OH223331   0.986   5.314  13.819  0.4999 -0.7291  0.6993
  639TIP3    H123332   1.024   5.361  13.745  1.4154 -1.3338  0.7737
  639TIP3    H223333   1.050   5.246  13.839 -0.4708 -1.5415  1.0588
  640TIP3   OH223334   0.191   5.112   5.242 -0.1762  0.2392 -0.0655
  640TIP3    H123335   0.112   5.157   5.210 -0.9942  0.3353  2.0440
  640TIP3    H223336   0.179   5.021   5.212 -0.8781  0.3450 -0.1272
  641TIP3   OH223337   5.160   5.136   6.331  0.8403  0.3195 -0.7715
  641TIP3    H123338   5.184   5.098   6.246  1.7154  2.2995 -1.4329
  641TIP3    H223339   5.214   5.089   6.395  1.3005 -0.1252 -1.4795
  642TIP3   OH223340   5.865   3.470  14.419  0.4267 -0.2605 -0.2204
  642TIP3    H123341   5.805   3.436  14.486  0.3423  1.5304  0.6329
  642TIP3    H223342   5.915   3.393  14.391  0.0553 -1.1462  1.4822
  643TIP3   OH223343   5.431   5.510   0.577  0.6355  0.4096 -0.0039
  643TIP3    H123344   5.376   5.508   0.499  2.0830  1.5738 -1.0692
  643TIP3    H223345   5.382   5.458   0.642 -1.0466  0.2724 -1.3468
  644TIP3   OH223346   2.839   0.136  12.220 -0.0310 -0.0621 -0.0487
  644TIP3    H123347   2.858   0.220  12.262  0.1689  0.2525 -0.7739
  644TIP3    H223348   2.883   0.140  12.136  2.5013 -2.0310  1.0869
  645TIP3   OH223349   4.460   4.628   1.340 -0.1287 -0.0920 -0.1543
  645TIP3    H123350   4.449   4.533   1.339  0.8365 -0.2325  0.7039
  645TIP3    H223351   4.391   4.660   1.398 -1.1956 -0.1481 -1.3774
  646TIP3   OH223352   2.126   1.506  14.682 -0.2038 -0.0160  0.0901
  646TIP3    H123353   2.171   1.558  14.616  0.5671 -1.2251 -0.3461
  646TIP3    H223354   2.195   1.473  14.739 -0.4354 -2.3600 -0.9192
  647TIP3   OH223355   1.020   6.291  14.880 -0.4336  0.2499 -0.0145
  647TIP3    H123356   1.096   6.238  14.902 -0.3911  0.2520 -0.1528
  647TIP3    H223357   0.945   6.233  14.892 -0.2895 -0.2656 -1.5010
  648TIP3   OH223358   3.416   2.924   2.946 -0.0417 -0.1614  0.0693
  648TIP3    H123359   3.422   3.020   2.949  1.4419 -0.2382  0.1719
  648TIP3    H223360   3.420   2.903   2.853  0.1049 -0.1454  0.0716
  649TIP3   OH223361   0.962   5.447  17.184 -0.1271 -0.2480  0.2865
  649TIP3    H123362   0.934   5.505  17.113  0.0397  0.5746  0.8756
  649TIP3    H223363   1.027   5.389  17.145 -0.1237  0.1226 -0.2585
  650TIP3   OH223364   1.681   5.965  12.320  0.0173 -0.6633 -0.4887
  650TIP3    H123365   1.625   6.032  12.280 -0.3501 -0.1759  0.8094
  650TIP3    H223366   1.637   5.882  12.300 -1.7852 -0.2203  1.4327
  651TIP3   OH223367   6.139   3.897   5.176 -0.0850  0.0166  0.0984
  651TIP3    H123368   6.150   3.961   5.105  2.2208  0.7196  1.0401
  651TIP3    H223369   6.210   3.834   5.163 -0.0692 -0.2405  1.3660
  652TIP3   OH223370   6.034   3.052   1.510 -0.5559 -0.0762  0.1013
  652TIP3    H123371   6.056   2.974   1.561  0.6301  1.2078  1.6060
  652TIP3    H223372   6.034   3.022   1.419  1.0208 -1.5766  0.5727
  653TIP3   OH223373   1.385   0.848   1.452 -0.2632  0.3906  0.0351
  653TIP3    H123374   1.297   0.826   1.421 -0.3258  0.6924  0.0030
  653TIP3    H223375   1.371   0.915   1.519 -0.1036 -0.0117  0.4715
  654TIP3   OH223376   6.487   5.633  11.846 -0.2262  0.5821 -0.1605
  654TIP3    H123377   6.470   5.727  11.834  1.1728  0.7503 -0.9916
  654TIP3    H223378   6.497   5.600  11.757  1.1746  0.0203  0.1974
  655TIP3   OH223379   2.919   6.202   2.824  0.1292  0.0875  0.1681
  655TIP3    H123380   2.874   6.270   2.874  0.5759  1.4164 -1.2038
  655TIP3    H223381   3.009   6.205   2.854 -0.0191 -0.4555  0.6803
  656TIP3   OH223382   1.138   3.063  14.627  0.2846 -0.3187 -0.3965
  656TIP3    H123383   1.060   3.015  14.596  0.1327  1.6238 -3.1768
  656TIP3    H223384   1.107   3.111  14.704 -0.6779 -1.3332 -0.1372
  657TIP3   OH223385   3.737   5.539   3.682 -0.7430  0.1534  0.2464
  657TIP3    H123386   3.813   5.549   3.624 -1.0334 -0.7339 -0.3019
  657TIP3    H223387   3.756   5.597   3.756 -0.7042  1.8536 -1.0677
  658TIP3   OH223388   4.321   3.993  12.712 -0.0646 -0.3609  0.1790
  658TIP3    H123389   4.354   4.046  12.785  0.6067 -0.5158 -0.0075
  658TIP3    H223390   4.356   4.036  12.634  1.1394 -1.5243  0.0659
  659TIP3   OH223391   3.212   3.110   1.357  0.6063 -0.1504  0.1830
  659TIP3    H123392   3.199   3.019   1.330  2.4676  0.4283 -2.8192
  659TIP3    H223393   3.154   3.120   1.433 -0.0738 -3.6519  0.2345
  660TIP3   OH223394   4.770   0.264   0.839  0.3148 -0.4292 -0.2632
  660TIP3    H123395   4.835   0.223   0.782 -0.9595 -0.5241 -1.6729
  660TIP3    H223396   4.735   0.192   0.891  0.3953 -0.5972 -0.4393
  661TIP3   OH223397   5.957   3.978  16.006 -0.2378 -0.2811  0.6252
  661TIP3    H123398   6.045   3.957  16.038  0.3449  1.7321  0.4612
  661TIP3    H223399   5.902   3.978  16.085  0.2247 -0.0956  0.9532
  662TIP3   OH223400   2.945   5.253   6.045  0.0872 -0.5538  0.1332
  662TIP3    H123401   2.929   5.238   6.138  1.2499 -1.6990  0.1659
  662TIP3    H223402   2.898   5.182   6.001  0.4554 -0.6643 -0.0833
  663TIP3   OH223403   5.903   6.145   4.917  0.1891  0.2759  0.2369
  663TIP3    H123404   5.940   6.071   4.868  0.9233 -0.2773  1.5992
  663TIP3    H223405   5.860   6.105   4.993  0.6521  1.2394  1.0177
  664TIP3   OH223406   3.185   0.960   5.504  0.5656  0.0037 -0.0000
  664TIP3    H123407   3.108   0.932   5.454  1.4074 -2.7470  0.1974
  664TIP3    H223408   3.174   0.919   5.590  1.0971  1.5369  0.8230
  665TIP3   OH223409   2.481   3.412  12.988 -0.5397 -0.0973 -0.3303
  665TIP3    H123410   2.399   3.453  13.014 -0.3333  0.1298 -0.0235
  665TIP3    H223411   2.549   3.474  13.017 -0.4045  1.7384 -4.3303
  666TIP3   OH223412   3.228   6.387  12.924  0.5114 -0.1223  0.0069
  666TIP3    H123413   3.173   6.362  12.998 -0.6090 -0.8939 -1.0682
  666TIP3    H223414   3.223   6.312  12.865  2.6326 -0.1668 -0.1732
  667TIP3   OH223415   4.703   4.183   4.763 -0.0405 -0.2951  0.4330
  667TIP3    H123416   4.711   4.182   4.667  1.1583  0.8847  0.5156
  667TIP3    H223417   4.614   4.215   4.778  0.2281  0.8332 -0.2812
  668TIP3   OH223418   3.271   6.368  10.948 -0.3282 -0.2155  0.2284
  668TIP3    H123419   3.359   6.400  10.967 -0.6003  0.5893  0.1494
  668TIP3    H223420   3.283   6.304  10.878  0.0419  0.8999 -0.7412
  669TIP3   OH223421   5.099   2.443  14.740  0.6069  0.2527 -0.1735
  669TIP3    H123422   5.145   2.375  14.690 -0.8811  0.3016 -1.6740
  669TIP3    H223423   5.056   2.395  14.811  1.4598 -0.0394  0.1530
  670TIP3   OH223424   5.681   3.906  13.322  0.2596  0.0903  0.0750
  670TIP3    H123425   5.612   3.967  13.346 -0.2430 -0.1037 -0.8584
  670TIP3    H223426   5.644   3.853  13.251  0.9896 -0.7226  0.2853
  671TIP3   OH223427   3.777   4.987   3.447 -0.4084  0.7866 -0.1169
  671TIP3    H123428   3.757   4.914   3.506 -0.2153  1.0559  0.2863
  671TIP3    H223429   3.718   5.057   3.475 -0.0430  1.0432  0.0074
  672TIP3   OH223430   2.805   3.998  15.823  0.7186 -0.0578 -0.2415
  672TIP3    H123431   2.807   4.079  15.772  2.0933  0.0578 -0.0260
  672TIP3    H223432   2.850   3.934  15.768  2.2400  0.0722  0.8171
  673TIP3   OH223433   2.741   1.974   1.073  0.3731 -0.2252  0.3666
  673TIP3    H123434   2.730   2.046   1.135 -0.4096  0.8839 -1.0468
  673TIP3    H223435   2.655   1.965   1.031  0.9322 -0.8781 -0.6641
  674TIP3   OH223436   0.158   5.498   1.742  0.3863 -0.2932  0.3943
  674TIP3    H123437   0.207   5.423   1.775  0.8727 -0.6087 -1.0110
  674TIP3    H223438   0.139   5.476   1.651 -1.5400  0.2461  0.6295
  675TIP3   OH223439   2.441   1.060   2.654  0.6859 -0.0493  0.0962
  675TIP3    H123440   2.459   1.084   2.563 -0.9538  1.5867  0.1816
  675TIP3    H223441   2.462   1.139   2.704  2.6680 -1.2907  1.2968
  676TIP3   OH223442   5.895   0.597  15.607  0.1060 -0.4524  0.1874
  676TIP3    H123443   5.876   0.580  15.699 -1.3762  1.0010  0.1676
  676TIP3    H223444   5.983   0.635  15.607  0.2235 -0.7294  0.9731
  677TIP3   OH223445   6.477   5.509   3.368 -0.6823  0.2964  0.2786
  677TIP3    H123446   6.439   5.442   3.425 -2.1061  0.7102 -0.1656
  677TIP3    H223447   6.405   5.571   3.353  0.0471  0.8593 -0.9271
  678TIP3   OH223448   4.455   5.385  12.936  0.5465  0.1232  0.0336
  678TIP3    H123449   4.432   5.469  12.975 -1.3370 -0.5071  0.3690
  678TIP3    H223450   4.471   5.327  13.010  1.1806  0.0189 -0.1860
  679TIP3   OH223451   1.460   3.717  12.069  0.9718  0.2737  0.4400
  679TIP3    H123452   1.525   3.657  12.107 -0.7729 -1.6870  0.4498
  679TIP3    H223453   1.376   3.674  12.085 -0.0996  1.1669 -2.3867
  680TIP3   OH223454   3.163   5.298  11.100 -0.3069 -0.3551  0.3415
  680TIP3    H123455   3.248   5.266  11.130  1.6016  0.4468 -3.8550
  680TIP3    H223456   3.110   5.219  11.089  0.5613 -1.0467  1.0347
  681TIP3   OH223457   6.184   3.579   0.408  0.2060 -0.2071 -0.0961
  681TIP3    H123458   6.204   3.604   0.318 -1.7895  0.3291 -0.4090
  681TIP3    H223459   6.166   3.662   0.452  4.0338 -0.1565  1.5874
  682TIP3   OH223460   0.559   0.520  14.350  0.3164 -0.0426  0.0921
  682TIP3    H123461   0.480   0.522  14.295  0.1568 -1.6357  0.2374
  682TIP3    H223462   0.625   0.566  14.298 -0.1040 -0.6604 -1.0143
  683TIP3   OH223463   0.909   2.210   0.637  0.5013 -0.0089 -0.3803
  683TIP3    H123464   0.981   2.233   0.695  2.3519 -0.4628 -2.4510
  683TIP3    H223465   0.883   2.122   0.665  2.2113 -0.7393 -1.0166
  684TIP3   OH223466   2.442   5.794   5.500  0.4121  0.0399 -0.3635
  684TIP3    H123467   2.447   5.699   5.497 -0.6535 -0.0373 -0.1606
  684TIP3    H223468   2.524   5.824   5.461  1.2441 -0.9549  0.5950
  685TIP3   OH223469   4.626   3.935   3.105 -0.0096  0.1099  0.0064
  685TIP3    H123470   4.577   3.966   3.181  0.5425 -2.3637  1.4295
  685TIP3    H223471   4.560   3.917   3.039 -0.7531 -0.3001  0.8558
  686TIP3   OH223472   4.094   6.677  11.672 -0.0619 -0.3724 -0.6250
  686TIP3    H123473   4.115   6.765  11.641  0.1158  0.1252  0.8267
  686TIP3    H223474   3.999   6.670  11.661 -0.6119  1.3166  2.3220
  687TIP3   OH223475   0.220   0.486  13.187 -0.2007 -0.1779 -0.2346
  687TIP3    H123476   0.273   0.437  13.249  0.8070  0.1939 -0.7781
  687TIP3    H223477   0.165   0.543  13.241  1.4208  0.9081  0.3063
  688TIP3   OH223478   1.663   2.883   2.590 -0.0448 -0.1899 -0.1696
  688TIP3    H123479   1.584   2.840   2.559  1.2709 -3.9174  1.3984
  688TIP3    H223480   1.640   2.915   2.678 -0.5091  0.8511 -0.6641
  689TIP3   OH223481   4.345   4.310  16.767 -0.4967  0.3481  0.0550
  689TIP3    H123482   4.389   4.234  16.728  0.1080  0.1862  1.0473
  689TIP3    H223483   4.264   4.319  16.716 -0.7803 -1.2125  0.1834
  690TIP3   OH223484   3.992   3.742  16.667  0.3275  0.1633 -0.4215
  690TIP3    H123485   3.959   3.785  16.746  0.7971 -0.0346 -0.1142
  690TIP3    H223486   3.919   3.745  16.605 -1.5914 -3.5317  1.4789
  691TIP3   OH223487   4.905   0.614  15.260 -0.4464  0.0976 -0.2185
  691TIP3    H123488   4.925   0.542  15.200  1.5771  0.4197  0.0415
  691TIP3    H223489   4.888   0.688  15.202  0.0672  0.0460 -0.4412
  692TIP3   OH223490   3.763   2.338   3.831  0.3667 -0.0819  0.3665
  692TIP3    H123491   3.705   2.407   3.799  1.5017  1.5816  1.7602
  692TIP3    H223492   3.704   2.269   3.863 -0.7763  0.1026 -1.2953
  693TIP3   OH223493   1.777   4.901   2.876  0.1960  0.1621 -0.1648
  693TIP3    H123494   1.695   4.864   2.843 -0.0985 -1.0383  1.8050
  693TIP3    H223495   1.750   4.979   2.924  0.3038  0.2948 -0.3217
  694TIP3   OH223496   3.350   3.388  13.332 -0.0017  0.1828 -0.3165
  694TIP3    H123497   3.389   3.335  13.402  0.5513  0.9110 -0.0694
  694TIP3    H223498   3.360   3.335  13.253  0.1008 -0.2922  0.0142
  695TIP3   OH223499   5.689   3.415   5.292  0.3565  0.0557 -0.2683
  695TIP3    H123500   5.599   3.401   5.262  0.1305  0.1993  0.3414
  695TIP3    H223501   5.694   3.509   5.309  0.6149  0.0435 -0.2772
  696TIP3   OH223502   3.653   1.873  13.674  0.7725 -0.3995 -0.4948
  696TIP3    H123503   3.633   1.802  13.614 -0.0544 -1.1896  0.6919
  696TIP3    H223504   3.579   1.875  13.735 -0.3704  2.9385 -1.8274
  697TIP3   OH223505   4.189   5.581  12.878  0.2168  0.3096 -0.0178
  697TIP3    H123506   4.259   5.617  12.932 -0.0585  1.3009 -0.3087
  697TIP3    H223507   4.157   5.505  12.927  0.7846  0.4776  0.6172
  698TIP3   OH223508   4.166   3.610   4.332 -0.5248 -0.2593 -0.1498
  698TIP3    H123509   4.252   3.573   4.352  1.0187  1.5601 -2.8737
  698TIP3    H223510   4.170   3.699   4.367 -0.8407  0.1953 -1.2301
  699TIP3   OH223511   3.069   6.513   5.088  0.1781  0.2341 -0.1424
  699TIP3    H123512   3.067   6.433   5.139  1.2377  0.2745 -0.0257
  699TIP3    H223513   3.161   6.540   5.089  0.0267  0.8119 -1.1674
  700TIP3   OH223514   5.180   6.550   1.487  0.0508  0.2730  0.4819
  700TIP3    H123515   5.156   6.631   1.442 -1.0516  0.0904  0.7444
  700TIP3    H223516   5.220   6.580   1.569  0.1789  0.5642  0.3142
  701TIP3   OH223517   0.389   0.830   4.409  0.3142  0.2421 -0.1320
  701TIP3    H123518   0.386   0.779   4.328 -1.7409  0.1704 -0.0362
  701TIP3    H223519   0.436   0.775   4.471 -0.8586 -1.0350 -0.3681
  702TIP3   OH223520   2.620   0.951   2.376  0.9733 -0.1650 -0.3662
  702TIP3    H123521   2.658   0.991   2.454 -0.5793  1.9881 -0.6750
  702TIP3    H223522   2.696   0.925   2.323  2.0273  0.9403  0.5660
  703TIP3   OH223523   5.556   3.265   2.866  0.3620 -0.3193 -0.5818
  703TIP3    H123524   5.622   3.333   2.851  0.0052 -0.5905 -3.6143
  703TIP3    H223525   5.479   3.313   2.896  1.2071  0.2293  0.7802
  704TIP3   OH223526   2.384   3.339  16.618  1.2498  0.0182  0.3307
  704TIP3    H123527   2.469   3.317  16.578  1.0449  0.4500 -0.3567
  704TIP3    H223528   2.389   3.434  16.633  0.3034  0.3070 -1.1319
  705TIP3   OH223529   6.557   1.578   3.760 -0.6320  0.1809  0.0195
  705TIP3    H123530   6.504   1.630   3.821  1.1548  1.1648  0.7784
  705TIP3    H223531   6.607   1.643   3.710 -0.2858 -0.7221 -0.8362
  706TIP3   OH223532   1.987   4.424   3.107  0.1416 -0.6421 -0.5073
  706TIP3    H123533   2.040   4.354   3.071  1.4232 -0.8142  1.6726
  706TIP3    H223534   1.906   4.381   3.135  0.8002 -1.2308  0.5407
  707TIP3   OH223535   6.724   3.591  12.498  0.0579 -0.2205 -0.7352
  707TIP3    H123536   6.797   3.600  12.559  0.5136  0.0665 -1.3129
  707TIP3    H223537   6.653   3.642  12.536  0.2044 -0.3928 -0.2349
  708TIP3   OH223538   3.354   5.806   3.074 -0.2560 -0.0201 -0.2500
  708TIP3    H123539   3.309   5.736   3.028 -0.0598 -0.8325  0.7640
  708TIP3    H223540   3.406   5.761   3.141  1.3272  0.9566 -0.7929
  709TIP3   OH223541   3.165   0.806  11.764 -0.6030  0.1247 -0.3910
  709TIP3    H123542   3.103   0.787  11.693 -0.0773  2.7226 -1.6395
  709TIP3    H223543   3.231   0.738  11.757 -2.0188 -1.2487 -0.6344
  710TIP3   OH223544   3.444   0.891  11.899 -0.2138  0.0500 -0.1345
  710TIP3    H123545   3.403   0.977  11.905  0.2299  0.1877  1.1919
  710TIP3    H223546   3.429   0.851  11.985  1.8705 -0.1378  0.1781
  711TIP3   OH223547   0.355   6.272  11.349  0.0328  0.4724  0.2589
  711TIP3    H123548   0.333   6.228  11.431  0.4542 -0.3405 -0.0637
  711TIP3    H223549   0.283   6.252  11.290  0.4159 -0.1124 -0.0110
  712TIP3   OH223550   4.753   6.560  12.766  0.2496 -0.0064  0.0157
  712TIP3    H123551   4.746   6.573  12.861  1.3339  1.6714 -0.1248
  712TIP3    H223552   4.843   6.585  12.745  0.6452 -2.2644 -1.1702
  713TIP3   OH223553   3.189   2.793  14.659 -0.8444  0.2529 -0.3820
  713TIP3    H123554   3.100   2.829  14.662 -1.3045 -0.7653 -1.3204
  713TIP3    H223555   3.176   2.699  14.673 -0.0263 -0.0608 -1.7130
  714TIP3   OH223556   5.982   5.936   4.115 -0.0288  0.6722 -0.7544
  714TIP3    H123557   5.964   5.921   4.208  0.3971  1.8476 -0.4656
  714TIP3    H223558   5.896   5.936   4.073 -0.1207 -1.4271 -0.6240
  715TIP3   OH223559   2.413   6.396   5.273  0.0638 -0.4644  0.0646
  715TIP3    H123560   2.445   6.412   5.184 -0.2947  1.6913  0.2991
  715TIP3    H223561   2.348   6.327   5.263  1.8784 -2.0596 -0.9746
  716TIP3   OH223562   5.672   0.949  12.334 -0.3034 -0.2046  0.1116
  716TIP3    H123563   5.694   1.026  12.281 -0.8111 -1.2513 -1.6851
  716TIP3    H223564   5.593   0.914  12.293 -1.2180 -0.5552  2.1276
  717TIP3   OH223565   1.671   6.268  12.255 -0.4421  0.8415  0.9193
  717TIP3    H123566   1.669   6.264  12.351 -2.1118  0.5569  0.8825
  717TIP3    H223567   1.629   6.352  12.234 -1.0325  0.4175  0.4055
  718TIP3   OH223568   1.569   1.772   4.089 -0.3733  0.3079  0.3943
  718TIP3    H123569   1.554   1.812   4.175  0.4866  0.6912  0.3630
  718TIP3    H223570   1.481   1.749   4.058 -0.7491  0.8739  1.0342
  719TIP3   OH223571   5.938   1.064   1.150  0.0201  0.1599 -0.5718
  719TIP3    H123572   5.965   1.016   1.228  2.2390 -0.6314 -1.7703
  719TIP3    H223573   5.847   1.040   1.137 -0.1392 -0.3301  1.2940
  720TIP3   OH223574   2.979   4.976   2.901 -0.4398 -0.2922 -0.2196
  720TIP3    H123575   3.004   4.884   2.897 -3.0182 -0.9760 -1.7819
  720TIP3    H223576   3.037   5.014   2.968  4.0641 -1.8704 -2.9863
  721TIP3   OH223577   3.538   0.396  16.453  0.3824  0.0305  1.0385
  721TIP3    H123578   3.490   0.463  16.501 -0.9243 -0.0889 -0.0544
  721TIP3    H223579   3.553   0.326  16.516  0.8767  0.9256  1.9154
  722TIP3   OH223580   0.151   2.061  13.013  0.0447 -0.4619 -0.4738
  722TIP3    H123581   0.109   1.991  13.063  0.0177  0.6025  1.0384
  722TIP3    H223582   0.114   2.054  12.925 -0.5640 -1.8209 -0.1192
  723TIP3   OH223583   0.450   4.846   5.944 -0.2795  1.0242 -0.0736
  723TIP3    H123584   0.386   4.871   6.010  0.0920  1.8154  0.0004
  723TIP3    H223585   0.529   4.823   5.993  0.2541  2.3883 -0.2566
  724TIP3   OH223586   5.754   2.413  13.180 -0.0629  0.3298  0.4127
  724TIP3    H123587   5.775   2.374  13.095 -0.5068  0.9478  0.0211
  724TIP3    H223588   5.731   2.338  13.235 -0.4876 -0.0055 -0.2154
  725TIP3   OH223589   2.196   1.948   4.539 -0.2346 -0.5047 -0.0216
  725TIP3    H123590   2.238   1.983   4.617  0.6939 -1.9293  0.1226
  725TIP3    H223591   2.240   1.993   4.466  0.7188 -1.1169  0.1768
  726TIP3   OH223592   6.483   3.365   1.961  0.1610 -0.3160  0.1497
  726TIP3    H123593   6.548   3.295   1.951  0.2038 -0.5009  1.6337
  726TIP3    H223594   6.516   3.436   1.906  1.2854 -0.6595  0.3664
  727TIP3   OH223595   6.073   0.546   3.973  0.1576 -0.4618 -0.4459
  727TIP3    H123596   6.078   0.521   3.881  0.7752 -2.6261  0.1497
  727TIP3    H223597   5.980   0.534   3.996 -0.0677  0.4417 -0.8801
  728TIP3   OH223598   2.405   6.745  16.750  0.1640  0.9964  0.2600
  728TIP3    H123599   2.494   6.734  16.783  0.5746  0.2392 -1.0278
  728TIP3    H223600   2.400   6.685  16.675 -1.7431  0.3300  0.9052
  729TIP3   OH223601   2.697   0.441  15.948  0.3587  0.2711  0.3718
  729TIP3    H123602   2.698   0.428  15.853  0.4492 -1.3801  0.5797
  729TIP3    H223603   2.648   0.522  15.961 -1.2601 -0.4563 -0.9841
  730TIP3   OH223604   0.433   1.204   2.699  0.8804 -0.3033 -0.0277
  730TIP3    H123605   0.418   1.293   2.667  1.4402  0.5170  1.8635
  730TIP3    H223606   0.493   1.165   2.635 -0.8484  0.0107 -1.8822
  731TIP3   OH223607   0.318   0.527   2.865 -0.2684 -0.2566 -0.8256
  731TIP3    H123608   0.347   0.440   2.840 -1.0285 -0.7102 -0.1531
  731TIP3    H223609   0.288   0.567   2.783  0.9836 -0.2533 -1.3047
  732TIP3   OH223610   3.483   5.039   2.388  0.2520 -0.1662  0.1829
  732TIP3    H123611   3.407   4.981   2.395  0.8256 -0.7412  1.8042
  732TIP3    H223612   3.492   5.078   2.475  2.7917 -1.3456  0.4734
  733TIP3   OH223613   4.560   4.937   4.212  0.1460 -0.3717 -0.7346
  733TIP3    H123614   4.499   4.968   4.279  0.7161  0.3737 -0.5538
  733TIP3    H223615   4.576   4.845   4.235  0.4861 -0.0728  0.2706
  734TIP3   OH223616   0.013   5.082   6.000 -0.1917 -0.2845 -0.2044
  734TIP3    H123617   0.039   5.051   6.086  0.6074  0.7520 -0.0691
  734TIP3    H223618   0.013   5.177   6.007 -4.3447 -0.1943 -0.1038
  735TIP3   OH223619   1.707   6.010  13.868 -0.4809  0.9223 -0.3510
  735TIP3    H123620   1.786   6.050  13.832  0.4651 -0.2898  0.3307
  735TIP3    H223621   1.739   5.937  13.921 -2.0749  0.2260 -0.3115
  736TIP3   OH223622   3.714   4.989  11.380 -0.4597 -0.6174 -0.3889
  736TIP3    H123623   3.721   5.084  11.379  0.0791 -0.6596 -0.7092
  736TIP3    H223624   3.640   4.971  11.438  2.1459 -0.1696  3.1833
  737TIP3   OH223625   6.423   1.907   2.632  0.0355 -0.3484 -0.4847
  737TIP3    H123626   6.484   1.834   2.619 -1.1985 -1.6504  0.8108
  737TIP3    H223627   6.478   1.979   2.662  1.0228 -1.3097  0.0415
  738TIP3   OH223628   4.156   0.045  15.147 -0.4656  0.3144  0.7238
  738TIP3    H123629   4.249   0.031  15.166 -0.1823  1.7766  0.4286
  738TIP3    H223630   4.126   0.106  15.214 -1.6282 -1.3720  1.7847
  739TIP3   OH223631   4.731   0.489  14.055 -0.1591 -0.1988  0.1700
  739TIP3    H123632   4.681   0.453  13.982 -0.8978  0.7000  0.2218
  739TIP3    H223633   4.681   0.566  14.082  0.5826 -0.0230  1.0490
  740TIP3   OH223634   0.277   0.210  11.877  0.0396 -0.1983  0.6155
  740TIP3    H123635   0.324   0.154  11.939 -0.0706 -1.2296 -0.2167
  740TIP3    H223636   0.237   0.149  11.816 -1.2869  0.7364  0.5368
  741TIP3   OH223637   6.321   5.972  11.259 -0.2597 -0.3384  0.4733
  741TIP3    H123638   6.250   5.981  11.322 -0.5287  0.1836  0.0918
  741TIP3    H223639   6.400   5.995  11.308 -0.4858  0.2018  0.5803
  742TIP3   OH223640   1.393   3.742   5.277 -0.4110  0.6638  0.5857
  742TIP3    H123641   1.486   3.728   5.290 -0.3016  0.3222 -0.4996
  742TIP3    H223642   1.366   3.674   5.216 -1.7483 -0.3561  2.2653
  743TIP3   OH223643   1.381   4.494   1.455 -0.7736 -0.3009  0.3110
  743TIP3    H123644   1.300   4.448   1.475 -0.5937 -0.5488  0.4759
  743TIP3    H223645   1.429   4.497   1.538  0.2518 -1.8947 -0.2015
  744TIP3   OH223646   5.778   0.911   1.858  0.2927  0.4592 -0.0041
  744TIP3    H123647   5.858   0.877   1.898 -0.5251 -0.8833  0.5267
  744TIP3    H223648   5.773   1.001   1.888  0.8932  0.1426  1.1003
  745TIP3   OH223649   4.621   4.348   4.242  0.0016 -0.0875  0.1785
  745TIP3    H123650   4.712   4.374   4.232  0.5596 -1.0688  2.4347
  745TIP3    H223651   4.596   4.316   4.155  1.5651  0.8715 -0.6431
  746TIP3   OH223652   0.215   0.768  11.717 -0.1091 -0.2428  0.6348
  746TIP3    H123653   0.230   0.819  11.796  0.9348  1.4184 -0.5854
  746TIP3    H223654   0.125   0.787  11.692 -1.1987 -2.5810  2.6583
  747TIP3   OH223655   4.358   6.750  14.695  0.1743 -0.0239  0.4167
  747TIP3    H123656   4.399   6.698  14.627 -0.5845 -0.8578  0.5786
  747TIP3    H223657   4.355   6.839  14.660  2.5339  0.1643  0.6081
  748TIP3   OH223658   6.595   5.858  14.062 -0.0590 -0.1379  0.5518
  748TIP3    H123659   6.618   5.767  14.081  1.4039  0.3607  1.2903
  748TIP3    H223660   6.547   5.888  14.139 -1.1076 -0.4713  0.0312
  749TIP3   OH223661   5.692   0.289   5.841 -0.1883  0.0913 -0.3221
  749TIP3    H123662   5.747   0.362   5.869 -0.0924 -1.0956  2.8132
  749TIP3    H223663   5.748   0.212   5.853 -1.2202 -0.7635 -0.9185
  750TIP3   OH223664   3.677   5.140   4.430 -0.2288  0.4803  0.0577
  750TIP3    H123665   3.646   5.107   4.345 -0.0996 -1.7213  0.8223
  750TIP3    H223666   3.750   5.198   4.408  0.4540 -0.8525 -1.3085
  751TIP3   OH223667   5.781   2.878   4.547  0.1083  0.0619  0.3375
  751TIP3    H123668   5.779   2.954   4.489  0.1840  0.6226  1.0612
  751TIP3    H223669   5.691   2.847   4.549 -0.1217  0.7613  0.8589
  752TIP3   OH223670   1.185   2.823   6.314  0.2439  0.2340  0.3965
  752TIP3    H123671   1.270   2.819   6.358 -0.6920  1.5424  2.4162
  752TIP3    H223672   1.202   2.870   6.233  1.6770 -0.5631  0.2292
  753TIP3   OH223673   0.745   5.690   0.599  0.3919 -0.2223 -0.2092
  753TIP3    H123674   0.827   5.736   0.582 -0.5543  0.9596 -1.6630
  753TIP3    H223675   0.705   5.681   0.513 -0.7594 -1.2683  0.4321
  754TIP3   OH223676   5.533   2.766   3.328  0.2849  0.3288  0.3495
  754TIP3    H123677   5.517   2.692   3.387 -2.4145  1.6824  1.4054
  754TIP3    H223678   5.587   2.826   3.379  0.7111  0.0298  0.2514
  755TIP3   OH223679   2.459   1.772  12.904  0.1427 -0.5764  0.5554
  755TIP3    H123680   2.465   1.717  12.982  0.2498 -0.3822  0.6825
  755TIP3    H223681   2.367   1.797  12.899 -0.1995 -1.9408 -0.3001
  756TIP3   OH223682   5.155   2.206   5.428 -0.8885 -0.4527 -0.1845
  756TIP3    H123683   5.098   2.204   5.504 -0.2534  0.4779  0.3174
  756TIP3    H223684   5.237   2.165   5.458 -0.9671 -0.9510 -0.6386
  757TIP3   OH223685   5.081   2.704  14.043 -0.5458 -0.0690 -0.4687
  757TIP3    H123686   5.144   2.670  13.980  0.2156  2.8876 -1.3660
  757TIP3    H223687   5.016   2.634  14.053  1.9849 -2.5342 -0.7250
  758TIP3   OH223688   6.101   2.425   5.391 -0.0621 -0.0132 -0.4600
  758TIP3    H123689   6.117   2.519   5.397 -0.1752 -0.0090 -0.2442
  758TIP3    H223690   6.031   2.417   5.326  0.2512  0.0222 -0.8029
  759TIP3   OH223691   5.984   3.605   1.980 -0.2104 -0.1721  0.0424
  759TIP3    H123692   6.058   3.545   1.972 -0.0671 -0.1539  1.1883
  759TIP3    H223693   6.009   3.680   1.926  0.6823 -0.1009  0.5320
  760TIP3   OH223694   0.549   4.407   1.972 -0.4254 -1.0840 -0.6122
  760TIP3    H123695   0.506   4.340   2.025 -0.6059  0.5732  1.3857
  760TIP3    H223696   0.487   4.425   1.901  0.0025 -3.6206 -1.6576
  761TIP3   OH223697   5.094   0.929  15.468  0.3712 -0.3546  0.0515
  761TIP3    H123698   5.100   1.022  15.488 -0.0221 -0.3211  0.0041
  761TIP3    H223699   5.112   0.923  15.374 -1.4470 -0.1317 -0.3332
  762TIP3   OH223700   1.658   0.039   2.702 -0.0316 -0.7385 -0.0589
  762TIP3    H123701   1.569   0.004   2.703 -1.0132  1.6704  0.3474
  762TIP3    H223702   1.699   0.003   2.781 -2.0871  1.5995  2.1474
  763TIP3   OH223703   4.744   4.866  10.789 -0.4530 -0.0698 -0.2225
  763TIP3    H123704   4.797   4.921  10.848 -1.5235  0.3984  0.3104
  763TIP3    H223705   4.663   4.915  10.777 -1.3854 -1.4923  0.1816
  764TIP3   OH223706   5.893   2.381   0.128  0.6150  0.3389 -0.3123
  764TIP3    H123707   5.893   2.444   0.200 -0.3120  2.0043 -1.7229
  764TIP3    H223708   5.951   2.421   0.062  0.6527 -0.6720 -0.8991
  765TIP3   OH223709   1.808   2.445  16.131 -0.3305  0.3005  0.2608
  765TIP3    H123710   1.894   2.486  16.116 -0.0465 -0.1995  0.4975
  765TIP3    H223711   1.778   2.420  16.044 -0.1579  0.3284  0.1897
  766TIP3   OH223712   1.620   1.326  10.581 -0.2644  0.3155 -0.1298
  766TIP3    H123713   1.648   1.404  10.630  0.9216  0.3489 -0.8306
  766TIP3    H223714   1.525   1.324  10.591 -0.4460  2.5040 -1.0573
  767TIP3   OH223715   5.722   5.301   3.438  0.0923  0.0955  0.1521
  767TIP3    H123716   5.762   5.386   3.456 -0.2036  0.8411 -2.5576
  767TIP3    H223717   5.629   5.312   3.460  0.3573 -0.0678  1.4128
  768TIP3   OH223718   5.923   0.281   4.527 -0.0133  0.2013 -0.2197
  768TIP3    H123719   5.834   0.258   4.555 -0.8050  2.8428 -0.4580
  768TIP3    H223720   5.979   0.247   4.597 -1.3684  0.1667  0.8759
  769TIP3   OH223721   1.589   6.298  12.917 -0.3099  0.3561 -0.3999
  769TIP3    H123722   1.566   6.218  12.962 -0.3155  0.3973 -0.3295
  769TIP3    H223723   1.519   6.311  12.853  0.9006 -0.9473 -2.0147
  770TIP3   OH223724   0.033   1.198  12.758  0.1655 -0.3408 -0.3735
  770TIP3    H123725  -0.059   1.174  12.748 -0.1175  0.8282 -0.5536
  770TIP3    H223726   0.057   1.161  12.843 -0.6318 -0.1405 -0.0515
  771TIP3   OH223727   4.226   1.294  15.626 -0.5535  0.1422  0.1220
  771TIP3    H123728   4.218   1.204  15.657 -3.0490 -0.2852 -1.6092
  771TIP3    H223729   4.178   1.295  15.543  1.3809  2.5320 -1.0238
  772TIP3   OH223730   4.132   4.478  11.913  0.1164  0.8300  0.5139
  772TIP3    H123731   4.073   4.526  11.971  1.0532 -1.1395  3.1826
  772TIP3    H223732   4.219   4.494  11.949  0.5957 -1.3764  0.3946
  773TIP3   OH223733   3.159   5.601   3.720 -0.5021 -0.2609 -0.2264
  773TIP3    H123734   3.154   5.534   3.651 -1.1803 -0.2732 -0.1719
  773TIP3    H223735   3.087   5.661   3.700 -0.0307  0.3341 -0.1458
  774TIP3   OH223736   1.740   2.151  12.536 -0.1069 -0.2764  0.4827
  774TIP3    H123737   1.825   2.185  12.563 -0.1454  1.9636 -2.0290
  774TIP3    H223738   1.760   2.087  12.468 -0.4029  0.2145 -0.0744
  775TIP3   OH223739   1.638   2.104   5.774  0.5639 -0.5213 -0.1402
  775TIP3    H123740   1.578   2.095   5.848  0.0102  0.2445 -0.4849
  775TIP3    H223741   1.584   2.140   5.704  1.1798 -0.8505 -0.7925
  776TIP3   OH223742   1.762   0.343  14.548 -0.3662 -0.2304 -0.1407
  776TIP3    H123743   1.803   0.383  14.471 -1.1733  1.3150  0.2347
  776TIP3    H223744   1.673   0.323  14.520 -1.1403  1.7653  0.8824
  777TIP3   OH223745   1.094   3.860  12.002 -0.0100  0.0069 -0.1067
  777TIP3    H123746   1.118   3.843  12.094 -2.3962  0.5432  0.6458
  777TIP3    H223747   1.034   3.934  12.007  2.0312  1.8826 -2.3891
  778TIP3   OH223748   2.712   3.175   2.711  0.3355 -0.2232 -0.1542
  778TIP3    H123749   2.622   3.145   2.702  0.8534 -1.5530 -0.9996
  778TIP3    H223750   2.751   3.164   2.624  0.7822  2.1454 -0.2927
  779TIP3   OH223751   1.513   3.653  11.764 -0.1626 -0.8921 -0.2017
  779TIP3    H123752   1.420   3.672  11.779  0.1182  0.1557  0.2548
  779TIP3    H223753   1.558   3.694  11.838  0.4819 -3.4574  0.8839
  780TIP3   OH223754   1.126   5.577   0.258 -0.4673  0.0706 -0.5240
  780TIP3    H123755   1.187   5.549   0.190  0.1409 -0.0797  0.0857
  780TIP3    H223756   1.057   5.510   0.256 -0.7075  0.3275 -1.3187
  781TIP3   OH223757   2.512   3.087   3.553  0.6593  0.1441  0.0937
  781TIP3    H123758   2.564   3.100   3.474  0.2236  1.5554  0.0340
  781TIP3    H223759   2.564   3.124   3.623 -0.0259  1.0891  0.1100
  782TIP3   OH223760   3.747   1.378  16.060 -0.2663 -0.0473  0.4084
  782TIP3    H123761   3.741   1.294  16.015  0.7441 -0.4419  0.9991
  782TIP3    H223762   3.677   1.431  16.021 -1.7498 -1.5666  0.9298
  783TIP3   OH223763   4.733   4.459   3.729 -0.4376 -0.2052  0.8662
  783TIP3    H123764   4.698   4.547   3.742  0.9640  0.3539  0.9290
  783TIP3    H223765   4.656   4.406   3.709 -1.0993  1.3809 -1.0485
  784TIP3   OH223766   0.945   5.428  11.846  0.2997 -0.2796  0.1637
  784TIP3    H123767   0.956   5.352  11.904  1.5783  0.3332  0.7324
  784TIP3    H223768   0.974   5.503  11.899 -1.2443  0.6612 -0.2826
  785TIP3   OH223769   6.121   0.428   0.147  0.2839  0.0384 -0.0031
  785TIP3    H123770   6.171   0.502   0.181  1.2118  0.1334 -1.5429
  785TIP3    H223771   6.187   0.368   0.111 -0.5588 -0.8825 -0.0494
  786TIP3   OH223772   3.509   4.501  14.698  0.3413 -0.1506  0.0288
  786TIP3    H123773   3.588   4.551  14.716  0.2694 -0.6339  1.8967
  786TIP3    H223774   3.539   4.411  14.688 -0.0672 -0.5233  1.9336
  787TIP3   OH223775   4.190   5.543  11.099 -0.1189 -0.2627  0.0533
  787TIP3    H123776   4.198   5.571  11.008  1.6676  0.6407  0.4611
  787TIP3    H223777   4.139   5.612  11.141 -0.4784 -0.4124 -0.1302
  788TIP3   OH223778   2.736   0.610  15.004 -0.2384 -0.0105  0.3067
  788TIP3    H123779   2.724   0.521  15.036 -0.4431  0.6408  2.1021
  788TIP3    H223780   2.680   0.663  15.060  0.6452  1.3789 -0.1036
  789TIP3   OH223781   1.224   6.153  14.491  0.4398 -0.2340 -0.1926
  789TIP3    H123782   1.230   6.190  14.402 -1.7250 -1.9662 -1.0917
  789TIP3    H223783   1.237   6.059  14.478  1.4072 -0.3496  1.5216
  790TIP3   OH223784   3.266   1.727  14.723 -0.0777  0.5027 -0.0168
  790TIP3    H123785   3.299   1.654  14.670  1.2533 -0.6391  2.3053
  790TIP3    H223786   3.216   1.685  14.793 -1.1669  1.9551  0.1004
  791TIP3   OH223787   3.698   0.501   2.815 -0.1450  0.0485 -0.3722
  791TIP3    H123788   3.626   0.506   2.878 -1.9970  1.7649 -2.5145
  791TIP3    H223789   3.746   0.583   2.827  0.9011 -0.6620  0.3802
  792TIP3   OH223790   1.856   0.633   1.672 -0.0955  0.1067  0.6398
  792TIP3    H123791   1.931   0.587   1.634 -1.3567 -0.1518 -1.6424
  792TIP3    H223792   1.821   0.573   1.737  2.7004  0.9557  3.0023
  793TIP3   OH223793   4.048   3.091   0.074  0.2117 -0.0276  0.0390
  793TIP3    H123794   4.080   3.020   0.019 -1.8484 -1.6464  0.8593
  793TIP3    H223795   3.970   3.124   0.029  0.7042  1.2146  0.0621
  794TIP3   OH223796   2.036   5.923  13.675  0.3311  0.2727 -0.1994
  794TIP3    H123797   1.997   6.010  13.683  0.1298  0.0345  1.8770
  794TIP3    H223798   2.047   5.909  13.581 -1.1792  1.8535 -0.6332
  795TIP3   OH223799   6.499   3.935  16.097  0.0307  0.0206 -0.5607
  795TIP3    H123800   6.471   3.899  16.180  2.7919  2.2329  1.4339
  795TIP3    H223801   6.484   4.029  16.104  1.9114  0.4700 -1.8323
  796TIP3   OH223802   0.723   0.385   5.129 -0.0948 -0.1447  0.2645
  796TIP3    H123803   0.717   0.475   5.097  2.0818  0.1321  0.5365
  796TIP3    H223804   0.778   0.391   5.208  2.2778 -2.0107 -1.1509
  797TIP3   OH223805   0.482   5.069   5.787  0.3189  0.1355  0.6094
  797TIP3    H123806   0.474   4.982   5.824 -0.1490  0.5422  1.4784
  797TIP3    H223807   0.393   5.105   5.789  0.4132  0.4244 -0.2454
  798TIP3   OH223808   4.476   1.242   5.037  0.2515  0.1257 -0.5068
  798TIP3    H123809   4.553   1.194   5.068 -0.0133 -0.7455 -1.1755
  798TIP3    H223810   4.493   1.333   5.061  1.5455 -0.0437 -0.7513
  799TIP3   OH223811   2.011   6.754   4.214 -0.0476  0.2319  0.2036
  799TIP3    H123812   1.915   6.751   4.211 -0.1297  0.9187  1.5464
  799TIP3    H223813   2.035   6.692   4.282  0.3085  1.8767  1.6099
  800TIP3   OH223814   2.152   3.469  16.861 -0.3609 -0.9542  0.5695
  800TIP3    H123815   2.135   3.393  16.805  1.2786 -0.6822 -0.3139
  800TIP3    H223816   2.089   3.535  16.831  0.4881 -0.8110 -0.9756
  801TIP3   OH223817   1.251   0.331   2.248 -0.1620 -0.3204  0.1750
  801TIP3    H123818   1.247   0.300   2.339  1.0150 -0.0637  0.3295
  801TIP3    H223819   1.281   0.422   2.255 -0.5987 -0.1268 -0.4409
  802TIP3   OH223820   3.583   3.982  12.493 -0.0047  0.1716  0.1065
  802TIP3    H123821   3.547   3.968  12.405 -1.5344 -0.5097  0.8357
  802TIP3    H223822   3.537   3.920  12.549  1.3928  0.1808  1.3060
  803TIP3   OH223823   4.811   4.316   2.457  0.1494  0.1140 -0.0454
  803TIP3    H123824   4.846   4.327   2.369  1.6310 -1.5492  0.2868
  803TIP3    H223825   4.742   4.250   2.447 -1.1172  1.4717 -0.2880
  804TIP3   OH223826   4.770   2.618   4.220 -0.1213 -0.2365 -0.0327
  804TIP3    H123827   4.858   2.655   4.217  0.0442 -0.5307  0.9933
  804TIP3    H223828   4.783   2.523   4.214 -0.3156 -0.3237  0.8459
  805TIP3   OH223829   0.427   2.861  11.662  0.2714 -0.1612  0.1274
  805TIP3    H123830   0.429   2.884  11.570  1.3033 -2.3305 -0.4204
  805TIP3    H223831   0.408   2.767  11.664 -2.6587  0.3906  2.2425
  806TIP3   OH223832   1.319   1.188   2.237  0.7955 -0.5016 -0.4340
  806TIP3    H123833   1.284   1.269   2.274 -0.1767 -1.1353  0.0598
  806TIP3    H223834   1.393   1.216   2.183  2.6507  0.4082  2.4475
  807TIP3   OH223835   3.119   1.557   4.504 -0.4366  0.4721  0.6925
  807TIP3    H123836   3.140   1.463   4.497 -1.5754  0.2704 -0.0925
  807TIP3    H223837   3.181   1.599   4.444 -0.0953  0.2034  0.8518
  808TIP3   OH223838   3.488   0.169   3.652 -0.4728 -0.3536 -0.8421
  808TIP3    H123839   3.416   0.190   3.592  0.1367  0.9313 -1.1521
  808TIP3    H223840   3.537   0.100   3.609 -0.0561  0.5439 -1.8271
  809TIP3   OH223841   6.596   0.963   2.632  0.6517  0.1037  0.0449
  809TIP3    H123842   6.507   0.928   2.623  1.8417 -2.8396 -1.2135
  809TIP3    H223843   6.594   1.014   2.712 -2.3691  0.7157 -0.3581
  810TIP3   OH223844   2.977   3.582   1.922 -0.2010  0.4611  0.5164
  810TIP3    H123845   3.029   3.576   2.002 -0.2546 -1.4072  0.4415
  810TIP3    H223846   2.928   3.500   1.920 -0.7714  0.8288 -1.0497
  811TIP3   OH223847   0.248   4.972   1.212 -0.0305 -0.3717  0.5113
  811TIP3    H123848   0.240   4.880   1.187  1.5666 -0.5213  0.5162
  811TIP3    H223849   0.262   5.018   1.129  0.6462 -0.3113  0.6590
  812TIP3   OH223850   4.316   3.982  13.140  0.9170  0.3414 -0.0701
  812TIP3    H123851   4.348   4.036  13.067  2.8253 -0.5352  0.1089
  812TIP3    H223852   4.309   3.894  13.103  1.4726 -0.0231  0.6939
  813TIP3   OH223853   4.411   2.509  13.383 -0.3530 -0.1532  0.1074
  813TIP3    H123854   4.366   2.428  13.410  0.6284 -0.9514 -0.6365
  813TIP3    H223855   4.401   2.568  13.458  0.5081 -1.6124  1.3949
  814TIP3   OH223856   4.653   1.663  14.624  0.6722 -0.2430  0.6759
  814TIP3    H123857   4.580   1.611  14.657 -0.2929 -0.7020 -2.0174
  814TIP3    H223858   4.615   1.748  14.602  1.5882  0.5476  2.0329
  815TIP3   OH223859   4.591   5.764   2.807 -0.3393  0.6013  0.1002
  815TIP3    H123860   4.606   5.670   2.819 -0.1812  0.3517 -1.9185
  815TIP3    H223861   4.666   5.805   2.849  1.0517 -0.2906 -1.4603
  816TIP3   OH223862   6.391   5.455   4.853  0.2317 -0.5069  0.0927
  816TIP3    H123863   6.304   5.456   4.892 -0.1218 -0.6063 -0.6879
  816TIP3    H223864   6.419   5.363   4.859 -0.8966 -1.0572 -2.2083
  817TIP3   OH223865   2.862   4.277   0.226  0.1547 -0.5966  0.0287
  817TIP3    H123866   2.776   4.318   0.223  0.2526 -0.4146 -0.2949
  817TIP3    H223867   2.904   4.313   0.304 -0.3179 -1.1992  0.5728
  818TIP3   OH223868   1.201   0.209   4.346 -0.1709 -0.0825 -0.5476
  818TIP3    H123869   1.258   0.269   4.395  1.7776  0.0871 -2.9039
  818TIP3    H223870   1.201   0.129   4.398  0.6154  0.5794  0.5093
  819TIP3   OH223871   4.307   4.453   4.381  0.2528 -0.4761 -0.1864
  819TIP3    H123872   4.383   4.410   4.420  1.2040  1.0198 -0.3647
  819TIP3    H223873   4.242   4.456   4.451  0.6817 -0.9673  0.2331
  820TIP3   OH223874   0.495   1.143   3.135  0.5605 -0.1049 -0.3726
  820TIP3    H123875   0.480   1.050   3.150  1.5744  0.1168  2.4338
  820TIP3    H223876   0.491   1.182   3.223 -0.1854  2.5436 -1.5323
  821TIP3   OH223877   2.829   0.374   1.646  0.3487  0.2412  0.2308
  821TIP3    H123878   2.749   0.362   1.696  0.7387 -0.9414  0.5895
  821TIP3    H223879   2.834   0.296   1.590  2.9960 -1.4538  2.6699
  822TIP3   OH223880   2.752   2.701  13.956 -0.2462  0.5137 -0.5328
  822TIP3    H123881   2.804   2.637  14.005  2.3684  2.3054 -0.8920
  822TIP3    H223882   2.723   2.764  14.022  1.1483  1.5280 -0.8653
  823TIP3   OH223883   6.714   0.804   2.208  0.1395 -0.2646 -0.1016
  823TIP3    H123884   6.695   0.748   2.283 -1.9512 -0.2718 -0.6064
  823TIP3    H223885   6.656   0.772   2.139  3.5829 -1.7215 -2.4727
  824TIP3   OH223886   1.699   5.085  13.420 -0.3867  0.4321  0.0896
  824TIP3    H123887   1.713   5.172  13.458 -1.0067  0.1168  1.0566
  824TIP3    H223888   1.622   5.096  13.364 -1.4239  0.1610  1.4198
  825TIP3   OH223889   2.605   5.723   6.555 -0.3798 -0.0087  0.3320
  825TIP3    H123890   2.601   5.713   6.650  1.4593  3.0238  0.8022
  825TIP3    H223891   2.514   5.720   6.527 -0.8620 -2.1729  2.0226
  826TIP3   OH223892   2.725   2.633  15.245 -0.7440  0.7296 -0.4771
  826TIP3    H123893   2.772   2.560  15.205 -0.8423  0.4221 -0.0375
  826TIP3    H223894   2.710   2.605  15.335  1.5643  2.3437  0.4808
  827TIP3   OH223895   0.826   4.889   3.901 -0.6177  0.0993 -0.3952
  827TIP3    H123896   0.906   4.942   3.909 -1.3008  1.0984 -0.0568
  827TIP3    H223897   0.827   4.833   3.979  0.8514 -1.4459 -1.4855
  828TIP3   OH223898   6.172   6.423  16.213  0.1588  0.0108 -0.3001
  828TIP3    H123899   6.193   6.479  16.138  0.7081  0.7943  0.4281
  828TIP3    H223900   6.254   6.417  16.262 -0.1659 -0.5856  0.1817
  829TIP3   OH223901   5.429   4.060  10.784  0.8519  0.5539  0.1103
  829TIP3    H123902   5.499   3.999  10.762  1.6040  0.6720  2.1318
  829TIP3    H223903   5.354   4.005  10.802  0.2814  0.4360 -2.3886
  830TIP3   OH223904   3.409   0.668   5.008  0.2076 -0.6146  0.1143
  830TIP3    H123905   3.455   0.667   5.092  0.8646 -1.0030 -0.2473
  830TIP3    H223906   3.448   0.596   4.959 -0.1949 -0.4043 -0.5180
  831TIP3   OH223907   1.706   4.569  14.457 -0.5988  0.2702 -0.3017
  831TIP3    H123908   1.709   4.661  14.485 -1.4880  0.3400 -0.4278
  831TIP3    H223909   1.680   4.573  14.365  0.1704 -0.0729 -0.5410
  832TIP3   OH223910   1.294   5.208  15.188  0.7801 -0.1108  0.3690
  832TIP3    H123911   1.204   5.186  15.211  0.9383 -1.0406  0.1220
  832TIP3    H223912   1.315   5.283  15.244  0.1971 -0.5210  1.1544
  833TIP3   OH223913   3.560   5.496  15.387  0.8615 -0.1212 -0.5231
  833TIP3    H123914   3.604   5.569  15.343  0.1239  0.3109 -0.5442
  833TIP3    H223915   3.588   5.419  15.338 -0.7862  0.4646 -2.4273
  834TIP3   OH223916   0.185   3.791  14.833  0.9071  0.1798  0.6286
  834TIP3    H123917   0.190   3.887  14.840  1.2958  0.3455 -1.3881
  834TIP3    H223918   0.111   3.776  14.774  1.9249 -0.6863 -0.4441
  835TIP3   OH223919   5.031   5.865  15.211  0.6624 -0.4825 -0.0406
  835TIP3    H123920   5.115   5.862  15.167  0.8339  1.4770  0.1120
  835TIP3    H223921   5.009   5.958  15.214 -1.8165 -1.0149 -0.6671
  836TIP3   OH223922   6.579   0.172  17.155  0.2248 -0.4660 -0.0862
  836TIP3    H123923   6.560   0.175  17.062 -1.4647 -1.2692  0.2114
  836TIP3    H223924   6.603   0.081  17.172  2.3285  0.0708 -0.0547
  837TIP3   OH223925   3.748   2.875  11.502 -0.1434 -0.1273 -0.1129
  837TIP3    H123926   3.760   2.780  11.490  1.2325  0.1047 -0.6953
  837TIP3    H223927   3.834   2.912  11.485 -0.7134  1.2599 -0.0399
  838TIP3   OH223928   0.849   0.746   5.946  0.0245 -0.0222  0.0533
  838TIP3    H123929   0.760   0.720   5.970  0.3051  0.2750  1.4348
  838TIP3    H223930   0.887   0.782   6.026  1.3739 -0.0825 -0.5348
  839TIP3   OH223931   4.244   6.427  15.602  0.3843 -0.1252 -0.0467
  839TIP3    H123932   4.326   6.462  15.637  1.2688 -0.1259 -2.0331
  839TIP3    H223933   4.228   6.347  15.653  2.0889 -0.5927 -0.2106
  840TIP3   OH223934   5.949   0.552  11.965  0.0444  0.1717 -0.5292
  840TIP3    H123935   5.931   0.557  12.059 -0.5847  1.0459 -0.6839
  840TIP3    H223936   5.876   0.501  11.929 -1.4965  2.6016 -0.9765
  841TIP3   OH223937   3.844   3.687   3.359  0.3370  0.1059 -0.2700
  841TIP3    H123938   3.793   3.689   3.440 -0.4180 -0.0459 -0.7381
  841TIP3    H223939   3.796   3.744   3.299  0.2323 -0.7633 -1.0108
  842TIP3   OH223940   1.752   6.204   4.009 -0.0480  0.2427  0.2069
  842TIP3    H123941   1.718   6.224   3.921  0.9265  1.0967  0.0165
  842TIP3    H223942   1.847   6.217   4.002  0.0661  0.0752  1.3221
  843TIP3   OH223943   4.379   3.419   5.284 -0.7234  0.5933 -0.8227
  843TIP3    H123944   4.291   3.444   5.256 -0.2075  2.2208 -1.0219
  843TIP3    H223945   4.369   3.329   5.316 -2.1341  0.1476 -2.3995
  844TIP3   OH223946   3.090   4.885  11.622  0.0509  0.5211 -0.0300
  844TIP3    H123947   3.013   4.828  11.621 -0.4708  1.2205 -0.2270
  844TIP3    H223948   3.094   4.920  11.533  1.2972 -0.4291 -0.3619
  845TIP3   OH223949   3.949   2.937   3.061  0.8302 -0.7941  0.2159
  845TIP3    H123950   3.881   2.974   3.116 -0.0572 -1.1058 -0.6538
  845TIP3    H223951   4.003   3.012   3.035 -0.5670 -0.2077 -1.0081
  846TIP3   OH223952   3.981   3.633   4.802  0.2728  0.4989 -0.1150
  846TIP3    H123953   4.031   3.676   4.733 -3.3701  1.8649 -2.0614
  846TIP3    H223954   3.903   3.599   4.757  0.5093 -3.6182  2.3322
  847TIP3   OH223955   2.126   0.344  14.355  0.3922  0.4350  0.2686
  847TIP3    H123956   2.201   0.402  14.346 -0.6620  2.0919  1.7391
  847TIP3    H223957   2.077   0.355  14.273  0.0985  1.8148  0.6136
  848TIP3   OH223958   0.140   6.386  10.621  0.3795 -0.4647 -0.0253
  848TIP3    H123959   0.089   6.414  10.545  0.7180  0.3270  0.0273
  848TIP3    H223960   0.231   6.398  10.595  0.4828  1.5208  1.1042
  849TIP3   OH223961   5.328   2.230  13.892  0.0849  0.2460 -0.1981
  849TIP3    H123962   5.279   2.246  13.972 -0.3861 -0.2413 -0.3879
  849TIP3    H223963   5.420   2.231  13.919 -0.0960 -0.5261  0.4559
  850TIP3   OH223964   3.440   2.811   5.593 -0.7422 -0.4857  0.2998
  850TIP3    H123965   3.444   2.739   5.531 -1.5629  0.4510 -0.8595
  850TIP3    H223966   3.426   2.768   5.678  0.5054 -1.7717 -0.1258
  851TIP3   OH223967   4.330   0.368  14.909 -0.4505 -0.0904  0.6667
  851TIP3    H123968   4.395   0.354  14.978  0.1129  1.0041  0.3533
  851TIP3    H223969   4.357   0.310  14.838 -0.2944 -0.2389  0.8469
  852TIP3   OH223970   5.119   4.510  11.560  0.5540  0.3225 -0.3517
  852TIP3    H123971   5.111   4.589  11.506 -1.2651 -0.4144 -1.1897
  852TIP3    H223972   5.049   4.519  11.624  0.7196 -0.3396 -0.0821
  853TIP3   OH223973   2.561   3.162   2.091 -0.3454 -0.0711  0.3273
  853TIP3    H123974   2.499   3.110   2.040 -0.1225  0.3934 -0.4146
  853TIP3    H223975   2.521   3.167   2.178 -0.5581 -1.1525  0.3005
  854TIP3   OH223976   2.663   3.513   0.303 -0.4115 -0.1520 -0.4555
  854TIP3    H123977   2.657   3.538   0.395 -0.3324 -1.7149 -0.0152
  854TIP3    H223978   2.614   3.581   0.256  0.0082  0.9430  0.6801
  855TIP3   OH223979   2.477   3.962   2.956  0.2000  0.5792 -0.3038
  855TIP3    H123980   2.403   3.906   2.978  0.5190 -0.3050 -1.4571
  855TIP3    H223981   2.437   4.045   2.927 -0.2854  0.6930  0.6837
  856TIP3   OH223982   6.279   5.878   4.215  0.0701 -0.1888 -0.2871
  856TIP3    H123983   6.184   5.878   4.199  0.3511  0.8023 -2.0873
  856TIP3    H223984   6.294   5.958   4.266 -0.0532 -0.2790 -0.1099
  857TIP3   OH223985   2.044   3.356  12.326  1.0972 -0.5941  0.8786
  857TIP3    H123986   2.077   3.313  12.405  2.5383 -1.9283 -0.4189
  857TIP3    H223987   2.122   3.369  12.271  0.3055  1.3945  0.1598
  858TIP3   OH223988   5.958   0.756   5.877  1.1368  0.0415 -0.0818
  858TIP3    H123989   5.912   0.694   5.933 -0.4860  1.8808  0.6796
  858TIP3    H223990   5.987   0.704   5.802 -0.5897 -1.5218  0.3076
  859TIP3   OH223991   3.049   6.765  11.846 -0.4211  0.1615 -0.6008
  859TIP3    H123992   3.054   6.811  11.929  0.6475 -0.7441 -0.1480
  859TIP3    H223993   3.140   6.741  11.826 -0.6466  0.4421 -2.0708
  860TIP3   OH223994   0.345   5.288   6.036  0.2839  0.5241 -0.0125
  860TIP3    H123995   0.412   5.236   6.081 -0.9864 -1.5549 -0.4635
  860TIP3    H223996   0.323   5.237   5.958 -1.5420  1.3376 -0.0596
  861TIP3   OH223997   1.802   3.280   0.060 -0.6465 -0.2592 -0.3713
  861TIP3    H123998   1.882   3.233   0.037  0.5587  0.8540  1.4290
  861TIP3    H223999   1.775   3.241   0.143 -1.6084 -0.1611 -0.6291
  862TIP3   OH224000   3.922   5.722  14.644  0.4160  0.4491 -0.7610
  862TIP3    H124001   3.993   5.782  14.668 -0.7193  1.0889  1.0642
  862TIP3    H224002   3.953   5.681  14.562  2.7046  0.9789 -0.2126
  863TIP3   OH224003   5.899   4.952  11.487 -0.4008  0.3305  0.9522
  863TIP3    H124004   5.944   5.032  11.517 -2.2389  1.8723 -0.2887
  863TIP3    H224005   5.812   4.958  11.528 -1.0376 -0.3136 -0.3063
  864TIP3   OH224006   3.403   3.266   5.125 -0.3116 -0.0503 -0.3079
  864TIP3    H124007   3.436   3.261   5.036 -1.3279  0.3848 -0.7168
  864TIP3    H224008   3.309   3.252   5.117 -0.3953 -0.1172  0.7063
  865TIP3   OH224009   5.499   2.927  16.480  0.1085 -0.6526  0.4086
  865TIP3    H124010   5.413   2.884  16.478  0.5048 -1.5615  1.9591
  865TIP3    H224011   5.552   2.877  16.419  0.5555 -2.4220  2.1696
  866TIP3   OH224012   1.336   0.435  11.161 -0.4948  0.1206  0.0979
  866TIP3    H124013   1.365   0.344  11.171  0.5214  0.4205 -0.0358
  866TIP3    H224014   1.389   0.469  11.089  1.2198  1.6582  2.0478
  867TIP3   OH224015   1.504   1.581   5.484  0.4815  0.0053  0.2460
  867TIP3    H124016   1.535   1.521   5.552  1.6190  0.2661 -0.0383
  867TIP3    H224017   1.440   1.637   5.529  0.9955 -0.0249  1.0287
  868TIP3   OH224018   6.325   4.602   3.799 -0.2953  0.4084  0.2659
  868TIP3    H124019   6.360   4.669   3.740 -0.2598 -1.3050 -1.7111
  868TIP3    H224020   6.317   4.646   3.883 -0.9083  3.0782 -1.1558
  869TIP3   OH224021   5.377   5.958   0.207 -0.4803  0.4420  0.0954
  869TIP3    H124022   5.311   6.027   0.214 -2.1004 -1.1074  0.3296
  869TIP3    H224023   5.346   5.902   0.136  0.0902 -0.8045  0.8105
  870TIP3   OH224024   6.240   3.651  15.946  0.1792  0.0545 -0.4299
  870TIP3    H124025   6.244   3.586  16.015  1.3465  0.3148 -0.2425
  870TIP3    H224026   6.285   3.611  15.871 -0.8014 -0.1049 -0.9411
  871TIP3   OH224027   6.531   2.677  14.475 -0.0293  0.0750 -0.1007
  871TIP3    H124028   6.577   2.595  14.460 -0.0381  0.2507 -1.0877
  871TIP3    H224029   6.453   2.672  14.419  1.3229  1.8664 -2.2171
  872TIP3   OH224030   1.775   3.081  13.613 -0.1771 -0.3172  0.0231
  872TIP3    H124031   1.844   3.115  13.670  1.4594 -0.0893 -2.0093
  872TIP3    H224032   1.722   3.157  13.591  0.1263 -0.1106 -0.0004
  873TIP3   OH224033   1.116   3.064   4.742 -0.1196  0.3164  0.0806
  873TIP3    H124034   1.206   3.035   4.755 -0.3591 -0.4367  0.0921
  873TIP3    H224035   1.101   3.126   4.813  0.3642  0.3752  0.1344
  874TIP3   OH224036   5.452   4.330   1.931  0.2274 -0.2342 -0.1326
  874TIP3    H124037   5.494   4.412   1.909 -0.0381 -0.0753 -0.0474
  874TIP3    H224038   5.404   4.348   2.012  0.9218 -0.7221  0.3952
  875TIP3   OH224039   2.382   4.202  12.270 -0.3917  0.2456 -0.1192
  875TIP3    H124040   2.308   4.148  12.242  0.1045 -0.6789  0.3268
  875TIP3    H224041   2.341   4.281  12.307 -1.1312  0.0071 -0.4196
  876TIP3   OH224042   6.253   2.781  14.889  0.0075 -0.5762 -0.1873
  876TIP3    H124043   6.276   2.858  14.942 -0.5704  1.8147 -3.2838
  876TIP3    H224044   6.279   2.804  14.800 -1.0210 -3.6473 -1.3475
  877TIP3   OH224045   6.426   5.735  12.260 -0.2298 -0.1400 -0.0251
  877TIP3    H124046   6.381   5.653  12.238 -0.7458 -0.5558  2.4658
  877TIP3    H224047   6.401   5.795  12.190 -0.1419 -1.9854 -1.7048
  878TIP3   OH224048   4.142   2.749   3.321  0.0056  0.0669 -0.7677
  878TIP3    H124049   4.235   2.728   3.329 -0.2500 -1.7738 -2.3359
  878TIP3    H224050   4.139   2.845   3.321  1.7464  0.1548  0.7830
  879TIP3   OH224051   5.483   6.170  15.103  0.3178  0.1211 -0.0193
  879TIP3    H124052   5.403   6.212  15.073  1.0195  1.0119 -0.6981
  879TIP3    H224053   5.491   6.092  15.048 -0.3593 -0.2437  0.4062
  880TIP3   OH224054   3.915   2.560  13.823 -0.2961 -0.2294 -0.3261
  880TIP3    H124055   3.859   2.495  13.865  0.4344 -0.5014  0.2487
  880TIP3    H224056   3.951   2.611  13.896  0.8882 -0.6205 -0.6272
  881TIP3   OH224057   6.233   0.459   2.398 -0.0185  0.0894 -0.1780
  881TIP3    H124058   6.236   0.472   2.493  1.6084 -0.8613 -0.0749
  881TIP3    H224059   6.325   0.454   2.372 -0.4781 -2.2470 -1.4338
  882TIP3   OH224060   4.481   2.057   4.683  0.7460 -0.2691  0.3647
  882TIP3    H124061   4.474   2.018   4.596  1.9386 -0.6245  0.4050
  882TIP3    H224062   4.554   2.010   4.723  0.7320  0.4601  1.2536
  883TIP3   OH224063   2.028   0.562   1.915  0.2910 -0.0695 -0.2187
  883TIP3    H124064   1.965   0.621   1.956  0.2571  0.6658 -1.3252
  883TIP3    H224065   2.104   0.566   1.973 -0.9566 -1.6337  1.6057
  884TIP3   OH224066   2.554   3.617   6.656 -0.5385 -0.0961 -0.0690
  884TIP3    H124067   2.496   3.631   6.582 -2.2263  0.8414  1.4190
  884TIP3    H224068   2.542   3.693   6.712  1.6687 -0.1782  0.5699
  885TIP3   OH224069   0.651   0.088  15.739 -0.0329 -0.2441  0.0647
  885TIP3    H124070   0.650   0.029  15.664  0.8604  0.8226 -0.8149
  885TIP3    H224071   0.722   0.150  15.719 -1.3362  1.4621  0.6747
  886TIP3   OH224072   1.911   1.057   5.117 -0.4548  0.6577  0.3745
  886TIP3    H124073   1.984   1.051   5.055 -1.8270 -0.3439 -1.1831
  886TIP3    H224074   1.953   1.073   5.202  1.5944 -0.5527 -0.3782
  887TIP3   OH224075   0.149   0.069  11.422 -0.3401  0.2242  0.7238
  887TIP3    H124076   0.231   0.096  11.380  0.0710 -1.7820  0.1580
  887TIP3    H224077   0.087   0.139  11.402  0.5766  0.5732 -0.9731
  888TIP3   OH224078   0.576   5.875   2.290  0.8833  0.1251  0.0189
  888TIP3    H124079   0.496   5.846   2.332 -1.2864  1.4300 -3.0211
  888TIP3    H224080   0.624   5.795   2.271 -0.8416 -0.8485 -0.2860
  889TIP3   OH224081   3.292   2.406   6.055  0.1635  0.6849  0.1335
  889TIP3    H124082   3.275   2.312   6.065 -0.1061  0.7363  0.1658
  889TIP3    H224083   3.226   2.448   6.111 -0.0163  0.9088 -0.2508
  890TIP3   OH224084   2.778   5.440   5.561  0.3122 -0.1756  0.7486
  890TIP3    H124085   2.773   5.534   5.582  2.1700  0.3124 -0.8330
  890TIP3    H224086   2.847   5.407   5.618  1.5294  0.0053 -0.5878
  891TIP3   OH224087   3.036   1.140   1.511  0.1935  0.6889  0.0252
  891TIP3    H124088   3.123   1.150   1.549  0.8954 -1.7111 -0.8748
  891TIP3    H224089   2.977   1.139   1.587  0.9897  1.6037  0.6728
  892TIP3   OH224090   0.750   1.864   5.569  0.1098 -0.2757  0.5297
  892TIP3    H124091   0.761   1.952   5.535 -1.9161 -0.1732  0.1311
  892TIP3    H224092   0.765   1.873   5.664 -0.2953  0.5363  0.5206
  893TIP3   OH224093   5.210   1.742  13.598  0.2426 -0.7205 -0.2489
  893TIP3    H124094   5.163   1.825  13.597 -0.5946 -1.1813  0.1862
  893TIP3    H224095   5.239   1.730  13.508 -0.3496 -0.3581 -0.4924
  894TIP3   OH224096   5.408   1.270  16.608  0.1538 -0.1087 -0.0218
  894TIP3    H124097   5.487   1.225  16.577  0.6063  0.8807 -0.3167
  894TIP3    H224098   5.400   1.245  16.700  2.4303  2.0484  0.7988
  895TIP3   OH224099   3.095   3.748   4.880  0.7198  0.2838  0.2001
  895TIP3    H124100   3.051   3.791   4.807  1.4730 -0.0082 -0.4318
  895TIP3    H224101   3.154   3.815   4.915  0.3934  0.4088  0.5137
  896TIP3   OH224102   3.626   2.550   1.257  0.3462 -0.1552 -0.2766
  896TIP3    H124103   3.647   2.464   1.221 -0.1466 -0.8526  1.0872
  896TIP3    H224104   3.650   2.545   1.349  0.3658  1.1992 -0.1880
  897TIP3   OH224105   6.782   4.355   3.126  0.4028 -0.1819 -0.9628
  897TIP3    H124106   6.792   4.440   3.169 -1.2939  0.4926 -1.8711
  897TIP3    H224107   6.871   4.326   3.109  1.0211  0.9363  0.2838
  898TIP3   OH224108   6.622   2.185  14.485  0.2366  0.0900 -0.0368
  898TIP3    H124109   6.556   2.122  14.456  0.3207  0.5628 -1.3144
  898TIP3    H224110   6.696   2.132  14.513  0.2655 -0.3813 -0.9958
  899TIP3   OH224111   6.036   1.100  14.325  0.1730 -0.4201  0.3766
  899TIP3    H124112   5.973   1.159  14.285  1.0821  0.0292 -0.4157
  899TIP3    H224113   6.046   1.133  14.415  0.7333  0.6897 -0.0790
  900TIP3   OH224114   3.269   4.834   3.295  0.0717 -0.6029 -0.2757
  900TIP3    H124115   3.269   4.805   3.386  3.7432 -0.0157 -0.0098
  900TIP3    H224116   3.270   4.929   3.301  1.8872 -0.5700 -0.8679
  901TIP3   OH224117   0.703   6.091   1.100 -0.0132  0.1549 -0.2989
  901TIP3    H124118   0.690   6.095   1.195  0.1153 -2.4720 -0.1360
  901TIP3    H224119   0.706   5.998   1.080 -1.9815  0.6450 -3.1738
  902TIP3   OH224120   0.810   4.278   4.126 -0.3106  0.3175 -0.1907
  902TIP3    H124121   0.832   4.245   4.039 -2.0765  2.5810 -1.5650
  902TIP3    H224122   0.862   4.358   4.135 -0.0764  0.0521  0.8769
  903TIP3   OH224123   2.880   3.088   3.176 -0.0423  0.5389 -0.0341
  903TIP3    H124124   2.853   3.036   3.100 -1.3213  0.7161  0.2943
  903TIP3    H224125   2.964   3.126   3.150  0.7840 -1.4490 -0.3905
  904TIP3   OH224126   4.219   1.692  13.096  0.1470 -0.2791 -0.1744
  904TIP3    H124127   4.273   1.699  13.017  0.9565  2.4176  0.5861
  904TIP3    H224128   4.143   1.746  13.077  0.5569  0.7432  1.0494
  905TIP3   OH224129   0.503   2.412   5.541 -0.2512  0.3236 -0.0993
  905TIP3    H124130   0.567   2.341   5.548 -1.4158 -0.6951  0.3864
  905TIP3    H224131   0.539   2.469   5.473  0.8813 -0.5391 -0.2563
  906TIP3   OH224132   2.750   3.405   4.598  0.5013 -0.6339 -0.2366
  906TIP3    H124133   2.845   3.394   4.599  0.4531 -1.1294 -1.3782
  906TIP3    H224134   2.720   3.358   4.520 -0.5800  0.3434 -0.4280
  907TIP3   OH224135   4.550   3.694   6.505 -0.2333  0.0900  0.7541
  907TIP3    H124136   4.470   3.715   6.553 -0.6192  0.9318 -0.2122
  907TIP3    H224137   4.548   3.753   6.429  2.3747  1.6585  1.8408
  908TIP3   OH224138   4.183   6.102   5.698  0.0236 -0.3442 -0.0919
  908TIP3    H124139   4.093   6.075   5.713  0.1576  0.1653  1.8039
  908TIP3    H224140   4.183   6.196   5.715  1.0011 -0.4309  0.4483
  909TIP3   OH224141   4.091   0.842  15.994  0.0837 -0.1056  0.7795
  909TIP3    H124142   4.044   0.925  16.001 -0.3154 -0.2785  0.1857
  909TIP3    H224143   4.035   0.778  16.038  0.4612 -0.0371  1.3676
  910TIP3   OH224144   2.467   0.439   2.898 -0.1506  0.1208 -0.4276
  910TIP3    H124145   2.411   0.502   2.944  0.0939 -0.5627  0.8134
  910TIP3    H224146   2.521   0.493   2.840  0.5872  1.1240  1.1814
  911TIP3   OH224147   2.962   2.770  15.317  0.2245  0.1957  0.1022
  911TIP3    H124148   2.873   2.781  15.283  0.5393  0.6594 -0.5723
  911TIP3    H224149   2.950   2.715  15.395 -0.8495  1.6999  1.0320
  912TIP3   OH224150   6.019   0.865  13.854  0.6178  0.3883  0.0564
  912TIP3    H124151   5.993   0.819  13.774 -0.7054  0.7051  0.2877
  912TIP3    H224152   6.043   0.953  13.824  0.3966  0.4208 -0.0266
  913TIP3   OH224153   2.591   5.949  13.234 -0.2182 -0.3491 -0.2453
  913TIP3    H124154   2.580   6.028  13.288  0.0932 -0.0622 -0.6068
  913TIP3    H224155   2.684   5.946  13.214  0.0626 -1.7040  1.1335
  914TIP3   OH224156   0.728   4.266   5.597 -0.2690 -0.0153 -0.0417
  914TIP3    H124157   0.689   4.200   5.655 -0.5988  0.0651 -0.1704
  914TIP3    H224158   0.746   4.341   5.654 -0.7601  0.1310 -0.0804
  915TIP3   OH224159   4.910   6.434   2.372  0.2074  0.9332 -0.5782
  915TIP3    H124160   4.962   6.363   2.411 -1.1276 -1.3550 -2.7928
  915TIP3    H224161   4.969   6.474   2.308 -0.0418 -0.3114 -1.6110
  916TIP3   OH224162   1.111   2.771  10.938 -0.5688  0.1187  0.1445
  916TIP3    H124163   1.103   2.744  10.847  0.0125  1.3789 -0.2960
  916TIP3    H224164   1.040   2.725  10.983 -0.6608 -0.7714 -0.8700
  917TIP3   OH224165   3.574   3.761   3.063 -0.3148 -0.0179 -0.1109
  917TIP3    H124166   3.570   3.702   2.987  2.9850 -0.6156  0.1056
  917TIP3    H224167   3.566   3.849   3.025 -2.0388 -0.4347 -0.7677
  918TIP3   OH224168   1.400   4.906   1.236 -0.0648 -0.0587  0.0717
  918TIP3    H124169   1.360   4.823   1.209 -0.0030 -0.2841  0.6456
  918TIP3    H224170   1.347   4.973   1.193 -0.7473 -0.3668  0.4109
  919TIP3   OH224171   4.047   5.012   3.875 -0.2786  0.2631 -0.5523
  919TIP3    H124172   4.000   4.954   3.936 -1.2078 -0.0875 -1.6067
  919TIP3    H224173   4.023   5.100   3.902  0.4489  0.1616  0.4979
  920TIP3   OH224174   5.468   6.596   4.704 -0.1129  0.5327 -0.6388
  920TIP3    H124175   5.457   6.611   4.798 -0.2783  1.0846 -0.7484
  920TIP3    H224176   5.401   6.530   4.683 -1.1891  1.6199 -0.6900
  921TIP3   OH224177   3.305   2.833   6.071 -0.0921  0.2327  0.1696
  921TIP3    H124178   3.256   2.891   6.130 -1.2638 -1.1953  0.6319
  921TIP3    H224179   3.344   2.767   6.128 -0.8896 -0.9149 -0.5729
  922TIP3   OH224180   4.738   2.592   0.999 -0.2776 -0.3107  0.7632
  922TIP3    H124181   4.819   2.541   0.998 -0.5382 -0.7271  0.4413
  922TIP3    H224182   4.669   2.526   0.989 -0.7670 -0.1867  2.9972
  923TIP3   OH224183   2.468   6.744  12.319  0.2285  0.4384 -0.1394
  923TIP3    H124184   2.405   6.803  12.360  0.3299  1.0522 -0.8420
  923TIP3    H224185   2.421   6.661  12.310  0.3995  0.1305  1.7084
  924TIP3   OH224186   5.606   1.100   4.716 -0.0088  0.1709 -0.0094
  924TIP3    H124187   5.649   1.186   4.712  0.3972 -0.0229  0.1411
  924TIP3    H224188   5.676   1.039   4.740 -0.3318 -0.1767  0.0606
  925TIP3   OH224189   1.054   4.710   1.925  0.4353  0.2888  0.2740
  925TIP3    H124190   0.980   4.718   1.865  2.3527 -3.2185 -2.8394
  925TIP3    H224191   1.081   4.800   1.943 -3.8087  1.5599  0.5844
  926TIP3   OH224192   3.251   2.452  15.962  0.1167  0.2609  0.3843
  926TIP3    H124193   3.175   2.509  15.966 -0.5090 -0.6271  1.2050
  926TIP3    H224194   3.252   2.406  16.046 -0.3665 -2.1959 -0.9074
  927TIP3   OH224195   2.992   3.762  13.187  0.4638 -0.4816  0.5145
  927TIP3    H124196   3.026   3.825  13.125  2.5267 -1.0456  1.0163
  927TIP3    H224197   3.070   3.726  13.230 -0.8337 -0.9110  2.6205
  928TIP3   OH224198   2.580   0.646   6.002 -0.1542  0.4230 -0.1104
  928TIP3    H124199   2.509   0.590   5.970  0.1611  0.9566 -1.8213
  928TIP3    H224200   2.537   0.728   6.025 -0.3617  0.0921  0.6855
  929TIP3   OH224201   4.538   1.992  15.246 -0.5794 -0.5346 -0.0136
  929TIP3    H124202   4.516   1.964  15.157 -0.5577  1.4575 -0.6646
  929TIP3    H224203   4.628   1.963  15.259 -0.4361 -0.4541 -0.7977
  930TIP3   OH224204   2.879   3.587  16.708  0.7696 -0.1729 -0.0485
  930TIP3    H124205   2.893   3.622  16.620 -2.2989 -0.3994 -0.6754
  930TIP3    H224206   2.921   3.501  16.707  0.6290 -0.2320 -1.3493
  931TIP3   OH224207   3.440   2.572   5.336  0.1682 -0.4624 -0.1649
  931TIP3    H124208   3.478   2.493   5.297  0.6716 -0.9428  1.2854
  931TIP3    H224209   3.420   2.547   5.426 -2.0249  0.3051 -0.4171
  932TIP3   OH224210   4.226   2.560   4.865 -0.1132  0.0744  0.6926
  932TIP3    H124211   4.282   2.632   4.836 -0.4512  0.4442  0.9525
  932TIP3    H224212   4.280   2.511   4.927  0.5273 -0.5805 -0.3663
  933TIP3   OH224213   2.144   4.614  12.881  0.1815  0.4324 -0.6567
  933TIP3    H124214   2.177   4.653  12.799  0.6171  0.3819 -0.5064
  933TIP3    H224215   2.056   4.650  12.890 -0.3108 -0.4510 -1.7558
  934TIP3   OH224216   4.503   4.436  15.309  0.2170  0.1821 -0.2361
  934TIP3    H124217   4.568   4.396  15.251  2.4855  1.0291  1.6111
  934TIP3    H224218   4.477   4.366  15.368  0.3168  0.1224 -0.2623
  935TIP3   OH224219   1.241   4.044  15.718 -0.1186 -0.4411  0.2678
  935TIP3    H124220   1.223   3.951  15.702  2.5521 -0.7314 -1.3181
  935TIP3    H224221   1.313   4.043  15.781  0.0728  0.5444  0.0625
  936TIP3   OH224222   5.481   6.280  16.743 -0.3150 -0.2543 -0.4417
  936TIP3    H124223   5.500   6.301  16.834 -1.9105 -1.0836  0.0932
  936TIP3    H224224   5.537   6.340  16.693 -1.2241  1.9263  1.0644
  937TIP3   OH224225   6.709   3.167  16.310 -0.3270  0.3569  0.0911
  937TIP3    H124226   6.657   3.129  16.240  1.2550  1.5869 -1.8084
  937TIP3    H224227   6.787   3.112  16.316  1.3499  2.4515 -1.7772
  938TIP3   OH224228   0.967   6.636   0.892 -0.8112 -0.6170 -0.1160
  938TIP3    H124229   1.023   6.706   0.860  0.9133 -1.9676 -0.0755
  938TIP3    H224230   1.021   6.557   0.888 -2.0192 -1.5884  1.8603
  939TIP3   OH224231   5.168   3.629   5.005  0.9569  0.1757 -0.1743
  939TIP3    H124232   5.135   3.580   4.930  0.0030 -0.4747  0.6707
  939TIP3    H224233   5.259   3.601   5.014  1.0902  0.2819 -1.0977
  940TIP3   OH224234   6.285   2.207   1.021  0.1484  0.2435 -0.8295
  940TIP3    H124235   6.237   2.141   1.070 -1.6713  2.3838  0.3399
  940TIP3    H224236   6.363   2.224   1.074 -0.9011  1.2150  0.4422
  941TIP3   OH224237   1.449   4.989   1.492 -0.4308 -0.2107  0.1373
  941TIP3    H124238   1.419   4.939   1.417 -0.8374  1.1643 -0.6303
  941TIP3    H224239   1.426   5.079   1.472  0.9060  0.3903  1.1812
  942TIP3   OH224240   1.085   1.072  15.440  0.3178  0.1213 -0.5367
  942TIP3    H124241   1.143   1.012  15.486 -0.1712  0.0805  0.0349
  942TIP3    H224242   0.999   1.030  15.443  0.1308  0.4767 -0.8219
  943TIP3   OH224243   0.746   2.041  16.200  0.2458  0.4728 -0.2668
  943TIP3    H124244   0.741   2.107  16.270 -0.6207  0.7664 -0.5921
  943TIP3    H224245   0.660   1.998  16.202 -0.0060  0.9017 -1.5475
  944TIP3   OH224246   0.761   1.261   6.131  0.7907 -0.4831  0.1753
  944TIP3    H124247   0.778   1.299   6.217 -0.1413  1.2061 -0.3724
  944TIP3    H224248   0.672   1.227   6.137  0.6981 -0.2984 -0.1292
  945TIP3   OH224249   0.118   2.820   0.476  0.1384 -0.5319  0.2273
  945TIP3    H124250   0.097   2.846   0.387  1.5465  0.8114  0.2638
  945TIP3    H224251   0.212   2.832   0.483  0.3260 -2.4212  1.3318
  946TIP3   OH224252   1.940   5.854  13.408  0.1044 -0.4165  0.2335
  946TIP3    H124253   1.859   5.900  13.432 -0.3584 -0.9726 -0.2673
  946TIP3    H224254   1.981   5.910  13.343 -0.2402 -0.4913 -0.0483
  947TIP3   OH224255   0.704   0.826  12.599 -0.5216  0.3090  0.0999
  947TIP3    H124256   0.768   0.897  12.597 -1.8786  1.5564 -0.1651
  947TIP3    H224257   0.713   0.784  12.514  0.1116  0.3100  0.1600
  948TIP3   OH224258   4.054   2.640   5.516 -0.5814  0.2371  0.5778
  948TIP3    H124259   4.115   2.645   5.442 -0.0349 -0.2035  0.9963
  948TIP3    H224260   3.968   2.659   5.477 -0.2517  0.3374 -0.1094
  949TIP3   OH224261   3.599   1.053   5.723  0.1035  0.0818 -0.2169
  949TIP3    H124262   3.523   1.094   5.682 -0.9535  0.7430  2.2727
  949TIP3    H224263   3.600   0.964   5.688 -0.5715  0.6946 -1.8516
  950TIP3   OH224264   2.068   0.908  13.545  0.3874 -0.2572  0.5611
  950TIP3    H124265   2.101   0.979  13.601 -0.5144 -1.3303  2.5171
  950TIP3    H224266   2.050   0.949  13.461 -0.7724  1.9628  1.8712
  951TIP3   OH224267   5.644   0.187   1.454 -0.1694  0.3950  0.3443
  951TIP3    H124268   5.618   0.266   1.501 -1.4959  0.1598  0.0324
  951TIP3    H224269   5.641   0.118   1.521  4.1915  1.1366  1.3975
  952TIP3   OH224270   2.215   0.025   1.323 -0.6311 -0.0300  0.7788
  952TIP3    H124271   2.120   0.020   1.314 -0.6671  1.3866  0.2205
  952TIP3    H224272   2.230   0.101   1.380  0.2172  0.8480 -0.5782
  953TIP3   OH224273   4.371   2.510  15.946 -0.0271  0.2798 -0.0513
  953TIP3    H124274   4.444   2.569  15.929  0.1736 -0.2127 -0.9299
  953TIP3    H224275   4.402   2.424  15.917 -1.3797  0.2850 -1.6071
  954TIP3   OH224276   2.258   3.144   2.014  0.8654 -0.1259  0.1475
  954TIP3    H124277   2.218   3.114   2.095  0.8019 -0.0701  0.1376
  954TIP3    H224278   2.244   3.072   1.952 -0.4082  0.4260 -0.2341
  955TIP3   OH224279   6.450   4.402   4.537  0.1651 -0.1392  0.4903
  955TIP3    H124280   6.391   4.333   4.568  0.2561 -0.0957  0.7607
  955TIP3    H224281   6.490   4.437   4.617  0.8272 -0.4098  0.2828
  956TIP3   OH224282   2.427   3.403   3.769  0.2078  0.4952  0.1638
  956TIP3    H124283   2.406   3.394   3.676 -0.2468  0.0211  0.3091
  956TIP3    H224284   2.355   3.453   3.806  0.6395  1.1160  0.1682
  957TIP3   OH224285   1.707   1.282   0.724 -0.4077  0.3957 -0.6194
  957TIP3    H124286   1.621   1.300   0.761 -0.6199  0.4411 -1.1363
  957TIP3    H224287   1.710   1.331   0.642 -0.0719  0.0183 -0.8376
  958TIP3   OH224288   0.122   1.305   4.292  0.1256  0.4088 -0.3702
  958TIP3    H124289   0.046   1.248   4.277 -0.3160  1.0655 -0.6178
  958TIP3    H224290   0.126   1.314   4.387  1.0005 -1.1185 -0.2317
  959TIP3   OH224291   5.577   3.655  16.320  0.3142  0.2018  0.5468
  959TIP3    H124292   5.632   3.580  16.343  0.8456  0.5927  0.5800
  959TIP3    H224293   5.502   3.617  16.275  1.2184 -0.2426 -0.6085
  960TIP3   OH224294   5.073   0.148   4.780  0.4302 -0.2632 -0.2988
  960TIP3    H124295   4.998   0.197   4.746 -0.5791 -0.3504  1.7357
  960TIP3    H224296   5.060   0.059   4.748 -0.0799 -0.1687 -0.3598
  961TIP3   OH224297   3.071   1.811   2.661  0.1491 -0.5874 -0.3605
  961TIP3    H124298   3.118   1.894   2.669  0.5375 -0.7852 -0.5992
  961TIP3    H224299   3.121   1.761   2.597 -0.3539 -0.8184 -0.5795
  962TIP3   OH224300   0.422   2.143  16.083 -0.4870  0.4148  0.2313
  962TIP3    H124301   0.421   2.049  16.100 -3.5302  0.4269  0.3850
  962TIP3    H224302   0.353   2.179  16.140  0.5730  2.7362  0.1223
  963TIP3   OH224303   1.910   0.809  15.456 -0.3432 -0.5076 -0.3381
  963TIP3    H124304   1.921   0.715  15.442  1.0841 -0.3264 -0.5572
  963TIP3    H224305   1.951   0.825  15.541  0.2686  0.0622 -0.7370
  964TIP3   OH224306   1.940   2.789   0.072  0.4700 -0.0473 -0.3829
  964TIP3    H124307   1.978   2.712   0.031  1.0506  0.1409 -0.2055
  964TIP3    H224308   1.868   2.815   0.014  1.6024  0.5232 -1.5463
  965TIP3   OH224309   0.247   2.355   0.882 -0.4732  0.4333  0.1603
  965TIP3    H124310   0.271   2.264   0.901 -0.0739  0.4018 -0.4686
  965TIP3    H224311   0.194   2.349   0.802  0.7409  0.8861 -0.6947
  966TIP3   OH224312   0.848   3.672  16.837 -0.5775 -0.3702 -0.1904
  966TIP3    H124313   0.834   3.577  16.837 -1.2690 -0.2743  1.4118
  966TIP3    H224314   0.824   3.699  16.748 -4.5790 -1.0907  0.5756
  967TIP3   OH224315   2.647   1.773  16.785  0.5864 -0.8445  0.8248
  967TIP3    H124316   2.650   1.869  16.786  0.6296 -0.7893 -1.5252
  967TIP3    H224317   2.734   1.746  16.813  0.4248 -0.2204  1.9850
  968TIP3   OH224318   5.401   3.278  10.560  0.2496 -0.3105  0.1207
  968TIP3    H124319   5.488   3.299  10.594  0.6849  0.3017 -1.3474
  968TIP3    H224320   5.417   3.211  10.493 -0.2797  0.6461 -0.9716
  969TIP3   OH224321   0.642   3.337   3.248 -0.3663 -0.0632 -0.2462
  969TIP3    H124322   0.642   3.282   3.326  0.6659 -0.6964 -0.6882
  969TIP3    H224323   0.708   3.299   3.191  0.2559  1.5315 -0.6325
  970TIP3   OH224324   3.912   3.037   0.634  0.8176 -0.9959 -0.0186
  970TIP3    H124325   3.958   2.960   0.669  3.4125  1.2763  1.7415
  970TIP3    H224326   3.865   3.074   0.709 -0.5602 -0.9187 -0.8961
  971TIP3   OH224327   4.889   3.357   1.376  0.3452  0.0981  0.4964
  971TIP3    H124328   4.829   3.383   1.306 -0.3515 -2.4851  0.0824
  971TIP3    H224329   4.833   3.314   1.441  1.3642  0.0075  1.3285
  972TIP3   OH224330   0.206   1.582  14.660 -0.0079  0.3288  0.5616
  972TIP3    H124331   0.282   1.529  14.635 -0.6208 -0.9883  1.3819
  972TIP3    H224332   0.206   1.578  14.756 -1.3318 -0.0249  0.5539
  973TIP3   OH224333   4.020   5.816   5.995  0.0357 -0.4574  0.2196
  973TIP3    H124334   3.977   5.882   5.941 -1.4596 -1.1771  0.4998
  973TIP3    H224335   4.113   5.829   5.979 -0.3329  0.1398 -1.5787
  974TIP3   OH224336   3.924   5.779   5.218 -0.4017 -0.3922 -0.4667
  974TIP3    H124337   3.999   5.738   5.263  0.3022 -0.7418 -1.9289
  974TIP3    H224338   3.848   5.734   5.254  0.1487 -0.6879  0.3608
  975TIP3   OH224339   3.814   2.559  15.140 -0.3156  0.4884 -0.6862
  975TIP3    H124340   3.775   2.557  15.227  0.9023  1.3388 -0.1073
  975TIP3    H224341   3.829   2.467  15.118 -1.1283  0.2512 -0.2299
  976TIP3   OH224342   3.459   1.629   5.474  0.4597  0.7013  0.0922
  976TIP3    H124343   3.549   1.642   5.505  0.4130  0.3977  0.3578
  976TIP3    H224344   3.406   1.682   5.533  0.4327  0.6396  0.1219
  977TIP3   OH224345   3.974   3.283   4.528 -0.2724  0.3747  0.1690
  977TIP3    H124346   4.005   3.205   4.481 -0.4303  1.0583 -1.0888
  977TIP3    H224347   3.987   3.262   4.620  1.8923 -0.2213 -0.2463
  978TIP3   OH224348   0.999   4.476   4.186  0.0527  0.0316  0.2373
  978TIP3    H124349   0.986   4.523   4.269 -0.1163 -1.0087  0.8150
  978TIP3    H224350   1.069   4.413   4.206 -1.2230 -1.4525  0.1169
  979TIP3   OH224351   1.074   2.251  13.629  0.0755  0.4299 -0.0422
  979TIP3    H124352   1.074   2.342  13.600 -1.1455  1.1435  2.0449
  979TIP3    H224353   1.025   2.204  13.562  1.4828  1.1331 -1.6002
  980TIP3   OH224354   5.194   5.544   3.801 -0.3188  0.2365 -0.2119
  980TIP3    H124355   5.128   5.606   3.832 -1.0840 -0.0696 -1.1963
  980TIP3    H224356   5.267   5.599   3.772 -1.1321  0.7210 -1.4028
  981TIP3   OH224357   0.530   1.864   1.288 -0.2938  0.1229  0.0331
  981TIP3    H124358   0.546   1.914   1.368  0.6873  0.0905 -0.1324
  981TIP3    H224359   0.616   1.855   1.248 -0.8299  0.4705 -1.2283
  982TIP3   OH224360   1.866   0.029   4.508 -0.1770  0.0440  0.2142
  982TIP3    H124361   1.807   0.045   4.433 -1.6908 -1.9396  0.9509
  982TIP3    H224362   1.807   0.010   4.581  1.3723 -1.2866  1.1467
  983TIP3   OH224363   3.833   3.390   2.724 -0.7768  0.4030 -0.0468
  983TIP3    H124364   3.830   3.305   2.768  1.1588 -0.6709 -1.9431
  983TIP3    H224365   3.742   3.406   2.697 -0.8892 -1.7896 -1.0446
  984TIP3   OH224366   1.244   0.102  13.759 -0.4593 -0.6144  0.0411
  984TIP3    H124367   1.258   0.014  13.794 -0.4090 -0.8458 -0.5540
  984TIP3    H224368   1.272   0.096  13.668 -1.9369 -0.3906 -0.4356
  985TIP3   OH224369   1.729   0.507   4.317  0.5306 -0.5351 -0.0874
  985TIP3    H124370   1.716   0.601   4.319  2.6654 -0.2174  0.1914
  985TIP3    H224371   1.821   0.496   4.295  0.8780 -2.5078  2.1770
  986TIP3   OH224372   3.688   4.072  16.796  1.0049  0.5623 -0.0864
  986TIP3    H124373   3.597   4.045  16.810  1.4157 -0.6882  0.2698
  986TIP3    H224374   3.700   4.149  16.852  0.0089  1.0629 -0.5572
  987TIP3   OH224375   4.807   4.424  16.904  0.2026 -0.3802 -0.0273
  987TIP3    H124376   4.789   4.405  16.812 -2.5599  2.3912 -0.1312
  987TIP3    H224377   4.721   4.442  16.942  1.4318 -0.3120  2.8430
  988TIP3   OH224378   3.211   0.031  12.304 -0.2457  0.1841  0.1810
  988TIP3    H124379   3.135  -0.001  12.352 -1.5251  2.6564 -0.0894
  988TIP3    H224380   3.244  -0.046  12.257 -3.3991 -0.7006 -0.7699
  989TIP3   OH224381   1.405   5.660  11.473  0.2662 -0.2290  0.1010
  989TIP3    H124382   1.475   5.627  11.528 -0.7766 -1.0302  0.9656
  989TIP3    H224383   1.351   5.583  11.454 -1.7775  0.8010  1.5339
  990TIP3   OH224384   5.682   6.460   6.085  0.4625 -0.0987  0.0234
  990TIP3    H124385   5.740   6.457   6.009  1.6211  2.5446  0.7727
  990TIP3    H224386   5.650   6.370   6.093  1.4004 -0.7426 -2.7321
  991TIP3   OH224387   6.640   4.948   2.011  0.0177 -0.1888  0.3000
  991TIP3    H124388   6.551   4.956   2.047 -0.0623 -0.7748  0.2522
  991TIP3    H224389   6.628   4.894   1.932  0.3679  0.0355  0.0934
  992TIP3   OH224390   2.265   5.475   1.131 -0.6960 -0.3272  0.3385
  992TIP3    H124391   2.197   5.543   1.134 -0.6558 -0.3300  2.1003
  992TIP3    H224392   2.219   5.394   1.150 -0.0636 -0.1978  2.5423
  993TIP3   OH224393   3.630   4.999  13.129 -0.1277  0.5888 -0.5201
  993TIP3    H124394   3.663   5.082  13.162  0.2841 -0.0576  0.7128
  993TIP3    H224395   3.574   5.023  13.055  0.9158  1.8781 -0.9116
  994TIP3   OH224396   0.328   6.509   5.775  0.3697  0.1122  0.4302
  994TIP3    H124397   0.296   6.498   5.865  2.6331 -1.3148  1.0956
  994TIP3    H224398   0.376   6.429   5.757  0.7866  0.8343 -1.7165
  995TIP3   OH224399   0.628   6.217  14.492 -0.6223  0.6907 -0.6317
  995TIP3    H124400   0.689   6.287  14.515 -1.1965  1.4279 -1.3047
  995TIP3    H224401   0.547   6.262  14.469 -1.4793 -0.2809  0.3950
  996TIP3   OH224402   1.727   2.483   4.030 -0.0919  0.2142 -0.6611
  996TIP3    H124403   1.637   2.492   3.998  0.1263  1.9397 -0.8347
  996TIP3    H224404   1.733   2.542   4.104  1.1355  0.7775 -1.1854
  997TIP3   OH224405   6.676   3.917  13.345 -0.3109  0.0502  0.3368
  997TIP3    H124406   6.738   3.955  13.282 -0.4782 -1.4125 -0.7361
  997TIP3    H224407   6.710   3.829  13.363 -1.2247 -0.1917  0.9500
  998TIP3   OH224408   3.690   2.434   2.338  0.4119  0.4031  0.4053
  998TIP3    H124409   3.681   2.344   2.368 -0.0517  0.1017 -0.6183
  998TIP3    H224410   3.765   2.432   2.278 -0.7198  0.3312 -1.0197
  999TIP3   OH224411   1.749   0.561  15.138 -0.4915 -0.3502  0.1369
  999TIP3    H124412   1.842   0.578  15.155 -0.1916 -0.7258 -1.1128
  999TIP3    H224413   1.705   0.641  15.167  0.2523 -0.0343  0.4103
 1000TIP3   OH224414   0.355   3.421   1.776  0.3999  0.7369  0.0673
 1000TIP3    H124415   0.291   3.366   1.730  1.4282  0.5025 -1.1038
 1000TIP3    H224416   0.344   3.508   1.737  0.7889  0.6954 -0.1363
 1001TIP3   OH224417   4.335   6.159  12.348  0.1567  0.1662 -0.6391
 1001TIP3    H124418   4.337   6.254  12.366 -0.9514  0.2134 -0.7607
 1001TIP3    H224419   4.315   6.120  12.433 -3.1823  0.2739 -1.3381
 1002TIP3   OH224420   1.080   4.785  12.502 -0.2080 -0.1442 -0.0814
 1002TIP3    H124421   1.037   4.866  12.529 -1.2831 -0.0600 -1.9668
 1002TIP3    H224422   1.017   4.742  12.444  0.7915 -1.8081  0.0147
 1003TIP3   OH224423   6.155   6.046  14.651 -0.5801 -1.0651 -0.3781
 1003TIP3    H124424   6.231   5.993  14.627  0.0157 -1.4601  2.2348
 1003TIP3    H224425   6.189   6.109  14.714 -2.3098 -0.8822  0.3890
 1004TIP3   OH224426   0.629   2.445   3.400 -0.2140  0.1761  0.6340
 1004TIP3    H124427   0.659   2.535   3.390 -0.6106  0.1107 -1.3819
 1004TIP3    H224428   0.704   2.392   3.373 -0.1671 -0.0939  1.2898
 1005TIP3   OH224429   3.812   3.864  13.451  0.2116  0.3206  0.2810
 1005TIP3    H124430   3.789   3.853  13.544 -1.6791 -1.2375 -0.3262
 1005TIP3    H224431   3.834   3.775  13.422 -2.8260  0.1246 -1.6374
 1006TIP3   OH224432   2.910   5.908  16.872  0.4675 -0.0457  0.1833
 1006TIP3    H124433   2.865   5.833  16.912  0.0020  0.9227  1.5038
 1006TIP3    H224434   2.998   5.877  16.855  1.1181 -0.0949  3.2673
 1007TIP3   OH224435   5.198   5.916   2.816 -0.0983 -0.2122 -0.3583
 1007TIP3    H124436   5.162   5.950   2.898  0.0518 -1.3566  0.1879
 1007TIP3    H224437   5.263   5.851   2.844  0.7951  0.2286 -1.3672
 1008TIP3   OH224438   2.376   2.191  10.694 -0.7596 -0.2943  0.3388
 1008TIP3    H124439   2.292   2.230  10.667 -1.0602 -1.5503 -0.5848
 1008TIP3    H224440   2.373   2.102  10.658 -0.1833 -1.2495  2.6320
 1009TIP3   OH224441   1.047   4.094   3.407  0.1056 -0.4835 -0.0891
 1009TIP3    H124442   1.089   4.066   3.488 -0.9137  0.8784  0.9186
 1009TIP3    H224443   0.980   4.028   3.391  0.1877 -0.6531  0.2628
 1010TIP3   OH224444   5.452   0.659  16.483 -0.2803  0.6895  0.2637
 1010TIP3    H124445   5.356   0.667  16.480 -0.4363 -0.2537  1.8531
 1010TIP3    H224446   5.480   0.729  16.541 -0.1396  0.1387  0.8724
 1011TIP3   OH224447   6.400   5.029  16.497 -0.3532  0.0756  1.0935
 1011TIP3    H124448   6.323   4.978  16.475 -1.1917  1.5479  0.5296
 1011TIP3    H224449   6.386   5.058  16.587 -0.7207  0.7922  0.8103
 1012TIP3   OH224450   4.017   5.593   5.571 -0.0897 -0.0058 -0.1260
 1012TIP3    H124451   4.036   5.617   5.481  0.7122  1.7141  0.4720
 1012TIP3    H224452   3.923   5.574   5.572  0.1898 -1.5765 -1.6281
 1013TIP3   OH224453   3.715   1.182  10.558 -0.4642 -0.1524  0.0737
 1013TIP3    H124454   3.761   1.121  10.501  1.6018 -0.0727  1.5619
 1013TIP3    H224455   3.662   1.236  10.499 -0.6000 -1.9228 -1.4490
 1014TIP3   OH224456   0.872   1.185   3.601 -0.3063 -0.1840 -0.7658
 1014TIP3    H124457   0.807   1.219   3.540 -0.6686  2.8005  1.1610
 1014TIP3    H224458   0.921   1.263   3.630  0.9216 -1.7261  1.4672
 1015TIP3   OH224459   0.835   4.854  16.222 -0.4097 -0.1194 -0.2027
 1015TIP3    H124460   0.806   4.905  16.298 -0.2897  0.7400 -0.7302
 1015TIP3    H224461   0.756   4.808  16.193  0.2278 -3.0462  2.4029
 1016TIP3   OH224462   0.067   2.134   0.373 -0.0190 -0.5766 -0.3065
 1016TIP3    H124463   0.005   2.112   0.442  1.0407 -0.4520  0.6873
 1016TIP3    H224464   0.103   2.050   0.345 -0.8838 -0.6835 -1.1363
 1017TIP3   OH224465   0.558   6.334  12.898  0.8991  0.2135  0.0582
 1017TIP3    H124466   0.503   6.411  12.912 -0.8474 -1.0677  0.4662
 1017TIP3    H224467   0.576   6.334  12.804  1.3466  1.4083  0.1458
 1018TIP3   OH224468   2.710   0.138  11.350  0.0894 -0.0112  0.1781
 1018TIP3    H124469   2.770   0.120  11.422  1.7780  4.2303  0.0189
 1018TIP3    H224470   2.634   0.180  11.392 -0.2442 -0.2541 -0.1791
 1019TIP3   OH224471   2.543   4.619   5.439  0.4915  0.2885 -0.4182
 1019TIP3    H124472   2.529   4.527   5.463  0.9431  0.6775  1.4351
 1019TIP3    H224473   2.636   4.625   5.419  0.2760  0.1438 -1.4741
 1020TIP3   OH224474   6.435   5.991  12.073  0.4020 -0.0317  0.6550
 1020TIP3    H124475   6.358   6.047  12.064  1.2772  1.3104  1.3746
 1020TIP3    H224476   6.467   6.008  12.162  1.2303 -0.9629  0.5472
 1021TIP3   OH224477   4.135   2.882   1.658  0.2765 -0.1067  0.0780
 1021TIP3    H124478   4.177   2.808   1.703  1.1440  0.5331  0.3249
 1021TIP3    H224479   4.158   2.958   1.711 -1.2770  0.2555  0.2753
 1022TIP3   OH224480   1.452   0.943  14.468 -0.7723 -0.3943  0.0609
 1022TIP3    H124481   1.388   0.960  14.537 -0.7132  0.8545 -0.1675
 1022TIP3    H224482   1.459   0.848  14.464  0.9069 -0.4707  3.3587
 1023TIP3   OH224483   6.210   2.891   4.234  0.2741 -0.2111 -0.2871
 1023TIP3    H124484   6.302   2.863   4.231  1.0168  2.1432 -0.8103
 1023TIP3    H224485   6.189   2.893   4.327  1.0224  0.0388 -0.1181
 1024TIP3   OH224486   5.504   2.215   3.402 -0.4173  0.3335  0.0792
 1024TIP3    H124487   5.541   2.143   3.352 -2.1404 -1.4273  1.2655
 1024TIP3    H224488   5.423   2.237   3.356  0.8951  2.6402 -1.2094
 1025TIP3   OH224489   5.287   3.775   0.869  0.4318  0.6382  0.2788
 1025TIP3    H124490   5.306   3.868   0.879  1.4042  0.5494 -0.7406
 1025TIP3    H224491   5.215   3.772   0.806  0.8543  0.6668 -0.2082
 1026TIP3   OH224492   1.624   5.062  13.997  0.9828  0.3962 -0.1045
 1026TIP3    H124493   1.582   5.145  13.974 -1.0065 -0.5750 -0.1117
 1026TIP3    H224494   1.702   5.058  13.942  0.9686  2.1460 -0.2772
 1027TIP3   OH224495   1.591   2.705  10.788 -0.7983  0.0857 -0.0847
 1027TIP3    H124496   1.514   2.661  10.751 -0.6786  0.9239 -1.3594
 1027TIP3    H224497   1.657   2.701  10.718 -0.1302  0.5453  0.5161
 1028TIP3   OH224498   6.419   3.576   4.646  0.6414  0.2116  0.3346
 1028TIP3    H124499   6.336   3.559   4.691  1.1978 -0.2347  1.2055
 1028TIP3    H224500   6.394   3.625   4.568 -0.5333 -0.7084  0.1208
 1029TIP3   OH224501   1.272   3.046  12.185 -0.0600  0.1752  0.0045
 1029TIP3    H124502   1.212   3.110  12.146 -0.5310  0.1893  0.7353
 1029TIP3    H224503   1.328   3.098  12.243 -0.8876 -0.1422  1.1246
 1030TIP3   OH224504   4.858   0.661  11.800  0.0375  0.2595  0.2387
 1030TIP3    H124505   4.769   0.673  11.832 -0.2775  0.8085 -0.8121
 1030TIP3    H224506   4.869   0.729  11.734  0.3995 -1.2993 -1.3620
 1031TIP3   OH224507   2.340   5.182   2.118  0.3405  0.6465 -0.0332
 1031TIP3    H124508   2.303   5.100   2.088  0.2116  0.8892 -0.5435
 1031TIP3    H224509   2.288   5.205   2.195  0.5674  0.1067  0.2845
 1032TIP3   OH224510   5.895   4.398  14.468 -0.3823 -0.0041  0.3893
 1032TIP3    H124511   5.959   4.371  14.534 -0.7077 -0.1664  0.6363
 1032TIP3    H224512   5.897   4.494  14.472  0.2954  0.0053 -0.0345
 1033TIP3   OH224513   5.330   6.650  11.880 -0.5667  0.3397 -0.4108
 1033TIP3    H124514   5.380   6.570  11.862 -1.2413 -0.4117  0.9334
 1033TIP3    H224515   5.239   6.627  11.858 -0.9266  0.3776  0.9997
 1034TIP3   OH224516   2.420   6.574   5.491  0.1035  0.1331  0.3806
 1034TIP3    H124517   2.409   6.511   5.562  0.2658  0.9600  1.1457
 1034TIP3    H224518   2.424   6.520   5.412 -0.3888 -0.7726  0.9617
 1035TIP3   OH224519   5.765   6.454   4.112 -0.1861  0.1006  0.3366
 1035TIP3    H124520   5.858   6.436   4.130 -0.1731  1.0129  1.2056
 1035TIP3    H224521   5.719   6.415   4.185 -0.2630  2.3011  1.4914
 1036TIP3   OH224522   4.169   4.037   6.082  0.0395  0.0021 -0.2368
 1036TIP3    H124523   4.245   3.985   6.059  0.4723 -0.2517  1.6813
 1036TIP3    H224524   4.198   4.090   6.156 -2.2977 -1.7799  2.0369
 1037TIP3   OH224525   5.428   4.793   1.932  0.9116 -0.2950  0.1910
 1037TIP3    H124526   5.407   4.861   1.867  1.4654 -0.1962  0.1158
 1037TIP3    H224527   5.370   4.812   2.005  1.1159  0.3143  0.2048
 1038TIP3   OH224528   1.138   1.718   2.819  0.2191  0.5241 -0.2253
 1038TIP3    H124529   1.084   1.684   2.747  1.9586 -0.9505 -0.8774
 1038TIP3    H224530   1.140   1.813   2.804  0.4918  0.2483 -2.0948
 1039TIP3   OH224531   0.623   2.229   1.206 -0.1968 -0.0989 -0.5653
 1039TIP3    H124532   0.646   2.232   1.113  0.5079  1.3025 -0.3509
 1039TIP3    H224533   0.529   2.213   1.207 -0.4571  1.2941 -1.5522
 1040TIP3   OH224534   2.979   1.695   6.140 -0.1977 -0.7628 -0.0755
 1040TIP3    H124535   2.900   1.649   6.112 -0.2887 -0.8101  0.2517
 1040TIP3    H224536   2.992   1.667   6.231 -1.7151  1.8109  0.9976
 1041TIP3   OH224537   2.366   0.550  14.102  0.5276  0.2616 -0.0269
 1041TIP3    H124538   2.346   0.531  14.011  0.9206  0.1152 -0.0808
 1041TIP3    H224539   2.321   0.632  14.120  0.1344  0.0950 -0.2425
 1042TIP3   OH224540   0.539   2.713  14.405 -0.4875  0.1861 -0.4466
 1042TIP3    H124541   0.500   2.641  14.454 -0.0126 -1.4072 -2.3463
 1042TIP3    H224542   0.466   2.753  14.357 -0.7283  0.8862  0.5013
 1043TIP3   OH224543   1.792   4.679  11.330  0.1320 -0.0565 -0.7120
 1043TIP3    H124544   1.744   4.598  11.349 -0.3228  0.7687  1.9065
 1043TIP3    H224545   1.880   4.650  11.308 -0.1734 -1.3141 -0.3391
 1044TIP3   OH224546   3.714   2.108  15.910  0.2062 -0.0275  0.3299
 1044TIP3    H124547   3.709   2.175  15.842 -0.4647 -0.4497 -0.0505
 1044TIP3    H224548   3.805   2.080  15.910  0.4159  0.6450  0.2610
 1045TIP3   OH224549   5.973   5.533  14.892 -1.2103  0.3328 -0.5355
 1045TIP3    H124550   5.992   5.525  14.986 -0.5321  1.9461 -0.5192
 1045TIP3    H224551   6.053   5.504  14.849 -1.9672 -1.6752 -0.6795
 1046TIP3   OH224552   4.931   0.973  16.300  0.5045  0.6212 -0.0708
 1046TIP3    H124553   4.993   0.959  16.229  0.2770  0.8777 -0.3228
 1046TIP3    H224554   4.852   1.008  16.257  0.8214  2.0391  0.4525
 1047TIP3   OH224555   3.536   2.609  14.547 -0.5132  0.0075 -0.2056
 1047TIP3    H124556   3.544   2.571  14.635 -0.6510  0.1279 -0.1401
 1047TIP3    H224557   3.577   2.695  14.555  0.4612 -0.4267 -0.5431
 1048TIP3   OH224558   6.176   5.784  14.807  0.1311  0.1265 -0.2100
 1048TIP3    H124559   6.195   5.866  14.853  2.0583 -0.3552 -0.0773
 1048TIP3    H224560   6.094   5.801  14.760  0.0551  1.8349  0.4955
 1049TIP3   OH224561   6.144   6.308   4.668  0.7489 -0.0443 -0.2541
 1049TIP3    H124562   6.156   6.288   4.761 -0.0257 -2.1463 -0.5921
 1049TIP3    H224563   6.112   6.227   4.629  1.7170  0.6120 -2.5025
 1050TIP3   OH224564   3.940   3.355   1.053 -0.2408  0.0551 -0.5794
 1050TIP3    H124565   3.949   3.434   1.000 -1.1788 -0.4247 -1.4775
 1050TIP3    H224566   3.871   3.376   1.116  0.1706  0.2764 -0.2008
 1051TIP3   OH224567   5.055   3.164  14.951 -0.4116  0.4699  0.1416
 1051TIP3    H124568   4.964   3.187  14.968 -1.5349 -2.9504 -0.7065
 1051TIP3    H224569   5.070   3.192  14.861 -0.4687  1.5201  0.4599
 1052TIP3   OH224570   4.768   3.267   5.403  0.0906 -0.4615  0.1537
 1052TIP3    H124571   4.709   3.193   5.410  1.0800 -1.2794 -0.0848
 1052TIP3    H224572   4.797   3.284   5.493 -1.6320  0.8958  0.4943
 1053TIP3   OH224573   3.787   2.069   3.199  0.5186  0.0012 -0.5438
 1053TIP3    H124574   3.797   2.153   3.155 -0.1573  0.1231 -0.4633
 1053TIP3    H224575   3.759   2.009   3.130  0.4214 -0.0303 -0.4759
 1054TIP3   OH224576   1.158   6.377   1.234  0.1754 -0.5191 -0.0300
 1054TIP3    H124577   1.202   6.369   1.319 -0.1699 -1.2171  0.0908
 1054TIP3    H224578   1.153   6.471   1.218 -0.8014 -0.3274  1.2859
 1055TIP3   OH224579   6.640   0.973   4.125 -0.2316 -0.2699 -0.0855
 1055TIP3    H124580   6.665   1.029   4.051  1.7472  0.9025  1.4339
 1055TIP3    H224581   6.723   0.949   4.166 -1.3257 -0.5215  2.0470
 1056TIP3   OH224582   6.086   5.867   1.907 -0.2992 -0.4023  0.0738
 1056TIP3    H124583   6.178   5.894   1.898  0.0574 -2.1997 -1.8847
 1056TIP3    H224584   6.036   5.946   1.887  0.8039  0.4998  0.7946
 1057TIP3   OH224585   2.076   5.702  12.601 -0.0546 -0.6192  0.1400
 1057TIP3    H124586   1.984   5.720  12.579 -0.7983 -2.3911  1.7017
 1057TIP3    H224587   2.090   5.746  12.685  0.8122  0.4317 -0.5402
 1058TIP3   OH224588   1.491   5.747  14.584  0.1529  0.3280  0.6730
 1058TIP3    H124589   1.443   5.755  14.667 -1.3327  1.5426 -0.2664
 1058TIP3    H224590   1.525   5.658  14.584 -0.6973 -0.0173  2.1377
 1059TIP3   OH224591   5.974   2.716   3.050 -0.3823  0.1659 -0.2866
 1059TIP3    H124592   5.992   2.686   3.139 -1.1332  1.5960  0.3716
 1059TIP3    H224593   6.060   2.737   3.013 -0.1978  1.2666  0.7442
 1060TIP3   OH224594   0.716   2.493  17.047 -0.2437 -0.0767 -0.0400
 1060TIP3    H124595   0.796   2.453  17.082 -0.3608 -0.4410 -0.1838
 1060TIP3    H224596   0.730   2.587  17.056 -1.3340 -0.1556  3.4396
 1061TIP3   OH224597   1.881   0.889   1.070  0.2289  0.0301 -0.2450
 1061TIP3    H124598   1.844   0.804   1.093 -0.6438  0.0353 -1.5735
 1061TIP3    H224599   1.922   0.920   1.151 -2.3310 -0.1402  1.1548
 1062TIP3   OH224600   5.162   0.653  16.194 -0.4900 -0.0588  0.8741
 1062TIP3    H124601   5.187   0.660  16.286  1.1257  2.5458  0.3021
 1062TIP3    H224602   5.161   0.744  16.163 -0.4096 -0.9454 -1.8326
 1063TIP3   OH224603   5.354   0.124   4.854 -0.0185  0.8165  0.3635
 1063TIP3    H124604   5.407   0.153   4.780 -0.5582  1.6761  0.3043
 1063TIP3    H224605   5.263   0.134   4.824 -0.2348  0.2158  0.7865
 1064TIP3   OH224606   3.819   6.713  12.382  0.4323 -0.1385 -0.5646
 1064TIP3    H124607   3.898   6.662  12.365  0.3728 -0.9220  1.3663
 1064TIP3    H224608   3.776   6.721  12.297  1.0750 -2.2722 -1.1064
 1065TIP3   OH224609   1.777   4.607   0.663 -0.3439 -0.7837 -0.1073
 1065TIP3    H124610   1.683   4.619   0.676 -0.4604 -0.8206 -0.9135
 1065TIP3    H224611   1.816   4.630   0.748 -0.9309  0.9765 -0.2898
 1066TIP3   OH224612   2.325   1.020   3.455  0.0608  0.1038  0.1571
 1066TIP3    H124613   2.354   1.016   3.364 -0.7677 -1.9578 -0.0442
 1066TIP3    H224614   2.275   0.940   3.467 -1.5691  1.3359  1.8438
 1067TIP3   OH224615   6.182   4.627  16.949 -0.4910 -0.6517  0.6713
 1067TIP3    H124616   6.257   4.669  16.990 -0.4797 -0.7232  0.7245
 1067TIP3    H224617   6.220   4.567  16.885 -0.5226 -0.1066  0.1369
 1068TIP3   OH224618   2.312   2.746   1.104  0.0004 -0.1913  0.1547
 1068TIP3    H124619   2.274   2.663   1.132 -2.4471  0.6174 -0.6713
 1068TIP3    H224620   2.241   2.791   1.058  1.7920  1.6342 -0.8951
 1069TIP3   OH224621   5.193   0.587  14.244  0.1046 -0.0745  0.1897
 1069TIP3    H124622   5.189   0.680  14.265 -0.6193 -0.2982  1.0684
 1069TIP3    H224623   5.265   0.553  14.298 -0.3333 -0.2254  0.6874
 1070TIP3   OH224624   6.561   4.946  12.842  0.3505  0.0782  0.3298
 1070TIP3    H124625   6.505   4.914  12.772  0.3950 -0.7124  0.6515
 1070TIP3    H224626   6.644   4.900  12.829 -0.0128 -0.9512  1.5941
 1071TIP3   OH224627   3.137   1.422  13.637 -0.6984  0.5953  0.1368
 1071TIP3    H124628   3.216   1.388  13.679 -1.4568 -0.5053  0.7052
 1071TIP3    H224629   3.149   1.517  13.636 -0.1297  0.5501  1.7752
 1072TIP3   OH224630   0.161   5.802  16.447 -0.1349 -0.2900 -0.0556
 1072TIP3    H124631   0.227   5.845  16.502  0.0472 -0.8240  0.1543
 1072TIP3    H224632   0.081   5.851  16.464  0.4942  1.2551 -1.3845
 1073TIP3   OH224633   0.012   1.361  12.199 -0.3684 -0.4475 -1.0928
 1073TIP3    H124634   0.083   1.341  12.260  0.1724  2.2528 -0.7763
 1073TIP3    H224635   0.045   1.335  12.114  0.8698  0.4523 -0.8971
 1074TIP3   OH224636   2.912   5.390   5.107 -0.2233  0.0455 -0.1265
 1074TIP3    H124637   2.837   5.349   5.149 -1.2565  0.2133 -1.7427
 1074TIP3    H224638   2.953   5.443   5.175 -2.0342  0.5738  0.5796
 1075TIP3   OH224639   4.509   4.153  15.960  0.4559  0.5221 -0.7803
 1075TIP3    H124640   4.533   4.245  15.969  1.2297  0.1594  0.9885
 1075TIP3    H224641   4.418   4.155  15.931 -0.5579  1.8329  2.3234
 1076TIP3   OH224642   5.645   6.486   2.674 -0.0871 -0.3482  0.3373
 1076TIP3    H124643   5.719   6.520   2.623 -0.2533 -1.0156 -0.3589
 1076TIP3    H224644   5.568   6.506   2.622 -0.2974 -0.6606  0.5227
 1077TIP3   OH224645   2.092   0.227   2.471 -0.0888  0.5940  0.6454
 1077TIP3    H124646   2.096   0.268   2.558  1.6397 -0.2025  0.9464
 1077TIP3    H224647   2.069   0.136   2.488 -0.1209  0.5236  0.2319
 1078TIP3   OH224648   1.139   0.740   6.074 -0.3575  0.2901  0.1571
 1078TIP3    H124649   1.096   0.795   6.009 -0.1662  1.8309  1.3287
 1078TIP3    H224650   1.095   0.760   6.157  1.4551  0.6375  1.0622
 1079TIP3   OH224651   6.623   2.221   0.121  0.5081  0.2667 -0.3262
 1079TIP3    H124652   6.671   2.264   0.192 -2.3927  0.4991  1.5926
 1079TIP3    H224653   6.579   2.147   0.163  0.7223 -1.0984 -2.4098
 1080TIP3   OH224654   2.927   2.262  13.337  0.4724 -0.4479  0.2182
 1080TIP3    H124655   2.952   2.237  13.425  1.0399  1.5438  0.6438
 1080TIP3    H224656   2.902   2.354  13.344 -1.1752 -0.7309 -1.3598
 1081TIP3   OH224657   4.109   3.427  12.923 -0.0601  0.2284  0.1159
 1081TIP3    H124658   4.184   3.476  12.890 -1.0555  1.5479 -0.2466
 1081TIP3    H224659   4.104   3.450  13.015  0.4862 -0.5191  0.3320
 1082TIP3   OH224660   0.424   5.972   3.660  0.4290 -0.0733 -0.0335
 1082TIP3    H124661   0.506   6.022   3.660 -0.0339  0.7353  1.5045
 1082TIP3    H224662   0.358   6.035   3.631 -0.0172 -0.0410  1.0331
 1083TIP3   OH224663   6.089   0.842   3.127 -0.0290 -0.2681  0.4898
 1083TIP3    H124664   6.023   0.909   3.110 -0.9414 -1.1516  0.5220
 1083TIP3    H224665   6.143   0.840   3.047 -0.7447 -0.3494  0.0045
 1084TIP3   OH224666   5.655   0.188  11.367 -0.3778 -0.0249  0.0968
 1084TIP3    H124667   5.699   0.155  11.289 -2.6316  0.2769 -1.3509
 1084TIP3    H224668   5.611   0.268  11.338  0.6667  1.4034  2.2766
 1085TIP3   OH224669   4.150   5.855  14.666 -0.2389 -0.0791  0.6324
 1085TIP3    H124670   4.236   5.867  14.705  0.4240 -1.9555 -0.2123
 1085TIP3    H224671   4.158   5.888  14.577  0.3068 -2.4496 -0.2230
 1086TIP3   OH224672   0.996   1.129  11.498 -0.3915  0.4533  0.7885
 1086TIP3    H124673   1.078   1.178  11.503 -0.1820  0.3770 -1.3736
 1086TIP3    H224674   0.999   1.069  11.573  2.0043 -0.2712  0.1390
 1087TIP3   OH224675   4.768   4.897  12.486 -0.2381  0.5946 -0.6435
 1087TIP3    H124676   4.687   4.939  12.457 -0.4966 -0.7952 -1.9428
 1087TIP3    H224677   4.749   4.803  12.486  0.8860  0.3421  0.5600
 1088TIP3   OH224678   2.451   1.066   3.692  0.5253 -0.1561  0.5762
 1088TIP3    H124679   2.466   0.972   3.707  0.0571 -0.3516 -0.1641
 1088TIP3    H224680   2.398   1.069   3.612 -2.6449  0.5428  2.6006
 1089TIP3   OH224681   1.502   5.133   4.299  0.2520  0.2257  0.5933
 1089TIP3    H124682   1.548   5.092   4.371  1.8299  0.8252 -0.0484
 1089TIP3    H224683   1.463   5.212   4.337 -0.0893 -0.1792  1.0903
 1090TIP3   OH224684   6.513   0.343  16.854  0.4236 -0.3816 -0.1119
 1090TIP3    H124685   6.464   0.261  16.860  2.0658 -1.3957 -0.1390
 1090TIP3    H224686   6.488   0.379  16.769 -0.5851 -0.6746  0.0567
 1091TIP3   OH224687   1.980   5.227   1.913 -0.0627 -0.1603 -0.1353
 1091TIP3    H124688   2.062   5.257   1.952 -0.2755  1.2164 -0.7177
 1091TIP3    H224689   1.930   5.191   1.986 -0.3438  2.1564  0.8544
 1092TIP3   OH224690   1.354   5.707  16.134 -0.6058  0.0578 -0.7518
 1092TIP3    H124691   1.395   5.793  16.130 -1.7026  0.5038 -2.8283
 1092TIP3    H224692   1.300   5.702  16.055 -1.8729 -1.8694  0.2074
 1093TIP3   OH224693   6.744   3.809   3.228  0.6319 -0.6532 -0.1981
 1093TIP3    H124694   6.793   3.727   3.220 -1.0336 -1.4858 -2.6125
 1093TIP3    H224695   6.811   3.877   3.222  2.3139 -1.7466  4.0170
 1094TIP3   OH224696   2.120   3.645   0.553  0.5582  0.2915  0.1734
 1094TIP3    H124697   2.112   3.633   0.648  0.1132  0.2660  0.1382
 1094TIP3    H224698   2.096   3.560   0.516 -0.1255  0.5462  0.0108
 1095TIP3   OH224699   0.605   1.345  11.587 -0.2152  0.2656  0.2567
 1095TIP3    H124700   0.553   1.425  11.596 -1.2936 -0.4463  0.4841
 1095TIP3    H224701   0.575   1.289  11.659  1.8211  0.3503  1.2064
 1096TIP3   OH224702   6.070   0.371   3.295 -0.5038 -0.0118  0.1951
 1096TIP3    H124703   5.977   0.349   3.305 -0.6574  0.7278  0.4485
 1096TIP3    H224704   6.114   0.287   3.283 -1.3248 -0.3044 -0.8930
 1097TIP3   OH224705   0.327   4.765   0.265 -0.4614  0.0954 -0.2662
 1097TIP3    H124706   0.263   4.798   0.201  0.3791  1.7855 -0.2684
 1097TIP3    H224707   0.408   4.811   0.243  0.2206 -0.4397  1.0749
 1098TIP3   OH224708   5.031   0.498  15.469  0.2121  0.1761  0.3847
 1098TIP3    H124709   5.013   0.568  15.406  0.0391  0.4174  0.7011
 1098TIP3    H224710   5.090   0.538  15.533  0.7937 -0.2167  0.1017
 1099TIP3   OH224711   5.362   1.917  16.417  0.3970  0.0729  0.0571
 1099TIP3    H124712   5.385   1.935  16.508 -0.0944 -0.5661  0.3139
 1099TIP3    H224713   5.292   1.851  16.422 -0.6750  1.1164 -0.7398
 1100TIP3   OH224714   1.069   1.184   2.143  0.1901 -0.3955 -0.1418
 1100TIP3    H124715   1.108   1.150   2.062 -0.8824 -3.4596  0.5805
 1100TIP3    H224716   1.144   1.199   2.201  1.0174  2.2648 -1.7651
 1101TIP3   OH224717   2.149   2.102  12.806 -0.3315  0.0964  0.3751
 1101TIP3    H124718   2.209   2.165  12.765  0.4587 -0.0953  1.2178
 1101TIP3    H224719   2.076   2.155  12.836 -0.1766  0.4633  0.1128
 1102TIP3   OH224720   5.506   0.943  15.343 -0.5280 -0.2267 -0.1194
 1102TIP3    H124721   5.481   0.995  15.419 -0.7531  0.4259 -0.6364
 1102TIP3    H224722   5.600   0.927  15.355 -0.3269  0.8160 -0.2577
 1103TIP3   OH224723   4.352   3.137   5.946  0.5176 -0.0142  0.1029
 1103TIP3    H124724   4.345   3.074   6.018  0.3171 -1.4676 -1.1627
 1103TIP3    H224725   4.440   3.122   5.910  0.0516 -0.3680 -0.9113
 1104TIP3   OH224726   3.408   5.779   0.050 -0.3595 -0.0080  0.2592
 1104TIP3    H124727   3.474   5.848   0.046 -0.4417  0.0612  0.0802
 1104TIP3    H224728   3.415   5.735  -0.035 -2.6237  1.9210 -0.9603
 1105TIP3   OH224729   3.334   6.024  10.821 -0.3351  0.2264  0.0056
 1105TIP3    H124730   3.355   5.936  10.788  0.0763  0.4408 -0.2944
 1105TIP3    H224731   3.264   6.008  10.886  1.2977 -0.5658  1.6185
 1106TIP3   OH224732   4.434   1.862  15.033 -0.0989  0.7048  0.3615
 1106TIP3    H124733   4.410   1.775  15.001 -1.2285  0.6302  1.3756
 1106TIP3    H224734   4.407   1.921  14.962 -1.5575  0.4382  0.6746
 1107TIP3   OH224735   1.149   1.298  15.280  0.2312  0.2274  0.1206
 1107TIP3    H124736   1.126   1.241  15.354 -2.5566 -1.7326 -2.1420
 1107TIP3    H224737   1.223   1.254  15.238 -0.0903 -0.2396  0.0342
 1108TIP3   OH224738   2.774   1.374  14.649 -0.1925 -0.1377 -0.4191
 1108TIP3    H124739   2.754   1.286  14.617  3.8815 -1.9579  1.6863
 1108TIP3    H224740   2.779   1.365  14.744  0.5462  2.3250 -0.1817
 1109TIP3   OH224741   2.146   1.863  16.001  0.0052  0.3679 -0.6300
 1109TIP3    H124742   2.189   1.928  15.944  2.1206 -1.2320 -0.9340
 1109TIP3    H224743   2.190   1.781  15.980 -2.2767 -1.0857  0.1456
 1110TIP3   OH224744   3.896   6.659   6.378  0.0380  0.3526  0.1386
 1110TIP3    H124745   3.969   6.718   6.362  1.9077 -1.4489  1.7518
 1110TIP3    H224746   3.837   6.709   6.435  0.0987  1.7441 -1.0015
 1111TIP3   OH224747   6.629   1.248   0.474  0.1423 -0.3720  0.1644
 1111TIP3    H124748   6.712   1.203   0.487  1.1109  1.7244  1.6193
 1111TIP3    H224749   6.654   1.336   0.443 -1.6004 -0.2027 -0.8313
 1112TIP3   OH224750   2.738   2.654  13.631  0.5219  0.6821 -0.3777
 1112TIP3    H124751   2.745   2.710  13.554  0.5756  0.8301 -0.2650
 1112TIP3    H224752   2.813   2.679  13.686 -0.7652  2.1153  0.7417
 1113TIP3   OH224753   2.680   6.388   4.381  0.3528 -0.2142  0.3410
 1113TIP3    H124754   2.677   6.480   4.354  0.0547 -0.3473 -0.0952
 1113TIP3    H224755   2.671   6.390   4.476  0.7021  0.2286  0.3631
 1114TIP3   OH224756   1.472   6.225   5.108 -0.7683 -0.4141 -0.0991
 1114TIP3    H124757   1.545   6.166   5.127  0.1490  0.8790  0.5602
 1114TIP3    H224758   1.457   6.217   5.014  1.1675  0.3110 -0.4987
 1115TIP3   OH224759   1.492   0.389  14.343  0.2852  0.0185 -0.4807
 1115TIP3    H124760   1.414   0.379  14.287  0.7219 -2.3553 -0.7181
 1115TIP3    H224761   1.564   0.355  14.289  0.7829 -1.8982  1.3220
 1116TIP3   OH224762   2.695   0.809   0.381  0.4439 -0.2026 -0.6289
 1116TIP3    H124763   2.652   0.895   0.382 -0.0461 -0.4468  0.2276
 1116TIP3    H224764   2.709   0.790   0.289 -1.2373 -0.0940 -0.9241
 1117TIP3   OH224765   5.423   5.629  15.744  0.2555  0.3966 -0.2978
 1117TIP3    H124766   5.337   5.671  15.746  0.4164  0.7154 -0.0733
 1117TIP3    H224767   5.468   5.662  15.822  0.3272 -0.3029 -0.0424
 1118TIP3   OH224768   4.326   5.556   5.195 -0.1609  0.0055  0.0940
 1118TIP3    H124769   4.246   5.507   5.178  0.1816 -0.8874  0.9889
 1118TIP3    H224770   4.388   5.490   5.226  0.3779  0.9671  1.1029
 1119TIP3   OH224771   5.455   1.591   0.261 -0.6397  0.0229 -0.2591
 1119TIP3    H124772   5.393   1.649   0.216 -0.1849  0.2979 -0.5323
 1119TIP3    H224773   5.541   1.631   0.246 -0.4965  0.2129  1.0184
 1120TIP3   OH224774   3.342   6.670   3.406  0.2273 -0.3634 -0.3075
 1120TIP3    H124775   3.325   6.578   3.426  0.1757 -0.3999 -0.5152
 1120TIP3    H224776   3.432   6.684   3.434  0.8603 -0.9701 -1.9766
 1121TIP3   OH224777   0.883   5.911  14.116 -0.1839 -0.0169  0.0774
 1121TIP3    H124778   0.857   5.939  14.028  0.4972  1.7791  0.4411
 1121TIP3    H224779   0.956   5.968  14.140  2.2040 -2.9994  0.2916
 1122TIP3   OH224780   6.024   0.687   1.412  0.0763 -0.3422  0.5850
 1122TIP3    H124781   6.035   0.776   1.378 -1.0812 -1.1427 -2.0219
 1122TIP3    H224782   5.952   0.694   1.474  1.5995  0.9830  2.2373
 1123TIP3   OH224783   0.540   4.987  15.876  0.3002 -0.0019 -0.5282
 1123TIP3    H124784   0.560   4.944  15.959 -0.8966  0.0109 -0.2299
 1123TIP3    H224785   0.498   4.919  15.823 -1.0061  0.5987 -0.2917
 1124TIP3   OH224786   3.745   0.218  12.406  0.3386  0.3689 -0.3543
 1124TIP3    H124787   3.831   0.211  12.366 -0.3666  0.5659 -1.9590
 1124TIP3    H224788   3.703   0.134  12.386 -0.6355  1.1191 -1.5485
 1125TIP3   OH224789   2.811   0.405  12.249  0.5032  0.4799 -0.0785
 1125TIP3    H124790   2.819   0.428  12.341  0.8215  1.7304 -0.4187
 1125TIP3    H224791   2.848   0.479  12.202  0.8256 -0.3769 -1.2032
 1126TIP3   OH224792   1.453   0.598   0.933 -0.2613 -0.0136 -0.0575
 1126TIP3    H124793   1.360   0.572   0.936 -0.4164  0.5325 -0.0958
 1126TIP3    H224794   1.500   0.516   0.920 -0.6197 -0.5208  1.6787
 1127TIP3   OH224795   2.929   6.729  14.320  0.2902  0.4065  0.0237
 1127TIP3    H124796   2.903   6.748  14.410  1.1222  0.6489  0.2149
 1127TIP3    H224797   2.974   6.645  14.326 -0.2254  0.1075 -0.2690
 1128TIP3   OH224798   5.156   3.897  13.119 -0.1646  0.5913  0.0534
 1128TIP3    H124799   5.157   3.993  13.112  0.4142  0.7047  1.4758
 1128TIP3    H224800   5.244   3.875  13.148 -0.2765 -0.3870 -0.3563
 1129TIP3   OH224801   2.315   3.937  16.875 -0.3707 -0.6763  0.0007
 1129TIP3    H124802   2.410   3.950  16.882  0.0103 -1.0948 -3.3239
 1129TIP3    H224803   2.302   3.845  16.897 -0.0150 -0.5911  0.5760
 1130TIP3   OH224804   2.205   2.868  15.329  0.1364 -0.0022  0.1232
 1130TIP3    H124805   2.110   2.874  15.320  0.1500 -0.8754 -0.7824
 1130TIP3    H224806   2.219   2.848  15.421 -0.6095 -0.6925  0.0958
 1131TIP3   OH224807   1.130   1.358  14.139 -0.0401  0.4423 -0.1371
 1131TIP3    H124808   1.064   1.332  14.203  0.5538 -0.0575  0.2850
 1131TIP3    H224809   1.144   1.280  14.086  1.2500  0.0817  0.6972
 1132TIP3   OH224810   2.488   0.511  12.341 -0.3643 -0.3942 -0.5473
 1132TIP3    H124811   2.520   0.576  12.404  1.6575 -1.6064 -0.2696
 1132TIP3    H224812   2.522   0.542  12.257 -1.2998  0.0926 -0.7578
 1133TIP3   OH224813   0.458   5.704  11.581 -0.2741  0.1508  0.6211
 1133TIP3    H124814   0.549   5.719  11.556 -0.2021 -1.6561 -0.3267
 1133TIP3    H224815   0.411   5.782  11.551  0.7068  0.3934 -0.3300
 1134TIP3   OH224816   0.810   4.027   0.644 -0.1453  0.8132 -0.2093
 1134TIP3    H124817   0.753   4.090   0.600  0.4594  1.9397  0.5972
 1134TIP3    H224818   0.896   4.069   0.644  0.3648 -0.2327 -0.1068
 1135TIP3   OH224819   6.630   4.339  14.259 -0.0792  0.2224 -0.5150
 1135TIP3    H124820   6.639   4.258  14.309 -2.4510  1.0168  1.3566
 1135TIP3    H224821   6.719   4.362  14.233  1.1708 -0.6404  2.7615
 1136TIP3   OH224822   4.333   5.114  12.150 -0.2450  0.2163  0.9066
 1136TIP3    H124823   4.331   5.112  12.246 -1.0035  1.4965  0.9363
 1136TIP3    H224824   4.243   5.133  12.124 -0.0063  0.0840 -0.0525
 1137TIP3   OH224825   5.571   1.325   5.716 -0.3092  0.4634  0.8184
 1137TIP3    H124826   5.664   1.336   5.695 -0.4250  0.4534  0.3010
 1137TIP3    H224827   5.563   1.234   5.743 -0.6447 -0.2509 -1.6321
 1138TIP3   OH224828   3.856   3.612  13.341  0.2058  0.1493 -0.1710
 1138TIP3    H124829   3.807   3.551  13.397  0.4536  0.6469  0.5852
 1138TIP3    H224830   3.808   3.611  13.258 -0.0059 -0.8018 -0.0538
 1139TIP3   OH224831   5.123   2.500   5.596  0.1408 -0.0442  0.6620
 1139TIP3    H124832   5.186   2.483   5.526 -0.6906  1.0037 -0.3432
 1139TIP3    H224833   5.139   2.430   5.660 -1.1371 -2.8343 -1.9430
 1140TIP3   OH224834   2.238   0.755  15.228 -0.0771  0.1397  0.4011
 1140TIP3    H124835   2.215   0.848  15.236  2.2174  0.7982 -0.0303
 1140TIP3    H224836   2.230   0.721  15.317 -0.5188  0.8694  0.6472
 1141TIP3   OH224837   1.422   3.332   2.261 -0.6276 -1.0441 -0.2018
 1141TIP3    H124838   1.420   3.236   2.268 -1.9910 -0.8449  2.9078
 1141TIP3    H224839   1.330   3.357   2.252 -0.4104  0.0608  0.6124
 1142TIP3   OH224840   2.767   0.530   4.030  0.0749 -0.0528  0.2259
 1142TIP3    H124841   2.746   0.500   3.942 -0.0280  1.5861 -0.3286
 1142TIP3    H224842   2.860   0.553   4.026  0.0649  0.0414  0.5396
 1143TIP3   OH224843   4.319   4.599   4.826 -0.7070 -0.0300  0.1833
 1143TIP3    H124844   4.392   4.604   4.888  0.4607  0.3061 -1.1915
 1143TIP3    H224845   4.241   4.601   4.881  0.2935  0.7864  1.6093
 1144TIP3   OH224846   4.753   1.493  14.448 -0.2375  0.6872 -0.5322
 1144TIP3    H124847   4.829   1.445  14.482 -0.0467  0.7040 -0.9313
 1144TIP3    H224848   4.726   1.548  14.521 -1.9484 -1.7625  0.7682
 1145TIP3   OH224849   5.575   4.106   2.273  0.2897 -0.3449  0.6598
 1145TIP3    H124850   5.529   4.039   2.223  0.4500 -0.2953  0.4443
 1145TIP3    H224851   5.616   4.058   2.345  0.0648 -0.4185  0.7398
 1146TIP3   OH224852   0.230   6.133   3.532 -0.5401 -0.7999 -0.9559
 1146TIP3    H124853   0.273   6.106   3.450  0.3715  1.0496 -1.0920
 1146TIP3    H224854   0.197   6.221   3.514 -0.7824 -0.5801  0.5142
 1147TIP3   OH224855   4.353   3.319  14.116  0.2008  0.1110 -0.2878
 1147TIP3    H124856   4.378   3.305  14.025  0.0105  0.2513 -0.3624
 1147TIP3    H224857   4.431   3.295  14.167  0.2283 -0.1967 -0.4733
 1148TIP3   OH224858   5.333   4.045   0.904 -1.0483  0.4058  0.1186
 1148TIP3    H124859   5.376   4.119   0.862  0.3400 -0.6700 -0.4070
 1148TIP3    H224860   5.247   4.078   0.929 -1.5320  1.3934 -2.6282
 1149TIP3   OH224861   5.686   2.550   6.320  0.1923 -0.0571 -0.6539
 1149TIP3    H124862   5.708   2.534   6.228 -0.4411  1.4849 -1.0980
 1149TIP3    H224863   5.665   2.464   6.355 -1.3839 -0.4349 -2.4400
 1150TIP3   OH224864   1.468   4.428  15.853 -0.1208  0.1845 -0.3310
 1150TIP3    H124865   1.559   4.397  15.853 -0.1449  0.0663  1.2742
 1150TIP3    H224866   1.419   4.358  15.896 -0.7062  0.9899  0.3262
 1151TIP3   OH224867   0.809   4.710  13.956  0.1784  0.1475 -0.3762
 1151TIP3    H124868   0.714   4.698  13.966  0.3035 -1.1128 -0.6307
 1151TIP3    H224869   0.820   4.804  13.945 -0.9557  0.4097  0.6741
 1152TIP3   OH224870   0.359   2.352   3.374  0.0420  0.0370  0.0724
 1152TIP3    H124871   0.451   2.381   3.373  0.3699 -0.6904 -4.3152
 1152TIP3    H224872   0.365   2.256   3.377 -0.6873  0.0398  2.1776
 1153TIP3   OH224873   1.909   0.715  13.635 -0.2974 -1.1414 -0.1774
 1153TIP3    H124874   1.948   0.693  13.720 -0.4701 -1.7413 -0.2518
 1153TIP3    H224875   1.948   0.800  13.613 -1.3020 -0.3096  1.1421
 1154TIP3   OH224876   0.662   1.501   1.033 -0.1667 -0.2646  0.3195
 1154TIP3    H124877   0.633   1.585   0.996 -1.0839 -0.8221 -0.2524
 1154TIP3    H224878   0.750   1.518   1.067 -0.8985  1.3077  1.5003
 1155TIP3   OH224879   3.797   1.509   2.874  0.0026 -0.2302 -0.6018
 1155TIP3    H124880   3.745   1.582   2.839 -0.1159 -0.1179 -0.2010
 1155TIP3    H224881   3.858   1.551   2.934 -0.9343 -0.5928  0.6257
 1156TIP3   OH224882   1.552   6.144  14.846  0.0723  0.3336  0.5967
 1156TIP3    H124883   1.496   6.191  14.784  1.2334  1.4012  0.3479
 1156TIP3    H224884   1.633   6.194  14.848  1.5318 -1.9515 -0.0213
 1157TIP3   OH224885   3.766   3.729  12.848  0.4206 -0.6363  0.4409
 1157TIP3    H124886   3.753   3.642  12.812  0.7046  0.4042 -2.3186
 1157TIP3    H224887   3.861   3.737  12.857  0.4944 -0.1586 -0.6061
 1158TIP3   OH224888   1.025   1.653   1.320  0.3695  0.4819 -0.4906
 1158TIP3    H124889   1.024   1.682   1.412  2.7092  0.9478 -0.5921
 1158TIP3    H224890   1.043   1.559   1.325  1.7808  0.7473 -0.5177
 1159TIP3   OH224891   4.509   2.963   3.099 -0.2068 -0.7945  0.3350
 1159TIP3    H124892   4.543   2.997   3.016 -1.7818  0.2809  0.1079
 1159TIP3    H224893   4.448   3.030   3.129 -0.8335 -1.9042  1.5955
 1160TIP3   OH224894   2.813   3.170  16.154  0.0740 -0.2087  0.4175
 1160TIP3    H124895   2.740   3.187  16.093  0.4374 -1.5275 -0.4005
 1160TIP3    H224896   2.787   3.091  16.201  1.4329 -1.3125 -0.6350
 1161TIP3   OH224897   4.571   1.703  16.117  0.2629 -0.4171  0.8563
 1161TIP3    H124898   4.582   1.794  16.088  2.3199 -0.9498 -0.0767
 1161TIP3    H224899   4.620   1.698  16.199 -0.4793 -0.5137  1.3026
 1162TIP3   OH224900   0.529   4.890   2.741 -0.3398 -0.3260  0.0678
 1162TIP3    H124901   0.606   4.931   2.701  0.5768 -2.0096  0.0696
 1162TIP3    H224902   0.476   4.861   2.667 -0.9074  0.6864  0.0678
 1163TIP3   OH224903   2.196   4.733  12.642  0.5417 -0.4983 -0.0862
 1163TIP3    H124904   2.104   4.713  12.621  0.8719 -0.8841 -1.2205
 1163TIP3    H224905   2.228   4.779  12.564  1.1961  0.0058  0.4816
 1164TIP3   OH224906   5.866   4.116  11.936  0.2832  0.0778 -0.3459
 1164TIP3    H124907   5.944   4.060  11.941 -0.0374 -0.2443  1.2560
 1164TIP3    H224908   5.891   4.185  11.874  2.1382  0.4479  0.7589
 1165TIP3   OH224909   6.719   5.474  13.321 -0.3118  0.3639  0.7574
 1165TIP3    H124910   6.624   5.469  13.317 -0.1927 -0.3388 -2.8637
 1165TIP3    H224911   6.750   5.393  13.281  1.8384  0.1253  2.8005
 1166TIP3   OH224912   1.270   5.967  11.470 -0.0262  0.7081 -0.3331
 1166TIP3    H124913   1.351   5.981  11.421  2.4016  0.3397  3.3684
 1166TIP3    H224914   1.277   5.878  11.505 -1.4360  1.1154  1.0875
 1167TIP3   OH224915   5.620   5.482  11.790  0.4618 -0.3512  0.2389
 1167TIP3    H124916   5.606   5.549  11.723  0.4470  0.4396  1.0211
 1167TIP3    H224917   5.532   5.453  11.814  0.4188  0.1824  0.7281
 1168TIP3   OH224918   2.479   4.468  13.754  0.2270 -0.7280  0.1874
 1168TIP3    H124919   2.514   4.430  13.834 -0.2854 -1.3732  0.0975
 1168TIP3    H224920   2.528   4.425  13.684  0.1299 -0.7162  0.1132
 1169TIP3   OH224921   1.494   3.438  16.623 -0.7740  0.2832  0.4409
 1169TIP3    H124922   1.454   3.525  16.618  1.0682  1.2245  1.6000
 1169TIP3    H224923   1.449   3.394  16.695 -1.3618  0.4660  0.1807
 1170TIP3   OH224924   1.710   6.204   5.320 -0.2931  0.4662 -0.0671
 1170TIP3    H124925   1.724   6.287   5.275  0.0950  0.5760  0.2567
 1170TIP3    H224926   1.797   6.175   5.345 -0.6989  1.6772  2.9194
 1171TIP3   OH224927   6.325   1.545  14.202 -0.3122 -0.5168 -0.3571
 1171TIP3    H124928   6.325   1.468  14.260 -0.5472 -0.4984 -0.3348
 1171TIP3    H224929   6.250   1.596  14.230 -0.1377 -0.2613 -0.3534
 1172TIP3   OH224930   1.041   3.141  13.156  0.3205 -0.1976 -0.2201
 1172TIP3    H124931   1.091   3.213  13.194 -0.2496  1.2135 -2.0511
 1172TIP3    H224932   0.990   3.181  13.086 -1.0046 -2.1662 -0.4419
 1173TIP3   OH224933   5.032   4.207   4.640 -0.0110 -0.0777 -0.2993
 1173TIP3    H124934   4.987   4.149   4.702 -1.6435  1.8735  0.3925
 1173TIP3    H224935   5.042   4.153   4.561  0.4857 -2.0046  1.0255
 1174TIP3   OH224936   1.833   3.014   3.820 -0.3662 -0.0959 -0.3886
 1174TIP3    H124937   1.806   2.924   3.804 -0.6452 -0.0201 -0.3456
 1174TIP3    H224938   1.926   3.008   3.843 -0.7180 -0.5140  0.9439
 1175TIP3   OH224939   2.426   3.204  10.981  0.1878 -0.4558  0.6816
 1175TIP3    H124940   2.359   3.270  10.967 -0.1725 -0.7360  1.0444
 1175TIP3    H224941   2.487   3.243  11.043  0.2160 -0.3020  0.5570
 1176TIP3   OH224942   2.021   4.865  13.720  0.4028 -0.1019  0.6793
 1176TIP3    H124943   2.068   4.791  13.759  0.0770 -0.5367  0.2637
 1176TIP3    H224944   1.958   4.891  13.788  0.3280 -0.3904  0.7223
 1177TIP3   OH224945   1.390   1.620  14.890 -0.3601  0.0814 -0.7992
 1177TIP3    H124946   1.385   1.672  14.809  1.0884  1.7522  0.1704
 1177TIP3    H224947   1.474   1.643  14.929  0.6467 -3.4749 -0.6372
 1178TIP3   OH224948   2.476   2.074  15.568 -0.3324  0.2133 -0.2135
 1178TIP3    H124949   2.545   2.018  15.532 -0.3568  1.1033 -1.6908
 1178TIP3    H224950   2.522   2.145  15.611 -0.2819  1.2550 -1.9107
 1179TIP3   OH224951   3.831   6.306   0.395  0.5359  0.0883  0.0397
 1179TIP3    H124952   3.790   6.307   0.309 -0.1227  0.4134  0.3551
 1179TIP3    H224953   3.871   6.220   0.402  1.9308  0.6158 -1.2266
 1180TIP3   OH224954   2.561   3.500   6.306 -0.0577 -0.1348  0.5054
 1180TIP3    H124955   2.633   3.438   6.293  0.4000  0.4588  0.1579
 1180TIP3    H224956   2.600   3.585   6.288 -1.3670  0.0211 -1.7887
 1181TIP3   OH224957   3.452   3.877  16.739 -0.1675 -0.3404  0.6064
 1181TIP3    H124958   3.369   3.872  16.787  0.4456 -0.7091  1.6534
 1181TIP3    H224959   3.511   3.822  16.789  0.9677  0.6489  0.3696
 1182TIP3   OH224960   3.797   3.122  11.256  0.1650  0.4374  0.2847
 1182TIP3    H124961   3.838   3.069  11.188  0.2533 -1.6687  1.9510
 1182TIP3    H224962   3.737   3.180  11.208  0.6986 -0.5641 -1.6287
 1183TIP3   OH224963   6.033   6.674  11.212  0.1599 -0.5013  0.0457
 1183TIP3    H124964   5.954   6.637  11.173 -1.1090  1.3943  0.7590
 1183TIP3    H224965   6.100   6.606  11.200 -1.9308 -2.7452  0.7506
 1184TIP3   OH224966   1.405   0.131   6.125 -0.5611 -0.1633 -0.0538
 1184TIP3    H124967   1.468   0.178   6.181 -0.5822 -1.1018  0.7707
 1184TIP3    H224968   1.380   0.055   6.177 -3.0308  0.6327 -0.0169
 1185TIP3   OH224969   5.375   6.669  12.528 -0.3515  0.1785 -0.3008
 1185TIP3    H124970   5.345   6.726  12.599 -1.7475  0.3123 -0.9961
 1185TIP3    H224971   5.331   6.586  12.543  0.8944 -0.4182  0.1180
 1186TIP3   OH224972   0.541   4.827   3.238  0.4860 -0.0994 -0.1631
 1186TIP3    H124973   0.542   4.923   3.244  0.8360 -0.1691  0.8933
 1186TIP3    H224974   0.592   4.808   3.160  0.3057  0.5771 -0.4581
 1187TIP3   OH224975   4.949   1.047   3.813  0.4210 -0.1670  0.2648
 1187TIP3    H124976   4.984   1.103   3.882 -2.1819  1.3083  0.4291
 1187TIP3    H224977   4.857   1.071   3.805  0.3093 -1.2843 -2.7673
 1188TIP3   OH224978   0.405   1.595  11.949  0.8891 -0.1514  0.1269
 1188TIP3    H124979   0.329   1.537  11.956  0.8808 -0.1689 -0.1083
 1188TIP3    H224980   0.368   1.683  11.944  0.9404 -0.0402  1.5937
 1189TIP3   OH224981   0.518   2.089   2.783  0.3176  0.5952  0.0097
 1189TIP3    H124982   0.466   2.030   2.837  3.0497  0.0312  2.1785
 1189TIP3    H224983   0.550   2.034   2.711  0.7972  0.0542  0.6330
 1190TIP3   OH224984   3.712   5.141   5.141  0.0158  0.9923  0.6502
 1190TIP3    H124985   3.621   5.166   5.125  0.5135  2.3054 -0.2237
 1190TIP3    H224986   3.761   5.223   5.135  1.7413 -0.1855 -2.6074
 1191TIP3   OH224987   3.282   5.793  15.257 -0.1067 -0.0156 -0.6792
 1191TIP3    H124988   3.344   5.865  15.243  0.2284  0.0201  0.9103
 1191TIP3    H224989   3.248   5.807  15.345  1.2662 -2.7665  0.3599
 1192TIP3   OH224990   5.349   5.678  12.523 -0.6354 -0.4369 -0.4425
 1192TIP3    H124991   5.346   5.677  12.619 -4.0232  1.6932 -0.4336
 1192TIP3    H224992   5.269   5.632  12.496 -1.0967  1.3267 -2.1892
 1193TIP3   OH224993   2.162   4.716   2.571 -0.1370  0.9792  0.2240
 1193TIP3    H124994   2.115   4.762   2.641 -0.2093 -0.6795  1.2936
 1193TIP3    H224995   2.095   4.665   2.527  0.3832 -0.1912  0.7703
 1194TIP3   OH224996   4.191   2.890   1.237 -0.3410  0.6904 -0.1233
 1194TIP3    H124997   4.118   2.866   1.295  0.0138  1.0214  0.4669
 1194TIP3    H224998   4.200   2.816   1.178 -1.4510  0.8349 -0.4950
 1195TIP3   OH224999   3.417   6.556   0.279  0.4966 -0.0338  0.0861
 1195TIP3    H125000   3.369   6.607   0.345  2.0710  2.2535 -0.4768
 1195TIP3    H225001   3.350   6.502   0.238 -1.6193  2.8493 -0.4400
 1196TIP3   OH225002   1.721   1.968   5.281  0.3189 -0.1041  0.2925
 1196TIP3    H125003   1.679   1.901   5.226 -1.2498 -0.1966  1.5870
 1196TIP3    H225004   1.654   1.994   5.343  1.4019  1.6026  0.7796
 1197TIP3   OH225005   1.093   3.802  14.865 -0.1962 -0.5262  0.3961
 1197TIP3    H125006   1.123   3.718  14.901 -0.4852 -1.1847 -0.8853
 1197TIP3    H225007   1.026   3.778  14.801  0.3418  0.6339 -0.6271
 1198TIP3   OH225008   4.179   4.590  12.736 -0.1569 -0.1045  0.1181
 1198TIP3    H125009   4.095   4.634  12.726  0.1120  0.8006  1.6598
 1198TIP3    H225010   4.233   4.651  12.786  1.0203 -1.1706  0.1931
 1199TIP3   OH225011   3.140   3.669  15.890  0.1709  0.1193 -0.0800
 1199TIP3    H125012   3.160   3.759  15.917 -0.0987  0.5872 -1.3730
 1199TIP3    H225013   3.225   3.628  15.877  0.3037 -0.0032  1.0665
 1200TIP3   OH225014   0.533   6.533   2.412  0.1616 -0.2155 -0.4777
 1200TIP3    H125015   0.506   6.465   2.473 -0.6550 -0.6352 -1.2898
 1200TIP3    H225016   0.624   6.551   2.434 -0.0597 -0.5222  0.7081
 1201TIP3   OH225017   5.073   5.430   6.463 -0.4631 -0.2856 -0.4706
 1201TIP3    H125018   5.039   5.388   6.542 -1.0409 -2.2300 -1.7142
 1201TIP3    H225019   5.033   5.517   6.463 -0.2783 -0.1900  1.4845
 1202TIP3   OH225020   4.662   3.813  11.438 -0.2790 -0.2472  0.1774
 1202TIP3    H125021   4.712   3.885  11.400 -0.6997  0.4246  0.8713
 1202TIP3    H225022   4.725   3.741  11.443  0.2532  0.1830 -0.1820
 1203TIP3   OH225023   1.784   3.350  12.231  0.2105 -0.2207 -0.2495
 1203TIP3    H125024   1.861   3.322  12.280 -0.9433 -0.3319  1.5493
 1203TIP3    H225025   1.790   3.303  12.148  1.5918 -0.9243  0.2302
 1204TIP3   OH225026   6.098   2.185  14.170  0.4989 -0.0739 -0.3603
 1204TIP3    H125027   6.188   2.195  14.139  1.5446 -1.0119  2.2464
 1204TIP3    H225028   6.070   2.274  14.192  1.7003 -0.0564  1.1929
 1205TIP3   OH225029   3.311   0.917   0.762  0.0284  0.5462 -0.5831
 1205TIP3    H125030   3.289   0.869   0.842  1.9467  1.0866  0.3057
 1205TIP3    H225031   3.236   0.975   0.748 -0.4680  0.2245  0.6638
 1206TIP3   OH225032   4.856   0.638  14.741  0.3413 -0.7884 -0.2543
 1206TIP3    H125033   4.828   0.550  14.766  1.6317 -0.7576  1.4306
 1206TIP3    H225034   4.912   0.625  14.665  0.7340 -1.4491  0.1444
 1207TIP3   OH225035   2.480   3.541   5.406 -0.1504  0.2687  0.1592
 1207TIP3    H125036   2.523   3.613   5.359  0.7778 -0.1735  0.3250
 1207TIP3    H225037   2.552   3.497   5.452 -0.5758 -1.3683 -0.7269
 1208TIP3   OH225038   4.790   3.715   3.129 -0.1071 -0.5245  0.7168
 1208TIP3    H125039   4.729   3.784   3.103  0.5233  0.2991  1.4411
 1208TIP3    H225040   4.872   3.737   3.086 -0.0400 -1.1275  0.5171
 1209TIP3   OH225041   1.133   1.634  14.094 -0.4239  0.2657 -0.0828
 1209TIP3    H125042   1.204   1.661  14.152  0.2944  1.3068 -1.4371
 1209TIP3    H225043   1.127   1.539  14.105  0.7492  0.2609  0.5105
 1210TIP3   OH225044   5.839   5.124   2.048  0.1566  0.4372 -0.7791
 1210TIP3    H125045   5.838   5.174   2.130 -2.0134 -0.2405 -0.3546
 1210TIP3    H225046   5.752   5.138   2.010 -0.1708 -2.2222 -1.1117
 1211TIP3   OH225047   3.982   5.644   4.200  0.6602 -0.3603 -0.5253
 1211TIP3    H125048   4.013   5.676   4.115 -0.6932  1.6517 -0.2883
 1211TIP3    H225049   4.017   5.706   4.264 -0.6792 -0.2367  0.1114
 1212TIP3   OH225050   4.356   4.549   1.059  0.0394 -0.0002  0.5322
 1212TIP3    H125051   4.398   4.558   1.144 -0.3030  0.1711  0.6847
 1212TIP3    H225052   4.299   4.473   1.068 -0.4673  0.3901  0.6531
 1213TIP3   OH225053   1.749   0.345   1.524 -0.8444 -0.1498  0.4192
 1213TIP3    H125054   1.681   0.280   1.542 -0.5530 -0.6315 -0.2320
 1213TIP3    H225055   1.781   0.325   1.436  0.5558 -0.2925  0.9392
 1214TIP3   OH225056   5.118   3.838   2.259 -0.2685 -0.7236 -0.1666
 1214TIP3    H125057   5.156   3.778   2.196  0.7209  0.2822 -0.5425
 1214TIP3    H225058   5.150   3.807   2.344 -0.4461 -1.2275 -0.2838
 1215TIP3   OH225059   4.156   6.019  12.904 -0.8029 -0.0699  0.0502
 1215TIP3    H125060   4.100   6.051  12.834 -1.0279 -0.9475 -0.1792
 1215TIP3    H225061   4.222   5.966  12.860 -1.2676 -1.0654  0.5429
 1216TIP3   OH225062   3.671   1.938   4.735  0.1179 -0.3094 -0.0281
 1216TIP3    H125063   3.721   1.935   4.653  1.8152  0.4433  0.9464
 1216TIP3    H225064   3.704   2.015   4.781 -0.2865 -1.1260  1.6864
 1217TIP3   OH225065   4.378   5.952   3.707 -0.2687 -0.8865  0.7048
 1217TIP3    H125066   4.325   5.874   3.722 -0.7679 -1.0166 -1.5812
 1217TIP3    H225067   4.451   5.921   3.652 -0.5001  0.2505 -0.2670
 1218TIP3   OH225068   1.686   3.679  16.890  0.2538  0.1500 -0.2730
 1218TIP3    H125069   1.664   3.729  16.811  0.6481  1.5783  0.5101
 1218TIP3    H225070   1.621   3.705  16.954  0.9695  0.3209  0.3972
 1219TIP3   OH225071   0.122   1.079  12.999  0.0495 -0.2451  0.1846
 1219TIP3    H125072   0.146   0.987  12.996 -0.0519 -0.3077  1.3448
 1219TIP3    H225073   0.183   1.118  13.062  0.2881  0.5428 -0.5161
 1220TIP3   OH225074   2.314   3.418  10.822 -0.3308  0.2001  0.2882
 1220TIP3    H125075   2.358   3.384  10.744 -1.0005  0.8826 -0.3915
 1220TIP3    H225076   2.227   3.445  10.791 -0.3494  1.1287  1.1254
 1221TIP3   OH225077   2.214   2.013  15.503 -0.2154  0.3880  0.6500
 1221TIP3    H125078   2.161   1.940  15.533 -0.1852 -0.3652 -1.0442
 1221TIP3    H225079   2.304   1.988  15.524 -0.1295 -0.4556 -0.6796
 1222TIP3   OH225080   6.016   5.067  14.575 -0.6160 -0.1003 -0.2729
 1222TIP3    H125081   5.993   4.981  14.612  0.2606  0.3757  1.4199
 1222TIP3    H225082   5.967   5.130  14.627  1.5322  0.6589  0.9273
 1223TIP3   OH225083   1.624   0.139   1.244  0.0820 -0.3793  0.2172
 1223TIP3    H125084   1.599   0.230   1.260 -1.2528 -0.7773  0.4390
 1223TIP3    H225085   1.697   0.145   1.183 -2.8321  0.7407 -3.3572
 1224TIP3   OH225086   3.091   0.397   2.617  0.1537 -0.6687 -0.4989
 1224TIP3    H125087   3.009   0.348   2.607  1.1857 -1.7920 -4.3276
 1224TIP3    H225088   3.068   0.487   2.594 -0.8861 -0.0474  2.7200
 1225TIP3   OH225089   0.441   0.818  13.110  0.9703  0.2803  0.4654
 1225TIP3    H125090   0.448   0.882  13.180  1.6554  1.3172 -0.5288
 1225TIP3    H225091   0.526   0.821  13.066  0.9331 -1.1456  0.2666
 1226TIP3   OH225092   3.102   2.224  16.684  0.3946 -0.2816 -0.1848
 1226TIP3    H125093   3.196   2.223  16.701  0.2089 -0.4077  0.9345
 1226TIP3    H225094   3.063   2.194  16.767 -0.7669  2.3990  0.2872
 1227TIP3   OH225095   1.872   3.418  14.295 -0.4630 -0.0598 -0.1627
 1227TIP3    H125096   1.924   3.412  14.375 -0.7039 -1.2866 -0.0925
 1227TIP3    H225097   1.930   3.385  14.226  0.4590  2.8619 -0.8516
 1228TIP3   OH225098   6.349   2.652  11.572  0.7020  1.0239 -0.1490
 1228TIP3    H125099   6.263   2.626  11.539  0.9882  1.6192 -1.4058
 1228TIP3    H225100   6.343   2.748  11.579  1.6676  1.1867 -1.4382
 1229TIP3   OH225101   4.082   0.070  12.470  0.3233  0.4343 -0.1491
 1229TIP3    H125102   4.108   0.158  12.497 -0.7322  0.7849 -0.2735
 1229TIP3    H225103   4.124   0.058  12.385 -1.5003  1.7714 -1.2804
 1230TIP3   OH225104   4.104   0.593  15.652  0.5929 -0.0849  0.2264
 1230TIP3    H125105   4.153   0.565  15.574  0.9378  3.3032 -0.8559
 1230TIP3    H225106   4.041   0.657  15.619 -2.4694 -2.0245  2.1004
 1231TIP3   OH225107   0.387   2.878   4.210  0.3077 -0.6012 -0.6270
 1231TIP3    H125108   0.319   2.917   4.264 -0.6308 -1.9317 -0.8407
 1231TIP3    H225109   0.468   2.917   4.242 -0.4294  0.0725  0.4410
 1232TIP3   OH225110   0.813   4.437   3.309 -0.4471  0.4701 -0.3094
 1232TIP3    H125111   0.905   4.454   3.330 -0.2683 -0.9001  0.0329
 1232TIP3    H225112   0.766   4.512   3.346  0.3778  0.4831  0.7336
 1233TIP3   OH225113   2.923   5.281   2.331  0.5950 -0.1336  0.4053
 1233TIP3    H125114   3.018   5.279   2.343  0.3963 -0.1976  2.0774
 1233TIP3    H225115   2.899   5.188   2.321  0.7133 -0.1067 -0.1843
 1234TIP3   OH225116   3.490   2.694  16.204 -0.4766  0.0552  0.4490
 1234TIP3    H125117   3.433   2.665  16.275 -1.5700  1.2695  0.0998
 1234TIP3    H225118   3.440   2.763  16.160  0.6430  0.0838 -0.8157
 1235TIP3   OH225119   1.335   1.387   0.614 -0.2711 -0.2592  0.3296
 1235TIP3    H125120   1.369   1.313   0.664 -0.1084 -0.7602 -0.5153
 1235TIP3    H225121   1.268   1.349   0.557  0.3794  0.1011 -0.6924
 1236TIP3   OH225122   6.233   1.915   4.982 -0.4924  0.1355  0.9282
 1236TIP3    H125123   6.317   1.869   4.979 -0.1385  0.7913  0.8029
 1236TIP3    H225124   6.256   2.005   5.005 -1.1620  0.3120  0.9065
 1237TIP3   OH225125   3.634   3.810  13.099 -0.1639  0.6024 -0.5248
 1237TIP3    H125126   3.679   3.793  13.016  0.7825  0.5077  0.0059
 1237TIP3    H225127   3.705   3.826  13.162 -0.7969 -1.7076  0.8064
 1238TIP3   OH225128   4.867   6.053   0.495 -0.1790  0.4560 -0.3760
 1238TIP3    H125129   4.960   6.067   0.480 -0.2206 -0.0810 -1.1400
 1238TIP3    H225130   4.830   6.037   0.408 -0.9718  0.5817 -0.0705
 1239TIP3   OH225131   0.288   2.506  12.487  0.3463  0.4178 -0.2172
 1239TIP3    H125132   0.203   2.495  12.531  0.8224  0.7388  0.7866
 1239TIP3    H225133   0.346   2.443  12.530  0.6679  0.3196 -0.7871
 1240TIP3   OH225134   1.632   2.896   1.824 -0.3938 -0.1148  0.2791
 1240TIP3    H125135   1.597   2.984   1.811 -1.6181 -0.7067 -0.5095
 1240TIP3    H225136   1.718   2.898   1.783 -0.5604  0.6077 -0.0399
 1241TIP3   OH225137   2.318   0.335  13.389  0.1442  0.2710 -0.2299
 1241TIP3    H125138   2.295   0.308  13.478  2.0492  2.1206  0.8690
 1241TIP3    H225139   2.306   0.429  13.389  0.0707  0.2696 -1.9823
 1242TIP3   OH225140   2.475   0.867   3.269 -0.5676 -0.2030 -0.6796
 1242TIP3    H125141   2.449   0.795   3.326 -2.6604  0.4360 -0.7847
 1242TIP3    H225142   2.533   0.827   3.204  1.5731 -0.9909  1.6506
 1243TIP3   OH225143   5.424   2.780  10.389  0.2037 -0.1412  0.3300
 1243TIP3    H125144   5.370   2.702  10.377  0.5808 -0.3000 -0.3238
 1243TIP3    H225145   5.513   2.750  10.372  0.2013  0.7457 -1.3009
 1244TIP3   OH225146   2.401   1.901   1.663 -0.1717 -0.1118 -0.8287
 1244TIP3    H125147   2.369   1.984   1.629 -0.1750  0.2071 -0.0592
 1244TIP3    H225148   2.485   1.921   1.703  0.2205 -0.6391 -1.3769
 1245TIP3   OH225149   5.229   4.376   2.773  0.3342 -0.7297 -0.2090
 1245TIP3    H125150   5.140   4.380   2.736 -0.0071 -1.4230  0.5095
 1245TIP3    H225151   5.284   4.417   2.706 -0.5090 -0.3934 -0.7184
 1246TIP3   OH225152   3.499   2.072  16.287  0.0511 -0.1489  0.1058
 1246TIP3    H125153   3.501   2.135  16.359 -2.0167  0.8606 -0.6817
 1246TIP3    H225154   3.590   2.048  16.273  0.4471 -0.9278  3.5566
 1247TIP3   OH225155   0.365   2.455   2.022 -0.2958 -0.2793  0.2567
 1247TIP3    H125156   0.343   2.394   2.092  0.3587 -0.9308 -0.0967
 1247TIP3    H225157   0.446   2.497   2.052  0.2804 -0.9488 -0.3449
 1248TIP3   OH225158   3.465   5.056   0.459 -0.4303 -0.1664 -0.5718
 1248TIP3    H125159   3.429   5.015   0.380 -0.9803 -2.7040  0.9555
 1248TIP3    H225160   3.392   5.107   0.495 -1.3901 -2.1473  0.3781
 1249TIP3   OH225161   5.575   2.051  15.686  0.9149  0.0990 -0.4057
 1249TIP3    H125162   5.667   2.071  15.701  0.8144 -1.0925  2.0853
 1249TIP3    H225163   5.531   2.136  15.691  1.6183  0.4137  0.5501
 1250TIP3   OH225164   3.410   3.356   5.641 -0.1472 -0.1438  0.0355
 1250TIP3    H125165   3.441   3.328   5.727 -0.5240  0.2636  0.3031
 1250TIP3    H225166   3.488   3.391   5.597 -0.4188  1.8109  1.0755
 1251TIP3   OH225167   1.295   4.679  12.091 -0.1669 -0.0890  0.1457
 1251TIP3    H125168   1.373   4.656  12.142  0.1088 -1.3559 -0.8242
 1251TIP3    H225169   1.296   4.775  12.089  0.2342 -0.0383  1.8622
 1252TIP3   OH225170   2.542   5.002  13.380 -0.3336 -0.8717 -0.5345
 1252TIP3    H125171   2.468   5.020  13.322  0.3083  0.8454 -0.8284
 1252TIP3    H225172   2.503   4.958  13.455 -1.3485 -1.9866 -1.6820
 1253TIP3   OH225173   3.877   1.679  15.568 -0.5556 -0.0106 -0.2557
 1253TIP3    H125174   3.923   1.757  15.540 -1.1309 -0.2070 -1.8032
 1253TIP3    H225175   3.931   1.643  15.639 -0.3992  1.8674  0.6074
 1254TIP3   OH225176   1.865   3.503   5.744 -0.7639  0.1300 -0.3302
 1254TIP3    H125177   1.809   3.579   5.729 -1.0275  0.1734  0.8843
 1254TIP3    H225178   1.827   3.459   5.820  0.9422  0.2389  0.6034
 1255TIP3   OH225179   6.419   3.052  14.219 -0.1303 -0.1505 -0.3179
 1255TIP3    H125180   6.482   3.046  14.291 -1.0525 -1.6224  0.4016
 1255TIP3    H225181   6.416   3.145  14.198  0.5510  0.2466  1.2139
 1256TIP3   OH225182   0.170   5.205   0.393 -0.5341 -0.3324 -0.3271
 1256TIP3    H125183   0.116   5.131   0.368  0.3438 -1.3214  0.6753
 1256TIP3    H225184   0.201   5.242   0.311  0.1353 -1.9096 -0.7969
 1257TIP3   OH225185   4.032   2.725   1.030  0.4025  0.2665  0.0128
 1257TIP3    H125186   4.084   2.647   1.050  0.2493 -0.4014 -2.1311
 1257TIP3    H225187   4.087   2.777   0.972 -1.4930 -0.7000 -2.7351
 1258TIP3   OH225188   1.103   6.481   3.688  1.1324  0.2564 -0.5924
 1258TIP3    H125189   1.087   6.575   3.693 -0.7690 -0.1021  0.4078
 1258TIP3    H225190   1.059   6.453   3.608 -1.2551 -0.3213  0.8785
 1259TIP3   OH225191   0.081   2.454  12.665  0.3816 -0.3121 -0.2811
 1259TIP3    H125192   0.003   2.407  12.635  1.4130 -1.2698 -1.5769
 1259TIP3    H225193   0.052   2.505  12.740 -0.9094 -2.6318  0.8478
 1260TIP3   OH225194   3.717   0.121   0.984 -0.5120 -0.5358  0.3826
 1260TIP3    H125195   3.658   0.185   0.942 -1.2083 -0.5682  1.2948
 1260TIP3    H225196   3.741   0.061   0.913  0.4042  0.9069 -0.5684
 1261TIP3   OH225197   5.705   6.726  15.458  0.4564 -0.3362 -0.0526
 1261TIP3    H125198   5.675   6.713  15.368 -0.2576  0.3185  0.0812
 1261TIP3    H225199   5.753   6.646  15.479 -0.8424 -1.2232 -0.4306
 1262TIP3   OH225200   4.450   5.482  16.716  0.2689 -0.1544  0.3286
 1262TIP3    H125201   4.441   5.403  16.663  0.1206  0.7535 -1.0155
 1262TIP3    H225202   4.495   5.544  16.659 -0.5669  1.0854  1.0035
 1263TIP3   OH225203   4.560   0.090   0.966 -0.0995  0.1987  0.0560
 1263TIP3    H125204   4.540   0.056   1.053 -0.7849  0.0494 -0.1551
 1263TIP3    H225205   4.483   0.068   0.913 -0.1521  1.2400 -0.3216
 1264TIP3   OH225206   3.249   0.735   0.518 -0.1564 -0.3846 -0.6401
 1264TIP3    H125207   3.331   0.771   0.550 -0.7330 -1.2843  1.9345
 1264TIP3    H225208   3.273   0.690   0.437  1.7494 -0.0069 -0.3111
 1265TIP3   OH225209   4.467   2.978  15.495 -0.3625 -0.4043  0.1035
 1265TIP3    H125210   4.531   2.914  15.464 -0.0011  0.4507 -0.9384
 1265TIP3    H225211   4.417   2.931  15.563 -0.4048 -1.9414 -0.9632
 1266TIP3   OH225212   2.947   3.840   3.653  0.3535  0.6744 -0.0239
 1266TIP3    H125213   2.927   3.930   3.625 -2.0365  0.1062 -0.1742
 1266TIP3    H225214   2.985   3.850   3.740 -1.6285  1.7273  0.7488
 1267TIP3   OH225215   1.454   5.445   1.921  0.8776  0.1078 -0.6320
 1267TIP3    H125216   1.514   5.420   1.851 -1.1397  0.0840 -2.3907
 1267TIP3    H225217   1.476   5.388   1.994  4.2270  1.3463 -0.5859
 1268TIP3   OH225218   1.059   4.657   5.180  0.0145 -0.0869 -0.2754
 1268TIP3    H125219   0.979   4.612   5.152 -0.1349  0.1989 -0.3098
 1268TIP3    H225220   1.127   4.623   5.122  0.0016 -0.6503  0.0289
 1269TIP3   OH225221   3.423   4.920   3.542  0.5850  0.6807  0.3118
 1269TIP3    H125222   3.459   4.849   3.490  0.2595  0.6502  0.1300
 1269TIP3    H225223   3.343   4.883   3.581  0.3433  0.9875  0.1088
 1270TIP3   OH225224   6.042   0.392   2.815  0.2342  0.0287 -0.3918
 1270TIP3    H125225   6.022   0.346   2.897 -1.2265  1.7188  0.2224
 1270TIP3    H225226   5.996   0.341   2.748  0.6764 -0.8284 -0.0521
 1271TIP3   OH225227   1.221   0.440  14.680  0.1737  0.7967  0.7023
 1271TIP3    H125228   1.211   0.536  14.679 -0.3181  0.7518  1.0405
 1271TIP3    H225229   1.144   0.409  14.727 -0.3886  0.1335 -0.6690
 1272TIP3   OH225230   3.805   5.413   5.139 -0.3118 -0.3670 -0.6441
 1272TIP3    H125231   3.774   5.466   5.065 -1.4088 -1.2859 -0.8508
 1272TIP3    H225232   3.865   5.471   5.186 -0.8333  0.7657 -1.3533
 1273TIP3   OH225233   3.202   3.334   1.172 -0.0761 -0.1901 -0.3660
 1273TIP3    H125234   3.292   3.309   1.150  0.8671 -0.2515  3.2776
 1273TIP3    H225235   3.160   3.252   1.199 -0.0595  0.4239  1.6029
 1274TIP3   OH225236   2.726   2.828   1.988 -0.1109  0.3684 -0.3343
 1274TIP3    H125237   2.679   2.851   2.069  1.1381  0.7452  0.2880
 1274TIP3    H225238   2.811   2.797   2.018  1.2593  2.7231 -1.6045
 1275TIP3   OH225239   4.924   3.872   1.708  0.5176 -0.2218  0.4849
 1275TIP3    H125240   4.984   3.813   1.662 -0.6704  0.5988 -2.2585
 1275TIP3    H225241   4.980   3.932   1.756  1.8475 -0.9025 -0.1913
 1276TIP3   OH225242   3.707   2.380  13.873 -0.1841 -0.0456  0.1215
 1276TIP3    H125243   3.669   2.293  13.864 -1.1931  0.4470 -0.3734
 1276TIP3    H225244   3.653   2.423  13.940  1.9076 -0.6774  2.3061
 1277TIP3   OH225245   2.711   6.040   4.950  0.4431  0.0076  0.2072
 1277TIP3    H125246   2.761   6.061   4.871  0.8781  0.5018  0.6090
 1277TIP3    H225247   2.713   5.944   4.955 -0.5649 -0.0868 -1.0028
 1278TIP3   OH225248   5.909   0.274   2.600  0.7633  0.0976  1.0617
 1278TIP3    H125249   5.912   0.335   2.526 -1.2637  0.1543  0.9972
 1278TIP3    H225250   5.911   0.188   2.560  2.1527  0.1189  1.0762
 1279TIP3   OH225251   0.831   0.255   2.853 -0.2277 -0.2014  0.1937
 1279TIP3    H125252   0.855   0.187   2.915 -1.1085  1.2851  2.2102
 1279TIP3    H225253   0.913   0.298   2.831  0.1582 -1.0941 -0.1403
 1280TIP3   OH225254   2.890   4.210   5.957 -0.3913  0.8583 -0.1309
 1280TIP3    H125255   2.852   4.277   6.014  0.5654  0.3091  1.1625
 1280TIP3    H225256   2.950   4.259   5.899  1.3905  0.9748  1.7517
 1281TIP3   OH225257   2.020   5.435  14.288 -0.0718 -0.4896 -0.3031
 1281TIP3    H125258   2.026   5.501  14.357 -2.1399 -0.0267 -0.5405
 1281TIP3    H225259   2.064   5.474  14.213 -1.5430  0.7398 -0.5295
 1282TIP3   OH225260   0.788   5.015  17.185 -0.0441  0.6586  0.0736
 1282TIP3    H125261   0.863   5.033  17.128 -0.7906  0.6024 -0.9496
 1282TIP3    H225262   0.825   4.967  17.259  0.7741 -0.2660 -0.9241
 1283TIP3   OH225263   4.433   5.010   1.085  0.1127  0.2014 -0.1263
 1283TIP3    H125264   4.366   5.072   1.056 -0.1940 -0.2407 -0.3654
 1283TIP3    H225265   4.516   5.055   1.067 -0.1113  0.6694 -0.0111
 1284TIP3   OH225266   2.560   5.503   3.000  0.2792  0.2706 -0.1470
 1284TIP3    H125267   2.630   5.438   2.998 -2.0918 -2.4030 -1.8870
 1284TIP3    H225268   2.484   5.455   3.034 -1.4688  2.2080 -1.1616
 1285TIP3   OH225269   4.518   1.978   1.067 -0.0205 -0.5687  0.1532
 1285TIP3    H125270   4.491   2.006   0.980  1.0133  0.6301  0.2112
 1285TIP3    H225271   4.522   2.059   1.118  3.0654 -0.7762  0.3171
 1286TIP3   OH225272   3.460   4.115   3.688  0.4040  0.2202  0.0093
 1286TIP3    H125273   3.502   4.040   3.645 -0.9007  0.3896 -1.6357
 1286TIP3    H225274   3.529   4.180   3.696  0.9952 -0.3144 -0.6845
 1287TIP3   OH225275   3.732   1.453   1.492  0.4103  0.4724  0.3925
 1287TIP3    H125276   3.696   1.540   1.472 -1.7502 -0.1370  1.4479
 1287TIP3    H225277   3.756   1.417   1.407 -0.1273  1.4902 -0.2046
 1288TIP3   OH225278   0.761   0.458   5.798 -0.1359 -0.1918  0.0237
 1288TIP3    H125279   0.828   0.439   5.732 -1.9326 -1.4738 -1.4603
 1288TIP3    H225280   0.731   0.546   5.777  1.3131  0.5463  0.9328
 1289TIP3   OH225281   5.484   0.515  11.254 -0.1925  0.2057 -0.0659
 1289TIP3    H125282   5.517   0.513  11.164 -0.8153  1.0984 -0.3198
 1289TIP3    H225283   5.552   0.561  11.304 -1.1422  2.3112 -0.6441
 1290TIP3   OH225284   0.718   1.417  17.194 -0.2010 -0.7440 -0.4085
 1290TIP3    H125285   0.795   1.363  17.177  0.1640 -0.2617 -0.3093
 1290TIP3    H225286   0.653   1.386  17.132  0.2717 -0.7580 -0.9008
 1291TIP3   OH225287   6.615   3.632  13.373 -0.2635  0.0503  0.3196
 1291TIP3    H125288   6.623   3.626  13.468 -1.3967  2.7106  0.6150
 1291TIP3    H225289   6.526   3.604  13.355 -0.6802  1.3942  0.2500
 1292TIP3   OH225290   3.757   0.711  11.568 -0.5100 -0.3613 -0.0821
 1292TIP3    H125291   3.664   0.703  11.586 -0.7137 -0.4116 -1.1148
 1292TIP3    H225292   3.777   0.804  11.582 -1.0298 -0.0640 -1.2836
 1293TIP3   OH225293   0.711   5.036  16.388 -0.0177 -1.1865 -0.3004
 1293TIP3    H125294   0.783   5.079  16.436  0.3030 -1.1232 -0.8405
 1293TIP3    H225295   0.659   4.993  16.457  1.0470 -2.0052  0.0130
 1294TIP3   OH225296   6.228   1.374  16.638 -0.2060 -0.1809  0.3297
 1294TIP3    H125297   6.216   1.440  16.570  0.9429 -1.0644 -0.7409
 1294TIP3    H225298   6.292   1.313  16.602 -1.1315 -1.7995  1.3711
 1295TIP3   OH225299   6.229   1.630  10.736  0.3246 -0.1998 -0.6806
 1295TIP3    H125300   6.223   1.628  10.641 -2.0130  0.9054 -0.5762
 1295TIP3    H225301   6.168   1.564  10.766 -0.4891  0.8803  0.0976
 1296TIP3   OH225302   1.175   2.222   0.434  0.1186  0.1587  0.2875
 1296TIP3    H125303   1.135   2.302   0.467  1.3580  0.8456  0.1671
 1296TIP3    H225304   1.188   2.168   0.513  0.9041  0.8171  0.6169
 1297TIP3   OH225305   0.269   4.370   1.347 -0.1368  0.0639  0.1651
 1297TIP3    H125306   0.319   4.364   1.428  0.9920 -0.1462 -0.5364
 1297TIP3    H225307   0.330   4.341   1.279  0.2524  4.0585 -1.3107
 1298TIP3   OH225308   0.939   3.645  11.997 -0.0384  0.1894  0.3577
 1298TIP3    H125309   0.988   3.727  11.990  0.3518  0.0286  1.1461
 1298TIP3    H225310   0.998   3.586  12.043 -0.0870 -0.7283 -0.7430
 1299TIP3   OH225311   1.702   2.789  15.415 -0.8566  0.3557 -0.0262
 1299TIP3    H125312   1.620   2.832  15.389 -0.3477  1.9123  0.8460
 1299TIP3    H225313   1.766   2.860  15.417  0.0767 -0.5085  1.1597
 1300TIP3   OH225314   5.163   4.467  13.786  0.7758 -0.1332 -0.3599
 1300TIP3    H125315   5.190   4.493  13.874  0.1298  0.8660 -0.4553
 1300TIP3    H225316   5.222   4.395  13.764  2.2769  0.9187  0.1002
 1301TIP3   OH225317   4.732   6.100  17.174 -0.4141 -0.6047 -0.3921
 1301TIP3    H125318   4.662   6.035  17.163 -1.5283  0.5695 -0.3933
 1301TIP3    H225319   4.686   6.184  17.173  1.0700  0.2084 -0.9387
 1302TIP3   OH225320   1.697   0.713   6.407  0.2592 -0.1054 -0.2927
 1302TIP3    H125321   1.682   0.618   6.401  0.3559 -0.3164  2.1586
 1302TIP3    H225322   1.786   0.726   6.374  0.2230 -0.8561 -0.6943
 1303TIP3   OH225323   4.700   3.096  14.646 -0.1706 -0.3395 -0.2029
 1303TIP3    H125324   4.649   3.067  14.570  1.3729  0.1797 -1.4577
 1303TIP3    H225325   4.640   3.085  14.720 -1.7416 -0.7425 -1.4973
 1304TIP3   OH225326   2.028   6.457  16.985 -0.8264  0.4208  0.0139
 1304TIP3    H125327   1.961   6.415  17.038 -0.8694 -0.7287 -0.9258
 1304TIP3    H225328   2.110   6.435  17.029 -0.9742  0.8861  0.5330
 1305TIP3   OH225329   4.225   6.635   2.994 -0.0882  0.0310 -0.0893
 1305TIP3    H125330   4.207   6.556   3.045 -0.5507 -0.1637 -0.5479
 1305TIP3    H225331   4.319   6.651   3.007 -0.3213  0.3583  1.3417
 1306TIP3   OH225332   1.551   5.554   0.475  0.0124  0.0738 -0.1202
 1306TIP3    H125333   1.501   5.579   0.553  1.0620 -2.2107  1.3540
 1306TIP3    H225334   1.623   5.617   0.471 -0.5680  0.7620  0.2422
 1307TIP3   OH225335   2.375   0.588   0.495 -0.2617  0.6337 -0.0780
 1307TIP3    H125336   2.331   0.645   0.558 -1.5549 -1.5150  0.9676
 1307TIP3    H225337   2.462   0.574   0.533 -0.7431  0.0320  0.8040
 1308TIP3   OH225338   5.844   3.341   3.435 -0.0087  0.2548  0.4465
 1308TIP3    H125339   5.833   3.267   3.375 -1.5255  0.4737  0.4155
 1308TIP3    H225340   5.903   3.401   3.389  0.8910 -0.7334  0.2937
 1309TIP3   OH225341   6.209   3.606   1.667 -0.2702 -0.2977  0.2925
 1309TIP3    H125342   6.275   3.545   1.635  0.0646 -0.1293  0.6667
 1309TIP3    H225343   6.179   3.653   1.589  0.4384  0.0101  0.2077
 1310TIP3   OH225344   2.842   2.166   3.392  0.1908  0.0918 -0.3095
 1310TIP3    H125345   2.934   2.169   3.419  0.9418 -0.9203 -2.5950
 1310TIP3    H225346   2.802   2.104   3.453  0.5260  2.0519  1.9773
 1311TIP3   OH225347   2.698   3.210   5.279  0.3541 -0.2585 -0.5217
 1311TIP3    H125348   2.622   3.162   5.245  0.5126  0.9021 -2.5694
 1311TIP3    H225349   2.713   3.280   5.216  3.4930 -0.7987 -0.4565
 1312TIP3   OH225350   5.670   5.546   4.498 -0.1361 -1.1572 -0.4682
 1312TIP3    H125351   5.603   5.548   4.566 -0.9194 -1.6436 -1.1996
 1312TIP3    H225352   5.620   5.529   4.417  0.6837  0.1435 -1.2621
 1313TIP3   OH225353   6.425   5.025   3.846  0.1811 -0.2200 -0.1325
 1313TIP3    H125354   6.378   5.002   3.766  0.5876 -1.2658 -0.0806
 1313TIP3    H225355   6.406   5.118   3.860  0.5113  0.0951 -1.7192
 1314TIP3   OH225356   4.817   5.878  11.630  1.0781 -0.1012  0.3679
 1314TIP3    H125357   4.886   5.914  11.575  0.4690 -0.9093 -0.9894
 1314TIP3    H225358   4.797   5.793  11.590  0.7287 -0.7844  1.9565
 1315TIP3   OH225359   1.447   4.339   3.442 -0.1458 -0.2793 -0.1552
 1315TIP3    H125360   1.359   4.319   3.474  0.0693 -0.6892  0.1710
 1315TIP3    H225361   1.449   4.304   3.353 -0.8526  1.1439 -0.7592
 1316TIP3   OH225362   3.136   1.610   3.135  0.4615  0.1678 -0.5290
 1316TIP3    H125363   3.127   1.703   3.112  0.8945  0.5133  0.6760
 1316TIP3    H225364   3.213   1.607   3.191  1.1971 -1.1169 -1.6047
 1317TIP3   OH225365   2.010   2.470  12.374 -0.1830 -0.2548  0.0482
 1317TIP3    H125366   2.103   2.472  12.398  0.1652 -1.5884 -1.0895
 1317TIP3    H225367   1.981   2.561  12.379  0.9584  0.0502  1.2856
 1318TIP3   OH225368   2.564   5.598  12.572  0.4736 -0.4174  0.2488
 1318TIP3    H125369   2.563   5.510  12.609  0.6025 -0.1134  0.9900
 1318TIP3    H225370   2.607   5.588  12.487  3.2368 -0.5735  1.6027
 1319TIP3   OH225371   3.600   6.133  10.356  0.0552  0.2653  0.0166
 1319TIP3    H125372   3.614   6.046  10.320  0.5170  0.1557  0.4577
 1319TIP3    H225373   3.538   6.120  10.428 -0.6693  0.4469 -0.5732
 1320TIP3   OH225374   6.768   2.141   2.052 -0.5966  0.2731  0.1436
 1320TIP3    H125375   6.803   2.059   2.089 -0.0427  0.1821 -0.5618
 1320TIP3    H225376   6.835   2.168   1.989 -0.7319  1.3316  0.4548
 1321TIP3   OH225377   6.122   5.032   2.851 -0.6166  0.0170 -0.2283
 1321TIP3    H125378   6.130   5.089   2.928  3.0858 -0.1781 -0.3872
 1321TIP3    H225379   6.112   4.944   2.887  2.7661 -0.2947  0.1653
 1322TIP3   OH225380   1.333   0.497   3.001 -0.3234  0.1292 -0.2797
 1322TIP3    H125381   1.288   0.496   3.086 -2.1429  1.3713 -1.1944
 1322TIP3    H225382   1.414   0.545   3.017 -0.1330 -0.5700  0.9768
 1323TIP3   OH225383   5.869   2.002  12.144 -0.4940  0.4572 -0.3451
 1323TIP3    H125384   5.934   1.931  12.141  0.2965  1.1908 -0.7436
 1323TIP3    H225385   5.788   1.958  12.169  0.5140 -0.2099  1.9243
 1324TIP3   OH225386   4.791   3.272   4.209 -0.4571 -0.5781  0.2722
 1324TIP3    H125387   4.825   3.208   4.147 -0.3923 -1.2626  1.0111
 1324TIP3    H225388   4.861   3.285   4.272  0.0074  1.1602 -0.5509
 1325TIP3   OH225389   3.573   4.110  13.747 -0.2870 -0.3852 -0.1100
 1325TIP3    H125390   3.524   4.034  13.715  1.3167 -2.4537  2.1711
 1325TIP3    H225391   3.559   4.110  13.841 -0.8232  2.6193 -0.1372
 1326TIP3   OH225392   0.995   0.366  13.465  0.0150  0.6632  0.1168
 1326TIP3    H125393   0.916   0.396  13.422  1.0515  2.7981 -0.3487
 1326TIP3    H225394   0.989   0.399  13.554 -1.2538 -2.1941  1.1682
 1327TIP3   OH225395   4.332   0.174   3.849 -0.5027  0.0765 -0.4966
 1327TIP3    H125396   4.280   0.167   3.929  1.0862 -3.9513  0.3338
 1327TIP3    H225397   4.423   0.166   3.879  0.1341 -0.9566 -2.6180
 1328TIP3   OH225398   0.725   4.715  14.820 -0.1239 -0.1539  0.0113
 1328TIP3    H125399   0.684   4.773  14.884 -1.1611 -0.1926 -0.5989
 1328TIP3    H225400   0.673   4.726  14.741  0.0370 -1.4575 -0.2945
 1329TIP3   OH225401   0.971   2.031  12.104  0.3906  0.6361  0.2855
 1329TIP3    H125402   0.909   2.101  12.086  2.5657  2.2238 -1.2821
 1329TIP3    H225403   1.057   2.068  12.082  1.8651 -1.6506  1.9159
 1330TIP3   OH225404   6.457   1.159  11.384 -0.3607 -0.1653  0.1961
 1330TIP3    H125405   6.512   1.213  11.327 -0.0774 -2.3071 -1.6461
 1330TIP3    H225406   6.368   1.176  11.355 -0.4225  0.7019  0.8739
 1331TIP3   OH225407   0.002   5.276   1.080 -0.2367  0.7750 -0.0905
 1331TIP3    H125408  -0.032   5.363   1.101  0.4937  1.1579 -0.4974
 1331TIP3    H225409  -0.040   5.218   1.144  0.8916  1.7268  1.5498
 1332TIP3   OH225410   0.372   0.384  15.753  0.3088  0.1332  0.0676
 1332TIP3    H125411   0.400   0.293  15.759  0.3588  0.2302  1.3814
 1332TIP3    H225412   0.278   0.380  15.735  0.1028 -0.1796  1.1871
 1333TIP3   OH225413   6.427   3.382  14.205 -0.1265 -0.0417  0.3158
 1333TIP3    H125414   6.507   3.419  14.241 -0.8062  1.3750  0.4012
 1333TIP3    H225415   6.436   3.393  14.110  1.0031 -2.4223  0.1132
 1334TIP3   OH225416   6.136   4.044  15.624  0.1767  0.1651  0.0489
 1334TIP3    H125417   6.065   4.092  15.580  1.7604  0.4123 -2.3230
 1334TIP3    H225418   6.171   4.107  15.688  1.2807  1.7238 -2.0285
 1335TIP3   OH225419   6.628   5.210  15.931  0.7446  0.4354 -0.0802
 1335TIP3    H125420   6.647   5.244  16.019  0.3146  0.3849  0.0333
 1335TIP3    H225421   6.643   5.115  15.938 -1.7663  0.0594  0.6324
 1336TIP3   OH225422   5.050   3.758   0.744  0.1183  0.1636  0.2805
 1336TIP3    H125423   5.065   3.766   0.650  1.3179 -2.1224  0.2385
 1336TIP3    H225424   4.960   3.788   0.756 -0.2709 -0.1109 -1.6977
 1337TIP3   OH225425   3.901   5.887  11.920  0.2118  0.3185 -0.0935
 1337TIP3    H125426   3.988   5.902  11.883 -0.2266 -2.0740 -2.2556
 1337TIP3    H225427   3.845   5.873  11.844 -2.1722  2.1653  1.2561
 1338TIP3   OH225428   1.367   0.331   3.826  0.5855  0.3298 -0.0307
 1338TIP3    H125429   1.456   0.364   3.825  0.4088  0.8144  0.2813
 1338TIP3    H225430   1.314   0.403   3.790  0.2879  0.1481  0.0403
 1339TIP3   OH225431   6.624   2.434  11.185 -0.0257 -0.5037 -0.2768
 1339TIP3    H125432   6.598   2.416  11.095  0.7479 -0.8035 -0.4479
 1339TIP3    H225433   6.575   2.513  11.209 -0.5753 -0.6786 -0.8020
 1340TIP3   OH225434   1.970   6.028   3.808  0.1003 -0.7584  0.3133
 1340TIP3    H125435   1.944   5.986   3.726  1.8495  0.5418 -0.9340
 1340TIP3    H225436   1.932   5.972   3.876 -1.3468 -1.8734 -1.3546
 1341TIP3   OH225437   4.209   1.983  13.322 -0.1303  0.0802  0.0253
 1341TIP3    H125438   4.257   1.901  13.333 -0.3551  0.0609  0.9029
 1341TIP3    H225439   4.248   2.042  13.388 -1.5921 -0.0606  1.0193
 1342TIP3   OH225440   4.186   5.212  14.723  0.5820 -0.4361 -0.1649
 1342TIP3    H125441   4.199   5.124  14.690  0.1090 -0.7784  0.5313
 1342TIP3    H225442   4.254   5.224  14.789  0.4741 -0.3886 -0.0610
 1343TIP3   OH225443   4.559   5.041   3.230 -0.2193 -0.5811  0.1149
 1343TIP3    H125444   4.566   5.102   3.157 -0.6920 -0.7550 -0.0764
 1343TIP3    H225445   4.650   5.021   3.253 -0.0549  0.7263  0.6378
 1344TIP3   OH225446   4.531   3.377  12.419  0.0543 -0.4266  0.6512
 1344TIP3    H125447   4.498   3.297  12.461 -0.8203  0.0351  0.8420
 1344TIP3    H225448   4.472   3.446  12.447  0.6879  0.2646  0.3162
 1345TIP3   OH225449   0.216   2.969   1.668 -0.3900 -0.2691 -0.3862
 1345TIP3    H125450   0.158   2.982   1.593  0.0136  0.5911 -0.5531
 1345TIP3    H225451   0.167   3.003   1.743 -0.3553 -0.1215 -0.4304
 1346TIP3   OH225452   3.842   2.620  11.503 -0.4797  0.3632 -0.0359
 1346TIP3    H125453   3.910   2.612  11.571 -0.6171  4.1676  0.6580
 1346TIP3    H225454   3.874   2.565  11.431  1.2099 -1.3041  1.9038
 1347TIP3   OH225455   2.165   1.454  14.003  0.0942  0.0312  0.3412
 1347TIP3    H125456   2.226   1.429  14.073  1.3767  0.7650 -0.4906
 1347TIP3    H225457   2.162   1.550  14.008 -1.8215 -0.0519  1.0550
 1348TIP3   OH225458   5.179   2.747   5.248  0.4158 -0.0982 -0.0532
 1348TIP3    H125459   5.246   2.761   5.315  1.1841  1.7399 -1.1769
 1348TIP3    H225460   5.113   2.815   5.266 -0.7381 -1.3513  0.5202
 1349TIP3   OH225461   2.332   5.777   3.865 -0.2335  0.0108 -0.7047
 1349TIP3    H125462   2.265   5.789   3.798  1.5538  1.2753 -2.3238
 1349TIP3    H225463   2.377   5.696   3.839 -1.8776 -1.5233  1.0796
 1350TIP3   OH225464   2.473   2.983  16.617 -0.2003  0.0804  0.0582
 1350TIP3    H125465   2.537   3.054  16.631 -1.2661  1.2534 -0.8469
 1350TIP3    H225466   2.389   3.028  16.613 -0.5955 -0.8338 -3.7830
 1351TIP3   OH225467   2.885   6.029   4.696  0.2647  0.2205 -0.3271
 1351TIP3    H125468   2.895   6.112   4.742  0.4519 -0.4375  0.8483
 1351TIP3    H225469   2.958   6.028   4.634  2.1018 -0.3928  1.7649
 1352TIP3   OH225470   5.266   0.780  16.888 -0.2705  0.0887 -0.1950
 1352TIP3    H125471   5.318   0.855  16.859 -1.0269  0.9883  0.7138
 1352TIP3    H225472   5.329   0.708  16.894  0.7310  0.9700  0.1583
 1353TIP3   OH225473   4.723   2.828   1.985 -0.0023 -0.2918  0.3061
 1353TIP3    H125474   4.633   2.808   2.008 -0.1851 -0.4589 -0.5173
 1353TIP3    H225475   4.767   2.743   1.984  0.3520 -0.1190  1.4945
 1354TIP3   OH225476   5.186   1.183   3.664 -0.0775  0.1449  0.5997
 1354TIP3    H125477   5.114   1.230   3.708 -0.2157  0.8649 -0.3924
 1354TIP3    H225478   5.265   1.224   3.699 -0.1716  0.1782  0.7792
 1355TIP3   OH225479   3.949   1.155  12.266  0.1861  0.1041  0.5951
 1355TIP3    H125480   3.853   1.151  12.268  0.1428  0.8594  0.2807
 1355TIP3    H225481   3.970   1.176  12.175  0.5317  2.4322  1.1700
 1356TIP3   OH225482   2.273   5.969   2.023  0.3589  0.2866  0.2118
 1356TIP3    H125483   2.197   5.923   2.059  0.5545  0.4838  0.8893
 1356TIP3    H225484   2.321   5.902   1.974 -1.0943  0.5228 -1.5721
 1357TIP3   OH225485   0.057   3.980   5.891 -0.2900 -0.3944  0.1646
 1357TIP3    H125486   0.056   4.016   5.802  1.0402  0.8056  0.6169
 1357TIP3    H225487  -0.034   3.985   5.920 -0.1688  2.4861  0.1514
 1358TIP3   OH225488   1.406   1.165   4.005 -0.7701  0.0563  0.0452
 1358TIP3    H125489   1.433   1.096   3.944 -1.2046 -0.8503  0.8651
 1358TIP3    H225490   1.364   1.231   3.950  0.7206  0.2522 -0.9039
 1359TIP3   OH225491   1.334   4.524  14.672 -0.1324 -0.0805  0.5049
 1359TIP3    H125492   1.336   4.620  14.680  1.3370  0.0707 -1.1950
 1359TIP3    H225493   1.426   4.500  14.659 -0.7266 -1.5084 -1.2391
 1360TIP3   OH225494   1.508   5.946  15.957  0.1706 -0.6015 -0.7968
 1360TIP3    H125495   1.544   5.868  15.913  0.4869 -1.2208  0.5333
 1360TIP3    H225496   1.543   5.941  16.046 -0.0787  0.8997 -0.6134
 1361TIP3   OH225497   4.258   2.849  13.784  0.2876 -0.7965 -0.1161
 1361TIP3    H125498   4.241   2.812  13.698 -1.1825  2.0994 -1.1346
 1361TIP3    H225499   4.186   2.816  13.839 -0.3131 -0.4200 -0.6818
 1362TIP3   OH225500   0.342   4.174  14.310 -0.0368 -0.3811  0.1223
 1362TIP3    H125501   0.369   4.264  14.290 -1.4021  0.3124  1.3981
 1362TIP3    H225502   0.381   4.156  14.395 -0.2194 -0.8151  0.1138
 1363TIP3   OH225503   2.572   5.177   2.256 -0.2006 -0.4433  0.1572
 1363TIP3    H125504   2.635   5.238   2.218 -1.4133  0.2956 -0.6997
 1363TIP3    H225505   2.516   5.151   2.183  0.2758 -2.5835  0.5031
 1364TIP3   OH225506   1.220   1.474  13.770 -0.6194  0.2751  0.0136
 1364TIP3    H125507   1.308   1.510  13.782 -0.5235 -0.4720  1.5334
 1364TIP3    H225508   1.183   1.526  13.698  0.2850  2.0303  0.7938
 1365TIP3   OH225509   4.931   2.694   5.560  0.2886  0.2456  0.0670
 1365TIP3    H125510   4.970   2.781   5.564  2.7179 -0.7661 -0.4812
 1365TIP3    H225511   5.003   2.634   5.580 -1.0223 -1.7199 -0.8634
 1366TIP3   OH225512   2.792   5.905  16.554 -0.4659 -0.0005 -0.3070
 1366TIP3    H125513   2.846   5.833  16.585 -1.9193 -0.7513  0.5545
 1366TIP3    H225514   2.730   5.864  16.494 -1.2426  0.5370  0.1174
 1367TIP3   OH225515   0.412   1.794  11.500 -0.5014  0.0442  0.7405
 1367TIP3    H125516   0.462   1.866  11.539 -1.8883  1.0283  0.7409
 1367TIP3    H225517   0.389   1.827  11.413 -2.3705  0.1824  1.2802
 1368TIP3   OH225518   1.572   3.192  17.167 -0.1627 -0.2863 -0.5374
 1368TIP3    H125519   1.536   3.277  17.143 -1.7513 -1.1246 -1.2184
 1368TIP3    H225520   1.651   3.212  17.218  0.0802  1.5677 -1.6127
 1369TIP3   OH225521   4.467   1.009  11.997 -0.2196  0.3927  0.2818
 1369TIP3    H125522   4.499   0.994  11.908 -2.2271 -3.1234  0.0563
 1369TIP3    H225523   4.373   1.023  11.986 -0.6340 -0.9260  1.8900
 1370TIP3   OH225524   3.887   3.568  16.210  0.9271 -0.2713 -0.2555
 1370TIP3    H125525   3.834   3.494  16.240  1.3227  0.7130  3.0262
 1370TIP3    H225526   3.925   3.604  16.289  0.4051  3.7483 -1.7243
 1371TIP3   OH225527   4.943   6.774  15.461 -0.0714  0.1281 -0.0377
 1371TIP3    H125528   4.877   6.779  15.530 -0.1863 -1.0552 -0.0519
 1371TIP3    H225529   4.962   6.865  15.439 -2.3466  0.4703 -0.6466
 1372TIP3   OH225530   3.876   0.683  16.667  0.0113 -0.0761  0.4936
 1372TIP3    H125531   3.899   0.639  16.749 -1.7845  0.0730  1.1017
 1372TIP3    H225532   3.865   0.612  16.604 -0.2263 -0.3153  0.8034
 1373TIP3   OH225533   1.965   4.306  11.337  0.4178 -0.3137 -0.4683
 1373TIP3    H125534   1.886   4.277  11.383 -0.0144 -0.1851 -1.1267
 1373TIP3    H225535   2.001   4.226  11.297  0.7827 -0.4226  0.0679
 1374TIP3   OH225536   6.601   4.196  12.326 -0.2359 -0.2898  0.1342
 1374TIP3    H125537   6.655   4.123  12.295 -0.6153 -0.5700  0.1284
 1374TIP3    H225538   6.635   4.273  12.280 -0.1815 -0.5504 -0.2604
 1375TIP3   OH225539   5.132   5.919  13.796  0.1103  0.0265 -0.3171
 1375TIP3    H125540   5.213   5.871  13.810  1.0904  1.4248 -1.1736
 1375TIP3    H225541   5.139   5.954  13.708 -1.1931  0.6137 -0.2026
 1376TIP3   OH225542   4.060   4.789   1.438  0.2988 -0.1411 -0.3110
 1376TIP3    H125543   4.068   4.751   1.351 -0.4727 -1.9574  0.3929
 1376TIP3    H225544   4.127   4.745   1.490  2.5076  2.7787 -0.5659
 1377TIP3   OH225545   1.317   4.231   6.353 -0.1884 -0.2068  0.4318
 1377TIP3    H125546   1.329   4.164   6.420  0.0729 -1.0128 -0.4079
 1377TIP3    H225547   1.329   4.184   6.270 -2.2037  0.4110 -0.2425
 1378TIP3   OH225548   5.276   3.648   3.196  0.2837 -0.0184 -0.3153
 1378TIP3    H125549   5.305   3.655   3.106 -1.3825  0.9357 -0.7906
 1378TIP3    H225550   5.330   3.711   3.244  0.2042  0.4925 -0.8918
 1379TIP3   OH225551   3.165   1.808  16.299 -0.2540 -1.1282 -0.0804
 1379TIP3    H125552   3.107   1.737  16.272 -0.0300 -2.3018  2.3639
 1379TIP3    H225553   3.120   1.849  16.373  0.5000  0.0867 -0.2805
 1380TIP3   OH225554   2.544   6.390  12.112 -0.1014  0.7021 -0.3577
 1380TIP3    H125555   2.568   6.335  12.038 -1.0045 -1.0682  0.6335
 1380TIP3    H225556   2.560   6.335  12.189 -0.7353  1.9278  0.6649
 1381TIP3   OH225557   1.379   1.204  15.146 -0.0444 -0.4509 -0.4187
 1381TIP3    H125558   1.439   1.202  15.221  0.3343 -1.4657 -0.7483
 1381TIP3    H225559   1.404   1.129  15.093 -1.7701 -1.0188 -0.4479
 1382TIP3   OH225560   0.903   2.984   3.965 -0.1797  0.2225  0.5450
 1382TIP3    H125561   0.935   3.062   4.012 -1.5422  1.6786 -0.8964
 1382TIP3    H225562   0.836   2.947   4.023 -0.6777  1.0507  0.5023
 1383TIP3   OH225563   1.683   5.211  13.752  0.0757 -0.2623  0.0548
 1383TIP3    H125564   1.659   5.255  13.671  0.2948 -1.3858 -0.6298
 1383TIP3    H225565   1.750   5.267  13.791  1.0510 -0.4599 -1.2937
 1384TIP3   OH225566   2.629   3.146   0.521 -0.5461  0.0198  0.0422
 1384TIP3    H125567   2.547   3.185   0.551 -0.9368 -0.8286  0.0836
 1384TIP3    H225568   2.650   3.081   0.588 -2.3366 -3.1605 -2.3689
 1385TIP3   OH225569   2.375   4.663  17.028  0.0028  0.0051  0.2491
 1385TIP3    H125570   2.303   4.640  17.087  0.6654  0.2726  1.1757
 1385TIP3    H225571   2.449   4.612  17.060  0.7032  1.1373  0.4568
 1386TIP3   OH225572   0.357   3.934   1.113  0.2599  0.8039 -0.1520
 1386TIP3    H125573   0.344   3.944   1.207 -0.4761 -0.1324 -0.1464
 1386TIP3    H225574   0.316   3.850   1.092  2.5791 -0.1600 -0.9022
 1387TIP3   OH225575   0.300   6.055   1.119  0.0763  0.0862 -0.2170
 1387TIP3    H125576   0.246   6.082   1.193  0.7500  1.7434 -0.3211
 1387TIP3    H225577   0.302   5.959   1.125 -0.9697  0.1305  1.1194
 1388TIP3   OH225578   5.325   5.279   3.872 -0.6234 -0.0813 -0.3257
 1388TIP3    H125579   5.269   5.350   3.841  0.7271  0.7451 -0.9237
 1388TIP3    H225580   5.348   5.304   3.962 -1.9539 -0.8874  0.2506
 1389TIP3   OH225581   0.439   4.228   0.533 -0.6739  0.0033 -0.3839
 1389TIP3    H125582   0.369   4.235   0.599 -0.7534  1.2955 -0.5903
 1389TIP3    H225583   0.420   4.298   0.471 -1.4452 -2.1475 -2.6279
 1390TIP3   OH225584   2.584   5.948  16.965 -0.3974  0.0775  0.1411
 1390TIP3    H125585   2.573   5.927  16.872  0.3770  0.4213 -0.0341
 1390TIP3    H225586   2.540   5.877  17.012  0.8362 -1.1047 -0.4555
 1391TIP3   OH225587   1.009   6.498   3.194  0.3315 -0.3634 -0.3962
 1391TIP3    H125588   1.053   6.503   3.109  0.8501 -3.4986 -0.3845
 1391TIP3    H225589   0.917   6.486   3.174 -0.0802  2.4541 -0.4369
 1392TIP3   OH225590   2.384   6.447  16.264 -0.0849  0.4518 -0.1725
 1392TIP3    H125591   2.382   6.424  16.357  1.7912 -3.9266 -1.0807
 1392TIP3    H225592   2.296   6.429  16.233  0.0822 -1.0665  0.1755
 1393TIP3   OH225593   1.198   3.747  15.590  0.5542 -0.1330 -0.1140
 1393TIP3    H125594   1.164   3.692  15.520 -0.8584  2.9801 -1.9980
 1393TIP3    H225595   1.126   3.754  15.652  0.1512  0.8400 -0.6750
 1394TIP3   OH225596   6.098   4.084   6.065 -0.0067  0.0816 -0.1742
 1394TIP3    H125597   6.051   4.058   6.144  1.9782 -0.3933  0.8897
 1394TIP3    H225598   6.048   4.158   6.030  0.9475  2.5372  3.4067
 1395TIP3   OH225599   2.803   5.814  11.265 -0.1851 -0.3876  0.7260
 1395TIP3    H125600   2.756   5.815  11.182  1.0726  2.3058 -0.0126
 1395TIP3    H225601   2.860   5.738  11.261  1.6046  1.0383 -1.9082
 1396TIP3   OH225602   4.172   4.276  13.050 -0.3335  0.1425  0.2915
 1396TIP3    H125603   4.207   4.285  13.139  1.4657 -1.3972 -0.2117
 1396TIP3    H225604   4.235   4.323  12.995 -0.0228 -1.0833 -0.4315
 1397TIP3   OH225605   5.195   3.954   1.294 -0.0064  0.4791  0.2651
 1397TIP3    H125606   5.221   4.031   1.345  1.2215  1.2992 -1.5596
 1397TIP3    H225607   5.105   3.973   1.266  0.0482  0.9460  0.3977
 1398TIP3   OH225608   6.209   2.946  11.453 -0.2825 -0.4757 -0.3263
 1398TIP3    H125609   6.262   2.905  11.385 -1.2393  1.0041 -2.0283
 1398TIP3    H225610   6.140   2.882  11.473 -0.0458 -0.8837 -0.8245
 1399TIP3   OH225611   6.337   3.557   0.758  0.7436 -0.3024  0.2809
 1399TIP3    H125612   6.286   3.534   0.680 -0.1586 -3.2707  1.6803
 1399TIP3    H225613   6.310   3.646   0.779 -1.2686 -0.5745 -1.0268
 1400TIP3   OH225614   2.006   4.744  15.262 -0.0495  0.3940 -0.1624
 1400TIP3    H125615   2.089   4.790  15.251  1.0732 -2.0844 -2.7258
 1400TIP3    H225616   1.943   4.813  15.283  2.2215  2.6137 -0.3607
 1401TIP3   OH225617   6.047   4.194   6.373  0.1187 -0.8367 -0.7923
 1401TIP3    H125618   6.105   4.250   6.322  1.0622  0.2163  1.3779
 1401TIP3    H225619   6.104   4.126   6.408  0.1407  0.3310  1.5445
 1402TIP3   OH225620   2.336   1.051   4.680  0.2101 -0.4623  0.4669
 1402TIP3    H125621   2.400   1.099   4.733  1.3846 -1.0395 -0.3945
 1402TIP3    H225622   2.251   1.085   4.708  0.9899  1.7932  0.1983
 1403TIP3   OH225623   2.036   0.864   2.071 -0.1029 -0.2781  0.1027
 1403TIP3    H125624   1.980   0.927   2.025  0.0392 -0.7949 -0.7892
 1403TIP3    H225625   1.975   0.799   2.105 -0.0872 -0.6142 -0.5064
 1404TIP3   OH225626   0.256   2.543   3.739  0.4163 -0.2044  0.3399
 1404TIP3    H125627   0.173   2.551   3.787  1.1977 -1.9852  2.0475
 1404TIP3    H225628   0.230   2.510   3.653 -0.5596 -2.0757  1.3148
 1405TIP3   OH225629   0.019   4.886  16.324 -0.7733 -0.6290  0.4647
 1405TIP3    H125630  -0.038   4.820  16.363 -1.2747 -1.1670 -1.1288
 1405TIP3    H225631  -0.026   4.912  16.243 -0.4439  1.4559  0.9268
 1406TIP3   OH225632   3.823   3.195  13.441 -0.0658 -0.3046 -0.1025
 1406TIP3    H125633   3.837   3.203  13.346  2.1553  0.2400  0.2457
 1406TIP3    H225634   3.812   3.285  13.471 -0.2949 -0.4433  0.2245
 1407TIP3   OH225635   1.801   6.071  16.173 -0.8229  0.8037  0.4416
 1407TIP3    H125636   1.887   6.111  16.156 -1.3076  1.7686  0.2220
 1407TIP3    H225637   1.783   6.019  16.095  2.5597 -4.8959  3.1502
 1408TIP3   OH225638   2.478   6.600  15.178  0.6027 -0.3635 -0.8518
 1408TIP3    H125639   2.492   6.693  15.194  1.2990 -0.4008 -1.2238
 1408TIP3    H225640   2.392   6.581  15.217  0.9221  0.2052  0.1309
 1409TIP3   OH225641   2.984   6.433  17.146 -0.1029  0.0669  0.3235
 1409TIP3    H125642   2.905   6.419  17.198 -0.4414  0.2388 -0.1467
 1409TIP3    H225643   2.952   6.465  17.062  0.4995  0.8523  0.3849
 1410TIP3   OH225644   3.558   0.560  13.159  0.1142  0.4533 -0.3957
 1410TIP3    H125645   3.541   0.466  13.156 -0.5332  0.5795 -0.6824
 1410TIP3    H225646   3.552   0.583  13.252 -0.1179  0.2826 -0.3688
 1411TIP3   OH225647   4.326   4.537   2.762 -0.3397 -0.2287  0.0965
 1411TIP3    H125648   4.330   4.616   2.815 -1.0064 -1.3123  1.8165
 1411TIP3    H225649   4.329   4.568   2.671  2.2336  1.5559  0.7481
 1412TIP3   OH225650   5.806   6.587  16.453  0.4919 -0.2633  0.4038
 1412TIP3    H125651   5.868   6.578  16.381 -1.8322 -1.9639 -1.4385
 1412TIP3    H225652   5.805   6.681  16.472  0.4454  0.3280 -2.3687
 1413TIP3   OH225653   3.265   2.825  17.000 -0.2887  0.3056  0.2603
 1413TIP3    H125654   3.170   2.833  17.007 -0.8381 -2.8791 -2.4743
 1413TIP3    H225655   3.288   2.884  16.928 -0.3088  0.4081  0.3395
 1414TIP3   OH225656   2.935   6.595   0.911  0.1078 -0.0612 -0.2147
 1414TIP3    H125657   2.919   6.509   0.950 -2.2281  0.6787  0.5082
 1414TIP3    H225658   2.870   6.602   0.841  0.1291  1.2174 -0.1173
 1415TIP3   OH225659   4.901   6.208  10.644  0.1591 -0.3766 -0.4343
 1415TIP3    H125660   4.942   6.136  10.693  0.1588 -0.5770 -0.7286
 1415TIP3    H225661   4.807   6.192  10.654  0.1346  0.6918  1.1504
 1416TIP3   OH225662   4.699   3.945   4.570 -0.0949 -0.0278  0.0756
 1416TIP3    H125663   4.707   4.032   4.532  1.8933 -0.3398 -0.2861
 1416TIP3    H225664   4.640   3.899   4.510 -2.3659  1.4780  1.0880
 1417TIP3   OH225665   3.792   3.784  12.477 -0.6985 -0.0878 -0.2170
 1417TIP3    H125666   3.758   3.866  12.511  0.8740  1.1853 -1.6736
 1417TIP3    H225667   3.715   3.729  12.463 -1.8044  1.3784  0.1185
 1418TIP3   OH225668   4.269   5.256   0.773 -0.4579  0.1578 -0.1979
 1418TIP3    H125669   4.360   5.249   0.803 -0.6655 -0.6830  0.2497
 1418TIP3    H225670   4.253   5.174   0.725  0.4072  2.1830 -4.1878
 1419TIP3   OH225671   1.098   3.274  15.582 -1.0839  0.5555  0.1914
 1419TIP3    H125672   1.125   3.264  15.490 -1.0078 -1.1876  0.3867
 1419TIP3    H225673   1.024   3.213  15.592 -0.4113 -0.0603  1.5550
 1420TIP3   OH225674   2.690   2.109  13.862 -0.9523 -0.3592  0.5362
 1420TIP3    H125675   2.767   2.067  13.900 -1.5474 -1.3502  0.6400
 1420TIP3    H225676   2.707   2.109  13.768 -0.6751 -0.2555  0.5833
 1421TIP3   OH225677   6.126   6.480  12.102  0.0242 -0.1342 -0.3519
 1421TIP3    H125678   6.146   6.522  12.186  0.9934 -1.5385  0.1615
 1421TIP3    H225679   6.119   6.552  12.040 -0.1328  0.8931  0.8317
 1422TIP3   OH225680   1.044   6.367   2.606 -0.5372 -0.1458 -0.6530
 1422TIP3    H125681   1.028   6.323   2.689  0.6400 -1.0233 -0.8699
 1422TIP3    H225682   0.966   6.351   2.554 -1.3621  0.5772  0.3434
 1423TIP3   OH225683   2.748   2.393   5.992 -0.1139 -0.4723 -0.4160
 1423TIP3    H125684   2.734   2.454   6.065 -1.5709 -0.9256 -0.3036
 1423TIP3    H225685   2.796   2.320   6.031  4.3885  1.8830 -1.1785
 1424TIP3   OH225686   0.411   1.568  14.095 -0.1651 -0.6027 -1.1965
 1424TIP3    H125687   0.380   1.659  14.091  0.0113 -0.5060 -0.3857
 1424TIP3    H225688   0.428   1.553  14.188 -0.1998 -1.4699 -1.3323
 1425TIP3   OH225689   4.725   4.624  11.250 -0.6860 -0.0493  0.4153
 1425TIP3    H125690   4.771   4.564  11.309  0.2220  1.0395  0.8277
 1425TIP3    H225691   4.764   4.607  11.164 -1.1386 -0.7583  0.3474
 1426TIP3   OH225692   0.898   0.034   3.006  0.2222 -0.3193 -0.1279
 1426TIP3    H125693   0.985   0.020   3.044  0.0991  0.6206  0.5102
 1426TIP3    H225694   0.862  -0.054   2.996 -0.0284 -0.5569  2.5840
 1427TIP3   OH225695   5.226   1.633  16.165  0.1966 -0.6672  1.0242
 1427TIP3    H125696   5.304   1.671  16.127 -0.2755 -1.2753 -0.5908
 1427TIP3    H225697   5.257   1.590  16.245  2.0609 -3.4748 -1.1199
 1428TIP3   OH225698   4.592   6.050   4.288 -0.0749 -0.0754 -0.4740
 1428TIP3    H125699   4.538   6.049   4.209 -1.0581 -0.7184  0.1928
 1428TIP3    H225700   4.558   6.123   4.339  0.1145 -0.0820 -0.3377
 1429TIP3   OH225701   0.927   4.620   2.400  0.7284  0.2633  0.5882
 1429TIP3    H125702   0.974   4.620   2.316 -1.5420 -5.3461 -0.8779
 1429TIP3    H225703   0.982   4.567   2.458 -0.4953 -0.6710  0.9032
 1430TIP3   OH225704   4.686   6.221  13.236 -0.1561  0.2463 -0.4018
 1430TIP3    H125705   4.611   6.280  13.244 -0.9646 -1.0665  2.6432
 1430TIP3    H225706   4.730   6.248  13.155 -0.8723  4.5107  0.5234
 1431TIP3   OH225707   6.728   5.385   4.060  1.1357  0.7585 -0.1569
 1431TIP3    H125708   6.740   5.309   4.003 -0.9135 -0.5276  1.0620
 1431TIP3    H225709   6.702   5.455   4.001  0.9390 -0.0452 -1.0436
 1432TIP3   OH225710   2.301   4.815   3.036 -0.1769 -0.3297 -0.1736
 1432TIP3    H125711   2.325   4.758   3.109 -0.7889  0.3411  0.5769
 1432TIP3    H225712   2.231   4.768   2.991 -0.5707 -0.2614  0.3494
 1433TIP3   OH225713   5.652   6.371  15.036 -0.0406 -0.4166 -0.0227
 1433TIP3    H125714   5.602   6.296  15.067 -0.8059 -0.4250 -1.2441
 1433TIP3    H225715   5.632   6.376  14.942  0.2281  1.1408 -0.0079
 1434TIP3   OH225716   5.810   6.348  12.439  0.1110 -0.4352 -0.9870
 1434TIP3    H125717   5.797   6.283  12.508  2.0928 -1.0907 -1.2040
 1434TIP3    H225718   5.905   6.355  12.431 -0.0509  2.8236 -0.6393
 1435TIP3   OH225719   3.789   2.686  13.055  0.3835 -0.0879  0.3119
 1435TIP3    H125720   3.708   2.735  13.039  0.1917 -0.1416  1.1089
 1435TIP3    H225721   3.807   2.698  13.148  2.8452  2.2397 -0.4026
 1436TIP3   OH225722   3.193   5.680   4.013  0.2737  0.2179  0.1180
 1436TIP3    H125723   3.161   5.631   4.089  0.9193  1.1680  1.0133
 1436TIP3    H225724   3.114   5.696   3.961 -0.2581 -0.0126  0.8271
 1437TIP3   OH225725   1.913   4.035  15.473 -0.5797  0.3574  0.0056
 1437TIP3    H125726   1.845   4.066  15.533 -1.3006  0.7032 -0.9655
 1437TIP3    H225727   1.864   3.992  15.403  0.3026 -0.9470  0.1782
 1438TIP3   OH225728   4.499   2.589   3.638  0.1330 -0.2394 -0.0005
 1438TIP3    H125729   4.466   2.616   3.724  0.3476 -0.5390  0.1768
 1438TIP3    H225730   4.440   2.631   3.576 -0.5602 -0.7289  0.3150
 1439TIP3   OH225731   3.724   4.886   0.170 -0.5235  0.2393 -0.0508
 1439TIP3    H125732   3.790   4.820   0.191 -0.1955 -0.2543 -2.4166
 1439TIP3    H225733   3.754   4.965   0.215 -1.2505 -1.3403  3.2896
 1440TIP3   OH225734   3.588   2.882  14.554 -0.4004 -0.1595  0.1780
 1440TIP3    H125735   3.612   2.974  14.569 -0.0182  0.0228 -1.5171
 1440TIP3    H225736   3.518   2.885  14.489 -0.8897 -1.0342  0.6511
 1441TIP3   OH225737   3.270   5.504   0.065  0.4295 -0.5961 -0.4928
 1441TIP3    H125738   3.314   5.430   0.108  0.9356  0.1749  0.3404
 1441TIP3    H225739   3.211   5.463   0.002 -0.8717 -1.7865  1.4525
 1442TIP3   OH225740   4.324   2.934  12.014 -0.8906  0.4070 -0.0846
 1442TIP3    H125741   4.301   3.027  12.017  1.6059  1.0764 -0.1911
 1442TIP3    H225742   4.348   2.919  11.922  0.7078  0.1920  0.3547
 1443TIP3   OH225743   2.403   2.583   2.253  0.0103 -0.0742  0.5513
 1443TIP3    H125744   2.479   2.566   2.197 -2.0204 -1.1144 -1.9887
 1443TIP3    H225745   2.353   2.502   2.251 -3.0886  1.7629 -0.9633
 1444TIP3   OH225746   1.681   3.669  14.892  0.6901  0.0593  0.3180
 1444TIP3    H125747   1.671   3.575  14.901  2.7036 -0.3559 -1.3087
 1444TIP3    H225748   1.647   3.689  14.805 -1.7574  1.2074  1.4790
 1445TIP3   OH225749   3.204   6.700  12.926  0.0372  0.3708  0.1958
 1445TIP3    H125750   3.194   6.605  12.919 -0.9190  0.5283 -0.6550
 1445TIP3    H225751   3.179   6.734  12.840  1.7476  1.2977  0.0243
 1446TIP3   OH225752   0.253   1.215  14.731  0.1714 -0.0310  0.3344
 1446TIP3    H125753   0.169   1.192  14.693  0.4529  0.4075 -0.5482
 1446TIP3    H225754   0.239   1.206  14.826 -1.6544  2.5818  0.3963
 1447TIP3   OH225755   6.400   2.858  12.788 -0.3532 -0.1718 -0.0603
 1447TIP3    H125756   6.425   2.950  12.791  0.4840 -0.3522 -1.2718
 1447TIP3    H225757   6.306   2.859  12.770 -0.2285  0.4463 -0.6777
 1448TIP3   OH225758   0.864   5.106   1.791 -0.1653  0.1206  0.3512
 1448TIP3    H125759   0.875   5.016   1.761 -2.2246 -0.0121 -0.0478
 1448TIP3    H225760   0.807   5.146   1.726  0.3109  1.5885  0.8090
 1449TIP3   OH225761   1.225   3.002   1.718 -0.5599 -0.0177 -0.6432
 1449TIP3    H125762   1.183   2.926   1.678 -0.8011 -0.5714  0.6506
 1449TIP3    H225763   1.152   3.054   1.754 -0.4801  1.3267 -2.3506
 1450TIP3   OH225764   3.592   0.411  16.147 -0.6981 -0.0114  0.4118
 1450TIP3    H125765   3.555   0.447  16.228 -1.3603  0.3529 -0.0508
 1450TIP3    H225766   3.624   0.324  16.171 -0.6503  0.2049  1.1291
 1451TIP3   OH225767   5.027   5.090  17.075  0.1019 -0.2493 -0.0644
 1451TIP3    H125768   5.006   5.095  16.982  0.9347  0.4081 -0.2238
 1451TIP3    H225769   4.961   5.031  17.111 -1.9818  1.7194 -0.5570
 1452TIP3   OH225770   3.251   1.116   4.107  0.5053 -0.3570  0.4770
 1452TIP3    H125771   3.201   1.137   4.028  0.5925 -1.2186  0.1888
 1452TIP3    H225772   3.262   1.021   4.104  3.2748 -0.0837 -0.1821
 1453TIP3   OH225773   4.533   2.746  13.175  0.2314 -0.7940  0.1923
 1453TIP3    H125774   4.478   2.683  13.221 -1.9279  1.9650  1.5483
 1453TIP3    H225775   4.600   2.770  13.239 -0.3617  0.0282  0.5128
 1454TIP3   OH225776   6.399   3.884   0.832  0.0240  0.3491 -0.4369
 1454TIP3    H125777   6.313   3.847   0.856 -0.0818  1.9716  1.8476
 1454TIP3    H225778   6.380   3.975   0.810  1.0155  0.4429 -0.8917
 1455TIP3   OH225779   1.983   0.376   1.646  0.3664  0.3197  0.0418
 1455TIP3    H125780   1.891   0.356   1.633  0.3793 -0.5601  1.2250
 1455TIP3    H225781   2.027   0.335   1.571  0.1158 -2.0385  1.1309
 1456TIP3   OH225782   1.467   0.752   5.928  0.4930 -0.3153  0.5835
 1456TIP3    H125783   1.473   0.824   5.992 -0.8862 -0.3683  0.7920
 1456TIP3    H225784   1.453   0.674   5.981 -0.3040 -0.4093  0.2437
 1457TIP3   OH225785   1.585   5.621  12.943 -0.2993 -0.2220 -0.1519
 1457TIP3    H125786   1.491   5.629  12.925 -0.2771 -0.6094 -0.4515
 1457TIP3    H225787   1.620   5.708  12.925 -0.6486  0.0111  0.2692
 1458TIP3   OH225788   2.570   1.009  11.258 -0.9755 -0.5116  0.1835
 1458TIP3    H125789   2.538   1.099  11.272 -1.3156 -0.9794  2.6853
 1458TIP3    H225790   2.651   1.020  11.209 -1.4928  1.1221 -0.3377
 1459TIP3   OH225791   5.511   0.874  16.744 -0.2087 -0.3544  0.2981
 1459TIP3    H125792   5.505   0.915  16.830  0.9947  0.9488 -0.2190
 1459TIP3    H225793   5.517   0.780  16.764 -1.8607 -0.2311  1.5357
 1460TIP3   OH225794   4.209   2.237  14.852 -0.8085  0.4985 -0.0444
 1460TIP3    H125795   4.114   2.232  14.842 -0.8468  1.7169 -0.3823
 1460TIP3    H225796   4.238   2.145  14.851 -2.0870  0.0611  1.2898
 1461TIP3   OH225797   3.518   2.006  16.697 -0.0516 -0.5657  0.5165
 1461TIP3    H125798   3.479   2.075  16.751 -0.5823 -1.2776  1.0543
 1461TIP3    H225799   3.556   2.052  16.623 -2.0704  0.1431 -0.1278
 1462TIP3   OH225800   2.236   1.153   1.881 -0.4061  0.3255 -1.0500
 1462TIP3    H125801   2.193   1.223   1.931 -0.5772 -0.6223  0.1641
 1462TIP3    H225802   2.315   1.193   1.846  2.0776 -0.1082  3.6937
 1463TIP3   OH225803   0.446   5.365   1.564  0.5931  0.0350 -0.1769
 1463TIP3    H125804   0.438   5.413   1.646  1.2558  0.3716 -0.3032
 1463TIP3    H225805   0.400   5.282   1.579  0.7115  0.0983  0.5232
 1464TIP3   OH225806   5.721   6.509   1.695 -0.1645 -0.0751 -0.0543
 1464TIP3    H125807   5.816   6.524   1.693 -0.3456  1.8248  2.3562
 1464TIP3    H225808   5.711   6.420   1.727  0.8141  0.7041  2.5364
 1465TIP3   OH225809   1.292   0.435   0.573  0.5042  0.4058 -0.4239
 1465TIP3    H125810   1.379   0.469   0.591  1.2835 -1.4839 -0.4997
 1465TIP3    H225811   1.306   0.363   0.511 -1.3745  1.7907 -2.5177
 1466TIP3   OH225812   6.667   0.580   5.597 -0.2442 -0.1492  0.1175
 1466TIP3    H125813   6.594   0.533   5.638 -1.0006 -0.5138 -1.5755
 1466TIP3    H225814   6.741   0.520   5.604 -0.0768  0.2414  1.8986
 1467TIP3   OH225815   0.118   1.137   3.215 -0.0742 -0.0247  0.2985
 1467TIP3    H125816   0.143   1.094   3.133  1.7450 -2.6873  2.1573
 1467TIP3    H225817   0.137   1.072   3.283 -0.0029  2.6901  2.9885
 1468TIP3   OH225818   3.306   0.919  12.387  0.6236  0.7030 -0.5718
 1468TIP3    H125819   3.215   0.889  12.387 -0.1493  2.9528 -1.3987
 1468TIP3    H225820   3.317   0.961  12.472  1.3838 -0.9155  0.1545
 1469TIP3   OH225821   2.534   2.205   1.999 -0.2649  0.0418 -0.6844
 1469TIP3    H125822   2.590   2.199   1.921 -0.9612 -1.8707 -1.0836
 1469TIP3    H225823   2.574   2.145   2.062 -1.9981 -1.5784 -1.0892
 1470TIP3   OH225824   0.842   3.740  12.402 -0.4387  0.1883 -0.2514
 1470TIP3    H125825   0.756   3.722  12.365  0.3271 -2.4707 -0.8999
 1470TIP3    H225826   0.824   3.774  12.490 -2.1542  0.8688 -0.8521
 1471TIP3   OH225827   5.600   5.303   1.207 -0.1226  0.0624 -0.6124
 1471TIP3    H125828   5.574   5.395   1.208  1.0447  0.3947 -0.7442
 1471TIP3    H225829   5.527   5.257   1.248 -0.9609  0.9796 -1.0613
 1472TIP3   OH225830   1.245   4.266   1.583 -0.0688  0.0501  0.2362
 1472TIP3    H125831   1.224   4.326   1.655 -0.0507 -0.5636  0.7633
 1472TIP3    H225832   1.317   4.213   1.617  1.8424  1.6070 -1.2531
 1473TIP3   OH225833   5.619   1.952   3.822  0.1535  0.1258 -0.1860
 1473TIP3    H125834   5.591   1.872   3.866  2.4265  0.0720  1.2473
 1473TIP3    H225835   5.596   2.022   3.883  2.3089  0.1485  0.6264
 1474TIP3   OH225836   2.096   0.584  12.508 -0.6037 -0.2964 -0.4505
 1474TIP3    H125837   2.142   0.512  12.550 -0.9419 -0.6452 -0.6688
 1474TIP3    H225838   2.142   0.663  12.537 -0.0585 -0.6198 -0.4393
 1475TIP3   OH225839   3.183   0.510   3.803  0.4294 -0.4711 -0.4702
 1475TIP3    H125840   3.114   0.445   3.798  0.0198 -0.1427  0.6176
 1475TIP3    H225841   3.264   0.460   3.799  0.1176 -1.0328  0.1569
 1476TIP3   OH225842   5.321   0.388  16.725 -0.1748 -0.3306  0.0617
 1476TIP3    H125843   5.277   0.397  16.810  0.4766  1.8191  0.1999
 1476TIP3    H225844   5.251   0.391  16.661 -0.5508 -0.6381  0.4552
 1477TIP3   OH225845   5.225   0.023  13.433  0.4452  0.4579  0.4267
 1477TIP3    H125846   5.207  -0.053  13.487 -0.7206  1.3902  1.3968
 1477TIP3    H225847   5.238   0.095  13.495 -0.6692  1.5022 -0.5035
 1478TIP3   OH225848   6.628   6.329   3.413 -0.1363 -0.1834  0.4220
 1478TIP3    H125849   6.697   6.368   3.360 -0.2186 -1.9087 -1.0200
 1478TIP3    H225850   6.656   6.238   3.426 -1.6487 -0.6405  0.6550
 1479TIP3   OH225851   5.079   5.471   0.915  0.1154 -0.9582  0.3632
 1479TIP3    H125852   5.077   5.391   0.968 -1.0815 -1.1352  0.0461
 1479TIP3    H225853   4.989   5.482   0.884  0.1966  0.7187  0.7128
 1480TIP3   OH225854   0.811   0.327  14.411  0.5997  0.1760  0.4918
 1480TIP3    H125855   0.813   0.270  14.488  1.7295 -0.4665 -0.0058
 1480TIP3    H225856   0.788   0.414  14.446 -1.1647 -0.5709  1.2428
 1481TIP3   OH225857   5.586   1.745   2.915 -0.2910  0.0699  0.1883
 1481TIP3    H125858   5.667   1.765   2.960  0.7410 -1.0947 -1.1031
 1481TIP3    H225859   5.529   1.820   2.931  1.0936  0.9502  0.9810
 1482TIP3   OH225860   6.741   0.379   1.345 -0.0940  0.4966 -0.0723
 1482TIP3    H125861   6.731   0.473   1.331  1.4916  1.0297  2.0687
 1482TIP3    H225862   6.677   0.357   1.413  0.4753  0.2870  0.3966
 1483TIP3   OH225863   2.198   5.563  14.119 -0.0323  0.6895 -0.2712
 1483TIP3    H125864   2.172   5.636  14.176  0.0648 -2.2519  3.7856
 1483TIP3    H225865   2.294   5.563  14.123  0.0230  1.2983 -1.5598
 1484TIP3   OH225866   2.979   1.768  14.382 -0.2663 -1.0832 -0.4137
 1484TIP3    H125867   2.950   1.838  14.441  2.5305 -0.5477  0.3986
 1484TIP3    H225868   2.939   1.689  14.417 -1.8147 -0.2079 -0.1448
 1485TIP3   OH225869   3.402   2.375  16.608  0.1179 -0.1724 -0.4552
 1485TIP3    H125870   3.410   2.407  16.518 -0.4765 -1.3046 -0.9148
 1485TIP3    H225871   3.369   2.451  16.657  1.8275  0.8745 -0.8954
 1486TIP3   OH225872   5.867   3.974  16.408  0.2696 -0.2833  0.5938
 1486TIP3    H125873   5.906   3.889  16.428 -2.5593 -2.1018 -1.3316
 1486TIP3    H225874   5.775   3.965  16.433 -0.1287  2.1236  0.1052
 1487TIP3   OH225875   3.479   6.716   0.756  0.2795 -0.7008  0.3288
 1487TIP3    H125876   3.477   6.802   0.798 -1.8131 -0.4762 -0.1489
 1487TIP3    H225877   3.503   6.655   0.825 -2.0898 -0.2017  1.6371
 1488TIP3   OH225878   2.815   4.503   0.612  0.3409  0.4153  0.2007
 1488TIP3    H125879   2.720   4.494   0.602  0.2393 -1.3594  2.3733
 1488TIP3    H225880   2.851   4.440   0.549 -0.0146 -1.0813  1.4517
 1489TIP3   OH225881   2.750   1.108   3.589 -0.3240 -0.4947 -0.0114
 1489TIP3    H125882   2.768   1.016   3.568 -0.6765 -0.6514  0.3657
 1489TIP3    H225883   2.714   1.106   3.678  0.4741  0.1000  0.3230
 1490TIP3   OH225884   2.222   6.666  14.923  0.2874 -0.0557 -0.2141
 1490TIP3    H125885   2.311   6.698  14.909  0.6759 -1.1621 -0.3471
 1490TIP3    H225886   2.185   6.657  14.835  0.2375 -0.1159 -0.1870
 1491TIP3   OH225887   5.976   3.599  14.619 -0.4334 -0.3311  0.2715
 1491TIP3    H125888   5.997   3.682  14.575 -2.6352  0.6284  0.9833
 1491TIP3    H225889   5.920   3.553  14.557 -0.0499 -0.8406  0.3061
 1492TIP3   OH225890   2.138   5.059  14.571 -0.3018  0.1330  0.9924
 1492TIP3    H125891   2.119   5.113  14.648 -0.7546  0.4705  0.6451
 1492TIP3    H225892   2.185   5.118  14.512 -1.9435  0.5326  0.0642
 1493TIP3   OH225893   5.553   2.821   0.723 -0.6257  0.0399 -0.1033
 1493TIP3    H125894   5.647   2.823   0.740 -0.7251  1.5529  0.3011
 1493TIP3    H225895   5.543   2.857   0.635 -0.6532 -2.2288 -1.0809
 1494TIP3   OH225896   2.985   5.256   0.217  0.4059 -0.4938  0.1942
 1494TIP3    H125897   3.044   5.253   0.141  0.0518  0.0273 -0.1078
 1494TIP3    H225898   3.003   5.176   0.265  0.3978 -0.9955 -0.6310
 1495TIP3   OH225899   2.199   0.193   0.636 -0.2082 -0.0994 -0.6261
 1495TIP3    H125900   2.214   0.131   0.707  1.5914 -0.2550 -1.1240
 1495TIP3    H225901   2.108   0.178   0.609 -0.1495 -1.6864  0.0376
 1496TIP3   OH225902   3.903   5.366   6.141 -0.1949  0.2178  0.0657
 1496TIP3    H125903   3.899   5.451   6.099 -1.3984  0.6477  1.0262
 1496TIP3    H225904   3.887   5.384   6.234 -1.9707 -1.2057  0.0683
 1497TIP3   OH225905   1.715   3.002  14.020 -0.0079  0.1710  0.2832
 1497TIP3    H125906   1.654   2.931  14.003 -0.4527  1.0185 -1.7976
 1497TIP3    H225907   1.795   2.958  14.050 -0.7257 -1.1141  0.3338
 1498TIP3   OH225908   4.750   3.270  16.013  0.1538 -0.0157 -0.3442
 1498TIP3    H125909   4.806   3.239  16.085 -2.3551 -0.8139  1.3112
 1498TIP3    H225910   4.691   3.334  16.054 -0.8384  0.0396 -1.8418
 1499TIP3   OH225911   6.642   4.382   2.576  0.3339 -0.2177 -0.2995
 1499TIP3    H125912   6.622   4.301   2.622  1.4426 -1.7457 -2.4204
 1499TIP3    H225913   6.608   4.368   2.488 -0.4440  2.0804 -0.3922
 1500TIP3   OH225914   2.002   0.576   2.500 -0.3929  0.2281  0.2605
 1500TIP3    H125915   2.056   0.535   2.567 -0.7591 -1.5797 -0.5298
 1500TIP3    H225916   2.042   0.662   2.486  0.7726 -0.1067  1.4610
 1501TIP3   OH225917   0.869   5.193  14.917 -0.6315  0.0701 -0.4151
 1501TIP3    H125918   0.875   5.252  14.992 -0.2511  0.4812 -0.7682
 1501TIP3    H225919   0.895   5.107  14.953 -1.3397  0.0741  0.1310
 1502TIP3   OH225920   3.362   3.020  11.973  0.3053 -0.5614  0.0440
 1502TIP3    H125921   3.364   2.925  11.970  0.5271 -0.5579  0.1013
 1502TIP3    H225922   3.333   3.041  12.062  2.0343 -0.5534  0.6275
 1503TIP3   OH225923   6.465   6.150  13.580  0.0124  0.0187 -0.1213
 1503TIP3    H125924   6.556   6.179  13.577 -0.2181  1.1673  2.5388
 1503TIP3    H225925   6.450   6.131  13.673 -2.8805  1.2830 -0.2937
 1504TIP3   OH225926   2.699   4.935   4.942  0.1639 -0.9675  0.5486
 1504TIP3    H125927   2.656   5.021   4.952 -0.1791 -0.9071 -1.2902
 1504TIP3    H225928   2.627   4.875   4.921  0.4136 -1.7054  1.7799
 1505TIP3   OH225929   3.775   6.692  11.657 -0.0070  0.4369 -0.1818
 1505TIP3    H125930   3.718   6.711  11.731 -0.4779 -0.1696 -0.3800
 1505TIP3    H225931   3.752   6.758  11.591  0.7819  1.3038  0.4001
 1506TIP3   OH225932   2.416   3.234  11.739  0.2230 -0.1597  0.6783
 1506TIP3    H125933   2.348   3.258  11.676 -0.9186 -0.1631  1.8615
 1506TIP3    H225934   2.459   3.158  11.701  1.0819  1.1880 -1.1447
 1507TIP3   OH225935   3.372   2.203  16.855 -0.7897  0.0842 -0.2305
 1507TIP3    H125936   3.380   2.288  16.811 -0.4849  0.3046  0.2450
 1507TIP3    H225937   3.372   2.224  16.948 -0.9819 -0.4185 -0.1146
 1508TIP3   OH225938   0.604   0.658   5.315  0.1538 -0.3483 -0.0713
 1508TIP3    H125939   0.593   0.680   5.222  1.7308  0.4562 -0.0834
 1508TIP3    H225940   0.562   0.572   5.324 -1.0127  0.0741 -1.2725
 1509TIP3   OH225941   1.489   0.807   0.224  0.3996 -0.4903  0.2407
 1509TIP3    H125942   1.575   0.848   0.213  0.7874 -0.6997  2.2520
 1509TIP3    H225943   1.429   0.881   0.234  0.3719 -0.3455 -0.9724
 1510TIP3   OH225944   2.211   5.866  13.859 -0.6202  0.1593  0.5615
 1510TIP3    H125945   2.203   5.881  13.765  1.2119  1.6532  0.6000
 1510TIP3    H225946   2.293   5.909  13.883 -0.8023 -0.6376  2.7604
 1511TIP3   OH225947   3.001   2.380  11.547 -0.1921  0.2423  0.4209
 1511TIP3    H125948   2.943   2.444  11.588 -0.5834  0.4493 -0.4449
 1511TIP3    H225949   3.076   2.374  11.607  1.4716  3.9996 -1.1260
 1512TIP3   OH225950   3.671   3.158   1.961  0.2257  0.7099 -0.0328
 1512TIP3    H125951   3.651   3.233   1.904 -0.1245  1.4269  1.0273
 1512TIP3    H225952   3.598   3.098   1.947 -0.0835  1.0763 -0.0101
 1513TIP3   OH225953   4.015   4.289   5.365 -0.3004  0.3368  0.0590
 1513TIP3    H125954   3.961   4.362   5.395 -0.6367  0.7179 -1.4092
 1513TIP3    H225955   4.004   4.222   5.431 -0.4996  1.3856  1.1075
 1514TIP3   OH225956   1.890   2.227  13.785  0.0627  0.2072  0.0627
 1514TIP3    H125957   1.838   2.152  13.757  0.5778 -0.0593 -0.1869
 1514TIP3    H225958   1.881   2.291  13.714  0.6483 -0.1185 -0.3084
 1515TIP3   OH225959   6.083   1.184  16.333  0.3275  0.2055  0.2605
 1515TIP3    H125960   6.152   1.131  16.373 -1.6447 -2.1048  0.6731
 1515TIP3    H225961   6.110   1.275  16.350  1.8494 -0.6762  2.8528
 1516TIP3   OH225962   2.940   4.445  11.741  0.1063 -0.6925  0.2426
 1516TIP3    H125963   2.980   4.386  11.677 -0.4723  0.1207 -0.9173
 1516TIP3    H225964   2.949   4.401  11.825  0.7443 -1.8699 -0.4344
 1517TIP3   OH225965   4.874   0.666   5.901 -0.2874  0.3559  0.0179
 1517TIP3    H125966   4.904   0.593   5.846 -1.4128 -1.5141  1.7972
 1517TIP3    H225967   4.795   0.697   5.858 -0.5510 -0.3684 -0.0309
 1518TIP3   OH225968   2.379   3.538   5.828  0.1682  1.0570 -0.0937
 1518TIP3    H125969   2.287   3.528   5.854  0.1135  2.5118  0.2994
 1518TIP3    H225970   2.424   3.558   5.910  1.0922 -1.0793 -0.0391
 1519TIP3   OH225971   0.578   1.750  16.530  0.7865 -0.5961 -0.7434
 1519TIP3    H125972   0.538   1.834  16.550  0.4146 -0.9042 -0.1854
 1519TIP3    H225973   0.655   1.745  16.588  0.7462 -0.6901 -0.6967
 1520TIP3   OH225974   3.561   1.069   0.797 -0.5066  0.1454 -0.1911
 1520TIP3    H125975   3.484   1.032   0.840 -0.0442  0.7434  1.1870
 1520TIP3    H225976   3.570   1.156   0.836  1.6356 -0.4224  0.6378
 1521TIP3   OH225977   2.619   1.747   4.693  0.0760 -0.1267 -0.6658
 1521TIP3    H125978   2.619   1.804   4.770  2.0541  0.8420 -1.3463
 1521TIP3    H225979   2.527   1.735   4.672 -0.3932  2.7544 -0.4160
 1522TIP3   OH225980   4.204   5.069   3.321 -0.1998 -0.1451  0.1302
 1522TIP3    H125981   4.256   4.989   3.318 -0.0991 -0.1569  1.9880
 1522TIP3    H225982   4.268   5.140   3.310 -0.1075 -0.2634 -0.0898
 1523TIP3   OH225983   4.214   1.683  10.908  0.6013  0.0414  0.8754
 1523TIP3    H125984   4.206   1.602  10.960  2.9568 -3.1704 -3.4972
 1523TIP3    H225985   4.306   1.706  10.914  0.5742  0.5394 -0.6044
 1524TIP3   OH225986   5.727   4.751  16.977 -0.0510 -0.2817 -0.3585
 1524TIP3    H125987   5.731   4.844  16.953 -0.1101 -0.2736 -0.3372
 1524TIP3    H225988   5.710   4.706  16.894 -0.6852 -0.2174 -0.2623
 1525TIP3   OH225989   1.782   5.406   0.042 -0.3977 -0.2255  0.5477
 1525TIP3    H125990   1.719   5.335   0.026  1.5325 -1.5455 -1.4330
 1525TIP3    H225991   1.796   5.446  -0.044  0.3000  1.0681  1.2444
 1526TIP3   OH225992   0.362   0.888  15.285 -0.5019 -0.1698 -0.2138
 1526TIP3    H125993   0.451   0.858  15.302  0.5510  2.4554 -0.9221
 1526TIP3    H225994   0.356   0.892  15.189 -1.1088  0.4459 -0.1533
 1527TIP3   OH225995   5.654   4.440  13.905 -0.3427 -0.1540 -0.2902
 1527TIP3    H125996   5.601   4.443  13.985  0.6193 -0.6987  0.3650
 1527TIP3    H225997   5.728   4.384  13.926  1.6043  2.2206 -0.5296
 1528TIP3   OH225998   0.910   5.824  15.415 -0.3399 -0.2162  0.2033
 1528TIP3    H125999   0.958   5.903  15.392 -1.8872  0.2668 -1.5108
 1528TIP3    H226000   0.847   5.853  15.481 -0.7208 -0.0659 -0.2235
 1529TIP3   OH226001   1.208   3.180   0.964 -0.6111 -0.3432 -0.2509
 1529TIP3    H126002   1.121   3.142   0.974  0.0407 -1.9454 -0.5397
 1529TIP3    H226003   1.258   3.146   1.039  0.5927 -1.8559 -1.7025
 1530TIP3   OH226004   4.157   6.678  12.757 -0.2002  0.0517 -0.3159
 1530TIP3    H126005   4.108   6.683  12.674  0.9287 -0.9151 -1.0668
 1530TIP3    H226006   4.089   6.669  12.824 -1.1767  1.7997 -1.0231
 1531TIP3   OH226007   0.766   3.220   0.982 -0.0171 -0.4177  0.0958
 1531TIP3    H126008   0.846   3.177   0.953  1.6402  1.9951  0.9480
 1531TIP3    H226009   0.775   3.227   1.077 -1.1898 -0.0486  0.1959
 1532TIP3   OH226010   2.153   0.933  11.210  0.4897  0.0069 -0.3310
 1532TIP3    H126011   2.115   1.021  11.213  0.0073 -0.2402  1.1932
 1532TIP3    H226012   2.216   0.932  11.282 -0.6956 -1.4136  0.7058
 1533TIP3   OH226013   1.695   4.699  12.672  0.0719 -0.5128  0.2996
 1533TIP3    H126014   1.633   4.687  12.600  0.6791 -1.3639 -0.0857
 1533TIP3    H226015   1.640   4.718  12.748 -0.6976 -1.8774  0.0923
 1534TIP3   OH226016   1.003   4.919  15.643  0.1861  0.7546 -0.1855
 1534TIP3    H126017   1.009   4.831  15.679 -0.5438 -0.1642 -2.2403
 1534TIP3    H226018   1.091   4.936  15.608  0.0593  0.4485 -0.6576
 1535TIP3   OH226019   6.727   2.630  13.656  0.6616  0.4378  0.2068
 1535TIP3    H126020   6.770   2.679  13.726  0.0107  0.4685  0.5918
 1535TIP3    H226021   6.649   2.682  13.635  0.9841  0.5593 -0.7118
 1536TIP3   OH226022   2.861   4.501   2.083 -0.1298  0.0939 -0.1572
 1536TIP3    H126023   2.810   4.452   2.018  0.8430 -0.8530 -0.2043
 1536TIP3    H226024   2.802   4.571   2.111 -1.7281 -1.3977  0.3057
 1537TIP3   OH226025   5.336   5.488   1.869 -0.3347  0.0348 -0.4122
 1537TIP3    H126026   5.342   5.530   1.954  1.0907 -0.8867 -0.0270
 1537TIP3    H226027   5.248   5.450   1.866 -0.5681  0.5062  0.4360
 1538TIP3   OH226028   0.979   1.690  14.427  0.0757 -0.4473  0.3504
 1538TIP3    H126029   0.939   1.606  14.404  1.4282 -0.9299 -0.3051
 1538TIP3    H226030   0.957   1.748  14.354 -0.4986 -0.3611  0.5953
 1539TIP3   OH226031   2.641   6.418   0.368  0.4831 -0.0224 -0.7574
 1539TIP3    H126032   2.625   6.337   0.417 -1.1467  0.3853 -0.5818
 1539TIP3    H226033   2.554   6.450   0.345  1.1231  1.4292 -1.2560
 1540TIP3   OH226034   4.823   0.011  14.944 -0.0277  0.0333  0.4053
 1540TIP3    H126035   4.839   0.090  14.997  1.3387  0.1596 -0.1737
 1540TIP3    H226036   4.728   0.012  14.929  0.1613  2.4479 -0.9399
 1541TIP3   OH226037   3.614   0.506  12.866  0.0200  0.8396  0.0741
 1541TIP3    H126038   3.613   0.533  12.957 -1.5939 -1.2858  0.7211
 1541TIP3    H226039   3.541   0.553  12.826  0.5883  1.5966 -0.0883
 1542TIP3   OH226040   2.375   3.844  10.730 -0.7849  0.1507 -0.3365
 1542TIP3    H126041   2.459   3.803  10.710  0.0700  1.3981  0.6140
 1542TIP3    H226042   2.343   3.877  10.646  0.6652  1.4691 -0.3840
 1543TIP3   OH226043   4.035   1.573  15.777 -0.3103  0.4615 -0.8665
 1543TIP3    H126044   4.039   1.488  15.821  2.2663  0.6157 -0.7064
 1543TIP3    H226045   4.055   1.636  15.846 -2.1133  1.2138 -1.0075
 1544TIP3   OH226046   1.943   6.124  14.881  0.5030  0.0342 -0.5080
 1544TIP3    H126047   1.919   6.060  14.814  1.2935  0.7499 -1.4867
 1544TIP3    H226048   1.867   6.128  14.939 -0.3297 -0.3414 -1.5581
 1545TIP3   OH226049   1.197   1.586   0.022  0.0600 -0.4408  0.3521
 1545TIP3    H126050   1.130   1.545  -0.033  0.4715  0.0806 -0.5515
 1545TIP3    H226051   1.154   1.597   0.107 -0.6781 -1.0022  0.0630
 1546TIP3   OH226052   5.506   2.630   0.990  0.1697 -0.2177  0.3793
 1546TIP3    H126053   5.553   2.711   1.009 -2.2124  1.5489 -0.9932
 1546TIP3    H226054   5.559   2.587   0.922  1.6154 -0.0071  1.3451
 1547TIP3   OH226055   5.293   2.751  15.052 -0.5683  0.4150 -0.3398
 1547TIP3    H126056   5.204   2.762  15.020 -0.7254 -0.2362 -0.1479
 1547TIP3    H226057   5.342   2.823  15.014 -1.4028  1.3819  0.4092
 1548TIP3   OH226058   6.777   2.652  13.317 -0.6826  0.3461 -0.3347
 1548TIP3    H126059   6.749   2.648  13.408 -0.6785  0.1224 -0.3415
 1548TIP3    H226060   6.852   2.593  13.312 -1.1317 -0.2034 -0.6425
 1549TIP3   OH226061   2.016   1.568  16.257 -0.4308 -0.1533  0.7453
 1549TIP3    H126062   2.056   1.490  16.294 -0.1241  0.7082  2.2567
 1549TIP3    H226063   2.039   1.565  16.164 -0.4354 -1.8522  0.7947
 1550TIP3   OH226064   0.325   1.953   3.030 -0.5439  0.0165  0.1774
 1550TIP3    H126065   0.405   1.938   3.079 -1.0545 -0.4957  0.8531
 1550TIP3    H226066   0.255   1.923   3.088 -1.1968  0.1034 -0.5617
 1551TIP3   OH226067   2.075   3.310  15.254  0.5008  0.5209  0.6298
 1551TIP3    H126068   2.040   3.389  15.214  1.0165  0.8488  0.8324
 1551TIP3    H226069   2.034   3.238  15.205 -0.7868  0.8894  1.1330
 1552TIP3   OH226070   1.383   2.488  12.645  0.2228 -0.2352 -0.2491
 1552TIP3    H126071   1.431   2.414  12.608 -1.6618 -1.9860  0.6783
 1552TIP3    H226072   1.441   2.524  12.711  1.5525 -0.2603 -1.3802
 1553TIP3   OH226073   2.876   4.635   1.796  0.6829 -0.3886  0.0579
 1553TIP3    H126074   2.821   4.593   1.862  0.0735  0.2273 -0.0443
 1553TIP3    H226075   2.916   4.562   1.748  1.4252 -0.8361  1.3393
 1554TIP3   OH226076   3.146   5.761   4.522  0.1644  0.2911 -0.2949
 1554TIP3    H126077   3.098   5.750   4.604  2.6374  0.9097  1.3037
 1554TIP3    H226078   3.179   5.674   4.502 -0.4266  0.1432 -0.6454
 1555TIP3   OH226079   0.033   1.820   2.361 -0.0066 -0.3050  0.0620
 1555TIP3    H126080   0.096   1.836   2.291  0.9769  0.3000  1.0664
 1555TIP3    H226081   0.038   1.899   2.416 -2.4641  0.2585 -0.4490
 1556TIP3   OH226082   4.164   5.799  11.591 -0.4138  0.2000 -0.1473
 1556TIP3    H126083   4.223   5.847  11.532  1.0959  0.7558  1.7701
 1556TIP3    H226084   4.128   5.867  11.648 -2.3928 -0.2436 -0.8442
 1557TIP3   OH226085   2.297   1.122  16.529 -0.3114 -0.2420 -0.2610
 1557TIP3    H126086   2.205   1.130  16.503 -0.3162 -2.2409 -0.8978
 1557TIP3    H226087   2.300   1.044  16.584  0.6313  1.0887  1.6354
 1558TIP3   OH226088   3.238   2.897  12.417  0.1710  0.5020 -0.1543
 1558TIP3    H126089   3.175   2.846  12.366  0.1561  0.8468 -0.4770
 1558TIP3    H226090   3.187   2.969  12.454  0.4218  0.9001 -0.5859
 1559TIP3   OH226091   2.060   0.604   1.450 -0.4179  0.6193 -0.2127
 1559TIP3    H126092   2.133   0.666   1.458 -0.2112  0.3123  0.2959
 1559TIP3    H226093   2.102   0.521   1.427 -0.4778  0.1257  1.3941
 1560TIP3   OH226094   3.960   3.966   6.360  0.0129  0.4777 -0.3980
 1560TIP3    H126095   3.977   4.060   6.357  0.0038  0.4968  0.1948
 1560TIP3    H226096   3.965   3.943   6.453  0.4778 -0.1895 -0.5811
 1561TIP3   OH226097   2.437   3.810   1.466 -0.2044 -0.1738 -0.3189
 1561TIP3    H126098   2.446   3.895   1.508 -0.1531 -0.0462 -0.5920
 1561TIP3    H226099   2.449   3.747   1.537 -0.8997  0.0557  0.0059
 1562TIP3   OH226100   0.295   2.270   3.967  0.3788  0.5421  0.2983
 1562TIP3    H126101   0.204   2.249   3.988  0.5794  0.3100  0.9177
 1562TIP3    H226102   0.324   2.325   4.040  1.3260 -0.9321  1.0444
 1563TIP3   OH226103   5.142   6.138   0.733 -0.2797  0.8421 -0.5371
 1563TIP3    H126104   5.102   6.154   0.819 -0.4640  0.2499 -0.5110
 1563TIP3    H226105   5.234   6.162   0.745 -0.1624  0.1443  0.0101
 1564TIP3   OH226106   5.382   4.032   3.979 -0.3376 -0.2117  0.5223
 1564TIP3    H126107   5.326   3.973   3.928 -1.3735  1.9443 -0.8910
 1564TIP3    H226108   5.435   4.077   3.913  1.3043 -0.4127  1.6807
 1565TIP3   OH226109   5.678   3.840  16.146 -0.0869  0.3695  1.1658
 1565TIP3    H126110   5.679   3.780  16.220  1.1827  0.9473  1.6412
 1565TIP3    H226111   5.713   3.922  16.182  1.1378  0.4778 -0.2061
 1566TIP3   OH226112   0.170   4.713   1.675  0.0399 -0.0175 -0.2360
 1566TIP3    H126113   0.177   4.640   1.613  0.4474 -1.1930  1.1882
 1566TIP3    H226114   0.076   4.725   1.687 -0.0116 -1.7318  1.1871
 1567TIP3   OH226115   4.518   0.452   3.435 -0.3976  0.1129  0.2118
 1567TIP3    H126116   4.601   0.410   3.413  0.1678  1.5310 -0.4019
 1567TIP3    H226117   4.475   0.390   3.494  0.7829 -0.9477 -0.0257
 1568TIP3   OH226118   0.112   0.123  13.008 -0.3047  0.1170  0.0728
 1568TIP3    H126119   0.063   0.107  13.088  0.2359 -0.7923  0.2240
 1568TIP3    H226120   0.160   0.042  12.992 -1.2532 -0.1156 -1.7590
 1569TIP3   OH226121   6.693   6.124  11.372 -0.4310  0.0919 -0.2511
 1569TIP3    H126122   6.742   6.123  11.454  0.2131  0.1916 -0.6306
 1569TIP3    H226123   6.671   6.032  11.357 -2.1928  0.2767  0.9899
 1570TIP3   OH226124   3.907   4.437  13.603 -0.1954  0.1675  0.0808
 1570TIP3    H126125   3.943   4.444  13.514 -0.0396 -1.4068 -0.0061
 1570TIP3    H226126   3.876   4.525  13.624 -0.3977  0.5210 -1.6089
 1571TIP3   OH226127   4.018   5.230   1.748  0.8180  0.1839 -0.2862
 1571TIP3    H126128   3.955   5.188   1.806  1.5489  0.5773  0.8045
 1571TIP3    H226129   3.974   5.232   1.663 -0.7158  0.6134  0.4866
 1572TIP3   OH226130   1.573   2.918   2.864  0.1266  0.3987 -0.2652
 1572TIP3    H126131   1.658   2.884   2.891  0.0628 -1.5228 -2.3426
 1572TIP3    H226132   1.509   2.866   2.913  0.1202  1.1194  0.4978
 1573TIP3   OH226133   0.313   5.465  12.517  0.1376  0.1597  0.4659
 1573TIP3    H126134   0.243   5.522  12.485  0.4140 -0.2929 -0.9716
 1573TIP3    H226135   0.393   5.513  12.499  0.5719 -1.8468 -3.4026
 1574TIP3   OH226136   0.242   1.425   0.083  0.5599 -0.2290 -0.2642
 1574TIP3    H126137   0.230   1.354   0.146  1.6638  0.3400  0.6086
 1574TIP3    H226138   0.337   1.439   0.080  0.1878  3.3932  2.0935
 1575TIP3   OH226139   1.705   6.312   4.667  0.5913 -0.1674  0.3904
 1575TIP3    H126140   1.623   6.298   4.620  0.1849  1.3095  0.6266
 1575TIP3    H226141   1.689   6.278   4.755  0.2149  0.1193  0.4372
 1576TIP3   OH226142   3.896   0.367  16.801  0.5353 -0.3610 -0.4332
 1576TIP3    H126143   3.861   0.278  16.809 -0.4669  0.0443 -0.2438
 1576TIP3    H226144   3.819   0.424  16.809  1.2462  0.5480  0.0518
 1577TIP3   OH226145   1.001   1.638  15.786  0.3675  0.1770  0.4217
 1577TIP3    H126146   0.958   1.562  15.825 -0.4768  0.4237  0.0043
 1577TIP3    H226147   0.929   1.691  15.753  1.0341 -0.0061 -1.4199
 1578TIP3   OH226148   5.726   2.304   4.571  0.4830  0.5215  0.4654
 1578TIP3    H126149   5.690   2.221   4.600 -0.6097  0.7479 -0.2090
 1578TIP3    H226150   5.652   2.365   4.577  1.2956  1.4722  1.0504
 1579TIP3   OH226151   1.071   0.427  16.697 -0.1453 -0.3779  0.3088
 1579TIP3    H126152   1.053   0.365  16.767 -0.1783  0.0360  0.6684
 1579TIP3    H226153   1.135   0.383  16.641  0.4242 -0.4137  0.9937
 1580TIP3   OH226154   6.496   5.725  17.065 -0.3397 -0.3721 -0.2762
 1580TIP3    H126155   6.484   5.814  17.034 -1.8151 -0.0665  1.0987
 1580TIP3    H226156   6.408   5.692  17.080  0.2284 -1.5632  0.5988
 1581TIP3   OH226157   3.453   2.959   3.797  0.3676 -0.1953 -0.3819
 1581TIP3    H126158   3.404   3.028   3.752  1.1685  1.1168  0.6841
 1581TIP3    H226159   3.398   2.882   3.791 -0.8009  0.6821 -1.1537
 1582TIP3   OH226160   3.420   1.368  14.733 -0.1388  0.5179  0.1246
 1582TIP3    H126161   3.484   1.403  14.796  0.2494  2.3968 -1.2741
 1582TIP3    H226162   3.441   1.275  14.728 -0.0515  0.3603  2.6118
 1583TIP3   OH226163   4.359   1.487  15.776  0.0150 -0.3577 -0.0009
 1583TIP3    H126164   4.323   1.420  15.718  0.6678  0.8279 -1.7937
 1583TIP3    H226165   4.336   1.570  15.735  1.5584  0.4809  0.7934
 1584TIP3   OH226166   4.202   0.143  14.151  0.4841  0.4076 -0.0699
 1584TIP3    H126167   4.150   0.128  14.230  1.0315  0.3880  0.2802
 1584TIP3    H226168   4.149   0.205  14.100 -0.1464 -0.0425  0.0347
 1585TIP3   OH226169   1.887   5.839  15.143  0.3576  0.5019  0.3243
 1585TIP3    H126170   1.838   5.770  15.099 -0.9256 -0.0745  2.5799
 1585TIP3    H226171   1.908   5.802  15.229  2.0547  1.9046  0.5453
 1586TIP3   OH226172   3.219   0.292  12.402 -0.0041  0.0545 -0.1798
 1586TIP3    H126173   3.217   0.203  12.366  0.7502 -0.4733  1.0587
 1586TIP3    H226174   3.136   0.300  12.450 -0.0643  0.0222 -0.2768
 1587TIP3   OH226175   0.697   0.156  11.949  0.0692  0.1156  0.0050
 1587TIP3    H126176   0.722   0.077  11.901  0.7117  0.3179  0.0043
 1587TIP3    H226177   0.670   0.124  12.035 -1.7967 -0.3252 -0.7182
 1588TIP3   OH226178   1.736   1.027   5.811 -0.0855 -0.0136  0.2221
 1588TIP3    H126179   1.707   1.055   5.724  1.5161  1.6638  0.2020
 1588TIP3    H226180   1.697   1.091   5.870  2.1003  1.2191  0.3509
 1589TIP3   OH226181   2.801   2.670   4.992 -0.3612 -0.0814 -0.1839
 1589TIP3    H126182   2.718   2.623   4.986 -0.4929  0.2732 -1.2909
 1589TIP3    H226183   2.841   2.658   4.906  1.4331 -1.5144  0.8153
 1590TIP3   OH226184   4.453   4.142  12.523  0.1491 -0.8759 -0.3054
 1590TIP3    H126185   4.425   4.146  12.432 -0.7907 -0.4968 -0.0052
 1590TIP3    H226186   4.426   4.226  12.560  1.3860 -0.6355  0.0837
 1591TIP3   OH226187   6.776   0.271   2.748  0.4301  0.4876  0.3789
 1591TIP3    H126188   6.708   0.214   2.712  1.7742  0.3869 -2.0462
 1591TIP3    H226189   6.850   0.213   2.765 -0.1779  0.5225  3.4007
 1592TIP3   OH226190   2.481   4.108  13.960  0.1654 -0.6890  0.2751
 1592TIP3    H126191   2.482   4.127  13.866 -2.3673  0.6393  0.4614
 1592TIP3    H226192   2.390   4.084  13.978  0.8785 -2.0938  2.1980
 1593TIP3   OH226193   5.222   1.635   5.993 -0.7870  0.4008  0.3095
 1593TIP3    H126194   5.278   1.571   6.038 -2.0509  0.4269  1.9493
 1593TIP3    H226195   5.156   1.582   5.948 -0.6856  0.4676  0.0803
 1594TIP3   OH226196   0.981   3.956   2.079  0.5505 -0.1033  0.7186
 1594TIP3    H126197   0.905   3.991   2.126  1.5897  3.0176  0.1914
 1594TIP3    H226198   1.051   3.956   2.145  0.8132 -0.2243  0.4355
 1595TIP3   OH226199   4.585   4.633   5.812  0.2415 -0.0029  0.1042
 1595TIP3    H126200   4.609   4.718   5.849  0.1539  0.4512 -0.8522
 1595TIP3    H226201   4.497   4.615   5.845  0.2694  0.2729  0.3230
 1596TIP3   OH226202   4.325   1.057  13.026 -0.0112  0.0215 -0.1088
 1596TIP3    H126203   4.338   1.128  12.964 -0.5942  0.6606  0.4792
 1596TIP3    H226204   4.369   0.982  12.987  1.3043  0.9037 -0.3619
 1597TIP3   OH226205   4.702   6.116   0.281 -0.1890 -0.3938  0.7993
 1597TIP3    H126206   4.641   6.051   0.246  1.2443 -0.5644 -1.4412
 1597TIP3    H226207   4.655   6.199   0.276 -0.0526 -0.4318 -1.4790
 1598TIP3   OH226208   1.181   3.577   3.666 -0.0716  0.7563 -0.2216
 1598TIP3    H126209   1.259   3.525   3.679 -0.8379 -0.4205 -0.2665
 1598TIP3    H226210   1.109   3.514   3.667 -1.1995  2.0262  1.7213
 1599TIP3   OH226211   0.880   3.224  12.311 -0.0346  0.4943  0.4547
 1599TIP3    H126212   0.859   3.204  12.220  2.2590  0.8593 -0.1989
 1599TIP3    H226213   0.796   3.221  12.357 -1.5394  2.4162 -2.0477
 1600TIP3   OH226214   2.152   2.492  15.921 -1.0869 -0.0594  0.7095
 1600TIP3    H126215   2.135   2.517  15.831  3.1375 -0.5085 -0.2988
 1600TIP3    H226216   2.139   2.572  15.972 -1.5085  0.6736 -0.5508
 1601TIP3   OH226217   6.774   2.382   0.277  0.4832  0.3848 -0.1704
 1601TIP3    H126218   6.806   2.306   0.327 -2.2935 -0.1626  0.8891
 1601TIP3    H226219   6.789   2.457   0.335  2.0828  0.4994 -0.7077
 1602TIP3   OH226220   6.401   4.158   4.171  0.0847 -0.6664  0.8460
 1602TIP3    H126221   6.373   4.207   4.094  0.6945 -2.5065 -0.5679
 1602TIP3    H226222   6.449   4.222   4.224  1.4131  0.1149 -1.2643
 1603TIP3   OH226223   3.766   4.643  14.686 -0.2727  0.1586  0.0369
 1603TIP3    H126224   3.816   4.563  14.700 -1.8871 -1.1120 -1.2031
 1603TIP3    H226225   3.828   4.706  14.650  0.9848 -0.5598  0.9332
 1604TIP3   OH226226   4.904   0.133  13.122  0.6961  0.6002  0.2142
 1604TIP3    H126227   4.970   0.163  13.060  1.6828  1.0731  1.4687
 1604TIP3    H226228   4.836   0.202  13.120  1.0429  0.9415  0.1548
 1605TIP3   OH226229   2.491   4.126  11.900 -0.2712 -0.6031 -0.2342
 1605TIP3    H126230   2.529   4.151  11.984  0.7051  1.2622 -1.2139
 1605TIP3    H226231   2.430   4.196  11.879 -0.8338 -1.2788 -0.8880
 1606TIP3   OH226232   2.467   2.209  11.676  0.0420 -0.5179 -0.0931
 1606TIP3    H126233   2.442   2.117  11.689 -2.7426  0.2690  0.3872
 1606TIP3    H226234   2.497   2.213  11.585 -1.4789 -1.5577 -0.6573
 1607TIP3   OH226235   3.811   1.968  16.490  0.5204 -0.5858  0.4259
 1607TIP3    H126236   3.762   1.890  16.465 -0.4770  0.6681 -1.6093
 1607TIP3    H226237   3.745   2.036  16.501  1.5876  0.5598 -0.1425
 1608TIP3   OH226238   5.419   6.257  12.273  0.2990  0.4602 -0.0795
 1608TIP3    H126239   5.456   6.313  12.342  0.9418 -1.6642  1.3462
 1608TIP3    H226240   5.489   6.196  12.251 -0.1222  0.7067 -2.1920
 1609TIP3   OH226241   5.748   4.895   1.406 -0.3011  0.3727 -0.4161
 1609TIP3    H126242   5.763   4.800   1.404  0.7925  0.5642 -2.1473
 1609TIP3    H226243   5.833   4.933   1.384 -0.5109  1.7994  1.1629
 1610TIP3   OH226244   0.709   2.267  10.625 -0.0775 -0.0671  0.0261
 1610TIP3    H126245   0.743   2.330  10.562  1.5616  0.3243  1.2759
 1610TIP3    H226246   0.622   2.301  10.648  0.4174  1.2585  0.0030
 1611TIP3   OH226247   1.471   5.138   4.019  0.3238 -0.2972  0.1684
 1611TIP3    H126248   1.475   5.128   4.114  0.2240  1.5826  0.4009
 1611TIP3    H226249   1.411   5.211   4.006 -0.3600 -1.1127 -1.3918
 1612TIP3   OH226250   5.189   4.619  12.064 -0.6952  0.1159  0.7875
 1612TIP3    H126251   5.213   4.527  12.049 -1.3271 -0.0336  0.6527
 1612TIP3    H226252   5.230   4.641  12.148  0.4101  0.0582  0.2679
 1613TIP3   OH226253   3.906   5.574   5.977 -0.0436 -0.0889 -0.1537
 1613TIP3    H126254   3.962   5.520   5.922  0.0009  0.4432 -0.6360
 1613TIP3    H226255   3.937   5.663   5.962 -0.0378  0.0584  0.7277
 1614TIP3   OH226256   1.678   5.978   6.465 -0.5793  0.6842 -0.0758
 1614TIP3    H126257   1.740   5.914   6.429 -0.6882  0.9834 -0.8107
 1614TIP3    H226258   1.730   6.034   6.522  0.0185  1.5176 -1.4226
 1615TIP3   OH226259   3.053   4.105   4.844 -0.2383  0.2852 -0.0157
 1615TIP3    H126260   3.019   4.192   4.820 -0.4820  0.3670  0.6074
 1615TIP3    H226261   3.048   4.104   4.940 -1.9727 -1.1212 -0.0964
 1616TIP3   OH226262   4.114   0.088   2.810 -0.0059  0.1808 -0.1654
 1616TIP3    H126263   4.154   0.039   2.881 -0.1158 -1.1680 -1.0184
 1616TIP3    H226264   4.023   0.102   2.837 -0.1110 -0.5387 -0.1506
 1617TIP3   OH226265   5.631   2.312   1.111  0.2671  0.0854 -0.3731
 1617TIP3    H126266   5.553   2.361   1.137 -0.5315 -2.0887  1.5239
 1617TIP3    H226267   5.598   2.226   1.086  2.0788 -0.9720  0.7707
 1618TIP3   OH226268   1.897   6.209  12.550  0.0128  0.5149 -0.5841
 1618TIP3    H126269   1.805   6.235  12.549 -0.0965  0.1210 -1.8595
 1618TIP3    H226270   1.899   6.127  12.500  0.7213 -0.6532  1.2967
 1619TIP3   OH226271   2.581   2.115  16.360  0.1039  0.4799 -0.0217
 1619TIP3    H126272   2.569   2.210  16.355  0.0967  0.4256 -1.2557
 1619TIP3    H226273   2.527   2.081  16.289  0.8587 -0.3834 -0.1884
 1620TIP3   OH226274   2.418   1.588  11.117  0.3195 -0.3328 -0.2836
 1620TIP3    H126275   2.500   1.615  11.074 -0.0045  0.0779 -0.6508
 1620TIP3    H226276   2.446   1.555  11.202  0.8728 -0.2049 -0.4093
 1621TIP3   OH226277   0.063   2.829  16.624 -0.4309 -0.6550  0.1616
 1621TIP3    H126278   0.078   2.914  16.665 -0.0022 -1.5014  1.7924
 1621TIP3    H226279   0.019   2.778  16.691  2.7998 -2.9742  0.6326
 1622TIP3   OH226280   6.654   5.160   3.533 -0.0795 -0.2282 -0.1660
 1622TIP3    H126281   6.685   5.180   3.444  0.5789 -0.0768  0.0983
 1622TIP3    H226282   6.635   5.067   3.531  1.6787 -0.6123  0.0455
 1623TIP3   OH226283   0.166   3.255  16.108  0.1598  0.0103 -0.0162
 1623TIP3    H126284   0.169   3.315  16.034  1.2113 -0.1887 -0.1462
 1623TIP3    H226285   0.086   3.279  16.155 -1.3264 -0.8172 -2.0155
 1624TIP3   OH226286   6.415   0.246   4.181 -0.1352 -0.3670 -0.2744
 1624TIP3    H126287   6.388   0.337   4.178 -0.0258 -0.2858  0.8000
 1624TIP3    H226288   6.508   0.249   4.203 -0.8149 -0.7809  2.8669
 1625TIP3   OH226289   2.598   6.343   2.505  0.5955  0.3010 -0.2925
 1625TIP3    H126290   2.552   6.327   2.423  0.2974 -1.5924  0.2097
 1625TIP3    H226291   2.655   6.266   2.516  0.5257  0.4615  1.3297
 1626TIP3   OH226292   1.231   1.007  16.402  1.0698 -0.8635  0.1321
 1626TIP3    H126293   1.228   0.912  16.408  1.8440 -1.0260 -1.6015
 1626TIP3    H226294   1.276   1.035  16.481 -0.2732 -1.8350  1.2587
 1627TIP3   OH226295   6.535   2.674   2.600 -0.4398  0.6881  0.1391
 1627TIP3    H126296   6.466   2.730   2.634 -0.3384  0.5676  0.5386
 1627TIP3    H226297   6.616   2.714   2.632 -0.1562  2.3959 -2.5353
 1628TIP3   OH226298   4.867   5.923   3.259 -0.0055  0.4484 -0.6100
 1628TIP3    H126299   4.892   5.831   3.261 -0.3841  0.3687  0.9680
 1628TIP3    H226300   4.939   5.970   3.301 -0.8574  0.6015  0.7200
 1629TIP3   OH226301   4.494   5.938  17.099  0.6946  0.3530 -0.2282
 1629TIP3    H126302   4.469   5.848  17.079 -0.0632  0.3600  0.6326
 1629TIP3    H226303   4.446   5.991  17.036  2.4216  0.0685 -1.8203
 1630TIP3   OH226304   5.398   6.107  17.148  0.4131 -0.2529 -0.0973
 1630TIP3    H126305   5.355   6.026  17.120  0.7074 -1.0064  1.5430
 1630TIP3    H226306   5.340   6.176  17.117  1.0010 -0.9879 -2.9658
 1631TIP3   OH226307   6.298   2.260   5.451  0.2751 -0.5424  0.0752
 1631TIP3    H126308   6.246   2.182   5.471  0.4241 -0.5933  0.2677
 1631TIP3    H226309   6.234   2.324   5.420  0.0105 -0.4021  0.8912
 1632TIP3   OH226310   1.665   1.445   4.825 -0.2766 -0.4560 -0.1284
 1632TIP3    H126311   1.752   1.484   4.832 -1.1501  1.8056 -1.2094
 1632TIP3    H226312   1.667   1.369   4.882  1.9267  0.4482  1.0312
 1633TIP3   OH226313   6.699   1.770   1.293 -0.5409  0.3284  0.4496
 1633TIP3    H126314   6.767   1.836   1.276 -2.1225  1.8260 -0.2150
 1633TIP3    H226315   6.700   1.714   1.215 -0.2260  0.4861  0.3379
 1634TIP3   OH226316   1.672   3.981  11.193  0.0530 -0.1288  0.1047
 1634TIP3    H126317   1.615   4.042  11.240 -0.3541 -0.8522  0.5518
 1634TIP3    H226318   1.614   3.935  11.132  0.3235 -0.2162 -0.0904
 1635TIP3   OH226319   3.270   3.822   1.902 -0.2246 -0.0122  0.3352
 1635TIP3    H126320   3.313   3.896   1.946 -0.7545 -1.0623  2.7381
 1635TIP3    H226321   3.184   3.856   1.879 -1.0721 -0.2773  2.8747
 1636TIP3   OH226322   5.723   2.641   2.979 -0.6581  0.5248  0.2892
 1636TIP3    H126323   5.691   2.691   2.904 -0.8866 -0.7103 -0.4561
 1636TIP3    H226324   5.802   2.687   3.007 -1.0393  1.4718 -0.1955
 1637TIP3   OH226325   1.813   5.161  10.697 -0.8961 -0.4243 -0.0018
 1637TIP3    H126326   1.868   5.102  10.749  1.0477  4.5948  4.0736
 1637TIP3    H226327   1.723   5.133  10.715 -0.0478 -2.1042  1.7581
 1638TIP3   OH226328   3.830   5.914   2.643  0.5495  0.9025  0.1062
 1638TIP3    H126329   3.843   5.973   2.718  0.8906  2.5054 -1.1807
 1638TIP3    H226330   3.771   5.962   2.585  2.0127  0.6075 -1.6545
 1639TIP3   OH226331   6.254   2.714   1.952 -0.3103  0.1293  0.2838
 1639TIP3    H126332   6.225   2.637   1.903  0.1853  0.4088 -0.4652
 1639TIP3    H226333   6.180   2.735   2.009 -0.0801 -1.4722  1.2121
 1640TIP3   OH226334   3.337   3.847   4.220  0.2286 -0.5089  0.2131
 1640TIP3    H126335   3.386   3.923   4.251 -0.2075 -0.0943 -0.0974
 1640TIP3    H226336   3.246   3.865   4.244 -0.0094 -0.5130 -0.6544
 1641TIP3   OH226337   6.362   1.694   4.580  0.5286 -0.4830  0.9191
 1641TIP3    H126338   6.406   1.718   4.499 -1.4330  1.0715  0.2694
 1641TIP3    H226339   6.416   1.624   4.618  0.7644 -2.1361 -2.3469
 1642TIP3   OH226340   4.538   6.720  11.535  0.3160  0.1731  0.4486
 1642TIP3    H126341   4.571   6.734  11.446 -0.7903  1.3732  0.2021
 1642TIP3    H226342   4.498   6.634  11.533  1.0045 -0.1402  0.0083
 1643TIP3   OH226343   3.013   1.109  16.954 -0.3579 -0.4292 -0.0234
 1643TIP3    H126344   2.937   1.051  16.942  0.5561 -1.8074  0.7104
 1643TIP3    H226345   3.086   1.062  16.912 -0.0171  1.1692 -1.2746
 1644TIP3   OH226346   1.055   0.546   3.445  0.0214  0.1917 -0.1877
 1644TIP3    H126347   1.044   0.618   3.383  0.2349  0.8971  0.5796
 1644TIP3    H226348   1.115   0.485   3.402 -0.0489  0.5460 -0.7802
 1645TIP3   OH226349   4.702   1.019  11.201 -0.5851 -0.4489 -0.1925
 1645TIP3    H126350   4.705   1.115  11.209 -1.1630 -0.3269 -1.3365
 1645TIP3    H226351   4.789   0.990  11.229  1.2952  0.7781 -4.4491
 1646TIP3   OH226352   0.834   1.421  16.885 -0.3080  0.5174 -0.1603
 1646TIP3    H126353   0.804   1.337  16.918  1.5707  0.2223  0.8816
 1646TIP3    H226354   0.756   1.462  16.847 -1.2370 -1.6783 -0.6743
 1647TIP3   OH226355   1.572   6.452  17.086 -0.2746  0.5050  0.1469
 1647TIP3    H126356   1.666   6.441  17.097 -0.3576  0.5196  0.8694
 1647TIP3    H226357   1.564   6.514  17.013  0.2293 -1.4205 -1.5783
 1648TIP3   OH226358   0.061   3.124  12.184 -0.1396  0.1590 -0.2642
 1648TIP3    H126359   0.155   3.112  12.192 -0.0992  0.0802 -0.7901
 1648TIP3    H226360   0.034   3.163  12.267  0.0876 -1.3665  0.5494
 1649TIP3   OH226361   2.346   5.551   3.501 -0.4788 -0.0606 -0.2273
 1649TIP3    H126362   2.310   5.535   3.414 -0.0596 -0.2649 -0.3614
 1649TIP3    H226363   2.433   5.589   3.485 -1.5438  2.6396  0.0637
 1650TIP3   OH226364   6.590   2.850   0.812 -0.3655  0.2140  0.1614
 1650TIP3    H126365   6.499   2.830   0.791 -0.4871 -0.6133  1.4619
 1650TIP3    H226366   6.611   2.795   0.887  0.9813  0.9519  0.3509
 1651TIP3   OH226367   3.455   1.302  12.965 -0.5672  0.4080 -0.0337
 1651TIP3    H126368   3.537   1.350  12.977 -0.7299  0.7915 -0.4888
 1651TIP3    H226369   3.392   1.367  12.935 -1.3417  0.3424  1.4314
 1652TIP3   OH226370   6.641   1.150   5.754 -0.6694  0.3490 -0.3836
 1652TIP3    H126371   6.579   1.219   5.776  0.6405  1.4762 -0.1405
 1652TIP3    H226372   6.720   1.172   5.803 -0.5944 -1.9518  0.5594
 1653TIP3   OH226373   6.741   2.780   4.345 -0.5006  0.1338 -0.1996
 1653TIP3    H126374   6.740   2.685   4.356 -1.5372 -0.2872 -3.5172
 1653TIP3    H226375   6.830   2.801   4.318 -0.4306  0.0506 -0.0369
 1654TIP3   OH226376   2.321   2.925  11.404 -0.1277  0.1159  0.2338
 1654TIP3    H126377   2.262   2.856  11.435 -0.2691  0.2407  0.2406
 1654TIP3    H226378   2.375   2.882  11.338  1.2868 -0.5911  1.8224
 1655TIP3   OH226379   2.430   3.846  11.283 -0.0499  0.1624  0.1475
 1655TIP3    H126380   2.467   3.933  11.266  0.1130  0.3298  1.3190
 1655TIP3    H226381   2.422   3.841  11.378 -0.4288 -0.9574  0.0701
 1656TIP3   OH226382   3.048   6.502  12.211 -0.0695 -0.2347 -0.4725
 1656TIP3    H126383   3.107   6.444  12.258 -0.6294 -1.5603 -1.3801
 1656TIP3    H226384   3.103   6.543  12.144  0.5731  1.1449  0.8630
 1657TIP3   OH226385   3.651   5.493  15.064  0.5434  0.2925  0.4118
 1657TIP3    H126386   3.707   5.569  15.045  0.6364  0.3699  0.9752
 1657TIP3    H226387   3.565   5.531  15.084  0.3750  0.1954 -0.1226
 1658TIP3   OH226388   6.667   0.059   1.746 -0.5648 -0.0869  0.3267
 1658TIP3    H126389   6.744   0.038   1.800  0.4996  1.0949 -0.6909
 1658TIP3    H226390   6.621  -0.025   1.736  0.1123 -0.6396  1.6761
 1659TIP3   OH226391   0.165   3.663   2.306 -0.0163 -0.0642 -0.5910
 1659TIP3    H126392   0.180   3.596   2.372  3.1841 -0.8631 -2.0456
 1659TIP3    H226393   0.079   3.642   2.269 -0.1269 -1.8575  0.6505
 1660TIP3   OH226394   0.975   3.693  11.697 -0.0632  0.3164  0.1245
 1660TIP3    H126395   0.962   3.646  11.779 -0.6950 -0.6934 -0.5424
 1660TIP3    H226396   0.932   3.777  11.710  1.2611  0.7997  1.4090
 1661TIP3   OH226397   5.587   5.137   3.767  0.1479  0.4464 -0.1852
 1661TIP3    H126398   5.615   5.228   3.768  1.5166  0.0275 -0.1237
 1661TIP3    H226399   5.667   5.086   3.778  0.0279 -0.8833 -4.4804
 1662TIP3   OH226400   6.286   1.904  12.836  0.4918  0.4344 -0.4912
 1662TIP3    H126401   6.243   1.988  12.854 -1.3668 -0.4244 -0.7865
 1662TIP3    H226402   6.333   1.919  12.754 -0.1681  1.0813 -0.7623
 1663TIP3   OH226403   2.986   1.793  15.451  0.6207 -0.0645  0.0476
 1663TIP3    H126404   2.968   1.835  15.535 -1.9827 -0.7608 -0.1229
 1663TIP3    H226405   3.070   1.748  15.464  2.0972  2.8683  1.0815
 1664TIP3   OH226406   1.904   2.639   0.321  0.1092  0.1358 -0.1019
 1664TIP3    H126407   1.923   2.714   0.265  1.1293 -0.1009 -0.0951
 1664TIP3    H226408   1.988   2.592   0.326 -0.1372 -0.1823  1.1155
 1665TIP3   OH226409   1.227   3.907  13.042  0.0156 -0.7293 -0.3607
 1665TIP3    H126410   1.271   3.888  13.124 -0.6289 -1.2460 -0.1272
 1665TIP3    H226411   1.189   3.994  13.054  0.8058 -0.3600 -0.4985
 1666TIP3   OH226412   4.084   6.008  11.778 -0.5674  0.2037 -0.0531
 1666TIP3    H126413   4.167   6.042  11.812 -0.3039 -0.7068  0.2156
 1666TIP3    H226414   4.039   6.086  11.746  0.0950  0.7981  0.4243
 1667TIP3   OH226415   5.057   2.762   4.228 -0.3677  0.0879 -0.4939
 1667TIP3    H126416   5.061   2.850   4.264 -1.9653  0.1118 -0.3597
 1667TIP3    H226417   5.041   2.775   4.134 -2.0818 -0.0551 -0.2461
 1668TIP3   OH226418   3.913   1.618  13.888  0.1205 -0.1423 -0.3034
 1668TIP3    H126419   3.876   1.693  13.935 -0.4490 -0.0537 -0.8813
 1668TIP3    H226420   3.938   1.653  13.803  0.1186 -0.5492 -0.4701
 1669TIP3   OH226421   3.713   2.532   1.540 -0.0222 -0.1993 -0.4216
 1669TIP3    H126422   3.802   2.566   1.543  0.1926 -0.6499 -1.4696
 1669TIP3    H226423   3.672   2.564   1.621  1.1366 -0.1474  0.1501
 1670TIP3   OH226424   6.667   0.492  12.407  0.0063 -0.1062 -0.0559
 1670TIP3    H126425   6.703   0.581  12.411  0.2067 -0.2406  1.6559
 1670TIP3    H226426   6.670   0.469  12.314  2.5263  0.6305 -0.2042
 1671TIP3   OH226427   3.671   0.805   5.562  0.5906 -0.5953 -0.6360
 1671TIP3    H126428   3.619   0.735   5.522  1.3780 -1.6363  0.1279
 1671TIP3    H226429   3.756   0.799   5.517  0.2945  0.6599 -1.4088
 1672TIP3   OH226430   2.002   3.493  17.101  0.4370 -0.3790  0.0151
 1672TIP3    H126431   2.058   3.495  17.179  0.2196  0.3827  0.1522
 1672TIP3    H226432   2.064   3.485  17.028  0.7550  0.6562  0.1520
 1673TIP3   OH226433   2.043   3.916  14.774  0.1821  0.0907 -0.2399
 1673TIP3    H126434   1.985   3.850  14.737 -0.1893  0.2784  0.0164
 1673TIP3    H226435   2.130   3.874  14.773 -0.0646 -0.4250 -0.0037
 1674TIP3   OH226436   3.046   1.844   3.522  0.1508 -0.5420  0.5949
 1674TIP3    H126437   3.048   1.921   3.578  0.3228 -0.4747  0.4968
 1674TIP3    H226438   2.965   1.853   3.471  0.9946  0.4357 -0.6198
 1675TIP3   OH226439   4.563   2.679  14.804  0.0106 -0.3237  0.8180
 1675TIP3    H126440   4.590   2.753  14.859  1.2273 -1.0623  1.2412
 1675TIP3    H226441   4.495   2.715  14.747 -0.9579  0.5657  2.4959
 1676TIP3   OH226442   2.865   0.354   4.491  0.2006  0.0532  0.5377
 1676TIP3    H126443   2.865   0.258   4.491  0.6670  0.0511  0.5606
 1676TIP3    H226444   2.779   0.378   4.458  0.1767 -0.3768  0.2834
 1677TIP3   OH226445   3.862   0.752  12.023  0.2765 -0.5302  0.1468
 1677TIP3    H126446   3.806   0.770  12.099 -0.6518 -0.4655 -0.5354
 1677TIP3    H226447   3.831   0.814  11.957  1.6540  0.0037 -0.0122
 1678TIP3   OH226448   5.006   2.419  15.154  0.1878 -0.5137  0.0701
 1678TIP3    H126449   4.969   2.363  15.222  0.9643 -2.5020 -1.0968
 1678TIP3    H226450   5.044   2.493  15.202  0.4666 -1.7211  1.7785
 1679TIP3   OH226451   0.808   3.184  12.049  0.1215  0.1798 -0.4350
 1679TIP3    H126452   0.757   3.252  12.006  0.0810  0.0879 -0.5342
 1679TIP3    H226453   0.745   3.114  12.066 -0.1354  0.7343  0.9263
 1680TIP3   OH226454   5.911   4.356   5.416 -0.5805 -0.0581  0.2964
 1680TIP3    H126455   5.970   4.285   5.440 -0.3775 -0.3213 -0.9414
 1680TIP3    H226456   5.841   4.312   5.367 -0.5917  0.5570 -0.2399
 1681TIP3   OH226457   0.233   5.096  12.293 -0.1414 -0.4578 -0.4004
 1681TIP3    H126458   0.152   5.147  12.285  0.3418  0.2728 -0.6733
 1681TIP3    H226459   0.280   5.113  12.212  1.1515  0.6484  0.5556
 1682TIP3   OH226460   4.311   3.974  10.768 -0.4133  0.2371 -0.6781
 1682TIP3    H126461   4.269   4.054  10.799 -0.1936 -0.3181  1.1277
 1682TIP3    H226462   4.253   3.941  10.701 -0.4925  1.9204 -1.4758
 1683TIP3   OH226463   2.893   0.290  14.353 -0.4722  0.5656  0.5619
 1683TIP3    H126464   2.869   0.199  14.333  0.8644  0.3696 -0.2160
 1683TIP3    H226465   2.850   0.308  14.437 -1.0734 -0.6576  0.5299
 1684TIP3   OH226466   3.962   4.422   0.074  0.6333 -0.1193  0.2539
 1684TIP3    H126467   4.015   4.418   0.154 -1.6005  0.5103  1.8031
 1684TIP3    H226468   4.006   4.488   0.020  2.1536 -0.5349  0.9518
 1685TIP3   OH226469   5.507   0.533   3.835  0.1349 -0.0500 -0.7471
 1685TIP3    H126470   5.482   0.496   3.750 -0.3787 -0.6869 -0.3249
 1685TIP3    H226471   5.528   0.457   3.889  0.0639  0.3318 -0.1811
 1686TIP3   OH226472   2.518   2.533  14.408  0.6665 -0.1696  0.1260
 1686TIP3    H126473   2.473   2.451  14.389  0.2587  0.4357 -1.5683
 1686TIP3    H226474   2.552   2.522  14.497  0.5359 -2.1331 -0.0577
 1687TIP3   OH226475   3.151   2.470  15.406 -0.0997  0.3273 -0.1530
 1687TIP3    H126476   3.149   2.559  15.440 -1.8676  0.5577 -0.8151
 1687TIP3    H226477   3.134   2.415  15.483 -0.4226  0.6380  0.0014
 1688TIP3   OH226478   1.308   2.508  13.109  0.3518 -0.5294 -0.1118
 1688TIP3    H126479   1.276   2.597  13.092 -0.8469 -1.0233 -0.4607
 1688TIP3    H226480   1.319   2.505  13.204  1.1734  0.2463 -0.1720
 1689TIP3   OH226481   4.256   2.792  16.323  0.1698 -0.2654  0.1389
 1689TIP3    H126482   4.290   2.703  16.326 -0.3932 -0.5137 -0.7116
 1689TIP3    H226483   4.192   2.796  16.394 -0.6925 -0.9178 -0.5883
 1690TIP3   OH226484   1.078   2.742   4.792 -0.6040 -0.3331  0.0942
 1690TIP3    H126485   1.066   2.837   4.798  0.6976 -0.1695  0.0859
 1690TIP3    H226486   1.163   2.726   4.832 -1.2790 -1.6246  1.0179
 1691TIP3   OH226487   2.135   0.380  15.915 -0.2878 -0.5844  0.2470
 1691TIP3    H126488   2.156   0.465  15.954  1.3704 -1.5395  1.4815
 1691TIP3    H226489   2.052   0.355  15.955 -0.9548  0.5836 -0.3680
 1692TIP3   OH226490   0.382   2.186  13.906  0.4115 -0.2936  0.1244
 1692TIP3    H126491   0.435   2.110  13.929  2.5286  1.0596 -0.1858
 1692TIP3    H226492   0.376   2.183  13.811 -2.6294 -2.0758  0.2807
 1693TIP3   OH226493   1.596   3.518   4.538 -0.5325  0.0827 -0.2086
 1693TIP3    H126494   1.504   3.505   4.516 -0.0851 -0.5940 -1.7134
 1693TIP3    H226495   1.596   3.530   4.633 -2.1223 -0.3078 -0.1447
 1694TIP3   OH226496   2.607   4.818  12.487  0.5472 -0.1320  0.0755
 1694TIP3    H126497   2.665   4.889  12.460 -0.5927  0.9730  0.4863
 1694TIP3    H226498   2.593   4.768  12.407  1.5715 -0.0536 -0.1598
 1695TIP3   OH226499   0.998   5.812   3.913 -0.7703 -0.3190  0.8331
 1695TIP3    H126500   1.057   5.882   3.939  0.0599 -0.7823  0.1913
 1695TIP3    H226501   0.984   5.825   3.819 -0.3090 -1.2367  0.6288
 1696TIP3   OH226502   6.560   5.503  16.180 -0.7070 -0.1875 -0.3766
 1696TIP3    H126503   6.569   5.527  16.088 -0.0674 -2.1072 -0.8501
 1696TIP3    H226504   6.466   5.492  16.193 -0.8139  0.2699 -0.7447
 1697TIP3   OH226505   4.579   5.729  16.630 -0.7105 -0.7804 -0.1039
 1697TIP3    H126506   4.513   5.761  16.567 -0.7259  0.4002  0.5016
 1697TIP3    H226507   4.661   5.732  16.581 -0.8383 -0.5933 -0.3094
 1698TIP3   OH226508   0.405   6.726   1.979  0.3679  0.1109  0.9234
 1698TIP3    H126509   0.423   6.805   2.029  1.3333 -0.2777  1.2076
 1698TIP3    H226510   0.470   6.663   2.009  1.0835 -0.0794 -0.9427
 1699TIP3   OH226511   0.389   0.573   5.562 -0.0535 -0.0845  0.8401
 1699TIP3    H126512   0.342   0.536   5.487  0.7322  0.0906  0.2569
 1699TIP3    H226513   0.370   0.667   5.557  2.1940  0.3244 -0.7404
 1700TIP3   OH226514   6.231   1.626   1.544  0.0290  0.1137  0.0706
 1700TIP3    H126515   6.308   1.658   1.592 -0.2404  1.8365 -0.6155
 1700TIP3    H226516   6.165   1.694   1.556 -1.0574 -0.8733 -0.2179
 1701TIP3   OH226517   2.459   2.796  16.839  0.7879  0.7454  0.1754
 1701TIP3    H126518   2.520   2.735  16.796  0.0535 -0.8812  1.3782
 1701TIP3    H226519   2.445   2.865  16.775 -2.9426 -3.3157 -3.6587
 1702TIP3   OH226520   2.781   1.415   1.688  0.0893 -0.8192  0.4402
 1702TIP3    H126521   2.875   1.423   1.676  0.1480 -0.1017  1.3354
 1702TIP3    H226522   2.754   1.497   1.728 -0.6020 -1.8172  2.0997
 1703TIP3   OH226523   2.125   3.126  15.001 -0.3341  0.2720  0.7320
 1703TIP3    H126524   2.164   3.039  15.009 -0.4374  0.1844  0.2777
 1703TIP3    H226525   2.035   3.109  14.974 -0.7502  0.4628  1.9667
 1704TIP3   OH226526   5.097   5.547   5.753  0.3242  0.0629 -0.0860
 1704TIP3    H126527   5.094   5.534   5.658  0.4233  3.4243 -0.6192
 1704TIP3    H226528   5.016   5.594   5.773  0.9216  0.5167  1.2867
 1705TIP3   OH226529   5.406   6.754  14.595  0.9997  0.6178  0.0887
 1705TIP3    H126530   5.385   6.796  14.679  0.9739  3.9742 -1.5084
 1705TIP3    H226531   5.497   6.778  14.579  0.9751  0.0735 -0.8877
 1706TIP3   OH226532   1.859   4.719   4.936  0.7861 -0.2959  0.0957
 1706TIP3    H126533   1.770   4.698   4.908  0.9924 -1.1385  0.0541
 1706TIP3    H226534   1.858   4.813   4.951  0.4787  0.0869 -2.1012
 1707TIP3   OH226535   3.256   1.930  12.371 -0.1359 -0.0553 -0.2278
 1707TIP3    H126536   3.214   2.016  12.372 -1.3887 -0.6614  0.4261
 1707TIP3    H226537   3.198   1.875  12.423  0.6992 -1.2813 -0.5875
 1708TIP3   OH226538   3.030   4.954  11.877 -0.7099 -0.1116  0.2959
 1708TIP3    H126539   3.040   4.965  11.783 -0.2045 -1.0443  0.2327
 1708TIP3    H226540   3.065   4.867  11.895 -1.1220 -0.0814  1.2955
 1709TIP3   OH226541   6.430   1.755   1.675  0.1946 -0.1503  0.0883
 1709TIP3    H126542   6.522   1.779   1.667  0.3334 -0.7877 -0.2983
 1709TIP3    H226543   6.425   1.706   1.757 -0.0951  1.2141  0.8921
 1710TIP3   OH226544   3.281   0.080   2.298 -0.1782 -0.4352 -0.4788
 1710TIP3    H126545   3.206   0.139   2.301  0.2522  0.0327  1.5256
 1710TIP3    H226546   3.244  -0.005   2.276 -1.3405 -0.2623  0.7738
 1711TIP3   OH226547   4.934   3.081   1.780 -0.6071 -0.3189  0.8048
 1711TIP3    H126548   4.882   3.144   1.831  0.7576  0.5243  1.1693
 1711TIP3    H226549   4.947   3.124   1.696  1.2604  0.3714  1.4319
 1712TIP3   OH226550   4.806   5.860   6.629  0.3436  0.6614  0.2271
 1712TIP3    H126551   4.743   5.893   6.566 -0.1887 -1.8180 -0.6108
 1712TIP3    H226552   4.762   5.865   6.713 -0.2574  0.7446 -0.0938
 1713TIP3   OH226553   6.433   4.425  12.490  0.1676  0.3838  0.5675
 1713TIP3    H126554   6.445   4.331  12.501  0.4823  0.3939  0.3174
 1713TIP3    H226555   6.436   4.439  12.395 -0.0420  0.6239  0.5941
 1714TIP3   OH226556   1.614   1.274  12.924  0.2118 -0.6619 -0.1200
 1714TIP3    H126557   1.554   1.199  12.927  0.2730 -0.6653  1.1837
 1714TIP3    H226558   1.572   1.340  12.979  0.8804 -0.2803 -0.0756
 1715TIP3   OH226559   6.460   1.018  11.956  0.0108  0.4348 -0.2121
 1715TIP3    H126560   6.520   1.050  12.024  0.6728  0.6392 -0.8825
 1715TIP3    H226561   6.510   1.026  11.875 -0.2953 -1.1063 -0.5531
 1716TIP3   OH226562   4.076   1.434   1.047  0.1287 -0.0799  0.3447
 1716TIP3    H126563   4.079   1.444   1.142 -0.5622  0.6264  0.2974
 1716TIP3    H226564   4.167   1.446   1.020  0.1922  0.6057  0.8392
 1717TIP3   OH226565   5.669   1.560  11.603 -0.4341  0.1187  0.0329
 1717TIP3    H126566   5.716   1.541  11.522  0.8098 -0.9002  0.9826
 1717TIP3    H226567   5.688   1.652  11.620 -0.2750  0.1984 -0.5569
 1718TIP3   OH226568   5.118   6.307  15.841 -0.6934 -0.1112 -0.2104
 1718TIP3    H126569   5.132   6.282  15.749  0.2679  1.0977 -0.3986
 1718TIP3    H226570   5.050   6.248  15.871 -0.0188 -1.4875 -1.3012
 1719TIP3   OH226571   2.533   1.287  13.272  0.5736 -0.1604  0.1297
 1719TIP3    H126572   2.620   1.250  13.288  0.8608  0.0087 -1.0087
 1719TIP3    H226573   2.473   1.212  13.280  1.0982 -0.8053 -1.6039
 1720TIP3   OH226574   6.769   5.133   2.603  0.0347 -0.5726 -0.1538
 1720TIP3    H126575   6.715   5.078   2.660  0.3907  0.0337  0.7759
 1720TIP3    H226576   6.738   5.114   2.515 -1.1767 -0.8114  0.3167
 1721TIP3   OH226577   6.114   3.817  13.897  0.1892  0.1263 -0.4367
 1721TIP3    H126578   6.051   3.747  13.882  0.0937  0.3103 -0.8982
 1721TIP3    H226579   6.164   3.822  13.816 -0.6395  1.4420 -0.8844
 1722TIP3   OH226580   2.965   5.581  15.385 -0.2031 -0.1432 -0.1727
 1722TIP3    H126581   3.061   5.580  15.377 -0.2055  1.8394 -0.7689
 1722TIP3    H226582   2.949   5.630  15.466 -0.7213  0.7094 -0.7796
 1723TIP3   OH226583   4.447   3.517   1.231 -0.4220  0.6114  0.3345
 1723TIP3    H126584   4.440   3.520   1.326 -0.2587  0.2848  0.3570
 1723TIP3    H226585   4.357   3.505   1.201 -0.4853  0.8092  0.4434
 1724TIP3   OH226586   2.704   0.394  16.968  0.5112  0.3944 -0.0031
 1724TIP3    H126587   2.782   0.408  16.913  0.4091  0.7334 -0.0622
 1724TIP3    H226588   2.632   0.428  16.915  0.3065 -0.0372  0.0037
 1725TIP3   OH226589   4.392   6.046  14.689  0.3153 -0.2852  0.4976
 1725TIP3    H126590   4.451   6.119  14.670  0.0473 -0.0684  0.4950
 1725TIP3    H226591   4.430   5.972  14.641  0.1279  0.0527 -0.1738
 1726TIP3   OH226592   5.067   5.051   5.324  0.5037 -0.0196 -0.0044
 1726TIP3    H126593   5.023   5.115   5.269  1.2174  0.9392  0.5101
 1726TIP3    H226594   4.996   5.005   5.369 -0.0375 -0.0264 -0.8465
 1727TIP3   OH226595   1.373   5.785   6.632 -0.0603 -0.2749  0.3315
 1727TIP3    H126596   1.451   5.736   6.605 -1.4036 -0.9206 -2.6262
 1727TIP3    H226597   1.313   5.717   6.664 -0.4980 -0.1243 -0.1696
 1728TIP3   OH226598   4.109   6.658   6.030 -0.1778  0.0624  0.2042
 1728TIP3    H126599   4.163   6.604   6.089  0.1087  0.3994  0.2521
 1728TIP3    H226600   4.173   6.706   5.976 -0.4425 -1.2804 -1.3366
 1729TIP3   OH226601   5.122   5.268   0.516 -0.0389 -0.4838 -0.0711
 1729TIP3    H126602   5.156   5.287   0.428  2.5581  2.9313  1.5615
 1729TIP3    H226603   5.034   5.303   0.516  0.0149 -0.3243 -1.2515
 1730TIP3   OH226604   5.632   4.713   3.508 -0.0996 -0.1350  0.1088
 1730TIP3    H126605   5.669   4.638   3.553 -0.5718 -0.4525 -0.0335
 1730TIP3    H226606   5.666   4.789   3.556  0.4968 -0.4285  0.1586
 1731TIP3   OH226607   6.701   0.959   4.746 -0.5480  0.2981  0.8071
 1731TIP3    H126608   6.766   0.960   4.816  1.4115 -0.1801 -0.9636
 1731TIP3    H226609   6.670   1.050   4.741  0.2958  0.6304  1.3867
 1732TIP3   OH226610   2.847   5.015  12.565  0.5704 -0.0164  0.2602
 1732TIP3    H126611   2.828   5.101  12.601  1.0459  0.2014 -0.0024
 1732TIP3    H226612   2.939   5.020  12.538  0.6414 -0.6484  0.3752
 1733TIP3   OH226613   2.741   1.665   2.198 -0.0138  0.4147 -0.4143
 1733TIP3    H126614   2.720   1.744   2.149  0.0086 -0.3542 -1.6856
 1733TIP3    H226615   2.672   1.603   2.176 -0.5701  0.3719  1.3241
 1734TIP3   OH226616   2.010   0.476   0.230 -0.7641  0.1539 -0.2884
 1734TIP3    H126617   2.017   0.416   0.304  1.6690  1.0921  0.2956
 1734TIP3    H226618   2.011   0.420   0.153  0.8106 -0.6340  0.2724
 1735TIP3   OH226619   5.658   0.419  15.854 -0.2969  0.7144  0.8841
 1735TIP3    H126620   5.565   0.437  15.867 -0.8279 -1.6609  0.6235
 1735TIP3    H226621   5.670   0.331  15.889  1.4246  0.2361 -0.8616
 1736TIP3   OH226622   3.239   2.621   0.754  0.1659  0.1139  1.0399
 1736TIP3    H126623   3.245   2.691   0.819 -0.4386 -0.1557  1.3937
 1736TIP3    H226624   3.170   2.651   0.694 -1.1123 -0.8285  2.0116
 1737TIP3   OH226625   5.061   3.033   3.114 -0.4106 -0.3349 -0.3373
 1737TIP3    H126626   5.123   3.080   3.058  0.5412 -0.9939  0.1459
 1737TIP3    H226627   5.068   3.077   3.199 -0.7277 -0.3075 -0.3239
 1738TIP3   OH226628   4.752   0.776  16.647 -0.8488 -0.0630 -0.1105
 1738TIP3    H126629   4.719   0.696  16.687 -1.0813 -0.7564 -1.6629
 1738TIP3    H226630   4.682   0.804  16.588 -0.7499  1.2763  0.3818
 1739TIP3   OH226631   0.579   1.628  12.692 -0.0058  0.1874  0.0562
 1739TIP3    H126632   0.489   1.655  12.672 -0.6384 -0.8866  1.3715
 1739TIP3    H226633   0.581   1.621  12.787  1.0657 -1.2044 -0.0496
 1740TIP3   OH226634   1.065   1.650  12.595  0.3912  0.1719  0.0511
 1740TIP3    H126635   1.156   1.662  12.622  1.1031 -0.3567 -2.0078
 1740TIP3    H226636   1.071   1.599  12.515 -1.6931  0.6947 -0.4527
 1741TIP3   OH226637   4.977   4.275   0.680 -0.1379  0.2294  0.0070
 1741TIP3    H126638   4.890   4.236   0.682  0.5596 -1.3356  1.6802
 1741TIP3    H226639   4.964   4.367   0.704 -1.4642  0.3492 -1.1184
 1742TIP3   OH226640   6.252   1.329   2.851  0.2692  0.1337  0.2371
 1742TIP3    H126641   6.306   1.387   2.906  0.8445 -0.4416  0.2883
 1742TIP3    H226642   6.277   1.241   2.878 -0.4969 -0.1417  0.0524
 1743TIP3   OH226643   1.542   3.581  15.663  0.2449  0.3136 -0.4000
 1743TIP3    H126644   1.490   3.559  15.740  0.4556  1.2782  0.0218
 1743TIP3    H226645   1.511   3.667  15.637 -2.6700 -1.5969 -3.7989
 1744TIP3   OH226646   0.068   1.622  16.717 -0.5031  0.6766 -0.2333
 1744TIP3    H126647   0.061   1.716  16.701 -2.0406  0.8469  1.3931
 1744TIP3    H226648   0.061   1.613  16.812  0.2071 -1.0415 -0.3266
 1745TIP3   OH226649   2.765   5.309   3.062  0.0870 -0.3363 -0.4729
 1745TIP3    H126650   2.730   5.222   3.041  0.5247 -0.2270 -1.6715
 1745TIP3    H226651   2.851   5.311   3.019 -0.6640  1.3511 -1.9090
 1746TIP3   OH226652   3.355   4.627   3.793  0.4751  0.3858 -0.0783
 1746TIP3    H126653   3.403   4.580   3.861 -1.5077  0.4988  1.4386
 1746TIP3    H226654   3.285   4.567   3.767  0.4640  0.8439 -1.1399
 1747TIP3   OH226655   0.655   5.984  14.375  0.2225  0.0754  0.2140
 1747TIP3    H126656   0.642   6.070  14.416  1.5390  0.8188 -0.8686
 1747TIP3    H226657   0.746   5.986  14.346 -0.4545 -0.7209 -2.0308
 1748TIP3   OH226658   6.005   1.077  12.874 -0.2484  0.1239  0.1335
 1748TIP3    H126659   5.971   0.992  12.901 -1.1269  1.0731  2.1866
 1748TIP3    H226660   5.945   1.108  12.806 -1.0805 -0.0363  0.7918
 1749TIP3   OH226661   5.162   4.709   4.818  0.0889  0.4437  0.1823
 1749TIP3    H126662   5.099   4.640   4.799  0.0178  0.6886 -0.4912
 1749TIP3    H226663   5.226   4.705   4.746  0.0025  1.1596  0.0576
 1750TIP3   OH226664   1.534   0.971  16.964 -0.2051  0.5584 -0.2841
 1750TIP3    H126665   1.514   0.890  17.011  0.5124  0.6260  0.1425
 1750TIP3    H226666   1.458   0.985  16.907 -1.6543  1.1763  1.7740
 1751TIP3   OH226667   1.995   5.777   5.530 -0.0143  0.2784  0.1621
 1751TIP3    H126668   2.067   5.790   5.468  0.1578 -0.4747  0.1989
 1751TIP3    H226669   2.009   5.688   5.564 -1.2845 -0.0802 -0.2522
 1752TIP3   OH226670   0.716   6.386  15.037 -0.2059 -0.3318  0.9261
 1752TIP3    H126671   0.710   6.391  14.941 -0.9282 -0.9848  0.9369
 1752TIP3    H226672   0.805   6.357  15.054 -0.4912 -1.5147  0.4094
 1753TIP3   OH226673   4.079   4.483  11.451 -0.1795  0.0511 -0.7230
 1753TIP3    H126674   4.034   4.515  11.373 -0.2667  0.9468 -0.3107
 1753TIP3    H226675   4.100   4.562  11.501  1.0754 -0.4150 -0.4846
 1754TIP3   OH226676   4.469   4.773   3.999 -0.1333 -0.9446  0.3636
 1754TIP3    H126677   4.469   4.690   4.047  0.4978 -0.2414  1.5778
 1754TIP3    H226678   4.491   4.839   4.064  0.9934 -0.0084 -0.9382
 1755TIP3   OH226679   4.707   1.729   0.281 -0.3384 -0.0665  0.0434
 1755TIP3    H126680   4.615   1.732   0.306 -0.1668  0.8093  0.5618
 1755TIP3    H226681   4.722   1.637   0.257 -0.8528 -0.6367  1.8396
 1756TIP3   OH226682   4.060   0.926   0.558  0.5073  0.5395 -0.6279
 1756TIP3    H126683   4.151   0.951   0.541  0.6076  0.5160 -0.1333
 1756TIP3    H226684   4.016   1.008   0.580  0.5102  0.4872 -0.4257
 1757TIP3   OH226685   6.546   3.422  16.381 -0.4621 -0.2345  0.0319
 1757TIP3    H126686   6.601   3.347  16.359  0.1366  0.1766  0.1196
 1757TIP3    H226687   6.493   3.392  16.455 -0.2501 -0.5873  0.0407
 1758TIP3   OH226688   5.202   2.217  14.614  0.3125 -0.2332  0.6502
 1758TIP3    H126689   5.190   2.127  14.645 -1.0144  0.5484  2.4757
 1758TIP3    H226690   5.296   2.233  14.623  0.4162 -1.1276  1.2028
 1759TIP3   OH226691   2.760   6.463  13.912  0.2703 -0.6440 -0.5938
 1759TIP3    H126692   2.712   6.515  13.847  0.6124 -0.8636 -1.0296
 1759TIP3    H226693   2.804   6.396  13.860 -1.7808 -2.6359  0.1392
 1760TIP3   OH226694   4.679   6.178   0.844 -0.1590  0.4739 -0.2465
 1760TIP3    H126695   4.667   6.201   0.752  2.6015  1.4133 -0.4261
 1760TIP3    H226696   4.766   6.213   0.867 -0.1213 -1.0879  2.2778
 1761TIP3   OH226697   1.244   6.665   1.224 -0.6417  0.1396 -0.1853
 1761TIP3    H126698   1.326   6.683   1.177 -0.7794  1.6527  0.1383
 1761TIP3    H226699   1.272   6.642   1.312 -0.4548 -1.4510 -0.6460
 1762TIP3   OH226700   1.671   0.679  14.641  0.4168 -0.0757  0.0653
 1762TIP3    H126701   1.578   0.661  14.627 -0.1706  2.4875  0.4103
 1762TIP3    H226702   1.707   0.596  14.672 -1.4481 -1.5023 -1.4740
 1763TIP3   OH226703   3.853   1.618  12.355  0.7518  0.1491  0.2953
 1763TIP3    H126704   3.804   1.551  12.403  0.0974 -0.5558 -1.3083
 1763TIP3    H226705   3.809   1.700  12.376  0.2886 -0.1912  0.6691
 1764TIP3   OH226706   2.538   1.962   4.407  0.0561  0.0765  0.2526
 1764TIP3    H126707   2.584   1.880   4.422 -1.8896 -0.5895  2.9608
 1764TIP3    H226708   2.445   1.939   4.409 -0.5571  2.5023  2.2943
 1765TIP3   OH226709   4.118   3.293   0.761  0.6938  0.2042 -0.0364
 1765TIP3    H126710   4.158   3.206   0.759  0.4502  0.0459  1.3064
 1765TIP3    H226711   4.191   3.352   0.776  0.9229  0.2725 -1.4473
 1766TIP3   OH226712   4.052   3.083  12.085  0.3104  0.3632  0.9405
 1766TIP3    H126713   3.988   3.045  12.146 -0.6542  1.3056  0.5212
 1766TIP3    H226714   4.048   3.027  12.008 -1.2170  1.3902  0.2646
 1767TIP3   OH226715   2.461   3.875   5.228 -0.5481 -0.4568 -0.6959
 1767TIP3    H126716   2.542   3.825   5.239 -1.1171 -1.4029 -0.7239
 1767TIP3    H226717   2.448   3.919   5.312  0.3486  0.2582 -0.9167
 1768TIP3   OH226718   6.695   0.127  14.219 -0.5973 -0.1428 -0.3639
 1768TIP3    H126719   6.722   0.086  14.301 -2.2757  1.2100  0.8962
 1768TIP3    H226720   6.750   0.086  14.152  2.0363 -0.0069  1.6353
 1769TIP3   OH226721   2.754   1.299   1.174  0.2488 -0.2407  0.1690
 1769TIP3    H126722   2.801   1.347   1.105  2.0905 -1.0608  0.8093
 1769TIP3    H226723   2.754   1.359   1.249  0.5747 -0.3674  0.2714
 1770TIP3   OH226724   1.868   2.904  10.359 -0.3984 -0.2516  0.2792
 1770TIP3    H126725   1.863   2.830  10.299  1.9520  0.5246 -0.9250
 1770TIP3    H226726   1.956   2.900  10.396 -0.2811  1.8765  0.2832
 1771TIP3   OH226727   6.078   6.329   3.577 -0.4813  0.1364 -0.0637
 1771TIP3    H126728   6.099   6.397   3.641  2.2063 -1.1034  0.4295
 1771TIP3    H226729   6.108   6.248   3.617 -0.0262 -0.8441 -2.3049
 1772TIP3   OH226730   1.319   5.740   3.798  0.0105 -0.5284 -0.7361
 1772TIP3    H126731   1.368   5.679   3.853  1.8995  1.4402 -0.1921
 1772TIP3    H226732   1.276   5.799   3.860 -0.5908 -0.3636 -1.3035
 1773TIP3   OH226733   0.727   3.460   2.078 -0.3146 -0.4057 -0.0404
 1773TIP3    H126734   0.692   3.449   2.167  1.1774 -0.7557  0.5115
 1773TIP3    H226735   0.663   3.516   2.034 -0.9278 -0.0030  1.3361
 1774TIP3   OH226736   4.318   6.177  11.396  0.3395 -0.1238 -0.4066
 1774TIP3    H126737   4.285   6.263  11.374  0.4005 -0.3218 -1.2925
 1774TIP3    H226738   4.391   6.193  11.456  0.2599  0.4204 -0.4604
 1775TIP3   OH226739   6.344   5.096  15.008 -0.2254 -0.0600  0.1378
 1775TIP3    H126740   6.305   5.023  14.960 -0.5899  0.8842 -1.0467
 1775TIP3    H226741   6.415   5.127  14.952  1.6152 -1.1304  1.8225
 1776TIP3   OH226742   5.526   3.234   3.830  0.2910  0.3521 -0.3502
 1776TIP3    H126743   5.456   3.298   3.815  0.3755  0.3875 -0.5792
 1776TIP3    H226744   5.606   3.285   3.831  0.1990  0.4972  1.2165
 1777TIP3   OH226745   2.353   4.627   0.171 -0.1858  0.7798 -0.9129
 1777TIP3    H126746   2.277   4.647   0.117 -1.4476  0.0384  0.5374
 1777TIP3    H226747   2.318   4.575   0.243  1.7213  0.3270 -0.2811
 1778TIP3   OH226748   4.370   0.321   0.553 -0.0237  0.1958 -0.7924
 1778TIP3    H126749   4.375   0.341   0.647 -2.5315  0.7918 -0.7490
 1778TIP3    H226750   4.457   0.343   0.520  0.9503 -0.1514  1.4054
 1779TIP3   OH226751   1.035   4.076  12.569 -0.0157 -0.7992 -0.1654
 1779TIP3    H126752   1.130   4.085  12.565  0.1285 -1.1206  1.8907
 1779TIP3    H226753   1.009   4.135  12.640 -1.3925 -0.4528 -0.9393
 1780TIP3   OH226754   3.604   2.186  16.512  0.0136 -0.2280 -0.0799
 1780TIP3    H126755   3.657   2.260  16.483 -0.7730  0.0035 -0.9446
 1780TIP3    H226756   3.537   2.224  16.569  2.2337 -0.8133  3.0539
 1781TIP3   OH226757   1.825   2.421   1.718  0.1506 -0.3346  0.5481
 1781TIP3    H126758   1.869   2.338   1.732  1.0624 -0.1985 -1.2908
 1781TIP3    H226759   1.744   2.398   1.673  0.2777 -0.2695  0.2803
 1782TIP3   OH226760   6.103   2.309  10.657  0.1913 -0.4201 -0.0558
 1782TIP3    H126761   6.114   2.379  10.721  0.5265  0.6463 -1.2502
 1782TIP3    H226762   6.190   2.273  10.645  0.0190 -1.0371  0.5562
 1783TIP3   OH226763   0.144   2.301   0.633  0.0444 -0.5245  0.3553
 1783TIP3    H126764   0.126   2.338   0.546 -1.5948  0.6270  1.1556
 1783TIP3    H226765   0.187   2.218   0.615  1.7994  0.7500 -1.5273
 1784TIP3   OH226766   2.365   3.430   1.439  0.2982 -0.2895  0.3623
 1784TIP3    H126767   2.434   3.417   1.375 -0.9604  1.5676 -1.4339
 1784TIP3    H226768   2.405   3.482   1.508  0.1008  2.9956 -1.8760
 1785TIP3   OH226769   0.394   4.667   1.021 -0.2881 -0.1506  0.5721
 1785TIP3    H126770   0.433   4.704   1.101 -1.7845  1.6353  0.4911
 1785TIP3    H226771   0.444   4.706   0.950 -1.3162  1.0774  0.5165
 1786TIP3   OH226772   3.151   2.923   6.265  0.6331 -0.4823 -0.4301
 1786TIP3    H126773   3.100   2.872   6.328  1.3583 -1.4378 -0.5903
 1786TIP3    H226774   3.206   2.980   6.319  1.8511 -1.8836 -0.1486
 1787TIP3   OH226775   3.122   3.917   4.372  0.2215 -1.0173 -0.6736
 1787TIP3    H126776   3.121   3.975   4.448  0.5633 -1.0733 -0.6267
 1787TIP3    H226777   3.072   3.840   4.400  0.3398 -1.0346 -0.5069
 1788TIP3   OH226778   4.176   5.772   3.215  0.2361  0.5548 -0.3601
 1788TIP3    H126779   4.247   5.714   3.239 -1.2760 -0.9114  0.6776
 1788TIP3    H226780   4.198   5.856   3.257  2.5842  0.8992 -2.1421
 1789TIP3   OH226781   6.016   3.048   4.658  0.4076 -0.0914  0.4705
 1789TIP3    H126782   5.933   3.008   4.634  0.3092  0.6094 -0.3777
 1789TIP3    H226783   5.999   3.091   4.742 -0.5280  1.3805 -0.4438
 1790TIP3   OH226784   1.268   3.925  13.645  0.4699 -0.1049  0.4531
 1790TIP3    H126785   1.183   3.941  13.684 -0.0132 -1.1081 -0.1560
 1790TIP3    H226786   1.277   3.830  13.646  1.1743 -0.0545 -0.3389
 1791TIP3   OH226787   4.450   1.680   0.362  0.4974  0.2064  0.3659
 1791TIP3    H126788   4.387   1.612   0.385 -0.1667  0.3022 -1.1186
 1791TIP3    H226789   4.411   1.762   0.393  0.3420  0.1537  0.3064
 1792TIP3   OH226790   4.313   0.258   5.674 -0.9410 -0.2787  0.1426
 1792TIP3    H126791   4.257   0.189   5.637 -2.6926  0.7630  0.7838
 1792TIP3    H226792   4.335   0.226   5.762 -1.9714  0.0838  0.5399
 1793TIP3   OH226793   2.260   0.694  15.807 -0.4002  0.5622 -0.1140
 1793TIP3    H126794   2.165   0.693  15.812 -0.3228  0.2770  1.8944
 1793TIP3    H226795   2.285   0.780  15.842  0.1321  0.1084  0.6170
 1794TIP3   OH226796   2.443   6.466  14.307  0.0850  0.1821 -0.6577
 1794TIP3    H126797   2.530   6.502  14.290 -0.5231  0.7683 -2.5502
 1794TIP3    H226798   2.453   6.372  14.292 -0.2570  0.5832 -3.6660
 1795TIP3   OH226799   4.211   1.752  16.521  0.1332  0.3533 -0.7373
 1795TIP3    H126800   4.251   1.716  16.442 -0.4169 -0.4001 -0.6778
 1795TIP3    H226801   4.133   1.699  16.535  1.1343 -0.6435  1.2636
 1796TIP3   OH226802   6.296   5.547   4.346 -0.4004 -0.4585 -0.1851
 1796TIP3    H126803   6.353   5.563   4.420 -0.1130  1.4679 -0.7872
 1796TIP3    H226804   6.345   5.487   4.290  1.5092  1.9644 -1.1872
 1797TIP3   OH226805   0.732   1.309   1.344 -0.2718  0.2647  0.1069
 1797TIP3    H126806   0.741   1.360   1.425  0.6846 -1.3296  1.0217
 1797TIP3    H226807   0.642   1.325   1.316 -2.3453 -3.1335  4.2509
 1798TIP3   OH226808   4.243   0.157   1.273  0.0256  0.5858  0.0391
 1798TIP3    H126809   4.295   0.224   1.229  1.1220  0.9845  1.8771
 1798TIP3    H226810   4.230   0.089   1.207  0.8376  1.5695 -1.1590
 1799TIP3   OH226811   4.459   5.483  13.591  0.1849  0.1838  0.1495
 1799TIP3    H126812   4.461   5.476  13.686  0.7167  1.8530  0.2672
 1799TIP3    H226813   4.548   5.508  13.567  0.7375 -2.6915 -1.0175
 1800TIP3   OH226814   2.820   0.058   0.628 -0.4288  0.0956 -1.0492
 1800TIP3    H126815   2.858   0.108   0.556 -1.6261 -0.6698 -2.2399
 1800TIP3    H226816   2.787  -0.022   0.587 -2.3461  0.2569  0.1269
 1801TIP3   OH226817   1.892   6.018   6.314 -0.2699  0.3477 -0.3464
 1801TIP3    H126818   1.954   6.081   6.351  0.5166  1.0441 -2.7801
 1801TIP3    H226819   1.917   5.934   6.352  1.2473  0.8549 -0.2173
 1802TIP3   OH226820   6.110   1.048   4.492  1.0834 -0.0355 -0.2702
 1802TIP3    H126821   6.146   0.983   4.432  1.6909 -1.2326  1.3613
 1802TIP3    H226822   6.144   1.023   4.578  0.1058  1.5579  0.6027
 1803TIP3   OH226823   3.290   0.992   2.424  0.2152  0.3251 -0.6364
 1803TIP3    H126824   3.367   0.999   2.367  0.1884  2.8615 -0.4364
 1803TIP3    H226825   3.325   0.962   2.508  0.5172 -1.5726 -1.4037
 1804TIP3   OH226826   5.213   6.253  12.792 -0.3926 -0.0621 -0.5212
 1804TIP3    H126827   5.173   6.211  12.868  0.8274  0.4800  0.4323
 1804TIP3    H226828   5.157   6.227  12.718 -2.6357  0.8716  0.7964
 1805TIP3   OH226829   1.218   6.281  13.180  0.0014 -0.2391 -0.2073
 1805TIP3    H126830   1.125   6.262  13.168  0.1310 -0.9964 -0.0321
 1805TIP3    H226831   1.220   6.369  13.218 -0.7601 -1.1250  2.0101
 1806TIP3   OH226832   0.165   5.829  14.687  0.2045 -0.1518 -0.1264
 1806TIP3    H126833   0.082   5.792  14.658  0.4739 -0.5230 -0.4227
 1806TIP3    H226834   0.217   5.754  14.713  0.7229  0.0199 -0.6461
 1807TIP3   OH226835   5.266   6.004   6.264 -0.4267  0.7252 -0.0008
 1807TIP3    H126836   5.238   5.916   6.290 -0.3315  0.2864 -1.3502
 1807TIP3    H226837   5.359   6.007   6.286  0.1446 -0.3755 -2.1645
 1808TIP3   OH226838   1.232   6.022   0.173  0.1617  0.3959 -0.2397
 1808TIP3    H126839   1.247   5.989   0.085 -0.0492  0.0613 -0.1511
 1808TIP3    H226840   1.262   5.951   0.231  0.1256  0.5393 -0.0430
 1809TIP3   OH226841   0.883   1.723  15.049  0.5477  0.6855 -0.0310
 1809TIP3    H126842   0.891   1.732  15.144  0.7988 -0.0471  0.0128
 1809TIP3    H226843   0.913   1.808  15.015  0.0106  1.1244  0.5581
 1810TIP3   OH226844   1.562   5.869  16.229  0.0143  0.0756  0.1016
 1810TIP3    H126845   1.534   5.872  16.320 -2.2753  2.6755 -0.6083
 1810TIP3    H226846   1.636   5.929  16.224  1.3011 -1.4326  0.5632
 1811TIP3   OH226847   1.658   4.368  12.154  0.3508  0.4533  0.5249
 1811TIP3    H126848   1.718   4.394  12.224 -0.7836  1.6311  1.0757
 1811TIP3    H226849   1.642   4.275  12.170 -0.7104  0.9424  2.4710
 1812TIP3   OH226850   5.265   2.978  16.993 -0.1788  0.1280  0.2934
 1812TIP3    H126851   5.266   2.887  17.025 -2.1425  0.3330  1.0014
 1812TIP3    H226852   5.324   2.977  16.918  0.6481 -1.5063  0.9346
 1813TIP3   OH226853   3.976   0.262  16.416 -0.7332  0.0728 -0.1080
 1813TIP3    H126854   4.045   0.196  16.406 -1.8998 -0.8697 -2.4266
 1813TIP3    H226855   3.993   0.324  16.345 -1.3705  0.6771  0.2671
 1814TIP3   OH226856   1.756   0.407  12.448  0.5576 -0.1985 -0.1674
 1814TIP3    H126857   1.836   0.361  12.422  0.4920 -0.4284  0.0418
 1814TIP3    H226858   1.737   0.375  12.536  0.2147 -0.1649 -0.2302
 1815TIP3   OH226859   0.435   3.406   3.453  0.4747  0.6291 -0.3517
 1815TIP3    H126860   0.371   3.423   3.522  1.3938 -1.6355  1.1096
 1815TIP3    H226861   0.391   3.344   3.395  1.0406 -0.3075  0.2161
 1816TIP3   OH226862   5.942   5.516   2.608  0.2703 -0.2864 -0.2484
 1816TIP3    H126863   5.991   5.526   2.527  0.9575  0.4028  0.2432
 1816TIP3    H226864   5.958   5.426   2.635 -0.9327 -0.8883 -1.4921
 1817TIP3   OH226865   1.330   3.078  11.570  0.5195 -0.2220  0.0532
 1817TIP3    H126866   1.369   2.994  11.545  0.1336 -0.9531  1.8695
 1817TIP3    H226867   1.330   3.128  11.489  2.5537 -1.2621 -0.6429
 1818TIP3   OH226868   2.889   0.009  15.821  0.5924  0.3677  0.1122
 1818TIP3    H126869   2.859   0.064  15.894 -0.7402 -1.5954  1.0814
 1818TIP3    H226870   2.978   0.040  15.803  1.0256  0.7547  2.7332
 1819TIP3   OH226871   0.628   4.112   4.279 -0.6843  0.1580 -0.4650
 1819TIP3    H126872   0.704   4.166   4.257 -0.5524 -0.2371 -0.9922
 1819TIP3    H226873   0.577   4.166   4.340  1.1600 -0.4644  1.6672
 1820TIP3   OH226874   5.627   3.105   0.724 -0.4345  0.3479 -0.1061
 1820TIP3    H126875   5.576   3.084   0.645  1.2395  0.5488 -1.2620
 1820TIP3    H226876   5.697   3.041   0.725  1.2593  2.1496 -0.3852
 1821TIP3   OH226877   5.070   3.751  16.978  0.0006  0.6860  0.2380
 1821TIP3    H126878   4.990   3.760  16.926  1.6896  0.3150 -2.4968
 1821TIP3    H226879   5.042   3.701  17.055 -2.1303 -0.6440 -1.3229
 1822TIP3   OH226880   6.650   2.501  10.293  0.6933  0.1036 -0.3644
 1822TIP3    H126881   6.657   2.442  10.218  3.1352 -0.0557 -0.0664
 1822TIP3    H226882   6.660   2.443  10.369  1.3627  0.6715 -0.0224
 1823TIP3   OH226883   0.412   5.904   0.342 -0.3887 -0.1526 -0.1728
 1823TIP3    H126884   0.330   5.948   0.362  1.0830  1.2805  3.1134
 1823TIP3    H226885   0.470   5.974   0.313  0.2487 -0.8459 -0.5966
 1824TIP3   OH226886   1.263   2.852  13.676  0.2316  0.3578  0.2376
 1824TIP3    H126887   1.242   2.903  13.754 -0.4436  1.2806 -0.5367
 1824TIP3    H226888   1.182   2.806  13.654  0.5336 -0.2107  0.3112
 1825TIP3   OH226889   3.475   2.485   5.581  0.4857 -0.3792 -0.6427
 1825TIP3    H126890   3.494   2.392   5.591 -1.1021 -0.9000 -2.1288
 1825TIP3    H226891   3.399   2.501   5.637 -0.0690 -0.2898 -1.4108
 1826TIP3   OH226892   2.617   6.171   0.114  0.7651  0.5741 -0.7045
 1826TIP3    H126893   2.522   6.175   0.122  0.8467  1.8228 -0.2568
 1826TIP3    H226894   2.647   6.135   0.198  0.7614  1.3578 -0.3614
 1827TIP3   OH226895   4.185   1.389  12.912 -0.2536 -0.3060  0.2023
 1827TIP3    H126896   4.248   1.457  12.887  0.8634 -0.9338  1.2321
 1827TIP3    H226897   4.119   1.391  12.843  0.7781  0.5213 -0.7902
 1828TIP3   OH226898   4.513   0.430   4.583 -0.0763 -0.3929  0.4163
 1828TIP3    H126899   4.438   0.393   4.629 -0.9815 -0.7297 -1.2575
 1828TIP3    H226900   4.483   0.441   4.493  1.4223  0.8567  0.0321
 1829TIP3   OH226901   0.896   2.174  11.540  0.2309  0.5438 -0.3084
 1829TIP3    H126902   0.837   2.249  11.528 -0.4885  0.0704  0.2151
 1829TIP3    H226903   0.970   2.209  11.589  0.2056  1.0626 -0.6353
 1830TIP3   OH226904   0.154   1.632  10.761  0.5729 -0.0563 -0.5122
 1830TIP3    H126905   0.120   1.567  10.822 -0.2164  0.4353 -0.4283
 1830TIP3    H226906   0.206   1.581  10.699 -1.0177 -0.9232 -1.1603
 1831TIP3   OH226907   1.746   2.544   2.254  0.1498  0.3073 -0.6196
 1831TIP3    H126908   1.735   2.629   2.296 -1.1217 -0.0363 -0.2396
 1831TIP3    H226909   1.782   2.564   2.168  4.1664  0.9598  1.0828
 1832TIP3   OH226910   4.834   4.512   4.281  0.3877 -0.3622  0.5330
 1832TIP3    H126911   4.867   4.501   4.371  2.1435  1.3962  0.1422
 1832TIP3    H226912   4.859   4.602   4.258 -0.6671 -0.5699 -1.4718
 1833TIP3   OH226913   2.936   5.481   4.609 -0.3474 -0.2156  0.5117
 1833TIP3    H126914   3.013   5.446   4.564 -0.2208 -0.5770  1.0089
 1833TIP3    H226915   2.906   5.552   4.553 -1.8810 -2.4822 -1.6606
 1834TIP3   OH226916   3.628   2.252  12.316  0.2856 -0.1039  0.2140
 1834TIP3    H126917   3.568   2.315  12.278 -0.1624 -1.1851 -0.9134
 1834TIP3    H226918   3.697   2.242  12.250 -1.2800 -3.1329 -1.0304
 1835TIP3   OH226919   6.380   5.595   1.919  0.3657  0.1325  0.6654
 1835TIP3    H126920   6.436   5.548   1.980  0.8345 -0.1638  0.0190
 1835TIP3    H226921   6.356   5.530   1.852  0.1386  0.5325  0.3487
 1836TIP3   OH226922   1.947   5.416   4.900  0.6153  0.2993 -0.1959
 1836TIP3    H126923   1.973   5.507   4.883  1.2678  0.3901  1.1849
 1836TIP3    H226924   1.871   5.423   4.957  0.9364 -0.0150  0.2770
 1837TIP3   OH226925   6.327   5.191   5.464  0.1637  0.0192 -0.0923
 1837TIP3    H126926   6.236   5.222   5.475 -0.2610 -1.4974  0.7373
 1837TIP3    H226927   6.338   5.185   5.369 -1.2097 -1.4834 -0.1831
 1838TIP3   OH226928   4.019   5.167  12.745 -0.1120  0.5031  0.5720
 1838TIP3    H126929   4.000   5.166  12.651  0.0607 -1.4716  0.5409
 1838TIP3    H226930   4.062   5.251  12.760  1.2824  0.1730 -1.4049
 1839TIP3   OH226931   4.437   0.589   2.812 -0.4660 -0.1072 -0.0672
 1839TIP3    H126932   4.382   0.574   2.890 -1.2059  0.2722 -0.5130
 1839TIP3    H226933   4.494   0.512   2.808 -1.6677 -1.0017 -0.1784
 1840TIP3   OH226934   3.041   2.447  12.136  0.4538  0.2536 -0.6078
 1840TIP3    H126935   3.125   2.420  12.100  0.2804  0.8756 -1.4932
 1840TIP3    H226936   2.977   2.418  12.071 -0.1886 -1.6880  0.8173
 1841TIP3   OH226937   6.230   1.420   3.835 -0.6412 -0.4957  0.3554
 1841TIP3    H126938   6.281   1.339   3.831  0.7604  0.3432  0.6304
 1841TIP3    H226939   6.245   1.462   3.751  0.8338  0.7432  1.2083
 1842TIP3   OH226940   6.066   1.229   5.506 -0.4179 -0.3825 -0.1001
 1842TIP3    H126941   5.985   1.218   5.456 -1.4564 -1.3235  1.7293
 1842TIP3    H226942   6.133   1.243   5.439 -2.0712  0.3632 -1.6487
 1843TIP3   OH226943   5.072   6.254  12.111  0.0019 -0.2522 -0.1798
 1843TIP3    H126944   5.077   6.269  12.205 -0.0195 -0.9423 -0.0693
 1843TIP3    H226945   5.139   6.312  12.074 -0.2130  0.2565  0.2332
 1844TIP3   OH226946   2.074   5.078  11.970  0.0554 -1.0394  0.7630
 1844TIP3    H126947   2.074   5.143  11.899 -1.4526 -0.8771  0.8996
 1844TIP3    H226948   2.032   5.001  11.932 -1.2400 -0.7707  1.6223
 1845TIP3   OH226949   6.067   2.062  16.542 -0.8567 -0.2060  0.3455
 1845TIP3    H126950   6.100   1.988  16.594  0.8183  0.5628  0.3867
 1845TIP3    H226951   6.052   2.131  16.606  0.7078  0.5690 -0.1060
 1846TIP3   OH226952   6.365   0.192   0.530  0.0601 -0.2719 -0.1816
 1846TIP3    H126953   6.388   0.121   0.591  0.6265  0.6137  0.6397
 1846TIP3    H226954   6.288   0.159   0.484  0.6167 -1.6430 -0.1672
 1847TIP3   OH226955   3.164   2.394  11.775 -0.4607  0.3707 -0.4152
 1847TIP3    H126956   3.082   2.383  11.824 -1.0751  0.8067 -1.3304
 1847TIP3    H226957   3.195   2.481  11.802 -0.1702  0.1087  0.1099
 1848TIP3   OH226958   5.616   5.972   3.184 -0.2008 -0.4326  0.2202
 1848TIP3    H126959   5.678   5.990   3.113  0.0798 -1.6124  0.1527
 1848TIP3    H226960   5.531   5.993   3.146  0.0789  0.3439  0.0156
 1849TIP3   OH226961   4.986   0.259   5.968 -0.1635  0.2627 -0.2792
 1849TIP3    H126962   4.939   0.288   5.890 -0.4086  1.1874  0.2107
 1849TIP3    H226963   5.073   0.299   5.960 -0.1333  0.2213 -0.1595
 1850TIP3   OH226964   6.585   3.308  13.740  0.1134  0.0805  0.0242
 1850TIP3    H126965   6.495   3.274  13.735 -0.2557  0.9560  0.5656
 1850TIP3    H226966   6.638   3.241  13.698 -0.4998 -1.5723  1.7833
 1851TIP3   OH226967   3.099   2.039   1.286  0.3890 -0.2546 -0.4982
 1851TIP3    H126968   3.115   2.122   1.242  0.4556 -0.7574 -1.4280
 1851TIP3    H226969   3.011   2.013   1.258 -0.2118  0.2012  0.9187
 1852TIP3   OH226970   2.540   2.635   3.493  0.3685 -0.1713 -0.0045
 1852TIP3    H126971   2.608   2.697   3.518  1.1698  0.1131 -2.7843
 1852TIP3    H226972   2.586   2.558   3.461 -0.6193 -0.8620  0.1857
 1853TIP3   OH226973   3.765   3.955   3.818 -0.6490 -0.6788  0.0254
 1853TIP3    H126974   3.841   3.901   3.840 -0.2045 -0.8426 -1.8400
 1853TIP3    H226975   3.790   4.000   3.738 -0.7729  2.8443  1.8913
 1854TIP3   OH226976   1.326   1.316   1.023  0.0756  0.1460  0.2182
 1854TIP3    H126977   1.311   1.225   1.000 -2.2594  0.4737  0.3132
 1854TIP3    H226978   1.271   1.366   0.963  1.7799  1.5484 -0.2348
 1855TIP3   OH226979   5.596   3.700   3.395  0.3561 -0.5320 -0.0115
 1855TIP3    H126980   5.665   3.652   3.441  2.4967  2.9009  0.5425
 1855TIP3    H226981   5.538   3.732   3.464 -0.7564 -1.7762 -0.3401
 1856TIP3   OH226982   0.286   6.405  12.953  0.0072 -0.2939 -0.3526
 1856TIP3    H126983   0.306   6.324  12.999 -1.1401 -0.2468  0.2489
 1856TIP3    H226984   0.272   6.378  12.862  0.5977 -0.6262 -0.3481
 1857TIP3   OH226985   1.306   4.176   1.065  0.0357  0.1373 -0.3793
 1857TIP3    H126986   1.379   4.190   1.126  0.2140 -0.8365 -0.3526
 1857TIP3    H226987   1.302   4.256   1.013  0.8567  0.3691 -0.0946
 1858TIP3   OH226988   4.039   4.048  15.517  0.0261 -0.1793 -0.1370
 1858TIP3    H126989   4.125   4.005  15.516 -0.4023 -1.0327 -1.0296
 1858TIP3    H226990   3.991   4.008  15.445 -2.3302 -2.1079  2.3978
 1859TIP3   OH226991   2.637   3.177   3.777 -0.0696 -0.3103 -0.1533
 1859TIP3    H126992   2.569   3.243   3.769 -0.6464 -0.7727  0.8652
 1859TIP3    H226993   2.719   3.227   3.782 -0.5043  0.3188  0.6596
 1860TIP3   OH226994   1.022   2.322   4.735 -0.9814 -0.3274 -0.6793
 1860TIP3    H126995   1.040   2.229   4.746 -0.7768 -0.4372 -1.8861
 1860TIP3    H226996   0.939   2.336   4.779 -1.4521 -1.2629 -1.2668
 1861TIP3   OH226997   5.665   1.107  15.534  0.7271 -0.3240  0.3801
 1861TIP3    H126998   5.690   1.134  15.622  1.0628  0.4631  0.0458
 1861TIP3    H226999   5.657   1.189  15.485  0.0375 -0.7226 -0.1873
 1862TIP3   OH227000   0.735   5.799  13.340  0.0513 -0.3949 -0.5281
 1862TIP3    H127001   0.702   5.714  13.312 -1.3601  0.5874 -1.9215
 1862TIP3    H227002   0.735   5.795  13.435  2.2233 -2.7730 -0.5743
 1863TIP3   OH227003   0.100   2.153  13.831  0.0420  0.2021  0.1971
 1863TIP3    H127004   0.102   2.244  13.801  1.6918 -0.0976 -0.6080
 1863TIP3    H227005   0.181   2.142  13.879  0.8723 -1.4677 -1.5419
 1864TIP3   OH227006   3.599   4.598   3.666 -0.3230  0.3603  0.4867
 1864TIP3    H127007   3.557   4.525   3.622  1.6386 -1.1664  1.0797
 1864TIP3    H227008   3.532   4.633   3.725 -1.8605  0.2698 -1.1749
 1865TIP3   OH227009   4.046   2.523   3.475 -0.0113  0.4615  0.3916
 1865TIP3    H127010   4.081   2.597   3.424 -0.1198  1.6458  1.9900
 1865TIP3    H227011   3.953   2.543   3.484 -0.3090 -0.5762 -0.3329
 1866TIP3   OH227012   6.589   5.623  13.071 -0.0252 -0.5077 -0.5397
 1866TIP3    H127013   6.593   5.648  12.978  3.1517  0.7847 -0.1063
 1866TIP3    H227014   6.629   5.536  13.073 -2.9747 -1.9298 -0.7732
 1867TIP3   OH227015   4.109   2.826   5.717 -0.2412 -0.0570 -0.6796
 1867TIP3    H127016   4.086   2.754   5.658 -1.0239  0.6365 -1.2331
 1867TIP3    H227017   4.122   2.785   5.802 -0.3689 -0.8968 -1.0636
 1868TIP3   OH227018   5.970   6.193  16.620  0.7321  0.6276 -0.2430
 1868TIP3    H127019   6.058   6.227  16.636  0.6911 -0.0666  1.5147
 1868TIP3    H227020   5.965   6.113  16.672 -0.4988 -0.0340 -1.3472
 1869TIP3   OH227021   0.652   1.445   5.011  0.5096 -0.1161 -0.0824
 1869TIP3    H127022   0.667   1.495   4.930 -0.0355  0.9889  0.4892
 1869TIP3    H227023   0.596   1.372   4.983 -0.2462  0.6414 -0.5923
 1870TIP3   OH227024   6.260   6.638  13.523 -0.4723 -0.0097  0.0228
 1870TIP3    H127025   6.319   6.613  13.452  1.7375 -1.7938  2.3590
 1870TIP3    H227026   6.180   6.589  13.507  0.1845 -0.7496 -0.9970
 1871TIP3   OH227027   6.242   3.696   4.108 -0.0061  0.5993 -0.6033
 1871TIP3    H127028   6.251   3.748   4.188 -0.4605  1.0457 -0.8423
 1871TIP3    H227029   6.218   3.760   4.041  1.5179  0.4202 -1.3476
 1872TIP3   OH227030   6.707   0.094  13.530  0.0877  0.3983  0.1237
 1872TIP3    H127031   6.728   0.007  13.495 -1.7986  0.1629 -0.4621
 1872TIP3    H227032   6.777   0.151  13.497  0.9700 -0.7622 -0.0371
 1873TIP3   OH227033   4.200   3.436   3.260  0.1487  0.7144  0.6474
 1873TIP3    H127034   4.227   3.365   3.201  0.5297 -0.4074  2.1446
 1873TIP3    H227035   4.209   3.515   3.208  2.4135 -0.0512 -0.1726
 1874TIP3   OH227036   5.955   3.595  12.269  0.1239 -0.6249 -0.1994
 1874TIP3    H127037   5.937   3.605  12.176 -1.5269  0.9416  0.2567
 1874TIP3    H227038   5.871   3.610  12.312  1.1703  0.2743  1.6225
 1875TIP3   OH227039   3.100   3.291   3.217  0.1018  0.0828 -0.0228
 1875TIP3    H127040   3.165   3.355   3.245 -0.4132  0.7375 -0.3374
 1875TIP3    H227041   3.141   3.245   3.144  0.9570 -0.7843  0.9730
 1876TIP3   OH227042   1.852   6.285   0.832  0.3889  0.1289  0.7104
 1876TIP3    H127043   1.811   6.290   0.745  0.2737 -1.8483  0.6278
 1876TIP3    H227044   1.943   6.309   0.816  0.5891 -1.1271 -0.1488
 1877TIP3   OH227045   6.043   0.549   3.620 -0.0360 -0.3040  0.4084
 1877TIP3    H127046   5.966   0.498   3.595  1.0700 -1.6413 -0.3729
 1877TIP3    H227047   6.053   0.614   3.550  0.0482 -0.7074  0.0402
 1878TIP3   OH227048   5.985   5.456   3.880 -0.5169 -0.1560 -0.4043
 1878TIP3    H127049   5.992   5.429   3.971 -1.5782 -1.6314 -0.7356
 1878TIP3    H227050   6.030   5.540   3.876 -1.4318  0.4672  1.7165
 1879TIP3   OH227051   6.010   4.073   5.629 -0.3317  0.4814  0.0810
 1879TIP3    H127052   6.090   4.123   5.617 -0.2873  0.3854 -0.0264
 1879TIP3    H227053   6.026   4.019   5.706 -0.0247 -0.0669 -0.3681
 1880TIP3   OH227054   0.179   0.443  15.103  0.2725 -0.1566  0.1936
 1880TIP3    H127055   0.273   0.436  15.087  0.3332 -2.0715  1.2705
 1880TIP3    H227056   0.166   0.401  15.188 -1.4486  0.8672  0.4594
 1881TIP3   OH227057   5.617   3.204  13.360  0.1971 -0.4938 -0.1416
 1881TIP3    H127058   5.567   3.238  13.286 -1.5495  1.0943  1.7058
 1881TIP3    H227059   5.598   3.264  13.432  2.2883 -1.6806  1.4708
 1882TIP3   OH227060   5.040   2.033  11.899 -0.1375  0.0075  0.3183
 1882TIP3    H127061   4.996   1.967  11.951  0.2180  0.8153  1.6735
 1882TIP3    H227062   4.984   2.045  11.822  0.0673 -2.2293 -0.2214
 1883TIP3   OH227063   5.088   1.479  16.933  0.0096 -0.3636 -0.2948
 1883TIP3    H127064   5.013   1.480  16.873 -1.2206  0.0918  1.2053
 1883TIP3    H227065   5.121   1.569  16.933  0.0852 -0.3925 -0.4020
 1884TIP3   OH227066   1.961   6.300   2.063  0.1787 -0.5136 -0.3538
 1884TIP3    H127067   1.943   6.229   2.001 -1.0029 -0.9150  0.4409
 1884TIP3    H227068   1.903   6.282   2.137 -0.5576  1.6020 -0.3894
 1885TIP3   OH227069   3.208   3.986  16.838 -0.0130 -0.3246 -0.5836
 1885TIP3    H127070   3.118   4.005  16.864 -0.0697  0.0993 -1.0772
 1885TIP3    H227071   3.253   4.070  16.844  0.7447 -0.8235  1.1706
 1886TIP3   OH227072   1.827   1.347  10.990 -0.2516 -0.2856  0.5243
 1886TIP3    H127073   1.758   1.377  11.049  2.2206  1.5596  2.5886
 1886TIP3    H227074   1.858   1.427  10.947 -0.8543 -1.3888 -2.0288
 1887TIP3   OH227075   1.777   6.733  12.890 -0.3489 -0.0278  0.0002
 1887TIP3    H127076   1.787   6.743  12.985 -1.3934 -1.6442  0.3023
 1887TIP3    H227077   1.856   6.773  12.853 -0.1976  1.1213  1.5128
 1888TIP3   OH227078   6.324   2.324   6.349  0.4692 -0.5969 -0.4268
 1888TIP3    H127079   6.276   2.355   6.273  0.2419 -2.0387 -0.8871
 1888TIP3    H227080   6.275   2.248   6.380  0.2850  0.2709  1.4706
 1889TIP3   OH227081   2.597   0.204   1.725  0.0790  0.2617  0.2630
 1889TIP3    H127082   2.546   0.128   1.753  1.1473  0.0388  1.6277
 1889TIP3    H227083   2.590   0.203   1.629  0.6393 -1.9266  0.2187
 1890TIP3   OH227084   6.291   4.202   1.750 -0.0883  1.1073  0.4280
 1890TIP3    H127085   6.246   4.208   1.834 -0.7480  0.3400  0.1320
 1890TIP3    H227086   6.364   4.143   1.765 -0.4390  0.6569  0.3599
 1891TIP3   OH227087   4.818   3.104  10.788  0.2434 -0.1186  0.4491
 1891TIP3    H127088   4.732   3.062  10.790  0.5698 -0.8181 -0.0394
 1891TIP3    H227089   4.800   3.196  10.808 -0.4848 -0.4658  1.4340
 1892TIP3   OH227090   6.555   0.364  13.869  0.3957 -0.4204 -0.1790
 1892TIP3    H127091   6.532   0.317  13.949  0.2936 -0.5022 -0.2544
 1892TIP3    H227092   6.472   0.371  13.821  0.4837 -0.5063 -0.3467
 1893TIP3   OH227093   1.963   3.671  16.866  0.3294 -0.2592 -0.1866
 1893TIP3    H127094   1.989   3.719  16.944  1.4328 -2.6485  0.9784
 1893TIP3    H227095   1.869   3.684  16.859 -0.0355 -1.2307  2.4378
 1894TIP3   OH227096   1.124   0.965   3.339  0.2552  0.5418 -0.5070
 1894TIP3    H127097   1.076   0.913   3.404  1.2184 -0.8034 -0.8469
 1894TIP3    H227098   1.214   0.931   3.343  1.1827  2.9827  0.0807
 1895TIP3   OH227099   0.491   0.797  12.780 -0.1493  0.6801  0.0349
 1895TIP3    H127100   0.559   0.785  12.715  0.4129 -1.1680  0.9419
 1895TIP3    H227101   0.420   0.740  12.752 -0.6474  1.2897  0.0371
 1896TIP3   OH227102   4.907   0.723   6.154  0.2677  0.5761 -0.3126
 1896TIP3    H127103   4.832   0.678   6.194  0.6866  0.4513  0.3385
 1896TIP3    H227104   4.884   0.728   6.061 -0.7201  0.8826 -0.0654
 1897TIP3   OH227105   4.778   0.718   0.451  0.2757 -0.2571 -0.9153
 1897TIP3    H127106   4.781   0.638   0.504  0.4758 -0.4040 -1.1507
 1897TIP3    H227107   4.835   0.779   0.497  0.5612 -0.4305 -1.0381
 1898TIP3   OH227108   6.781   2.592   1.065  0.2243 -0.6201 -0.1900
 1898TIP3    H127109   6.816   2.572   1.153 -1.1940  0.2694  0.5890
 1898TIP3    H227110   6.858   2.589   1.008  1.3268 -0.2243  1.2421
 1899TIP3   OH227111   4.180   2.403  16.612 -0.2608 -0.3349  0.2683
 1899TIP3    H127112   4.245   2.448  16.666  0.8958  1.3021 -2.3746
 1899TIP3    H227113   4.152   2.469  16.548 -0.1258 -2.7066 -2.3635
 1900TIP3   OH227114   0.481   6.290  11.983 -0.3679 -0.4376  0.2042
 1900TIP3    H127115   0.442   6.315  11.899  1.6274  3.2862  0.2489
 1900TIP3    H227116   0.552   6.231  11.960 -1.6605 -1.7611 -0.4517
 1901TIP3   OH227117   1.181   5.877   5.574 -0.5457 -0.9010  0.1338
 1901TIP3    H127118   1.265   5.836   5.595 -0.5924 -0.8481  0.4246
 1901TIP3    H227119   1.174   5.950   5.635  0.2166  0.4638 -1.3432
 1902TIP3   OH227120   5.693   0.978   1.110  0.2305 -0.0680  0.0814
 1902TIP3    H127121   5.686   0.888   1.141 -0.3397  0.0393  0.2788
 1902TIP3    H227122   5.609   0.994   1.067  0.1105  0.5583  0.5445
 1903TIP3   OH227123   0.625   5.386  11.304 -0.0996  0.5381 -0.2888
 1903TIP3    H127124   0.599   5.294  11.291  0.8057  0.1457  0.6104
 1903TIP3    H227125   0.659   5.413  11.219  1.0702 -0.4486 -0.1529
 1904TIP3   OH227126   6.169   2.940  15.216  0.4305 -0.1207 -0.2255
 1904TIP3    H127127   6.074   2.944  15.208  0.1479 -0.9063  2.4404
 1904TIP3    H227128   6.192   2.853  15.182 -0.1252 -1.0885  1.8197
 1905TIP3   OH227129   2.328   0.601   3.426  0.5983  0.3617 -0.2206
 1905TIP3    H127130   2.278   0.630   3.503 -0.2291 -1.2117 -0.1293
 1905TIP3    H227131   2.275   0.628   3.351 -0.6948 -1.7167 -0.1146
 1906TIP3   OH227132   2.519   4.973  15.395 -0.0054 -0.0092 -0.1532
 1906TIP3    H127133   2.502   4.890  15.351  0.2044 -0.2730  0.2630
 1906TIP3    H227134   2.594   4.955  15.452  0.4325  0.6237 -0.5180
 1907TIP3   OH227135   6.743   4.283   4.577 -0.1665  0.5507 -0.9891
 1907TIP3    H127136   6.794   4.303   4.656 -1.4404  1.9504 -0.4942
 1907TIP3    H227137   6.730   4.367   4.535 -0.7826  0.0070 -1.9006
 1908TIP3   OH227138   4.634   1.432   5.153  0.6984 -0.4588 -0.3362
 1908TIP3    H127139   4.651   1.521   5.184 -0.6329  0.1857 -1.4055
 1908TIP3    H227140   4.693   1.377   5.203  2.0420  1.1189 -0.1722
 1909TIP3   OH227141   3.747   6.287   0.144 -0.7210  0.6187 -0.2224
 1909TIP3    H127142   3.673   6.240   0.107 -0.3003  0.1834 -0.5290
 1909TIP3    H227143   3.824   6.249   0.100 -0.3618  1.4847 -0.3570
 1910TIP3   OH227144   2.477   4.911   4.154 -0.3103  0.2190 -0.0284
 1910TIP3    H127145   2.453   4.988   4.104 -0.9337  1.6503  2.3856
 1910TIP3    H227146   2.555   4.938   4.203 -1.3852 -0.1791  1.9421
 1911TIP3   OH227147   5.264   4.973  15.688 -0.4166  0.1421 -0.4691
 1911TIP3    H127148   5.210   4.897  15.663 -1.9520  1.1942 -0.4308
 1911TIP3    H227149   5.321   4.940  15.757 -1.5971 -0.8020  0.0769
 1912TIP3   OH227150   6.199   3.170   1.180 -0.1258  0.1507 -1.0769
 1912TIP3    H127151   6.271   3.172   1.243  0.1543 -0.2710 -1.3778
 1912TIP3    H227152   6.161   3.082   1.190 -0.8101  0.4915 -0.6812
 1913TIP3   OH227153   2.446   4.217   4.943  0.6936  0.1018  0.1475
 1913TIP3    H127154   2.530   4.199   4.986 -0.8099 -0.6079  2.9596
 1913TIP3    H227155   2.384   4.224   5.016 -2.1811 -2.1485 -1.9741
 1914TIP3   OH227156   0.836   2.702  16.024 -0.0427 -0.4677  0.3027
 1914TIP3    H127157   0.883   2.707  16.107  0.1500 -1.8446  0.2827
 1914TIP3    H227158   0.745   2.720  16.047  0.0793 -0.4057  0.7397
 1915TIP3   OH227159   5.276   0.541   4.381 -0.4597  0.1157  0.2831
 1915TIP3    H127160   5.221   0.596   4.325  2.4872  1.1925 -1.6705
 1915TIP3    H227161   5.272   0.454   4.341  0.8306  0.6542 -1.0659
 1916TIP3   OH227162   4.275   4.585   2.481  0.1262  0.0012  0.4688
 1916TIP3    H127163   4.315   4.498   2.475 -3.0491 -1.5751  1.1810
 1916TIP3    H227164   4.268   4.613   2.389  1.9019 -0.0886  0.2740
 1917TIP3   OH227165   3.362   4.171   0.355 -0.4375 -0.4719  0.5799
 1917TIP3    H127166   3.395   4.137   0.439 -0.1574  1.7750  1.3987
 1917TIP3    H227167   3.426   4.141   0.291  2.0477  1.9423  1.8507
 1918TIP3   OH227168   3.913   4.193   0.242 -0.4484 -0.2336  0.5575
 1918TIP3    H127169   3.875   4.117   0.198 -0.5980  0.0060  0.2724
 1918TIP3    H227170   3.915   4.261   0.174 -0.8985  0.2082  0.9828
 1919TIP3   OH227171   4.151   1.350   3.835 -0.7129  0.0671  0.3584
 1919TIP3    H127172   4.200   1.275   3.869 -0.2837  0.0840 -0.2142
 1919TIP3    H227173   4.105   1.385   3.911 -0.3642 -0.3573  0.7664
 1920TIP3   OH227174   0.187   4.475  15.854 -0.1489  0.2995 -0.0170
 1920TIP3    H127175   0.220   4.386  15.865  2.2185  0.7924 -2.5980
 1920TIP3    H227176   0.257   4.531  15.887 -0.4173  1.2545 -1.0381
 1921TIP3   OH227177   4.844   1.199  14.135 -0.0233  1.0771  0.4012
 1921TIP3    H127178   4.926   1.243  14.115 -0.5902  1.4182 -1.2307
 1921TIP3    H227179   4.868   1.108  14.152  0.7329  1.2683  0.3492
 1922TIP3   OH227180   5.673   0.655  11.400  0.1574  0.0970 -0.2169
 1922TIP3    H127181   5.761   0.631  11.429 -0.0421 -1.9916 -1.2510
 1922TIP3    H227182   5.651   0.733  11.452  2.4763  0.4616  0.2685
 1923TIP3   OH227183   4.865   3.830  10.678  0.5968  0.2676  0.1535
 1923TIP3    H127184   4.842   3.920  10.702  1.3496  0.2838  0.8369
 1923TIP3    H227185   4.884   3.834  10.585  2.1738  1.1416  0.4955
 1924TIP3   OH227186   0.448   3.332   5.385  0.1943  0.1154 -0.6775
 1924TIP3    H127187   0.517   3.344   5.450  0.2131  1.1998 -0.8846
 1924TIP3    H227188   0.456   3.240   5.358 -0.8728 -0.8193  2.0243
 1925TIP3   OH227189   4.862   3.583   4.863 -0.0386  0.3059  0.0993
 1925TIP3    H127190   4.839   3.670   4.829 -3.0033  0.6649  2.8103
 1925TIP3    H227191   4.814   3.522   4.808  0.9135  0.4211 -0.8891
 1926TIP3   OH227192   2.499   1.004  15.339  0.1041 -0.4318 -0.7778
 1926TIP3    H127193   2.423   0.975  15.389 -0.8593  1.2759 -1.2098
 1926TIP3    H227194   2.574   0.965  15.385 -0.6309  2.0757  2.7954
 1927TIP3   OH227195   4.237   4.764   5.484 -0.2807  0.4932 -0.3840
 1927TIP3    H127196   4.186   4.713   5.547  0.4932 -1.1700 -1.0934
 1927TIP3    H227197   4.266   4.841   5.534  1.0869 -1.2356  1.5552
 1928TIP3   OH227198   6.513   0.332   0.304  0.4400 -0.0627 -0.3169
 1928TIP3    H127199   6.465   0.266   0.353 -0.5405  0.1366 -0.9941
 1928TIP3    H227200   6.470   0.334   0.218  2.4040 -0.7383 -1.3651
 1929TIP3   OH227201   3.412   1.975   2.507  0.1049  0.3037 -0.7034
 1929TIP3    H127202   3.388   1.928   2.427 -1.2952  0.2317 -0.2544
 1929TIP3    H227203   3.475   1.918   2.551 -1.4948 -1.1232 -0.2209
 1930TIP3   OH227204   1.041   4.208  14.893 -0.2115 -0.0397  0.0109
 1930TIP3    H127205   1.113   4.255  14.936 -1.2829  0.4257  1.3514
 1930TIP3    H227206   0.971   4.208  14.958 -2.0459  1.0395 -1.9109
 1931TIP3   OH227207   2.961   0.735  11.574 -0.0649 -0.1726 -0.8968
 1931TIP3    H127208   2.927   0.753  11.487 -0.0630 -1.9130 -1.2835
 1931TIP3    H227209   2.897   0.775  11.634 -1.0407 -0.5475 -1.6671
 1932TIP3   OH227210   1.274   2.185  13.418  0.1327 -0.1679  0.6579
 1932TIP3    H127211   1.242   2.220  13.335  0.0449  0.1057  0.8059
 1932TIP3    H227212   1.243   2.247  13.484  2.5529  1.1379  0.6167
 1933TIP3   OH227213   6.644   5.119   1.333  0.4721  0.0487 -0.6550
 1933TIP3    H127214   6.721   5.104   1.388  0.7905 -0.9868 -1.3751
 1933TIP3    H227215   6.611   5.032   1.313 -1.2717  0.5019  0.1541
 1934TIP3   OH227216   2.517   2.886  16.353  0.4130  0.2065  0.2993
 1934TIP3    H127217   2.513   2.913  16.444  2.4377  1.2800  0.0945
 1934TIP3    H227218   2.482   2.960  16.304 -3.7854 -1.5907  0.3254
 1935TIP3   OH227219   0.212   4.220   3.891 -0.5310  0.5209  0.2523
 1935TIP3    H127220   0.186   4.167   3.815  1.4192  0.8091 -0.6439
 1935TIP3    H227221   0.245   4.155   3.954  0.7300  0.5404 -0.3722
 1936TIP3   OH227222   6.183   3.339   0.961 -0.1116  0.4782 -0.2207
 1936TIP3    H127223   6.171   3.276   1.032  0.8811  0.1493 -0.3415
 1936TIP3    H227224   6.252   3.301   0.906 -0.7557  0.8008 -1.2860
 1937TIP3   OH227225   1.661   5.708  15.307 -0.0661  0.2092 -0.1157
 1937TIP3    H127226   1.668   5.646  15.235  0.2201  0.3463 -0.2090
 1937TIP3    H227227   1.657   5.794  15.265  0.8667  0.3390  0.0535
 1938TIP3   OH227228   2.741   6.206  12.661 -0.4764 -0.3480  0.1548
 1938TIP3    H127229   2.652   6.175  12.647  0.3336 -1.8271 -2.1369
 1938TIP3    H227230   2.752   6.277  12.596 -0.1546  0.1770  0.7779
 1939TIP3   OH227231   4.153   5.929  12.430 -0.3299 -0.5398 -0.0216
 1939TIP3    H127232   4.171   5.836  12.437  1.9551  0.0817  3.2412
 1939TIP3    H227233   4.070   5.942  12.476 -1.2812 -1.0916 -1.5340
 1940TIP3   OH227234   4.358   6.248   0.207 -0.4501 -0.2244  0.4197
 1940TIP3    H127235   4.315   6.301   0.140  0.8634  0.9060  0.4388
 1940TIP3    H227236   4.306   6.168   0.212 -3.4212  1.6669  1.4527
 1941TIP3   OH227237   3.194   1.275   3.604 -0.2650  0.5615  0.4145
 1941TIP3    H127238   3.283   1.244   3.587  0.0802  1.8299 -0.1770
 1941TIP3    H227239   3.200   1.370   3.595 -1.9935  0.5414 -1.1554
 1942TIP3   OH227240   1.401   1.992   1.000  0.0870  0.0276  0.5152
 1942TIP3    H127241   1.442   2.031   0.923 -1.4840  0.3665 -0.1739
 1942TIP3    H227242   1.462   1.924   1.028  2.3564  2.2266  1.0739
 1943TIP3   OH227243   5.176   4.632  13.496  0.2931 -0.4053 -0.1022
 1943TIP3    H127244   5.246   4.692  13.471 -0.9296  0.9099 -0.4495
 1943TIP3    H227245   5.162   4.648  13.589 -0.3381  0.1632 -0.2964
 1944TIP3   OH227246   3.561   4.749   0.552 -0.1552 -0.8017  0.7654
 1944TIP3    H127247   3.554   4.762   0.646 -0.0389  0.7525  0.5654
 1944TIP3    H227248   3.528   4.830   0.514  2.0137 -0.4883 -0.5021
 1945TIP3   OH227249   0.342   2.100   6.306  0.0837  0.0960 -0.4145
 1945TIP3    H127250   0.251   2.082   6.279 -0.2112 -0.1072  0.6743
 1945TIP3    H227251   0.359   2.189   6.278 -1.2636  0.9692  1.4419
 1946TIP3   OH227252   4.379   6.767   0.783  0.2203 -0.1101  0.1838
 1946TIP3    H127253   4.329   6.742   0.705  0.6157  0.5329 -0.2799
 1946TIP3    H227254   4.429   6.689   0.805  0.7996 -0.0201 -0.7525
 1947TIP3   OH227255   1.644   1.897   6.478  0.1620  0.2924 -0.2724
 1947TIP3    H127256   1.622   1.833   6.546 -0.9356  0.6300 -0.3011
 1947TIP3    H227257   1.688   1.845   6.410 -0.7903 -0.4429 -0.3321
 1948TIP3   OH227258   5.482   6.556   5.336 -0.2608 -1.0284  0.7521
 1948TIP3    H127259   5.418   6.623   5.356  0.0860 -0.2980 -0.5207
 1948TIP3    H227260   5.533   6.592   5.263  0.1584 -2.5089  0.2851
 1949TIP3   OH227261   4.797   4.341   0.365 -0.0937  0.3288  0.3690
 1949TIP3    H127262   4.715   4.380   0.396 -0.7392  0.5297 -1.5290
 1949TIP3    H227263   4.863   4.408   0.380 -0.3851  0.4185  1.2940
 1950TIP3   OH227264   6.350   4.171   6.049 -0.0649 -0.4791 -0.1542
 1950TIP3    H127265   6.330   4.206   5.962  0.9038 -1.4829 -0.8002
 1950TIP3    H227266   6.268   4.132   6.079 -0.7184  0.9006 -0.1103
 1951TIP3   OH227267   0.153   6.596  14.658  0.1633 -0.0593  0.4008
 1951TIP3    H127268   0.111   6.604  14.744 -2.5258 -1.8143 -0.6591
 1951TIP3    H227269   0.104   6.527  14.614  0.8613  1.4252 -2.9120
 1952TIP3   OH227270   1.649   2.697  16.213  0.2576 -0.2211  0.2032
 1952TIP3    H127271   1.624   2.751  16.138 -1.2590 -0.6282  0.4123
 1952TIP3    H227272   1.665   2.611  16.176 -1.0280 -0.5573  0.4240
 1953TIP3   OH227273   2.288   1.373  13.440  0.7261 -0.0432 -0.7768
 1953TIP3    H127274   2.227   1.436  13.479  2.3639  0.2411  1.4281
 1953TIP3    H227275   2.232   1.303  13.405 -0.8519 -0.0258  1.6186
 1954TIP3   OH227276   5.653   4.118   1.135  0.1793  0.0280 -0.5853
 1954TIP3    H127277   5.634   4.025   1.124  1.6120 -0.2141 -1.2354
 1954TIP3    H227278   5.688   4.125   1.224  0.3688 -0.1159 -0.6470
 1955TIP3   OH227279   3.367   5.759  12.832  0.0893  0.4762  0.3360
 1955TIP3    H127280   3.392   5.669  12.853  0.4006  0.5000  0.0716
 1955TIP3    H227281   3.421   5.782  12.756  0.2012  0.9726  0.5588
 1956TIP3   OH227282   5.526   0.161   5.525  0.1150 -0.3800 -0.1611
 1956TIP3    H127283   5.454   0.112   5.486 -0.4063 -1.2920  1.8925
 1956TIP3    H227284   5.490   0.195   5.607  1.0478  1.8740 -0.6695
 1957TIP3   OH227285   3.920   3.066  16.139  0.7082  0.0986  0.0889
 1957TIP3    H127286   3.851   3.123  16.174 -0.5607 -1.5007  0.2204
 1957TIP3    H227287   4.000   3.098  16.181 -0.3832  0.0561  2.2794
 1958TIP3   OH227288   1.325   6.693   1.638  0.2035  0.5365 -0.4630
 1958TIP3    H127289   1.365   6.702   1.552  1.2674 -0.1560 -0.0502
 1958TIP3    H227290   1.384   6.740   1.697 -0.9597  1.7328 -0.2190
 1959TIP3   OH227291   0.237   1.585  16.018 -0.0719  0.0659 -0.2743
 1959TIP3    H127292   0.221   1.596  15.924  0.9376  0.3884 -0.4135
 1959TIP3    H227293   0.330   1.606  16.029  0.0736 -1.0111  0.6279
 1960TIP3   OH227294   1.592   1.048  10.718  0.3183 -0.2720 -0.2752
 1960TIP3    H127295   1.541   1.110  10.665 -0.7587  0.8248  1.9873
 1960TIP3    H227296   1.578   0.964  10.675 -1.8352  0.3359 -0.8399
 1961TIP3   OH227297   3.909   6.267   2.917 -0.7757 -0.3627  0.0782
 1961TIP3    H127298   3.982   6.282   2.857 -0.4694 -0.0885  0.5167
 1961TIP3    H227299   3.908   6.172   2.929 -0.0543 -0.3072  0.6120
 1962TIP3   OH227300   6.238   1.486   3.526  0.3970  0.0481 -0.1408
 1962TIP3    H127301   6.323   1.493   3.483 -0.1182  0.2301 -1.1382
 1962TIP3    H227302   6.204   1.401   3.500 -0.8990  1.0745 -1.9521
 1963TIP3   OH227303   1.021   4.894  16.021 -0.1338  0.4382  0.1341
 1963TIP3    H127304   0.990   4.982  15.997 -2.4410 -0.0090  1.3190
 1963TIP3    H227305   0.978   4.876  16.105  1.0122 -1.4828  0.3275
 1964TIP3   OH227306   3.052   3.583   4.383  0.6210 -0.6132  0.5402
 1964TIP3    H127307   2.962   3.615   4.382  0.1969 -1.8299 -1.2188
 1964TIP3    H227308   3.049   3.504   4.438  0.9703  0.2832  1.8845
 1965TIP3   OH227309   6.388   3.693   5.489 -0.3244  0.4921 -0.3174
 1965TIP3    H127310   6.420   3.611   5.525 -1.0590 -0.7007 -2.3494
 1965TIP3    H227311   6.294   3.692   5.506 -0.4646  0.5366 -1.0725
 1966TIP3   OH227312   4.826   4.472   1.408 -0.0853 -0.5333  0.2786
 1966TIP3    H127313   4.893   4.405   1.423 -0.4993 -1.3746 -1.4383
 1966TIP3    H227314   4.804   4.462   1.315 -1.2356  0.9926  0.3823
 1967TIP3   OH227315   3.592   5.869   2.904  0.4437 -0.0279 -0.6372
 1967TIP3    H127316   3.618   5.782   2.936  2.0009  0.6986  0.1229
 1967TIP3    H227317   3.505   5.883   2.941  1.6976  0.2832  2.3833
 1968TIP3   OH227318   0.915   4.653  11.905  0.6410  0.4369  0.1108
 1968TIP3    H127319   0.856   4.729  11.911 -0.4295 -0.4932  1.9231
 1968TIP3    H227320   1.000   4.686  11.936  0.1469  0.8738  1.0234
 1969TIP3   OH227321   5.498   3.051   2.436 -0.1316 -0.2196 -0.2965
 1969TIP3    H127322   5.412   3.011   2.435  0.9263 -2.5862  0.0304
 1969TIP3    H227323   5.523   3.055   2.528  0.2346  0.1928 -0.4061
 1970TIP3   OH227324   3.968   5.065   1.521 -0.4749 -0.2173 -0.5817
 1970TIP3    H127325   4.003   4.984   1.486 -0.2835 -0.1938 -0.4477
 1970TIP3    H227326   3.896   5.038   1.578  0.7671 -0.4262  0.9304
 1971TIP3   OH227327   5.158   5.262  15.734 -0.3178  0.1719 -0.3839
 1971TIP3    H127328   5.253   5.270  15.725 -0.4312 -1.2367 -3.2327
 1971TIP3    H227329   5.133   5.335  15.792  2.6712 -0.4799  1.8600
 1972TIP3   OH227330   4.425   5.442  16.102 -0.1905  0.4219 -0.0906
 1972TIP3    H127331   4.452   5.414  16.015 -1.4677 -0.9415 -0.0716
 1972TIP3    H227332   4.468   5.381  16.162 -0.5559  0.3862  0.1389
 1973TIP3   OH227333   1.258   2.446   4.689  0.1897  0.1751  0.3083
 1973TIP3    H127334   1.185   2.396   4.727  0.0489  0.2763  0.1673
 1973TIP3    H227335   1.273   2.517   4.751 -2.3191  2.4022 -1.5339
 1974TIP3   OH227336   0.923   5.016   5.133  0.0486 -0.4015  0.5544
 1974TIP3    H127337   0.858   4.982   5.195 -0.6310  2.3487  1.4459
 1974TIP3    H227338   0.925   4.952   5.062 -2.2825 -1.4855  1.4221
 1975TIP3   OH227339   5.965   4.051   1.948  0.4854  0.4393  0.1390
 1975TIP3    H127340   5.928   3.996   1.879 -0.1818  0.0319  0.8081
 1975TIP3    H227341   5.888   4.095   1.986  0.6987 -0.2975  1.4469
 1976TIP3   OH227342   1.444   5.272   3.056  0.4268 -0.4240 -0.2745
 1976TIP3    H127343   1.527   5.287   3.102  0.4409  0.1670 -0.4933
 1976TIP3    H227344   1.468   5.214   2.984  0.5295 -0.7928  0.0540
 1977TIP3   OH227345   1.222   3.536  11.595 -0.0149 -0.3391 -0.3071
 1977TIP3    H127346   1.145   3.483  11.616 -0.1815  0.1650  0.3715
 1977TIP3    H227347   1.226   3.601  11.665  1.0733 -0.4102 -0.3043
 1978TIP3   OH227348   4.172   5.665   4.942 -1.1355 -0.2694 -0.2823
 1978TIP3    H127349   4.232   5.636   5.010  1.5150 -1.0889 -2.9071
 1978TIP3    H227350   4.153   5.756   4.964  2.8212  0.6933 -0.5817
 1979TIP3   OH227351   4.864   6.530   4.803  0.3237  0.0311 -0.0496
 1979TIP3    H127352   4.934   6.501   4.744 -1.8268 -1.4156 -2.0277
 1979TIP3    H227353   4.840   6.617   4.771  1.2524  0.5719  0.6953
 1980TIP3   OH227354   6.380   6.165  12.637 -0.0966  0.0041  0.7552
 1980TIP3    H127355   6.429   6.168  12.555 -0.9487  0.1399  0.2399
 1980TIP3    H227356   6.335   6.080  12.635 -2.1749  1.0722 -0.1628
 1981TIP3   OH227357   5.346   1.856   5.722  0.8464 -0.0002 -0.6476
 1981TIP3    H127358   5.274   1.860   5.785  1.7693  0.5616  0.3815
 1981TIP3    H227359   5.318   1.792   5.657 -0.6531  0.3310 -0.3390
 1982TIP3   OH227360   4.229   2.013   2.821  0.0202  0.3570 -0.0031
 1982TIP3    H127361   4.233   2.060   2.738  0.6770 -0.5509 -0.5055
 1982TIP3    H227362   4.168   2.063   2.875 -2.5293 -0.4967 -1.9800
 1983TIP3   OH227363   0.244   3.989  14.130 -0.1992  0.1776  0.4097
 1983TIP3    H127364   0.286   4.026  14.053  0.2728 -0.4437  0.3574
 1983TIP3    H227365   0.274   4.044  14.203 -1.1561  1.1552  0.0702
 1984TIP3   OH227366   6.122   2.437   2.819  0.0911  0.3051 -0.0260
 1984TIP3    H127367   6.124   2.349   2.781  0.2224 -0.0365  0.7432
 1984TIP3    H227368   6.086   2.423   2.907 -1.8256  1.3047 -0.6220
 1985TIP3   OH227369   4.023   2.083   3.772  0.0589  0.1181  0.1474
 1985TIP3    H127370   4.055   2.149   3.833 -2.1957  0.5204  0.9785
 1985TIP3    H227371   3.970   2.024   3.827  0.9665 -1.6250 -0.8018
 1986TIP3   OH227372   1.709   1.198  13.844  0.0286 -0.1911  0.5900
 1986TIP3    H127373   1.624   1.238  13.861 -0.0135 -0.1699  0.3280
 1986TIP3    H227374   1.767   1.238  13.909 -0.0688  0.1073  0.4968
 1987TIP3   OH227375   0.949   4.232   1.604 -0.3982  0.0607 -0.1986
 1987TIP3    H127376   0.969   4.163   1.540 -0.3152  0.1490 -0.2685
 1987TIP3    H227377   0.984   4.199   1.687 -0.5128 -0.0578 -0.1977
 1988TIP3   OH227378   5.705   0.623   0.594 -0.1226 -0.0495 -0.0952
 1988TIP3    H127379   5.650   0.682   0.645  0.1090  0.3402 -0.3004
 1988TIP3    H227380   5.794   0.644   0.621 -0.0562 -0.5358  0.0811
 1989TIP3   OH227381   4.887   3.002   0.378 -0.2521  0.6475 -0.4625
 1989TIP3    H127382   4.869   3.059   0.452  1.0510 -1.5404  1.6213
 1989TIP3    H227383   4.872   2.913   0.412  1.0113 -0.4433 -2.6103
 1990TIP3   OH227384   3.227   2.855   5.000  0.0454  0.0572 -0.5493
 1990TIP3    H127385   3.139   2.874   5.034 -0.2456 -1.5282 -0.3573
 1990TIP3    H227386   3.281   2.845   5.079 -0.2479 -1.8748 -0.5735
 1991TIP3   OH227387   5.953   2.399   4.452  0.2520 -1.1123  0.0499
 1991TIP3    H127388   5.940   2.491   4.475 -1.2827 -0.5828 -2.8023
 1991TIP3    H227389   5.880   2.353   4.494 -0.6332 -0.6168 -0.9358
 1992TIP3   OH227390   4.421   3.465   4.349 -0.0773  0.8185 -0.0757
 1992TIP3    H127391   4.464   3.379   4.350  0.0075  0.8596 -0.1227
 1992TIP3    H227392   4.383   3.471   4.261  2.2118  1.9423 -1.0467
 1993TIP3   OH227393   1.630   4.034  12.067 -0.9610  0.9007  0.0115
 1993TIP3    H127394   1.660   3.948  12.037  1.5340  1.2755  1.2862
 1993TIP3    H227395   1.617   4.084  11.986  1.0466  0.4156 -0.6432
 1994TIP3   OH227396   4.129   3.895  10.557 -0.0349  0.6591  0.4360
 1994TIP3    H127397   4.180   3.820  10.527 -1.0145 -0.2578  1.0232
 1994TIP3    H227398   4.078   3.922  10.481  0.8141  1.1558  0.0374
 1995TIP3   OH227399   2.583   1.416   3.652  0.0925  0.0928 -0.2791
 1995TIP3    H127400   2.581   1.356   3.578 -0.3056  0.7002 -0.7615
 1995TIP3    H227401   2.575   1.359   3.729  2.1584 -0.7047 -0.5978
 1996TIP3   OH227402   0.359   6.173   0.526  0.4266  0.6646 -0.0277
 1996TIP3    H127403   0.302   6.172   0.603  0.5786  1.1127  0.0935
 1996TIP3    H227404   0.436   6.125   0.553 -0.9410 -2.1768 -1.0175
 1997TIP3   OH227405   1.946   4.849  12.372 -0.2694  0.2528 -0.2049
 1997TIP3    H127406   1.945   4.905  12.450 -2.3151  0.1328 -0.1215
 1997TIP3    H227407   1.983   4.905  12.304  0.2716  0.8084  0.5323
 1998TIP3   OH227408   4.009   6.585   4.535 -0.4471  0.4605  0.2485
 1998TIP3    H127409   3.959   6.635   4.471 -1.3864 -1.6283 -0.7139
 1998TIP3    H227410   3.962   6.501   4.542  1.2443 -0.4160  1.5513
 1999TIP3   OH227411   6.132   1.786  12.404  0.3563 -0.0645  0.5239
 1999TIP3    H127412   6.040   1.786  12.428  0.4762 -0.0692  0.9771
 1999TIP3    H227413   6.151   1.695  12.380  0.0099  0.1194 -0.4627
 2000TIP3   OH227414   3.941   6.469  11.492  0.2519  0.1735 -0.4345
 2000TIP3    H127415   4.020   6.497  11.537 -1.2521  3.5345  0.2542
 2000TIP3    H227416   3.869   6.506  11.543 -1.6293  0.3893 -3.1300
 2001TIP3   OH227417   5.874   4.090   5.084  0.2913  0.3608  0.8434
 2001TIP3    H127418   5.805   4.138   5.039 -0.7362 -1.6038  0.2501
 2001TIP3    H227419   5.927   4.053   5.013  1.6496  1.4046  1.2945
 2002TIP3   OH227420   3.787   3.718  13.956 -0.3540  0.0023 -0.3466
 2002TIP3    H127421   3.830   3.792  14.000  0.1313 -0.7068  0.3872
 2002TIP3    H227422   3.818   3.641  14.004 -0.6806 -0.6947 -1.2554
 2003TIP3   OH227423   0.341   4.788  13.446  0.2816  0.1012  0.0010
 2003TIP3    H127424   0.364   4.736  13.369  0.6129  0.6720 -0.2914
 2003TIP3    H227425   0.387   4.745  13.519  1.2834  0.5064 -0.3849
 2004TIP3   OH227426   0.015   0.001   4.855 -0.0699  0.3724 -0.1643
 2004TIP3    H127427  -0.067  -0.047   4.864 -0.7214  1.1884 -1.5442
 2004TIP3    H227428  -0.009   0.083   4.812  1.4450  0.6782 -0.4889
 2005TIP3   OH227429   3.931   5.904   4.550 -0.8836  0.0142  0.0292
 2005TIP3    H127430   4.017   5.903   4.507 -1.1816 -0.3384 -0.5603
 2005TIP3    H227431   3.869   5.888   4.479 -1.4571  0.4986  0.4154
 2006TIP3   OH227432   1.323   0.856  15.151  0.7158 -0.2069  0.5145
 2006TIP3    H127433   1.228   0.841  15.150  0.7467 -0.3875  0.3136
 2006TIP3    H227434   1.351   0.837  15.061  0.8238  0.5984  0.3715
 2007TIP3   OH227435   0.759   1.840   3.666  0.2436  0.2838 -0.1643
 2007TIP3    H127436   0.835   1.857   3.722 -0.4824  0.8270  0.6710
 2007TIP3    H227437   0.685   1.878   3.713 -0.7783 -1.4733 -0.2893
 2008TIP3   OH227438   0.243   5.182   5.812  0.7821 -0.3346  0.2284
 2008TIP3    H127439   0.214   5.130   5.736  1.8309  0.5348 -0.7865
 2008TIP3    H227440   0.174   5.170   5.877 -2.1466  2.0223 -2.2770
 2009TIP3   OH227441   4.564   3.669  11.937  0.0279 -0.1083  0.1824
 2009TIP3    H127442   4.657   3.656  11.922  0.4273  0.8070  1.7000
 2009TIP3    H227443   4.528   3.580  11.940  0.8712 -0.4724 -0.3105
 2010TIP3   OH227444   0.703   4.643   4.024 -0.3431 -0.2443  0.2455
 2010TIP3    H127445   0.608   4.638   4.009 -0.2180 -0.9163 -0.3894
 2010TIP3    H227446   0.712   4.691   4.106 -1.2672 -0.9339  0.7660
 2011TIP3   OH227447   1.424   2.419   0.587  0.0460  0.3549 -0.1780
 2011TIP3    H127448   1.366   2.495   0.583 -0.1780  0.2705  1.0538
 2011TIP3    H227449   1.509   2.452   0.561 -0.2289  0.8434 -0.4566
 2012TIP3   OH227450   4.989   1.239  17.059  0.3210  0.3097  0.4220
 2012TIP3    H127451   4.895   1.256  17.053 -0.0712 -1.6493  0.6720
 2012TIP3    H227452   5.029   1.322  17.032 -1.4624  0.9763 -0.3352
 2013TIP3   OH227453   3.042   3.760  14.028 -0.3761  0.2762 -0.5697
 2013TIP3    H127454   2.961   3.719  13.997 -0.7865  0.8396 -0.2720
 2013TIP3    H227455   3.013   3.842  14.069  0.1256 -0.4958  1.3937
 2014TIP3   OH227456   5.339   0.959   3.498  0.3100 -0.0411  0.3407
 2014TIP3    H127457   5.367   0.928   3.584  0.4130 -0.3841  0.1848
 2014TIP3    H227458   5.363   0.888   3.438  0.6471  0.3824 -0.0358
 2015TIP3   OH227459   5.228   4.422  12.537  0.1901 -0.4596  0.9551
 2015TIP3    H127460   5.309   4.387  12.501 -0.8323 -1.4837 -0.4081
 2015TIP3    H227461   5.201   4.358  12.604  1.2643  0.6418  2.4799
 2016TIP3   OH227462   6.173   0.389   5.133 -0.1844  0.4487 -0.0746
 2016TIP3    H127463   6.258   0.432   5.137  0.4660 -0.7928 -0.2061
 2016TIP3    H227464   6.155   0.382   5.039  1.1130 -2.1933 -0.1875
 2017TIP3   OH227465   0.571   0.823   2.961  0.5377  0.6383 -0.1729
 2017TIP3    H127466   0.540   0.834   2.872 -0.9946  1.4494  0.4422
 2017TIP3    H227467   0.626   0.900   2.977 -0.2427  1.1586  0.0159
 2018TIP3   OH227468   2.443   0.291   3.203 -0.5715  0.0868  0.2734
 2018TIP3    H127469   2.459   0.239   3.282 -0.6381  0.4248  0.5092
 2018TIP3    H227470   2.506   0.258   3.140 -1.4830 -1.1885  0.0108
 2019TIP3   OH227471   2.570   1.157  12.486  0.1590  0.0801  0.2677
 2019TIP3    H127472   2.488   1.205  12.497  0.7618  0.7600  1.9334
 2019TIP3    H227473   2.615   1.201  12.415  0.2864  1.4024  1.1561
 2020TIP3   OH227474   6.545   3.467   0.504  0.0899  0.0191  0.1028
 2020TIP3    H127475   6.562   3.547   0.553 -1.7458 -0.2552  1.2165
 2020TIP3    H227476   6.610   3.404   0.536 -0.9720 -0.0997  2.0657
 2021TIP3   OH227477   1.591   0.904  12.878 -0.1428 -0.3437 -0.3050
 2021TIP3    H127478   1.567   0.954  12.800  0.1908  0.0198 -0.1770
 2021TIP3    H227479   1.538   0.942  12.948 -0.2418 -0.4878 -0.3029
 2022TIP3   OH227480   5.668   3.004   5.039 -0.0985 -0.0095  0.3767
 2022TIP3    H127481   5.714   2.938   5.092  0.4001  0.7830  0.9502
 2022TIP3    H227482   5.714   3.086   5.058 -0.2649  0.3816 -0.8733
 2023TIP3   OH227483   6.423   0.873   4.691  0.1807  0.5357 -0.6903
 2023TIP3    H127484   6.518   0.886   4.692  0.2567  0.1120 -2.0687
 2023TIP3    H227485   6.388   0.943   4.746  1.3460  0.1929  0.5349
 2024TIP3   OH227486   6.053   5.427  12.633  0.2401  0.1995 -0.2079
 2024TIP3    H127487   5.987   5.443  12.565  0.0438  1.8510  0.3675
 2024TIP3    H227488   6.003   5.420  12.714  0.3875 -2.5980 -0.2895
 2025TIP3   OH227489   4.488   1.837  16.702  0.5101  0.1116  0.2882
 2025TIP3    H127490   4.554   1.799  16.760  3.0011  1.5491 -1.5267
 2025TIP3    H227491   4.515   1.929  16.692 -2.0858  0.8783 -0.0611
 2026TIP3   OH227492   1.635   5.331   3.812 -0.0297 -0.2461 -0.0750
 2026TIP3    H127493   1.574   5.363   3.878  0.9585 -0.0328  0.7475
 2026TIP3    H227494   1.705   5.396   3.810  0.4583 -0.7783 -0.5956
 2027TIP3   OH227495   6.049   1.061  11.556  0.3627  0.0449 -0.3244
 2027TIP3    H127496   6.017   0.973  11.542  1.1077 -0.3010  0.0891
 2027TIP3    H227497   6.088   1.059  11.643 -0.6793  1.1025  0.1840
 2028TIP3   OH227498   0.179   6.318   2.951 -0.4417  0.1777 -0.3057
 2028TIP3    H127499   0.174   6.386   3.018 -0.7399  1.9708 -2.1177
 2028TIP3    H227500   0.256   6.342   2.899 -0.7759 -0.6453 -1.1866
 2029TIP3   OH227501   3.499   0.614   2.976  0.2365 -0.4305  0.8819
 2029TIP3    H127502   3.516   0.707   2.985 -0.9511 -0.4035  3.2687
 2029TIP3    H227503   3.427   0.608   2.914 -0.9442  0.3973  2.1417
 2030TIP3   OH227504   6.172   3.328  12.967  0.8138 -0.0906 -0.5126
 2030TIP3    H127505   6.185   3.236  12.992 -0.0937 -0.0283  0.2212
 2030TIP3    H227506   6.092   3.327  12.915  1.6894  0.0553 -1.8884
 2031TIP3   OH227507   6.763   0.301   4.286 -0.0843  0.2162 -0.1542
 2031TIP3    H127508   6.720   0.218   4.304  1.1466 -0.3660  0.1551
 2031TIP3    H227509   6.703   0.368   4.320 -0.6117 -0.5904  0.4934
 2032TIP3   OH227510   4.114   1.202   6.742 -0.6293  0.4217  0.0851
 2032TIP3    H127511   4.078   1.114   6.734  0.4394  0.0468 -0.6420
 2032TIP3    H227512   4.201   1.190   6.781 -0.3549  1.1216 -0.2886
 2033TIP3   OH227513   2.656   1.881  11.540  0.3943  0.2528  0.0367
 2033TIP3    H127514   2.642   1.941  11.614 -0.7883 -0.7722  0.6620
 2033TIP3    H227515   2.713   1.813  11.576  1.7707  1.0017 -0.6893
 2034TIP3   OH227516   6.658   3.097  15.829  0.6296 -0.0470  0.0121
 2034TIP3    H127517   6.749   3.095  15.858  0.2679  1.5241  1.3373
 2034TIP3    H227518   6.640   3.189  15.812 -1.2497 -0.0930  1.5959
 2035TIP3   OH227519   2.965   1.067  10.983  0.3422  0.0503 -0.3375
 2035TIP3    H127520   2.917   1.125  10.924  1.5655  1.2798 -0.1576
 2035TIP3    H227521   3.046   1.046  10.936 -0.6725 -2.6059 -0.9526
 2036TIP3   OH227522   3.517   2.213   5.642 -0.7804 -0.1039 -0.3093
 2036TIP3    H127523   3.497   2.154   5.570 -0.1998 -0.8294  0.1128
 2036TIP3    H227524   3.448   2.195   5.707 -1.2961  0.5407 -0.6783
 2037TIP3   OH227525   1.008   1.376  13.216  0.3253 -0.5974  0.0799
 2037TIP3    H127526   0.998   1.432  13.139  2.1846 -1.1692 -0.5935
 2037TIP3    H227527   0.921   1.339  13.231 -0.4863  1.0193 -0.5779
 2038TIP3   OH227528   6.289   4.172  13.025 -0.4004  0.2397 -0.5876
 2038TIP3    H127529   6.280   4.091  12.975  1.4748 -0.5423  0.3064
 2038TIP3    H227530   6.202   4.186  13.064 -0.7442 -1.3012 -0.7796
 2039TIP3   OH227531   5.456   2.943  15.816 -0.5931  0.0819 -0.8664
 2039TIP3    H127532   5.385   3.006  15.799 -1.0315 -0.0635  0.3679
 2039TIP3    H227533   5.536   2.992  15.797 -0.9268  1.0595  0.1805
 2040TIP3   OH227534   6.490   1.032  14.409  0.7101 -0.1198  0.0266
 2040TIP3    H127535   6.448   0.979  14.477  0.4335  0.4021  0.2666
 2040TIP3    H227536   6.424   1.040  14.341  0.2557  1.0988  0.6116
 2041TIP3   OH227537   2.745   1.556   6.485 -0.0907  0.5910 -0.0773
 2041TIP3    H127538   2.687   1.559   6.410  1.5550  1.7183 -1.3397
 2041TIP3    H227539   2.729   1.638   6.531  0.7803  1.0916 -0.6558
 2042TIP3   OH227540   3.442   3.688  11.471  0.1570  0.2390  0.0712
 2042TIP3    H127541   3.506   3.619  11.454  0.7887  0.5223  1.2331
 2042TIP3    H227542   3.372   3.673  11.407 -0.1687 -2.0567  0.9225
 2043TIP3   OH227543   0.671   5.278  14.748  0.0069 -0.3613  0.5262
 2043TIP3    H127544   0.719   5.235  14.819  0.1760 -0.6498  0.2404
 2043TIP3    H227545   0.723   5.259  14.669 -0.3686 -0.3489  0.2728
 2044TIP3   OH227546   2.593   1.556   2.702  0.5671 -0.1550 -0.2099
 2044TIP3    H127547   2.625   1.641   2.675  1.4726 -0.6675 -0.7809
 2044TIP3    H227548   2.526   1.533   2.637 -1.3979  1.1388  1.2658
 2045TIP3   OH227549   2.720   1.964  16.525 -0.1269  0.3390  0.0320
 2045TIP3    H127550   2.796   1.958  16.467  0.7162  1.2659  1.0213
 2045TIP3    H227551   2.653   2.009  16.472  0.2013  0.0284 -0.6468
 2046TIP3   OH227552   5.169   0.798   5.642  0.5527  0.0926 -0.1297
 2046TIP3    H127553   5.176   0.893   5.630 -2.5649  0.2062 -1.5104
 2046TIP3    H227554   5.075   0.782   5.655  1.2256 -2.6075  2.1165
 2047TIP3   OH227555   0.749   4.361   2.730 -0.0486  0.2429  0.2739
 2047TIP3    H127556   0.808   4.300   2.774 -0.3493  0.5973  1.1837
 2047TIP3    H227557   0.774   4.447   2.765  0.2261  0.6112 -0.8295
 2048TIP3   OH227558   2.981   2.128  13.063  0.1699 -0.3948 -0.2894
 2048TIP3    H127559   2.968   2.187  13.137  0.4019 -2.7351  1.6756
 2048TIP3    H227560   2.899   2.133  13.013 -0.9030 -0.5148  1.4219
 2049TIP3   OH227561   0.366   1.933  11.274  0.3043 -0.3496 -0.3684
 2049TIP3    H127562   0.404   1.887  11.200  0.8427 -0.7849  0.1707
 2049TIP3    H227563   0.316   2.005  11.235  1.4383  0.0485 -1.1028
 2050TIP3   OH227564   2.659   4.359   3.626  0.0897 -0.5130  0.1499
 2050TIP3    H127565   2.681   4.352   3.719 -4.2789  0.5213  1.3687
 2050TIP3    H227566   2.593   4.292   3.612 -0.5126  0.4510 -1.7971
 2051TIP3   OH227567   2.857   1.454  13.372 -0.1748 -0.4431  0.1710
 2051TIP3    H127568   2.952   1.442  13.369  0.0254  1.1307 -0.1828
 2051TIP3    H227569   2.830   1.454  13.280 -0.0515  2.4251  0.0858
 2052TIP3   OH227570   5.981   4.993   2.485 -0.0749  0.3962 -0.0748
 2052TIP3    H127571   6.014   4.965   2.399  1.3904  1.8542 -0.0216
 2052TIP3    H227572   5.926   4.921   2.514  1.8133 -1.4501 -0.9191
 2053TIP3   OH227573   6.128   3.787  17.021 -0.5125 -0.6744  0.0803
 2053TIP3    H127574   6.039   3.803  16.988 -0.4864 -1.1605 -0.2314
 2053TIP3    H227575   6.128   3.694  17.045  0.0986 -0.8215 -0.4949
 2054TIP3   OH227576   3.543   6.124   4.578 -0.2461  0.0082 -0.2625
 2054TIP3    H127577   3.625   6.111   4.625  0.1852  1.8325 -0.5053
 2054TIP3    H227578   3.534   6.044   4.525  1.7635  0.1215 -0.8237
 2055TIP3   OH227579   0.988   5.487   1.645  0.2045  0.8570  0.5941
 2055TIP3    H127580   0.918   5.477   1.709  1.0480  2.5624  1.8083
 2055TIP3    H227581   1.043   5.410   1.657 -0.0721  0.7811  1.3638
 2056TIP3   OH227582   5.512   2.407   5.395 -0.2642  0.4791  0.2010
 2056TIP3    H127583   5.524   2.400   5.300  1.6830 -0.7573  0.4941
 2056TIP3    H227584   5.469   2.325   5.420 -0.1565  0.5037  0.4711
 2057TIP3   OH227585   5.809   4.175   2.136  0.1024  0.5272 -0.1621
 2057TIP3    H127586   5.732   4.150   2.187 -0.0063 -1.5902 -1.2990
 2057TIP3    H227587   5.883   4.134   2.182  0.3236  0.9997 -0.1010
 2058TIP3   OH227588   5.498   3.614   3.003 -0.0787  0.1761  0.5340
 2058TIP3    H127589   5.582   3.660   2.999  0.2358 -0.4844 -0.8704
 2058TIP3    H227590   5.497   3.571   3.089  1.9729 -1.5670 -0.2709
 2059TIP3   OH227591   0.151   3.894  11.950  0.1268  0.3553  0.0534
 2059TIP3    H127592   0.163   3.829  12.019 -0.2112 -0.4181 -0.6086
 2059TIP3    H227593   0.224   3.955  11.961  0.7806 -0.4703  0.3091
 2060TIP3   OH227594   3.554   5.265   5.748 -0.1007  0.1787  0.5793
 2060TIP3    H127595   3.643   5.255   5.715 -0.2887  2.9626 -0.9249
 2060TIP3    H227596   3.498   5.223   5.683 -0.0564  0.5519  0.3010
 2061TIP3   OH227597   5.250   6.553  15.809 -1.1521  0.5608  0.8763
 2061TIP3    H127598   5.339   6.557  15.772 -1.3876  0.5506  0.2944
 2061TIP3    H227599   5.233   6.460  15.821 -1.5244  0.4907 -0.1208
 2062TIP3   OH227600   4.567   6.679  11.070 -0.6859  0.3212  0.2694
 2062TIP3    H127601   4.475   6.691  11.093 -0.5083 -0.5279  1.4425
 2062TIP3    H227602   4.566   6.614  11.000 -0.8554 -0.9961  1.4913
 2063TIP3   OH227603   0.726   3.971  15.849 -0.1200 -0.3579  0.4036
 2063TIP3    H127604   0.798   4.003  15.903  1.9358 -0.3543 -2.2581
 2063TIP3    H227605   0.751   3.883  15.823 -1.6410 -0.8152  0.4093
 2064TIP3   OH227606   1.927   6.733   6.049 -0.2043  0.0306 -0.6342
 2064TIP3    H127607   1.839   6.771   6.051 -0.0282  0.4776 -1.1034
 2064TIP3    H227608   1.912   6.639   6.046 -0.6831  0.1233 -1.3702
 2065TIP3   OH227609   4.670   2.234   2.576 -0.5311  0.5021  0.0465
 2065TIP3    H127610   4.715   2.155   2.546 -1.4691 -0.1141  0.2654
 2065TIP3    H227611   4.707   2.251   2.663  0.1863  0.7129 -0.2980
 2066TIP3   OH227612   2.924   4.711  16.442  0.1701  0.3422  0.1657
 2066TIP3    H127613   3.007   4.755  16.461  0.0503  1.7797 -2.3177
 2066TIP3    H227614   2.861   4.783  16.434 -0.8848 -0.5930  0.0586
 2067TIP3   OH227615   6.573   3.244   5.691  0.7693  0.1547 -0.2291
 2067TIP3    H127616   6.638   3.216   5.756  0.9752  0.1395 -0.4410
 2067TIP3    H227617   6.489   3.232   5.735  0.7840 -1.7685 -0.6569
 2068TIP3   OH227618   2.553   0.888  12.718  0.3972  0.0314 -0.4120
 2068TIP3    H127619   2.596   0.898  12.802 -0.9433 -1.4126  0.4764
 2068TIP3    H227620   2.538   0.978  12.687  0.6711  0.5677  0.9901
 2069TIP3   OH227621   2.568   3.121   3.283  0.4459 -0.1391  0.2003
 2069TIP3    H127622   2.651   3.122   3.236 -0.2891  0.7687 -1.1063
 2069TIP3    H227623   2.545   3.028   3.288  1.3112 -0.3624  0.1850
 2070TIP3   OH227624   1.351   6.547  11.420 -0.5704 -0.5199 -0.4340
 2070TIP3    H127625   1.293   6.619  11.447 -0.5301 -0.4532 -0.5248
 2070TIP3    H227626   1.433   6.591  11.397  0.1424 -0.7852  1.5072
 2071TIP3   OH227627   1.130   6.404   2.226  0.4236  0.1513 -0.3160
 2071TIP3    H127628   1.069   6.336   2.199  0.9398 -0.3739 -0.1728
 2071TIP3    H227629   1.108   6.480   2.172  0.3353 -0.3608 -0.9956
 2072TIP3   OH227630   3.005   3.928   6.185  0.1485 -0.5138  0.0029
 2072TIP3    H127631   2.918   3.956   6.215  1.0585 -0.9477  3.3063
 2072TIP3    H227632   2.996   3.834   6.171  0.3398 -0.7857  1.5489
 2073TIP3   OH227633   6.024   2.109  16.275 -0.3337 -0.5875  0.3379
 2073TIP3    H127634   6.045   2.101  16.368 -1.0945 -1.6616  0.4226
 2073TIP3    H227635   5.965   2.184  16.270 -0.2943 -0.5320  0.7258
 2074TIP3   OH227636   3.616   3.476  11.451  0.5596 -0.0225  0.3703
 2074TIP3    H127637   3.556   3.424  11.505  0.6285 -1.0132 -0.4974
 2074TIP3    H227638   3.686   3.415  11.428  0.1909  0.2009 -1.3942
 2075TIP3   OH227639   2.265   3.063  12.678  0.1107 -0.1930 -0.6130
 2075TIP3    H127640   2.337   3.000  12.685  0.9879  1.1329  2.9830
 2075TIP3    H227641   2.194   3.024  12.730  0.3370  1.3266  0.8526
 2076TIP3   OH227642   1.396   5.108  12.257 -0.8031 -0.2400 -0.3251
 2076TIP3    H127643   1.386   5.047  12.184  1.2185  2.0443 -2.6222
 2076TIP3    H227644   1.463   5.070  12.313  0.5794 -0.0889 -1.8389
 2077TIP3   OH227645   6.567   6.160   4.925  0.5821 -0.0405  0.3720
 2077TIP3    H127646   6.582   6.076   4.970 -0.2595  0.0324  0.8049
 2077TIP3    H227647   6.626   6.221   4.969  1.2699 -0.4175 -0.0066
 2078TIP3   OH227648   1.351   2.884   1.427 -0.5576  0.1214  0.0722
 2078TIP3    H127649   1.297   2.890   1.506 -0.5017  0.3800  0.0908
 2078TIP3    H227650   1.344   2.970   1.386 -1.4192 -0.3316 -0.7522
 2079TIP3   OH227651   3.044   0.435  16.927 -0.1051  0.1020 -0.2303
 2079TIP3    H127652   3.122   0.445  16.872  1.1778  1.6228  1.7867
 2079TIP3    H227653   3.009   0.349  16.904  0.0139  0.9543 -3.8508
 2080TIP3   OH227654   5.558   3.046  12.797  0.3639 -0.1092  0.2374
 2080TIP3    H127655   5.545   3.077  12.708  1.6366 -1.1828 -0.3458
 2080TIP3    H227656   5.543   3.123  12.852 -1.8621  0.2106 -0.7741
 2081TIP3   OH227657   1.353   3.464   5.167  0.5128 -0.4725 -0.1680
 2081TIP3    H127658   1.294   3.460   5.091  0.4618 -0.7094 -0.1146
 2081TIP3    H227659   1.315   3.404   5.231 -0.9390  1.7041  1.0892
 2082TIP3   OH227660   5.734   1.218   2.526 -0.2784  0.1690  0.2374
 2082TIP3    H127661   5.657   1.263   2.562  0.9427  0.6112  2.3829
 2082TIP3    H227662   5.758   1.269   2.449 -1.0466  1.1162  0.6146
 2083TIP3   OH227663   2.758   1.522   0.997 -0.5603 -0.0430 -0.5112
 2083TIP3    H127664   2.775   1.546   0.906 -2.5997  1.7148 -0.4713
 2083TIP3    H227665   2.845   1.507   1.034  0.5869  3.1195 -1.7126
 2084TIP3   OH227666   1.104   1.841  11.285  0.5067  0.0266 -0.7436
 2084TIP3    H127667   1.071   1.768  11.232  0.2264 -1.0183  0.8234
 2084TIP3    H227668   1.031   1.864  11.343  1.9114 -1.1902  1.5927
 2085TIP3   OH227669   6.292   4.887  12.968  0.6698  0.2528  0.3197
 2085TIP3    H127670   6.247   4.847  12.894 -0.1761 -1.2682  1.6249
 2085TIP3    H227671   6.380   4.905  12.935  0.7480 -1.7184 -0.6374
 2086TIP3   OH227672   6.123   6.405  12.473 -0.1721  0.3380  0.1003
 2086TIP3    H127673   6.108   6.493  12.438 -0.1222 -0.4209 -1.9042
 2086TIP3    H227674   6.154   6.420  12.562  1.4266  2.3987 -0.7582
 2087TIP3   OH227675   4.431   3.000  13.123 -0.1486 -0.1155 -0.3333
 2087TIP3    H127676   4.488   2.923  13.125  1.4929  0.9933 -2.4511
 2087TIP3    H227677   4.457   3.051  13.199 -0.0619 -0.8232  0.1194
 2088TIP3   OH227678   0.800   3.258   1.254 -0.5576  0.0338  0.1069
 2088TIP3    H127679   0.830   3.349   1.256  1.2253 -0.5659  1.1026
 2088TIP3    H227680   0.831   3.220   1.336 -0.8211 -1.6287 -0.5434
 2089TIP3   OH227681   3.472   6.623  14.287  0.6152 -0.2085  0.3164
 2089TIP3    H127682   3.465   6.548  14.229  0.5496  0.3789 -0.4478
 2089TIP3    H227683   3.430   6.595  14.369  0.5587 -0.9808  0.0182
 2090TIP3   OH227684   1.947   3.006  12.379 -0.3239 -0.3406 -0.5224
 2090TIP3    H127685   1.912   2.946  12.445  0.5805 -0.0926  0.1803
 2090TIP3    H227686   2.025   3.044  12.419  0.0886  0.0080 -1.6348
 2091TIP3   OH227687   6.075   3.867   0.279 -0.3629 -0.3634  0.8888
 2091TIP3    H127688   6.064   3.918   0.199 -0.9252  0.0009  1.1951
 2091TIP3    H227689   6.010   3.903   0.340 -1.1402 -1.8022  0.9374
 2092TIP3   OH227690   4.326   3.943   4.949 -0.3197 -0.3797  0.3784
 2092TIP3    H127691   4.312   4.013   5.013 -0.4813  1.3014 -1.4344
 2092TIP3    H227692   4.418   3.953   4.923  0.1306 -1.9235  1.3339
 2093TIP3   OH227693   3.049   6.710  12.595 -0.6325 -0.6617  0.5122
 2093TIP3    H127694   3.127   6.659  12.613 -0.2190 -0.9336 -1.8985
 2093TIP3    H227695   3.081   6.800  12.587 -0.1882 -1.0431 -2.5518
 2094TIP3   OH227696   0.391   1.397  14.543 -0.0417  0.0328 -0.0034
 2094TIP3    H127697   0.339   1.326  14.582 -0.0085  0.5828  1.0697
 2094TIP3    H227698   0.469   1.404  14.599  0.8532 -0.3182 -1.1941
 2095TIP3   OH227699   5.667   3.980   0.244  0.2119  0.0743  0.2655
 2095TIP3    H127700   5.749   4.018   0.273  0.6319  1.3298 -2.4321
 2095TIP3    H227701   5.604   4.052   0.247  0.1447  0.0975 -1.3897
 2096TIP3   OH227702   3.805   5.252  16.682 -0.1941 -0.2323  0.1057
 2096TIP3    H127703   3.900   5.258  16.694 -0.2974  1.1007  0.3441
 2096TIP3    H227704   3.770   5.326  16.731 -1.3564 -0.6525 -0.0793
 2097TIP3   OH227705   1.209   1.707  14.578  0.3651 -0.3636  0.4200
 2097TIP3    H127706   1.178   1.662  14.657 -1.1687  0.2932  0.2175
 2097TIP3    H227707   1.142   1.689  14.512 -0.1897  1.9892  0.2683
 2098TIP3   OH227708   3.815   3.061   4.232  0.3816 -0.3717  0.0671
 2098TIP3    H127709   3.882   2.994   4.224  0.1475 -0.3713 -2.0373
 2098TIP3    H227710   3.733   3.016   4.211 -0.2841 -0.3326  2.4444
 2099TIP3   OH227711   5.112   2.028  16.594 -0.5070  0.4193 -0.3783
 2099TIP3    H127712   5.122   1.940  16.559 -2.0465 -0.9463  2.4150
 2099TIP3    H227713   5.154   2.085  16.530  3.2699 -2.5970 -0.7354
 2100TIP3   OH227714   6.318   3.301  10.599  0.2412  0.4792  0.1867
 2100TIP3    H127715   6.377   3.350  10.541  1.9148  1.5410  2.6779
 2100TIP3    H227716   6.289   3.365  10.663 -1.2493 -0.7546  0.7688
 2101TIP3   OH227717   2.393   5.083  12.136  0.2358 -0.2972  0.0024
 2101TIP3    H127718   2.445   5.097  12.216  1.6108  3.4339 -1.4685
 2101TIP3    H227719   2.352   5.168  12.119 -3.4134 -2.1628 -1.0124
 2102TIP3   OH227720   6.081   0.177   5.981 -0.4685 -0.1100  0.1602
 2102TIP3    H127721   6.074   0.267   6.011 -0.6060  0.0068 -0.2201
 2102TIP3    H227722   6.081   0.183   5.886 -0.6365 -0.5220  0.1308
 2103TIP3   OH227723   4.828   1.874  16.338 -0.1069  0.0054  0.2101
 2103TIP3    H127724   4.839   1.782  16.359  0.4430 -0.0603 -0.3425
 2103TIP3    H227725   4.876   1.886  16.256 -0.4643  0.7065  0.0996
 2104TIP3   OH227726   6.511   2.453   3.923  0.4576  0.0901  0.5638
 2104TIP3    H127727   6.574   2.419   3.860 -0.4977 -0.6851  0.0239
 2104TIP3    H227728   6.562   2.514   3.976  1.0363  1.6482 -1.6857
 2105TIP3   OH227729   4.272   4.947   2.307 -0.3961 -0.5074  0.0852
 2105TIP3    H127730   4.310   4.999   2.236  0.5110 -1.6501 -0.2677
 2105TIP3    H227731   4.235   5.012   2.367  0.8971  0.5532 -0.2627
 2106TIP3   OH227732   3.063   3.940   2.166  0.6901 -0.5048 -0.2041
 2106TIP3    H127733   3.004   4.015   2.158  0.5158 -0.6989 -0.7646
 2106TIP3    H227734   3.098   3.928   2.078  0.7117 -1.0954 -0.1137
 2107TIP3   OH227735   3.666   4.521  14.232 -0.1021 -0.1209 -0.5356
 2107TIP3    H127736   3.700   4.542  14.145  2.1998  1.8117  0.7537
 2107TIP3    H227737   3.713   4.443  14.258 -0.0867 -0.1426 -0.6278
 2108TIP3   OH227738   3.689   0.766  13.352  0.2698 -0.2046  0.4133
 2108TIP3    H127739   3.732   0.754  13.267 -1.2302  0.5438 -0.4606
 2108TIP3    H227740   3.724   0.849  13.385 -0.2592  0.2511 -0.1577
 2109TIP3   OH227741   5.252   5.936  16.709  0.0005  0.3310  0.5817
 2109TIP3    H127742   5.291   6.015  16.673  0.3948  0.1537  0.6168
 2109TIP3    H227743   5.317   5.903  16.771 -0.0987 -0.0918  0.4686
 2110TIP3   OH227744   2.840   6.117  11.298 -0.1377 -0.5718  0.0723
 2110TIP3    H127745   2.760   6.143  11.253  0.5870 -1.2205 -1.6088
 2110TIP3    H227746   2.832   6.023  11.311 -0.0062 -0.5105  0.6367
 2111TIP3   OH227747   1.025   4.009   6.136 -0.1030 -0.5594  0.3290
 2111TIP3    H127748   1.017   3.932   6.080 -0.4110  0.3578 -0.9392
 2111TIP3    H227749   1.118   4.030   6.135 -0.1259 -0.4633  0.0269
 2112TIP3   OH227750   3.656   3.825   5.954 -0.1420 -0.6306 -0.2702
 2112TIP3    H127751   3.649   3.866   6.041  0.3364 -1.5184  0.1857
 2112TIP3    H227752   3.571   3.844   5.912  0.4652  1.7559 -0.4780
 2113TIP3   OH227753   2.433   4.952  13.641  0.3885  0.2893 -0.4429
 2113TIP3    H127754   2.445   4.897  13.719 -2.0464  0.5696  0.1985
 2113TIP3    H227755   2.466   5.038  13.667  0.4468  0.1421 -0.0199
 2114TIP3   OH227756   5.491   4.076  13.450  0.1679 -0.2682  0.1624
 2114TIP3    H127757   5.546   4.126  13.511  1.4764 -1.1676 -0.2721
 2114TIP3    H227758   5.420   4.137  13.428  0.7501  0.7626  1.0531
 2115TIP3   OH227759   3.364   0.945  13.545 -0.5351  0.0858 -0.1454
 2115TIP3    H127760   3.357   0.877  13.478  0.5872  0.1886 -0.3889
 2115TIP3    H227761   3.458   0.949  13.565 -0.6359  1.2961  0.1392
 2116TIP3   OH227762   4.888   3.634  11.418 -0.2548  0.3252 -0.2906
 2116TIP3    H127763   4.909   3.595  11.333 -0.1773 -0.8552  0.2621
 2116TIP3    H227764   4.967   3.681  11.444 -0.4789  1.1796 -1.1435
 2117TIP3   OH227765   2.621   2.168   2.259 -0.1754  0.2856  0.1625
 2117TIP3    H127766   2.669   2.099   2.304  1.0969  1.3081  0.4072
 2117TIP3    H227767   2.552   2.194   2.320 -0.3524 -0.4193  0.2628
 2118TIP3   OH227768   1.463   1.422  15.468  0.1227 -0.1741  0.0468
 2118TIP3    H127769   1.392   1.452  15.411 -1.3207 -1.4660  1.1473
 2118TIP3    H227770   1.500   1.502  15.504 -0.9334  0.5048 -0.3482
 2119TIP3   OH227771   5.078   2.903   3.561  0.4277 -0.3812  0.0559
 2119TIP3    H127772   5.144   2.916   3.493 -0.2243 -0.5796 -0.6290
 2119TIP3    H227773   4.996   2.894   3.513 -0.5199  2.5518  1.0166
 2120TIP3   OH227774   5.984   3.839   1.757  0.1854  0.5440 -0.0569
 2120TIP3    H127775   5.896   3.847   1.721  0.0485  1.2137  0.4084
 2120TIP3    H227776   6.041   3.877   1.690 -0.2173  3.2396  1.0384
 2121TIP3   OH227777   1.761   1.387  15.905  0.5799 -0.1643 -0.3900
 2121TIP3    H127778   1.737   1.297  15.882  0.8988 -0.2709 -0.3125
 2121TIP3    H227779   1.768   1.432  15.821  3.2645 -0.9412 -0.6352
 2122TIP3   OH227780   6.019   2.239  11.608 -0.2786 -0.1160  0.2015
 2122TIP3    H127781   6.094   2.179  11.612 -0.1688 -0.0280 -0.4701
 2122TIP3    H227782   5.945   2.188  11.641 -0.2228 -0.6804 -0.5491
 2123TIP3   OH227783   5.283   2.314   3.242  0.3043 -0.0450  0.1966
 2123TIP3    H127784   5.261   2.383   3.179 -0.3828  0.1004  0.6015
 2123TIP3    H227785   5.199   2.283   3.275  0.6224 -0.8782  0.2337
 2124TIP3   OH227786   6.530   1.490   2.664 -0.1041 -0.3022 -0.4145
 2124TIP3    H127787   6.435   1.476   2.670  0.2504 -2.6410  0.4010
 2124TIP3    H227788   6.562   1.414   2.614  1.5854 -0.6906  1.2011
 2125TIP3   OH227789   6.029   5.105  16.033  0.1746  0.5215 -0.5394
 2125TIP3    H127790   6.113   5.059  16.031  0.9213  1.7994  1.3443
 2125TIP3    H227791   6.030   5.160  15.954 -0.0211 -1.3804 -1.9168
 2126TIP3   OH227792   3.589   2.517   3.678 -0.4707  0.1490 -0.1854
 2126TIP3    H127793   3.517   2.473   3.631 -3.4578  0.9957  3.3812
 2126TIP3    H227794   3.575   2.610   3.662 -1.1150  0.4045  1.7237
 2127TIP3   OH227795   3.566   5.010  15.388 -0.2380 -0.0725  0.6885
 2127TIP3    H127796   3.659   5.033  15.381 -0.2466  0.1048  1.0942
 2127TIP3    H227797   3.548   5.014  15.482 -0.6483 -0.1382  0.6125
 2128TIP3   OH227798   2.950   1.440  11.987 -0.5095  0.2830 -0.2022
 2128TIP3    H127799   3.035   1.477  11.964 -0.2698 -0.3086 -0.2755
 2128TIP3    H227800   2.961   1.345  11.977 -1.2671  0.2216 -0.5327
 2129TIP3   OH227801   6.599   5.802   6.294  0.5836 -0.4777 -0.1815
 2129TIP3    H127802   6.642   5.879   6.259  2.2995 -1.6453 -0.7239
 2129TIP3    H227803   6.613   5.807   6.389 -1.9879  1.4361  0.1528
 2130TIP3   OH227804   1.133   0.202   0.148 -0.3793 -0.6926 -0.1940
 2130TIP3    H127805   1.052   0.181   0.194 -1.3534 -0.5800 -1.8133
 2130TIP3    H227806   1.138   0.297   0.152 -2.1177 -0.4280 -2.9761
 2131TIP3   OH227807   2.867   1.085   1.710 -0.0208  0.9603 -0.2012
 2131TIP3    H127808   2.928   1.035   1.765  0.4771  0.7527 -0.9380
 2131TIP3    H227809   2.841   1.159   1.765  0.9382  1.0796  0.1015
 2132TIP3   OH227810   4.438   0.681  13.411  0.2648  0.7695 -0.2492
 2132TIP3    H127811   4.384   0.754  13.380  0.7529  1.2614  0.0573
 2132TIP3    H227812   4.436   0.618  13.339 -1.6936  0.2551  0.2047
 2133TIP3   OH227813   5.483   2.242  14.664 -0.3136 -0.4101  0.7203
 2133TIP3    H127814   5.526   2.177  14.607  0.5904 -2.0983  3.2572
 2133TIP3    H227815   5.531   2.237  14.746 -3.8491 -0.6127  2.8760
 2134TIP3   OH227816   0.978   2.858   3.335 -0.3888 -0.2416  0.1408
 2134TIP3    H127817   1.046   2.816   3.389  0.1176 -0.3690 -0.5846
 2134TIP3    H227818   0.972   2.947   3.369 -0.3437 -0.4345  0.6586
 2135TIP3   OH227819   2.262   3.969   3.565 -0.1925  0.3056 -0.1382
 2135TIP3    H127820   2.339   3.954   3.510 -0.2909  1.5085 -0.6207
 2135TIP3    H227821   2.212   3.888   3.558  0.4707 -0.0650 -0.7309
 2136TIP3   OH227822   4.797   4.136   5.323 -0.2744 -0.1209 -0.3020
 2136TIP3    H127823   4.746   4.092   5.255 -3.2441  1.7326  0.6774
 2136TIP3    H227824   4.857   4.193   5.274 -0.5224 -0.7842 -1.4094
 2137TIP3   OH227825   4.305   0.780  11.457 -0.2471 -0.1693  0.7541
 2137TIP3    H127826   4.211   0.790  11.472 -0.4033  1.3867 -0.9735
 2137TIP3    H227827   4.343   0.861  11.489  0.3384 -0.2135  0.1806
 2138TIP3   OH227828   0.160   6.496   2.447 -0.2782 -1.3689 -0.9584
 2138TIP3    H127829   0.194   6.567   2.393 -0.4495 -1.0059 -0.5988
 2138TIP3    H227830   0.201   6.509   2.533 -2.3197 -0.1293 -0.1398
 2139TIP3   OH227831   0.142   1.763  16.309 -0.4908  0.4653  0.2744
 2139TIP3    H127832   0.199   1.737  16.382 -0.1205  1.4386  0.3389
 2139TIP3    H227833   0.185   1.728  16.231 -0.6130 -0.1231  0.4654
 2140TIP3   OH227834   1.098   0.121  12.618 -0.8042 -0.6309  0.6243
 2140TIP3    H127835   1.065   0.103  12.706 -1.4415  1.6790  0.9078
 2140TIP3    H227836   1.193   0.123  12.627 -0.8360 -1.1931  1.0885
 2141TIP3   OH227837   5.090   1.879  15.003  0.3634 -0.1109  0.5269
 2141TIP3    H127838   5.136   1.872  15.087  1.4189  0.3450 -0.0116
 2141TIP3    H227839   5.115   1.800  14.955  0.8307  0.2888  0.1115
 2142TIP3   OH227840   0.297   0.989   4.619 -0.0363  0.0664 -0.0839
 2142TIP3    H127841   0.371   0.954   4.669  0.0674  1.4497  0.7681
 2142TIP3    H227842   0.314   0.962   4.529  0.9869 -0.4885  0.2646
 2143TIP3   OH227843   2.813   4.319  16.468 -0.1850 -0.8693  0.3580
 2143TIP3    H127844   2.817   4.328  16.563  0.5402 -1.0775  0.3512
 2143TIP3    H227845   2.860   4.237  16.450  2.4574  0.7347 -0.4130
 2144TIP3   OH227846   5.068   5.071  12.285  0.0318 -0.4012  0.3912
 2144TIP3    H127847   5.080   5.015  12.361  0.2482  0.5382  1.0561
 2144TIP3    H227848   5.087   5.160  12.317 -0.1578  0.0341 -0.6791
 2145TIP3   OH227849   6.354   3.063   2.540  0.4347  0.1521  0.2054
 2145TIP3    H127850   6.288   3.109   2.592 -1.5980 -1.7716 -0.6265
 2145TIP3    H227851   6.372   2.983   2.590 -0.0205 -0.7219 -1.0296
 2146TIP3   OH227852   3.302   6.752   4.795  0.3782 -0.2027  0.2774
 2146TIP3    H127853   3.330   6.813   4.864 -1.9960  2.6039 -1.1425
 2146TIP3    H227854   3.257   6.807   4.731 -1.2970 -3.3785 -1.4006
 2147TIP3   OH227855   1.867   3.535   1.817  0.2139 -0.1203  0.0620
 2147TIP3    H127856   1.812   3.458   1.804  0.3689 -0.4612  1.4274
 2147TIP3    H227857   1.956   3.500   1.822  0.2492  0.1133  1.0492
 2148TIP3   OH227858   3.128   3.399  16.054 -0.1219 -0.2863  0.1252
 2148TIP3    H127859   3.107   3.307  16.036  0.3253 -0.9411  2.8084
 2148TIP3    H227860   3.215   3.412  16.014 -1.0118 -0.4579 -1.9322
 2149TIP3   OH227861   3.760   5.087  12.797  0.0087 -0.0319  0.0741
 2149TIP3    H127862   3.743   4.993  12.792 -0.5155  0.0067  0.9511
 2149TIP3    H227863   3.856   5.094  12.798  0.0502 -0.5633  0.0517
 2150TIP3   OH227864   3.524   1.292   6.072 -0.3011  0.1115 -0.2366
 2150TIP3    H127865   3.516   1.279   6.166  0.8852 -0.1417 -0.1697
 2150TIP3    H227866   3.496   1.209   6.034 -0.4484  0.0949 -0.0920
 2151TIP3   OH227867   3.315   0.725  13.375 -0.3323 -0.0871  0.2269
 2151TIP3    H127868   3.397   0.675  13.375 -0.8856 -1.0134  0.5550
 2151TIP3    H227869   3.251   0.665  13.338 -0.8502  0.6691 -0.1057
 2152TIP3   OH227870   3.687   1.400  14.882  0.6423  0.2781  0.0615
 2152TIP3    H127871   3.750   1.333  14.857  0.4923  0.6732 -1.3829
 2152TIP3    H227872   3.687   1.462  14.809 -1.6825  0.1058 -0.1250
 2153TIP3   OH227873   5.815   0.104  11.141  0.4463 -0.3018  0.0544
 2153TIP3    H127874   5.884   0.065  11.087  0.4373 -0.3808  0.0996
 2153TIP3    H227875   5.829   0.199  11.134  1.7439 -0.3648  1.6245
 2154TIP3   OH227876   4.255   3.747   4.750  0.1149  0.0552  0.6084
 2154TIP3    H127877   4.337   3.772   4.709 -0.2651  2.7572  1.4109
 2154TIP3    H227878   4.278   3.723   4.839  0.0714  0.4921  0.7363
 2155TIP3   OH227879   3.221   6.636  10.679 -0.2092  0.2972 -0.8306
 2155TIP3    H127880   3.182   6.683  10.606  0.8293  1.1929 -0.8266
 2155TIP3    H227881   3.183   6.675  10.757 -0.1182  0.4327 -0.8543
 2156TIP3   OH227882   3.978   6.150  17.101  0.7883 -0.2211  0.1947
 2156TIP3    H127883   4.062   6.138  17.146  0.3769  2.3670  1.7448
 2156TIP3    H227884   3.978   6.242  17.075 -1.7785 -0.0552  0.6442
 2157TIP3   OH227885   3.970   2.516   2.233 -0.2158 -0.3740 -1.2417
 2157TIP3    H127886   3.982   2.523   2.328 -0.8449 -1.8059 -1.0560
 2157TIP3    H227887   4.048   2.472   2.202 -0.2698 -0.4087 -1.3283
 2158TIP3   OH227888   3.186   0.810  10.274  0.0378 -0.0100 -0.3979
 2158TIP3    H127889   3.098   0.825  10.239 -0.7952 -0.7914  1.3231
 2158TIP3    H227890   3.219   0.735  10.223  0.1105  0.8963 -1.7148
 2159TIP3   OH227891   3.237   4.939   6.360 -0.4783  0.1602  0.1833
 2159TIP3    H127892   3.267   4.976   6.443 -2.0040 -2.7377  2.1074
 2159TIP3    H227893   3.289   4.860   6.348 -2.4469 -1.1711  0.0450
 2160TIP3   OH227894   4.455   3.015  12.304  0.1168 -0.1836 -0.3251
 2160TIP3    H127895   4.541   2.972  12.306  0.2236 -0.0795 -1.7110
 2160TIP3    H227896   4.418   2.989  12.219 -0.7056  0.7484 -0.2611
 2161TIP3   OH227897   3.760   0.349   5.714  0.3698 -0.0065 -0.4388
 2161TIP3    H127898   3.712   0.277   5.672 -0.2029 -0.3996  0.8677
 2161TIP3    H227899   3.736   0.343   5.807  0.4305  1.7796 -0.2911
 2162TIP3   OH227900   1.932   4.357   3.515 -0.1570  0.0944 -0.1234
 2162TIP3    H127901   1.930   4.445   3.552 -1.4978  0.6775 -1.5063
 2162TIP3    H227902   2.004   4.359   3.452  1.5559 -0.6315  1.7859
 2163TIP3   OH227903   2.281   3.170   0.815  0.3663  0.1315 -0.0055
 2163TIP3    H127904   2.309   3.145   0.902  0.1739  1.4005  0.4307
 2163TIP3    H227905   2.309   3.261   0.805 -0.4605  0.3104 -0.8921
 2164TIP3   OH227906   5.262   3.212  11.665 -0.0162 -0.2784  0.1676
 2164TIP3    H127907   5.311   3.292  11.686 -0.5005 -0.4038  1.8345
 2164TIP3    H227908   5.187   3.214  11.724  1.2451 -3.1985  1.9480
 2165TIP3   OH227909   4.509   3.839  16.713 -0.4399  0.9231 -0.3267
 2165TIP3    H127910   4.564   3.832  16.791 -1.6412  1.4821  0.5806
 2165TIP3    H227911   4.437   3.778  16.729  0.0406 -0.0143 -1.6280
 2166TIP3   OH227912   5.584   2.355  14.297 -0.3568  0.5374 -0.5694
 2166TIP3    H127913   5.596   2.403  14.215 -0.7868  1.9011  0.1482
 2166TIP3    H227914   5.500   2.385  14.330  0.0839  0.4315  0.6584
 2167TIP3   OH227915   3.166   6.766  16.901 -0.8062 -0.1608  0.0015
 2167TIP3    H127916   3.151   6.856  16.873  1.1062 -0.2785 -1.4367
 2167TIP3    H227917   3.233   6.773  16.969 -0.1911 -0.5415 -0.5569
 2168TIP3   OH227918   4.073   1.448   2.194 -0.0082  0.5839  0.4478
 2168TIP3    H127919   4.030   1.383   2.138 -1.8852  1.4296  0.8841
 2168TIP3    H227920   4.117   1.396   2.261 -0.4792 -0.2805  0.0947
 2169TIP3   OH227921   1.969   5.641  16.044  0.0511  0.9601 -0.6660
 2169TIP3    H127922   2.005   5.583  15.978 -0.2316  1.3859 -1.2041
 2169TIP3    H227923   1.890   5.597  16.075  0.0083  0.9148 -0.8441
 2170TIP3   OH227924   1.075   2.463   5.465 -0.3557 -0.3749  0.0932
 2170TIP3    H127925   1.105   2.509   5.387  0.5403 -0.4365  0.3865
 2170TIP3    H227926   1.072   2.530   5.533  1.9607 -0.9090  0.7811
 2171TIP3   OH227927   4.867   5.787  13.977 -0.0868  0.0489 -0.5062
 2171TIP3    H127928   4.960   5.791  13.955  0.3086  2.5604  1.3566
 2171TIP3    H227929   4.863   5.735  14.057 -0.0434  1.4189  0.4064
 2172TIP3   OH227930   4.167   2.271   3.412  0.4341 -0.6830 -0.1265
 2172TIP3    H127931   4.217   2.292   3.491  1.2660 -0.9681 -0.5604
 2172TIP3    H227932   4.093   2.332   3.413  0.8105 -0.2290  0.5230
 2173TIP3   OH227933   0.221   0.620  15.706  0.1058  0.2148 -0.4136
 2173TIP3    H127934   0.292   0.620  15.643  0.9622 -1.2795  0.5396
 2173TIP3    H227935   0.172   0.539  15.688  1.0589 -0.8432  1.5895
 2174TIP3   OH227936   4.224   5.033   1.677  0.1784  0.0893 -0.6463
 2174TIP3    H127937   4.131   5.052   1.694  0.1634  1.2425 -1.8564
 2174TIP3    H227938   4.252   4.980   1.751 -0.6502  2.2947  1.2857
 2175TIP3   OH227939   6.545   2.844  13.583 -0.0319 -0.2585  0.1547
 2175TIP3    H127940   6.545   2.940  13.577 -2.0902 -0.1166  1.8158
 2175TIP3    H227941   6.492   2.815  13.510 -1.7614  0.0263  1.2805
 2176TIP3   OH227942   4.037   2.422   3.075  0.2272  0.1043 -0.6175
 2176TIP3    H127943   4.055   2.515   3.062 -0.9085  0.2805 -0.9957
 2176TIP3    H227944   3.949   2.420   3.115  0.1012 -0.8146 -0.9290
 2177TIP3   OH227945   6.371   1.531   6.820 -0.1500  0.3790 -0.5942
 2177TIP3    H127946   6.373   1.508   6.727  0.5095  0.0658 -0.5102
 2177TIP3    H227947   6.439   1.476   6.859 -2.2090 -1.4635  0.5238
 2178TIP3   OH227948   2.752   0.806   5.303  0.2638 -0.4208  0.1240
 2178TIP3    H127949   2.687   0.872   5.324  0.1749  0.2163 -2.0580
 2178TIP3    H227950   2.720   0.765   5.223  1.9666 -0.8656 -0.3507
 2179TIP3   OH227951   4.057   5.208   5.387 -0.4325  0.8174  0.8874
 2179TIP3    H127952   4.047   5.131   5.330 -1.2461  0.1758  1.8786
 2179TIP3    H227953   3.980   5.206   5.444  0.5970  1.1678  2.3263
 2180TIP3   OH227954   5.172   3.685  16.166  0.2109 -0.7289  0.0170
 2180TIP3    H127955   5.226   3.606  16.159  1.3385  0.0062  0.1940
 2180TIP3    H227956   5.140   3.685  16.256 -0.1083 -1.1966 -0.0990
 2181TIP3   OH227957   6.055   0.866   3.836 -0.2519 -0.0028  0.0691
 2181TIP3    H127958   6.100   0.821   3.765 -2.5032 -2.3046  0.0655
 2181TIP3    H227959   6.110   0.943   3.854  0.9942 -0.0428 -3.2866
 2182TIP3   OH227960   5.897   3.330  12.863 -0.2552 -0.1794 -0.0279
 2182TIP3    H127961   5.857   3.351  12.948 -0.2300 -1.8790  0.4252
 2182TIP3    H227962   5.853   3.388  12.801 -0.6320  0.7334  1.0640
 2183TIP3   OH227963   0.069   2.900   0.228 -0.4255  0.1814  0.1664
 2183TIP3    H127964   0.136   2.892   0.160  1.2806 -0.3882  1.8823
 2183TIP3    H227965   0.008   2.827   0.210 -1.1054  1.2312 -1.9190
 2184TIP3   OH227966   1.932   3.899   3.688  0.7868  0.0210 -0.4335
 2184TIP3    H127967   1.885   3.957   3.748  0.1009 -2.1547  1.2188
 2184TIP3    H227968   1.958   3.955   3.615  0.4700  2.4536  1.2680
 2185TIP3   OH227969   3.780   4.310   3.184  0.6134 -0.3473  0.5102
 2185TIP3    H127970   3.857   4.325   3.238  0.3777 -0.0563  0.7708
 2185TIP3    H227971   3.787   4.374   3.114  1.0040 -0.8355  0.1009
 2186TIP3   OH227972   5.322   1.013  12.447  0.3704  0.1396 -0.3246
 2186TIP3    H127973   5.380   1.064  12.503  0.1050  0.0650  0.0189
 2186TIP3    H227974   5.255   1.075  12.419 -1.1335 -0.5095  1.7690
 2187TIP3   OH227975   2.337   0.301  15.297 -0.0758  0.7187  0.1614
 2187TIP3    H127976   2.293   0.266  15.220 -2.3235  1.2044  1.1858
 2187TIP3    H227977   2.351   0.226  15.354  2.4795  0.1852 -1.0736
 2188TIP3   OH227978   4.482   2.075   2.427  0.0194 -0.0897  0.1468
 2188TIP3    H127979   4.466   2.013   2.498  0.2285 -0.1305  0.1601
 2188TIP3    H227980   4.569   2.111   2.446  0.8381 -1.3974 -1.0365
 2189TIP3   OH227981   6.022   2.473  14.560 -0.0437  0.2319  0.2872
 2189TIP3    H127982   5.926   2.470  14.553 -0.0992  0.4010  0.9313
 2189TIP3    H227983   6.047   2.556  14.519 -0.0369 -0.5329 -1.2847
 2190TIP3   OH227984   2.183   1.216  13.849  0.5736  0.1068  0.2287
 2190TIP3    H127985   2.229   1.147  13.898 -0.0255 -0.3552  0.1457
 2190TIP3    H227986   2.144   1.271  13.917  1.0119  0.3326  0.2961
 2191TIP3   OH227987   1.272   2.245  15.559  0.8880 -0.0195  0.1129
 2191TIP3    H127988   1.309   2.330  15.584  0.3031  0.5783 -1.0240
 2191TIP3    H227989   1.348   2.190  15.541  1.2763  0.1995  1.0501
 2192TIP3   OH227990   5.005   5.762  16.710 -1.1645  0.0200 -0.5318
 2192TIP3    H127991   5.048   5.726  16.788 -0.2161 -1.3678 -1.6750
 2192TIP3    H227992   5.068   5.823  16.673 -1.3679  0.2154 -0.5615
 2193TIP3   OH227993   1.748   4.787  16.098 -0.0284  0.1804  0.2756
 2193TIP3    H127994   1.706   4.717  16.148 -0.5684  0.2128 -0.1261
 2193TIP3    H227995   1.830   4.748  16.068 -0.2005 -0.1941  0.2823
 2194TIP3   OH227996   4.640   4.924  17.044 -0.2989 -0.2766  0.1924
 2194TIP3    H127997   4.723   4.936  17.090 -0.1158 -1.7626  0.2824
 2194TIP3    H227998   4.665   4.903  16.954 -0.6591  2.8294 -0.6832
 2195TIP3   OH227999   3.601   0.284  12.625 -0.2903 -0.2391 -0.4425
 2195TIP3    H128000   3.624   0.236  12.705  2.3264  0.6228 -0.6193
 2195TIP3    H228001   3.660   0.248  12.558 -1.0396  0.4844 -1.5128
 2196TIP3   OH228002   3.267   0.273   3.500  0.1978  1.0938  0.0682
 2196TIP3    H128003   3.224   0.189   3.481 -0.5718  2.2232 -3.5518
 2196TIP3    H228004   3.195   0.336   3.504  0.9479  1.8966  0.8306
 2197TIP3   OH228005   0.489   2.702  16.271 -0.3544  0.0699 -0.1028
 2197TIP3    H128006   0.526   2.622  16.309 -1.6505  0.3899  1.9451
 2197TIP3    H228007   0.395   2.694  16.286 -0.8678  0.4298 -2.9655
 2198TIP3   OH228008   6.062   0.762  11.186 -0.1490 -0.0959  0.0285
 2198TIP3    H128009   6.018   0.841  11.217 -1.0841 -0.5286 -0.1879
 2198TIP3    H228010   6.088   0.716  11.267 -0.4702 -0.0511  0.1557
 2199TIP3   OH228011   2.902   6.432  15.944 -0.7979 -0.1945  0.1816
 2199TIP3    H128012   2.879   6.360  16.002 -1.9744 -0.2141 -0.2941
 2199TIP3    H228013   2.831   6.496  15.956  0.4852  1.1150  0.9731
 2200TIP3   OH228014   6.112   4.544   6.070  0.2226  0.0354  0.4921
 2200TIP3    H128015   6.087   4.500   6.152 -1.1336  0.1167  0.1329
 2200TIP3    H228016   6.052   4.619   6.064  0.0500 -0.1918 -0.7613
 2201TIP3   OH228017   5.800   2.243  10.698  0.4087 -0.0266  0.1559
 2201TIP3    H128018   5.773   2.334  10.704  0.2076 -0.0041 -0.9920
 2201TIP3    H228019   5.888   2.245  10.660  0.6205 -0.2860  0.6218
 2202TIP3   OH228020   3.607   1.055  16.325  0.4138 -0.0990  0.7184
 2202TIP3    H128021   3.539   1.013  16.377  0.5027 -0.0947  0.8391
 2202TIP3    H228022   3.562   1.125  16.278  0.1343 -0.7349  0.0181
 2203TIP3   OH228023   3.746   6.491  12.710  0.1315 -0.2858  0.3387
 2203TIP3    H128024   3.779   6.440  12.784  2.9014  1.0300  0.0861
 2203TIP3    H228025   3.654   6.504  12.730  0.1131 -2.5689  2.0298
 2204TIP3   OH228026   1.345   3.315   1.585 -0.0389 -0.2506  0.3674
 2204TIP3    H128027   1.302   3.327   1.670 -1.4220  0.3678 -0.4016
 2204TIP3    H228028   1.353   3.403   1.549  0.1553 -0.5414 -0.3133
 2205TIP3   OH228029   5.557   3.984  15.608 -0.1159  0.7209 -0.1497
 2205TIP3    H128030   5.580   3.989  15.701  0.3576 -0.6060 -0.1768
 2205TIP3    H228031   5.495   3.911  15.603  0.0461  0.6322 -0.9114
 2206TIP3   OH228032   4.536   3.388   6.406  0.4075 -0.0992  0.7519
 2206TIP3    H128033   4.441   3.380   6.392  0.6509 -1.9469  0.1195
 2206TIP3    H228034   4.552   3.483   6.403 -1.3501  0.2108  0.4242
 2207TIP3   OH228035   6.068   1.846   1.465 -0.5171 -0.0696  0.4116
 2207TIP3    H128036   6.056   1.797   1.383  1.3054  1.6801 -0.9515
 2207TIP3    H228037   6.007   1.919   1.458  0.1703  0.4938  0.2667
 2208TIP3   OH228038   0.901   3.445  15.066  0.1498  0.1684  0.2265
 2208TIP3    H128039   0.953   3.485  15.136 -0.3352  0.7270  0.2696
 2208TIP3    H228040   0.811   3.471  15.085 -0.4120 -2.3958  1.2478
 2209TIP3   OH228041   6.477   4.263  15.254  0.6645 -0.0638  0.5298
 2209TIP3    H128042   6.500   4.324  15.324 -0.6329 -1.4317  2.1958
 2209TIP3    H228043   6.386   4.283  15.234  1.3508  1.0773 -1.6017
 2210TIP3   OH228044   3.541   2.675   4.004  0.5121 -0.2875 -0.1015
 2210TIP3    H128045   3.502   2.668   3.917  3.0361 -0.9430 -1.2497
 2210TIP3    H228046   3.533   2.587   4.041 -0.3073 -0.0776  0.2412
 2211TIP3   OH228047   6.094   6.700   4.038  0.5962  0.0806 -0.0437
 2211TIP3    H128048   6.100   6.751   4.118 -1.3762  0.5683 -0.1959
 2211TIP3    H228049   6.131   6.758   3.970 -2.3402  1.6558 -0.3563
 2212TIP3   OH228050   1.855   3.992   0.736 -0.7482 -0.0074 -0.4447
 2212TIP3    H128051   1.919   4.049   0.695  0.3451 -1.7561 -1.1968
 2212TIP3    H228052   1.906   3.924   0.779 -2.0566 -0.9148 -0.2780
 2213TIP3   OH228053   0.077   4.163  16.452  0.5658  1.1729  0.3583
 2213TIP3    H128054   0.129   4.124  16.382  0.1223 -0.1965  0.7769
 2213TIP3    H228055   0.038   4.241  16.413 -0.6617 -0.2382 -1.2921
 2214TIP3   OH228056   5.910   4.045   2.538 -0.8040 -0.4514  0.2712
 2214TIP3    H128057   5.919   4.138   2.560 -2.2673  0.6317 -3.2783
 2214TIP3    H228058   5.826   4.019   2.574 -0.9487 -0.0461  0.2239
 2215TIP3   OH228059   2.880   4.311  12.292 -0.5693 -0.3593 -0.7701
 2215TIP3    H128060   2.843   4.313  12.380  0.1087  0.9526 -0.5071
 2215TIP3    H228061   2.966   4.353  12.300 -0.4313 -0.3713 -2.0194
 2216TIP3   OH228062   6.108   2.606  14.073  0.3533  0.2804  0.6079
 2216TIP3    H128063   6.090   2.698  14.055 -0.6569  0.3079  1.7084
 2216TIP3    H228064   6.030   2.560  14.041  0.6068 -0.1370  0.5902
 2217TIP3   OH228065   2.510   6.143   4.575  0.1160 -0.0844 -0.7340
 2217TIP3    H128066   2.533   6.071   4.517  0.7928 -1.5724  1.3290
 2217TIP3    H228067   2.443   6.191   4.527  0.9172 -1.0493 -2.8909
 2218TIP3   OH228068   4.718   5.604  13.574 -0.6258 -0.0824  0.2697
 2218TIP3    H128069   4.747   5.673  13.515 -0.0757  0.1352  0.7863
 2218TIP3    H228070   4.798   5.571  13.614 -0.8067 -1.5447 -0.5308
 2219TIP3   OH228071   5.189   5.207  13.573 -0.1522 -0.0405  0.0359
 2219TIP3    H128072   5.280   5.232  13.586 -0.5898  1.1534  0.8580
 2219TIP3    H228073   5.150   5.282  13.528 -1.3370  0.5269  1.9749
 2220TIP3   OH228074   2.912   0.783  13.527 -0.5286  0.3054  0.2257
 2220TIP3    H128075   2.880   0.703  13.485  4.4506 -0.6735 -2.0069
 2220TIP3    H228076   2.959   0.752  13.605 -0.1669  1.2510  0.3920
 2221TIP3   OH228077   3.815   3.492   6.298  0.3051  0.2979 -0.4274
 2221TIP3    H128078   3.791   3.583   6.312 -2.0339 -0.3928  0.2976
 2221TIP3    H228079   3.896   3.496   6.248  2.7502  2.7686  3.5469
 2222TIP3   OH228080   2.508   0.600   1.608 -0.1942 -0.1494  0.1605
 2222TIP3    H128081   2.412   0.598   1.610 -0.1792 -1.2896  0.0926
 2222TIP3    H228082   2.535   0.536   1.674  0.4919 -2.0151 -1.8601
 2223TIP3   OH228083   4.553   2.159   1.993 -0.3848  0.2274 -0.1964
 2223TIP3    H128084   4.471   2.123   1.959  0.1370  0.5021 -1.8221
 2223TIP3    H228085   4.530   2.200   2.076 -2.3216  2.1530 -1.6411
 2224TIP3   OH228086   3.015   2.073  16.921  0.4549  0.0605 -0.1145
 2224TIP3    H128087   3.035   1.983  16.895 -2.2348 -0.2525 -1.2135
 2224TIP3    H228088   3.057   2.082  17.007 -0.8071 -2.8542  0.8738
 2225TIP3   OH228089   2.562   0.796   0.031  0.5455  0.1901 -0.1547
 2225TIP3    H128090   2.508   0.768   0.106  1.2824  0.5023  0.4992
 2225TIP3    H228091   2.564   0.891   0.038 -0.6930  0.3272 -1.4988
 2226TIP3   OH228092   5.765   3.585  16.029  0.4043 -0.5097  0.0314
 2226TIP3    H128093   5.735   3.674  16.048  0.7102 -0.2294 -0.7861
 2226TIP3    H228094   5.797   3.553  16.114  0.7413  0.3349  0.2311
 2227TIP3   OH228095   3.713   0.475  15.098  0.2530  0.1696  0.1344
 2227TIP3    H128096   3.649   0.545  15.088  0.8922  0.6055 -0.9261
 2227TIP3    H228097   3.729   0.470  15.193 -2.5620 -1.0519  0.5913
 2228TIP3   OH228098   5.256   1.319   2.826  0.6169  0.0471  0.0295
 2228TIP3    H128099   5.182   1.361   2.783  0.7416  1.2388  0.9330
 2228TIP3    H228100   5.220   1.282   2.906  1.2646  2.0575  1.2990
 2229TIP3   OH228101   1.316   3.485   4.879 -0.3106 -0.7326 -0.1426
 2229TIP3    H128102   1.342   3.395   4.897 -0.2270 -0.3323  1.9476
 2229TIP3    H228103   1.387   3.521   4.826  1.8139 -0.6559  2.6417
 2230TIP3   OH228104   3.181   6.221   4.659  0.0222  0.0828  0.5178
 2230TIP3    H128105   3.119   6.287   4.690  1.3342  2.1386 -1.0649
 2230TIP3    H228106   3.232   6.197   4.737 -0.9576  0.3912  1.2579
 2231TIP3   OH228107   3.313   6.703   0.525  0.5359  0.0810 -0.1505
 2231TIP3    H128108   3.378   6.715   0.595  0.8340  2.0953 -0.7596
 2231TIP3    H228109   3.277   6.790   0.510 -0.1552 -0.4879 -1.9250
 2232TIP3   OH228110   5.954   3.093   5.296 -0.4023 -0.9268 -0.0704
 2232TIP3    H128111   5.879   3.036   5.309 -0.0667 -1.4142 -0.2635
 2232TIP3    H228112   6.014   3.072   5.367 -1.2693  0.8214  1.2129
 2233TIP3   OH228113   4.661   5.001   5.636  0.1763  0.1658  0.4943
 2233TIP3    H128114   4.683   5.026   5.726  0.5176  1.9014 -0.0573
 2233TIP3    H228115   4.567   4.984   5.638  0.3535 -0.7757  1.3886
 2234TIP3   OH228116   6.300   6.146  15.862 -0.1669  0.0594 -0.6984
 2234TIP3    H128117   6.380   6.099  15.840  0.9830  1.3617  0.6609
 2234TIP3    H228118   6.322   6.238  15.849 -1.5601  0.4115 -0.6335
 2235TIP3   OH228119   5.815   4.473  15.245 -0.0834 -0.3171 -0.5253
 2235TIP3    H128120   5.868   4.399  15.276  0.3754 -0.0429 -0.6513
 2235TIP3    H228121   5.732   4.433  15.219  0.4519 -0.9147 -1.3497
 2236TIP3   OH228122   2.358   2.960   5.280 -0.1565  0.5182  0.2027
 2236TIP3    H128123   2.439   2.985   5.235 -0.7565 -1.2302 -1.9155
 2236TIP3    H228124   2.341   3.033   5.339  0.1127  3.4269 -3.1257
 2237TIP3   OH228125   4.216   2.511   5.258 -0.2908  0.2266 -0.6928
 2237TIP3    H128126   4.286   2.448   5.245  0.3622  1.1852 -1.8755
 2237TIP3    H228127   4.246   2.564   5.332 -1.9619 -2.3578  1.9610
 2238TIP3   OH228128   5.173   5.320   1.251  0.0107 -0.1326  0.2725
 2238TIP3    H128129   5.086   5.339   1.286  0.2027 -0.9589  1.2417
 2238TIP3    H228130   5.156   5.268   1.172 -0.3835 -0.5051  0.5951
 2239TIP3   OH228131   2.637   2.547  15.494  0.0735  0.5831  0.2244
 2239TIP3    H128132   2.586   2.596  15.559  0.4837  1.3857 -0.0459
 2239TIP3    H228133   2.579   2.476  15.466 -1.4672  2.3067 -1.0996
 2240TIP3   OH228134   2.002   6.450   1.378  0.5042 -0.2207 -0.6174
 2240TIP3    H128135   2.041   6.398   1.448 -0.0825 -0.5216 -0.5138
 2240TIP3    H228136   2.076   6.491   1.335  0.9092 -0.4719 -0.1654
 2241TIP3   OH228137   3.700   5.939   3.510  0.0711 -0.2890 -0.4549
 2241TIP3    H128138   3.668   5.857   3.547 -1.7927 -0.2125 -1.8517
 2241TIP3    H228139   3.657   6.007   3.561 -0.8865 -0.1852 -1.3956
 2242TIP3   OH228140   1.502   2.228   0.037 -0.3620 -0.1867  0.2081
 2242TIP3    H128141   1.587   2.184   0.044  1.2264  2.7131 -0.2458
 2242TIP3    H228142   1.491   2.273   0.120  0.2989  2.4406 -1.0802
 2243TIP3   OH228143   4.878   5.856  10.938  0.4457  0.1105 -0.3588
 2243TIP3    H128144   4.925   5.852  11.021 -0.0377  0.1373 -0.0770
 2243TIP3    H228145   4.932   5.911  10.882 -0.6926  2.6434  0.9207
 2244TIP3   OH228146   0.023   1.997  13.616  0.2733 -0.0157 -0.0425
 2244TIP3    H128147   0.056   2.059  13.680  0.0738 -1.1077  1.1474
 2244TIP3    H228148  -0.072   1.999  13.628  0.2024  0.1514 -0.6501
 2245TIP3   OH228149   6.485   1.856   0.789  0.0100  0.1024  0.3440
 2245TIP3    H128150   6.547   1.786   0.769 -0.4244 -0.5971  1.3654
 2245TIP3    H228151   6.519   1.895   0.870  0.4277  1.2930 -0.3932
 2246TIP3   OH228152   2.190   2.694  11.486  0.1716 -0.0702  0.2696
 2246TIP3    H128153   2.124   2.633  11.453 -0.1967  0.8280 -0.6728
 2246TIP3    H228154   2.264   2.638  11.509  0.1422 -0.8162 -1.3446
 2247TIP3   OH228155   6.166   5.219   3.887  0.2405  0.7818  0.4794
 2247TIP3    H128156   6.180   5.310   3.861  1.9923  0.0283 -1.3701
 2247TIP3    H228157   6.201   5.214   3.976  0.0115  1.9319  0.6435
 2248TIP3   OH228158   2.434   6.434   0.864 -0.0918 -0.5414 -0.2451
 2248TIP3    H128159   2.384   6.360   0.830  1.0395 -0.6946 -1.6433
 2248TIP3    H228160   2.491   6.460   0.791  0.6751  0.6782  0.7596
 2249TIP3   OH228161   2.019   3.332  16.124 -0.4126 -0.0625 -0.4373
 2249TIP3    H128162   2.031   3.388  16.047  2.9076  1.3253  0.9876
 2249TIP3    H228163   2.040   3.244  16.093  0.6653  0.4522 -1.2345
 2250TIP3   OH228164   4.852   5.670  12.521  0.4067  0.7802 -0.3291
 2250TIP3    H128165   4.790   5.615  12.474  1.1348 -1.3954  1.1399
 2250TIP3    H228166   4.801   5.744  12.553 -1.0451 -0.0740 -0.6497
 2251TIP3   OH228167   0.647   1.966  16.869  0.3959  0.2842  0.5344
 2251TIP3    H128168   0.691   1.946  16.786  1.4571  0.1497  1.1259
 2251TIP3    H228169   0.678   2.054  16.892  0.6536  0.0321  1.1506
 2252TIP3   OH228170   5.142   5.841  17.221 -0.5210 -0.0779  0.2196
 2252TIP3    H128171   5.207   5.843  17.151 -1.7387 -1.5154 -0.9858
 2252TIP3    H228172   5.107   5.931  17.223 -0.2046  0.0794 -0.7796
 2253TIP3   OH228173   3.137   2.650  12.837 -0.3201  0.0017  0.3213
 2253TIP3    H128174   3.043   2.667  12.828 -0.4823 -0.1912  1.5942
 2253TIP3    H228175   3.151   2.571  12.784 -0.5777  0.9160 -1.1302
 2254TIP3   OH228176   6.118   0.178   0.018  0.4538 -0.4413  0.2545
 2254TIP3    H128177   6.029   0.143   0.024  0.6846 -1.0564  0.1059
 2254TIP3    H228178   6.165   0.115  -0.036  1.4439 -1.0352  1.7612
 2255TIP3   OH228179   4.884   2.349   4.190 -0.2930  0.3937 -0.4012
 2255TIP3    H128180   4.836   2.338   4.108 -0.2209  1.5590 -0.6090
 2255TIP3    H228181   4.975   2.366   4.163  0.1772 -1.4264 -0.0208
 2256TIP3   OH228182   5.009   4.615  16.755 -0.4916 -0.5837  1.3364
 2256TIP3    H128183   4.932   4.561  16.776 -0.5005 -0.4822  1.5732
 2256TIP3    H228184   5.078   4.580  16.812 -0.0615 -1.3882  0.3532
 2257TIP3   OH228185   5.778   5.747   1.230  0.4690 -0.2692 -0.3228
 2257TIP3    H128186   5.740   5.801   1.162 -2.5381  0.1145  1.5610
 2257TIP3    H228187   5.817   5.810   1.292 -0.4913 -0.3791  0.4058
 2258TIP3   OH228188   5.517   5.462   3.066  0.3332  0.0760  0.6256
 2258TIP3    H128189   5.603   5.454   3.024 -0.3545  0.0758 -0.8250
 2258TIP3    H228190   5.519   5.548   3.109  1.0599  0.0711  0.6107
 2259TIP3   OH228191   6.121   4.013  11.915  0.2428 -0.0070 -0.1440
 2259TIP3    H128192   6.190   4.069  11.948  0.0047 -0.1700  0.6516
 2259TIP3    H228193   6.120   4.028  11.821  2.4554 -1.2366 -0.3922
 2260TIP3   OH228194   3.535   4.258  15.142  0.0628  0.2312  0.6506
 2260TIP3    H128195   3.612   4.203  15.158  0.1463 -0.3830 -1.6235
 2260TIP3    H228196   3.567   4.326  15.083 -1.1442 -0.0448 -0.3345
 2261TIP3   OH228197   1.371   3.991   2.772  0.7348  0.0434  0.3021
 2261TIP3    H128198   1.374   3.902   2.807 -1.0060  0.0625  0.5365
 2261TIP3    H228199   1.354   4.046   2.849 -0.1132  0.3834 -0.1209
 2262TIP3   OH228200   1.353   5.017   3.128 -0.0433  0.2394 -0.3449
 2262TIP3    H128201   1.375   5.100   3.169 -0.5852  0.9191 -1.4126
 2262TIP3    H228202   1.349   5.037   3.034 -0.5222 -0.9090 -0.5717
 2263TIP3   OH228203   4.237   2.860   3.916  0.3299  0.1519 -0.0050
 2263TIP3    H128204   4.183   2.802   3.969 -0.0948  0.5646  0.0144
 2263TIP3    H228205   4.230   2.945   3.959 -0.5328  0.6330 -1.0913
 2264TIP3   OH228206   5.208   5.995   5.506  0.6378 -0.0525 -0.0042
 2264TIP3    H128207   5.163   6.061   5.453  0.7827 -0.2310 -0.3520
 2264TIP3    H228208   5.193   5.913   5.460 -0.1916 -0.3807  0.8463
 2265TIP3   OH228209   6.552   1.319   0.749 -0.4819  0.2426  0.9166
 2265TIP3    H128210   6.547   1.413   0.734 -2.4057  0.0170 -0.0196
 2265TIP3    H228211   6.535   1.280   0.663  1.9245 -0.9586  0.9479
 2266TIP3   OH228212   2.090   0.427   2.289 -0.7089 -0.5154 -0.1962
 2266TIP3    H128213   2.084   0.345   2.338  0.6166 -0.5317 -0.0409
 2266TIP3    H228214   2.043   0.491   2.343  0.5082 -0.5925  0.9859
 2267TIP3   OH228215   1.476   4.948  12.700  0.3131 -0.2610 -0.6129
 2267TIP3    H128216   1.406   4.986  12.648  0.3906  0.8356  0.0707
 2267TIP3    H228217   1.434   4.921  12.782  0.2758 -1.5831 -1.0477
 2268TIP3   OH228218   1.994   0.720  13.905 -0.1604  0.6269  0.3956
 2268TIP3    H128219   2.055   0.749  13.973 -1.6238  0.9942  1.5535
 2268TIP3    H228220   1.920   0.780  13.911 -0.6523  0.1807 -1.0048
 2269TIP3   OH228221   0.849   1.013  12.383  0.1899  0.2154 -0.1216
 2269TIP3    H128222   0.771   1.027  12.329  1.2520  0.4823 -1.6306
 2269TIP3    H228223   0.854   1.090  12.439 -1.0088 -0.1288  0.4730
 2270TIP3   OH228224   3.875   0.973  15.384 -0.4685  0.2740 -0.5254
 2270TIP3    H128225   3.781   0.980  15.366 -0.1081  0.3701 -2.5369
 2270TIP3    H228226   3.898   1.055  15.427 -1.2585  0.3756 -0.2985
 2271TIP3   OH228227   0.859   0.599  16.156  0.2489  0.2637  0.4972
 2271TIP3    H128228   0.795   0.613  16.086 -1.2397  0.2945  1.8318
 2271TIP3    H228229   0.851   0.676  16.212  0.6946 -0.2401  1.2669
 2272TIP3   OH228230   6.768   2.257   2.319 -0.0527 -0.3989 -0.3044
 2272TIP3    H128231   6.757   2.232   2.228  0.6883 -1.3600 -0.1449
 2272TIP3    H228232   6.682   2.243   2.358 -0.3270 -0.1538 -0.8209
 2273TIP3   OH228233   6.306   5.607  16.304  0.0072 -0.2996 -0.9310
 2273TIP3    H128234   6.262   5.549  16.367  1.6857 -1.0891 -0.4656
 2273TIP3    H228235   6.258   5.689  16.311  0.7408 -0.0491  2.1339
 2274TIP3   OH228236   2.584   3.306   5.884  0.3347  0.2073 -0.6307
 2274TIP3    H128237   2.523   3.364   5.839  0.3485 -0.7746 -1.9165
 2274TIP3    H228238   2.580   3.335   5.975  0.1674  2.0903 -1.2003
 2275TIP3   OH228239   4.248   0.755   4.285 -0.5812 -0.0267  0.1533
 2275TIP3    H128240   4.157   0.771   4.261 -0.4590  0.6469  0.1181
 2275TIP3    H228241   4.279   0.692   4.221 -1.0253 -0.2646  0.1686
 2276TIP3   OH228242   2.096   6.274  11.329  0.3522 -0.3797  0.0945
 2276TIP3    H128243   2.167   6.285  11.266 -0.6061  1.5136 -0.6785
 2276TIP3    H228244   2.088   6.179  11.340  1.8038 -0.6598 -1.1489
 2277TIP3   OH228245   6.352   2.690  16.068  0.0411  0.0575 -0.2608
 2277TIP3    H128246   6.382   2.680  16.158  0.1803  2.6553  0.0159
 2277TIP3    H228247   6.391   2.616  16.021  1.4121 -0.3211  1.4365
 2278TIP3   OH228248   2.934   3.796  11.425  0.1149  0.3678 -0.4575
 2278TIP3    H128249   2.909   3.722  11.369 -0.7390  0.4117 -0.1359
 2278TIP3    H228250   2.991   3.757  11.491 -2.9045 -0.6509  1.6740
 2279TIP3   OH228251   0.658   0.262   6.609  0.3621  0.2762 -0.1299
 2279TIP3    H128252   0.669   0.251   6.704  1.1267 -0.7394 -0.3186
 2279TIP3    H228253   0.725   0.204   6.571 -1.5296 -1.1862 -1.3061
 2280TIP3   OH228254   0.153   3.801   3.564  0.1210 -0.3023 -0.1473
 2280TIP3    H128255   0.078   3.743   3.573  1.0244 -1.3711  0.5568
 2280TIP3    H228256   0.215   3.771   3.630  1.4356  0.1688 -1.1433
 2281TIP3   OH228257   2.070   5.841  14.079  0.0096  0.5268 -0.2941
 2281TIP3    H128258   2.130   5.846  14.152 -0.2839  3.1816 -0.1557
 2281TIP3    H228259   2.126   5.838  14.001  0.3375  1.8632 -0.1179
 2282TIP3   OH228260   0.701   6.403   1.182 -0.6008 -0.0634  0.2043
 2282TIP3    H128261   0.635   6.337   1.202 -2.3877  1.6654  0.2252
 2282TIP3    H228262   0.683   6.474   1.244  0.4473  0.9848 -0.6703
 2283TIP3   OH228263   1.449   6.781   3.408 -0.2864 -0.0843 -0.1661
 2283TIP3    H128264   1.376   6.820   3.359  0.0652 -0.0169 -0.6436
 2283TIP3    H228265   1.435   6.687   3.401  0.0375 -0.0876 -0.8284
 2284TIP3   OH228266   5.259   2.519  16.355  0.0500 -0.8429  0.5941
 2284TIP3    H128267   5.227   2.429  16.352  0.8605 -1.0927 -1.8771
 2284TIP3    H228268   5.327   2.522  16.287 -1.2856  2.1148 -0.6687
 2285TIP3   OH228269   1.634   4.963  16.675  0.4999 -0.2073  0.7889
 2285TIP3    H128270   1.685   4.885  16.654  1.0057  0.4405 -0.4333
 2285TIP3    H228271   1.549   4.948  16.635  0.3703 -0.4268  1.1420
 2286TIP3   OH228272   5.421   3.402   5.165  0.0143  0.7529  0.0741
 2286TIP3    H128273   5.382   3.320   5.136  0.3919  0.9671 -1.0353
 2286TIP3    H228274   5.406   3.463   5.093  0.2332  1.5085  0.6629
 2287TIP3   OH228275   5.393   3.340  14.183  0.5697 -0.4665  0.0867
 2287TIP3    H128276   5.331   3.267  14.184  0.6089 -0.4956  0.4804
 2287TIP3    H228277   5.476   3.301  14.207  1.2530 -0.8717 -2.7366
 2288TIP3   OH228278   6.493   0.863  16.380 -0.1932 -0.6672  0.1188
 2288TIP3    H128279   6.496   0.875  16.285 -0.7538 -0.4590  0.1279
 2288TIP3    H228280   6.572   0.907  16.412  0.4248 -1.4582 -0.3294
 2289TIP3   OH228281   1.445   5.920   0.477  0.4498 -0.5594  0.1945
 2289TIP3    H128282   1.532   5.882   0.464 -0.3473 -1.9970 -1.1184
 2289TIP3    H228283   1.399   5.903   0.395 -1.5272 -1.0603  1.3747
 2290TIP3   OH228284   3.857   0.893  14.841  0.6245 -0.1922  0.4465
 2290TIP3    H128285   3.925   0.914  14.905 -0.1736 -1.7759  1.8757
 2290TIP3    H228286   3.878   0.804  14.812 -2.0882 -1.6754  2.6883
 2291TIP3   OH228287   6.721   5.729   0.605 -0.0769  0.1729  0.0516
 2291TIP3    H128288   6.680   5.792   0.546  1.0112  0.3812 -0.4940
 2291TIP3    H228289   6.814   5.734   0.585  0.0342 -1.6066 -0.0054
 2292TIP3   OH228290   2.488   2.527  16.603 -0.2401  0.1546 -0.5469
 2292TIP3    H128291   2.433   2.590  16.556 -0.5431  0.8392  0.6954
 2292TIP3    H228292   2.430   2.454  16.624  0.3776 -1.0669 -2.9519
 2293TIP3   OH228293   0.914   3.489  11.166  0.1138 -0.3858  0.0156
 2293TIP3    H128294   0.906   3.530  11.252 -1.3959 -0.7517  0.0630
 2293TIP3    H228295   0.827   3.499  11.126  1.3365  1.5491 -2.2792
 2294TIP3   OH228296   2.780   6.157   5.220  0.1810  0.0799  0.0818
 2294TIP3    H128297   2.734   6.111   5.150  1.1589 -0.5025 -0.1960
 2294TIP3    H228298   2.873   6.142   5.201  0.4503 -0.3144  1.6586
 2295TIP3   OH228299   3.383   4.932  13.512 -0.4655  0.0391  0.3582
 2295TIP3    H128300   3.289   4.916  13.513 -0.1684 -1.8908  1.7057
 2295TIP3    H228301   3.417   4.873  13.445 -0.3281  1.6337 -1.0120
 2296TIP3   OH228302   6.213   2.681   3.159 -0.0052 -0.1028 -0.2129
 2296TIP3    H128303   6.152   2.638   3.218 -0.5109  2.1204  0.9404
 2296TIP3    H228304   6.279   2.720   3.217  0.0451  1.2735 -1.1748
 2297TIP3   OH228305   4.963   2.020  13.838 -0.1363  0.2112  0.0836
 2297TIP3    H128306   5.022   1.989  13.908 -0.1971 -1.6038 -0.6327
 2297TIP3    H228307   4.876   1.994  13.868 -0.3159  0.7154 -0.0023
 2298TIP3   OH228308   4.721   5.773   0.945  0.3521  0.9275 -0.2989
 2298TIP3    H128309   4.675   5.838   0.999  0.0928  0.6213 -0.1543
 2298TIP3    H228310   4.733   5.817   0.860  1.4235  1.6897  0.2265
 2299TIP3   OH228311   3.937   5.555  12.169  0.2784 -0.1483  0.1048
 2299TIP3    H128312   3.983   5.607  12.235 -1.2572 -0.4806  1.4771
 2299TIP3    H228313   4.002   5.538  12.101  2.2599 -0.8251  2.1155
 2300TIP3   OH228314   5.210   3.470   6.002  0.0188 -0.3860 -0.6087
 2300TIP3    H128315   5.178   3.460   6.092 -1.2785  0.4499 -0.9499
 2300TIP3    H228316   5.262   3.550   6.005 -0.3641 -0.1314 -0.6817
 2301TIP3   OH228317   3.405   5.910   6.591 -0.1658 -0.3908  0.0725
 2301TIP3    H128318   3.329   5.960   6.622  1.0320  0.2363  2.0885
 2301TIP3    H228319   3.427   5.853   6.664  0.3284 -1.7412 -1.1115
 2302TIP3   OH228320   2.744   2.351  16.984 -0.5870 -0.2893 -0.2474
 2302TIP3    H128321   2.772   2.301  16.908  0.8015 -0.6551  0.4839
 2302TIP3    H228322   2.733   2.285  17.053  2.2185  0.5057  0.9999
 2303TIP3   OH228323   4.173   0.382   0.332  0.6432  0.1613  0.2967
 2303TIP3    H128324   4.243   0.379   0.397  1.1874 -0.5816 -0.3217
 2303TIP3    H228325   4.103   0.431   0.375  1.1408 -0.0038  1.3103
 2304TIP3   OH228326   5.214   1.820   4.968 -0.2658  0.0314 -0.2209
 2304TIP3    H128327   5.269   1.768   5.027  2.3580 -2.0696 -4.3066
 2304TIP3    H228328   5.138   1.764   4.951  1.4359 -1.5967 -2.7648
 2305TIP3   OH228329   2.266   3.476  14.309 -0.4998  0.6793 -0.1702
 2305TIP3    H128330   2.328   3.508  14.374 -0.0105 -0.4158 -0.0892
 2305TIP3    H228331   2.317   3.472  14.228 -0.5619  0.1126 -0.1807
 2306TIP3   OH228332   4.337   1.829  15.367  0.4475  0.0905 -0.4265
 2306TIP3    H128333   4.311   1.777  15.290 -0.8010 -0.9468  0.6736
 2306TIP3    H228334   4.408   1.884  15.335  1.3832 -1.8454 -1.7857
 2307TIP3   OH228335   3.588   5.591   6.718 -0.1385 -0.0072  0.2586
 2307TIP3    H128336   3.612   5.506   6.680  0.4213  0.4691 -0.4741
 2307TIP3    H228337   3.646   5.654   6.674 -1.3020  0.8942 -0.0200
 2308TIP3   OH228338   2.788   5.403   0.068 -0.0621  0.4461  0.1465
 2308TIP3    H128339   2.727   5.343   0.025  0.0741  1.1828 -1.1055
 2308TIP3    H228340   2.871   5.356   0.071 -0.2212  0.1676  0.1173
 2309TIP3   OH228341   0.351   0.298  16.209 -0.0560  0.2712  0.3085
 2309TIP3    H128342   0.318   0.313  16.120  0.3301 -1.4982 -0.1459
 2309TIP3    H228343   0.273   0.296  16.264 -0.4839 -1.0064 -0.3441
 2310TIP3   OH228344   4.130   5.530  13.990  1.0065  0.0494  0.5873
 2310TIP3    H128345   4.108   5.622  14.002  1.3692  0.2676 -0.4182
 2310TIP3    H228346   4.131   5.517  13.895  0.8846 -1.0057  0.7227
 2311TIP3   OH228347   2.753   3.633   3.566  0.0666  0.2070  0.0526
 2311TIP3    H128348   2.788   3.636   3.477 -0.7570  0.4176 -0.2726
 2311TIP3    H228349   2.792   3.709   3.610  1.5452 -0.6590  0.2888
 2312TIP3   OH228350   1.742   2.213   4.658 -0.1463 -0.3365 -0.0435
 2312TIP3    H128351   1.702   2.287   4.613  0.2044 -1.3916 -2.1564
 2312TIP3    H228352   1.802   2.253   4.721 -0.7899  1.1900 -0.3894
 2313TIP3   OH228353   2.575   1.557  14.632 -0.0614 -0.3449 -0.5049
 2313TIP3    H128354   2.521   1.547  14.711  1.8492  0.4321  0.9352
 2313TIP3    H228355   2.652   1.503  14.649  1.7574  2.1469 -0.5457
 2314TIP3   OH228356   6.156   3.190   6.027 -0.0604  0.4746 -0.3050
 2314TIP3    H128357   6.167   3.238   6.110  2.0374 -0.4756 -0.0153
 2314TIP3    H228358   6.089   3.124   6.047  1.0386 -0.3016  0.8770
 2315TIP3   OH228359   2.679   3.067  13.491 -0.1011  0.2118 -0.1943
 2315TIP3    H128360   2.673   3.148  13.441 -1.4093 -0.3080 -0.8879
 2315TIP3    H228361   2.590   3.051  13.523 -0.1344 -1.5963 -1.1015
 2316TIP3   OH228362   0.077   2.758   2.985 -0.4031  0.1952 -0.4096
 2316TIP3    H128363   0.134   2.692   2.946 -1.1383  0.0846 -1.3057
 2316TIP3    H228364  -0.011   2.720   2.978 -0.6299  0.4863  0.7049
 2317TIP3   OH228365   1.082   6.729  12.393  0.3018  0.2746  0.1622
 2317TIP3    H128366   1.162   6.678  12.392  0.5970  0.7468 -1.5566
 2317TIP3    H228367   1.099   6.798  12.458  2.2423  1.8479 -1.9451
 2318TIP3   OH228368   0.113   2.335   3.259  0.0820 -0.0308 -0.1561
 2318TIP3    H128369   0.060   2.403   3.301 -0.2323 -0.9398  0.9361
 2318TIP3    H228370   0.202   2.353   3.289  0.0047 -0.0691  0.0986
 2319TIP3   OH228371   1.118   4.564   0.782 -0.2489 -0.0938  0.6088
 2319TIP3    H128372   1.120   4.654   0.813 -3.6080  0.3314 -0.2384
 2319TIP3    H228373   1.117   4.571   0.686 -1.9573 -0.9229  0.5379
 2320TIP3   OH228374   5.660   5.933   0.113 -0.4699 -0.2112  0.3131
 2320TIP3    H128375   5.579   5.974   0.144 -0.5747  1.2121 -1.7061
 2320TIP3    H228376   5.709   5.915   0.193 -2.2287  0.0662  1.5038
 2321TIP3   OH228377   3.542   5.919  15.695  0.1600  0.2221  0.2212
 2321TIP3    H128378   3.595   5.842  15.716 -0.0030 -0.1401 -0.6707
 2321TIP3    H228379   3.460   5.906  15.743  0.0521 -0.2617 -0.0901
 2322TIP3   OH228380   6.764   1.071   5.496  0.2965 -0.7194 -0.3278
 2322TIP3    H128381   6.730   1.118   5.572  0.3030 -0.6024 -0.3974
 2322TIP3    H228382   6.835   1.017   5.531  0.1231 -0.8655 -0.2058
 2323TIP3   OH228383   4.704   0.508  12.574 -0.0910 -0.0467 -0.5839
 2323TIP3    H128384   4.714   0.522  12.668  2.4032 -0.9418 -0.6692
 2323TIP3    H228385   4.704   0.413  12.564 -1.5883  0.0307 -1.3887
 2324TIP3   OH228386   1.793   2.695   4.239  0.0282  0.4250  0.5852
 2324TIP3    H128387   1.828   2.784   4.239  0.3387  0.3048 -0.1948
 2324TIP3    H228388   1.707   2.704   4.281  0.7284  0.8159  1.9675
 2325TIP3   OH228389   5.535   4.031  13.979 -0.0521 -0.9114  0.0744
 2325TIP3    H128390   5.452   3.984  13.970 -0.4773 -0.1837  0.1673
 2325TIP3    H228391   5.539   4.056  14.071 -1.1672  1.6625 -0.5443
 2326TIP3   OH228392   5.096   6.115   6.535 -0.3321 -0.3672  0.6580
 2326TIP3    H128393   5.144   6.172   6.595  0.7860 -0.7536  0.1304
 2326TIP3    H228394   5.147   6.035   6.531 -1.7842 -1.3502  1.2106
 2327TIP3   OH228395   3.528   3.917  14.964  0.5596 -0.3051  0.1396
 2327TIP3    H128396   3.532   4.007  14.931  1.8827  0.8797  3.4069
 2327TIP3    H228397   3.435   3.895  14.962  0.0412  1.7203  0.7926
 2328TIP3   OH228398   4.894   4.633  11.695 -0.2451 -0.0737  0.4116
 2328TIP3    H128399   4.903   4.613  11.788  0.6513 -0.4015  0.2628
 2328TIP3    H228400   4.922   4.724  11.688  1.8576 -0.7155  0.1418
 2329TIP3   OH228401   1.286   1.595   3.051  0.2227  0.1284  0.0792
 2329TIP3    H128402   1.225   1.610   2.979  1.1363  1.5557 -0.4096
 2329TIP3    H228403   1.372   1.616   3.015  0.7355  0.4424  1.4598
 2330TIP3   OH228404   4.767   5.938  12.126 -0.2667 -0.0520  0.5271
 2330TIP3    H128405   4.700   5.970  12.186 -3.8379 -4.9200 -0.5619
 2330TIP3    H228406   4.734   5.960  12.039  0.5987 -0.6694  0.0352
 2331TIP3   OH228407   5.030   6.155  16.879  0.2406 -0.4877  0.5276
 2331TIP3    H128408   5.038   6.175  16.786  2.1737 -1.9621  0.3351
 2331TIP3    H228409   5.036   6.060  16.884  1.0057 -0.3706  2.2229
 2332TIP3   OH228410   4.129   0.518  13.233  0.1336  0.5493 -0.5449
 2332TIP3    H128411   4.095   0.531  13.145  0.5687  0.2256 -0.7681
 2332TIP3    H228412   4.200   0.582  13.240 -0.5869  1.3004 -0.0461
 2333TIP3   OH228413   0.726   1.438   2.703  0.0219 -0.1576  0.1386
 2333TIP3    H128414   0.689   1.361   2.747  0.4112 -0.4461 -0.0439
 2333TIP3    H228415   0.701   1.512   2.759  2.5088 -0.7589  2.1185
 2334TIP3   OH228416   0.700   1.858  11.771  0.7698 -0.4807  0.4049
 2334TIP3    H128417   0.722   1.791  11.836  0.3009 -0.4878  0.5567
 2334TIP3    H228418   0.691   1.939  11.822  3.4979  0.1750 -0.0384
 2335TIP3   OH228419   6.348   6.413  17.093  0.5346  0.5795  0.0486
 2335TIP3    H128420   6.284   6.434  17.025 -1.0000  0.9247  1.5659
 2335TIP3    H228421   6.331   6.322  17.115 -0.8243  1.2474  1.8792
 2336TIP3   OH228422   2.125   5.996   1.202  0.2988  0.5299 -0.5609
 2336TIP3    H128423   2.214   5.961   1.207  0.6532  1.5762  0.9164
 2336TIP3    H228424   2.130   6.064   1.135  0.5660  0.4473 -0.6243
 2337TIP3   OH228425   5.680   0.584   4.303 -0.2639  0.8878  0.1923
 2337TIP3    H128426   5.768   0.603   4.270  0.3263 -1.3334  0.4100
 2337TIP3    H228427   5.692   0.561   4.395 -0.8826 -0.6102 -0.0725
 2338TIP3   OH228428   0.793   5.391   1.823 -0.4053 -0.2170  0.3642
 2338TIP3    H128429   0.757   5.347   1.746 -2.3408  0.5227  0.8146
 2338TIP3    H228430   0.722   5.389   1.887  0.8137  0.1417  1.7521
 2339TIP3   OH228431   6.427   2.091   0.601  0.2567 -0.2596  0.5725
 2339TIP3    H128432   6.377   2.018   0.637  0.7951 -0.6871  0.4595
 2339TIP3    H228433   6.360   2.152   0.570 -0.2338 -1.8461 -1.6541
 2340TIP3   OH228434   6.389   6.412  13.728  0.4102  0.5713  0.1037
 2340TIP3    H128435   6.483   6.412  13.745  0.3950  0.4176  0.1943
 2340TIP3    H228436   6.350   6.442  13.810  0.3234 -0.3962  0.4237
 2341TIP3   OH228437   2.231   0.634   2.939 -0.0012 -0.2793  0.1271
 2341TIP3    H128438   2.202   0.569   3.004  1.0201 -1.2132 -0.3338
 2341TIP3    H228439   2.238   0.715   2.988 -0.7181 -0.6419  0.8479
 2342TIP3   OH228440   2.333   2.896  15.109 -0.4659 -0.2963 -0.6043
 2342TIP3    H128441   2.285   2.882  15.191 -0.0053  0.2719 -0.2331
 2342TIP3    H228442   2.425   2.896  15.135 -0.2166 -2.0060 -1.4044
 2343TIP3   OH228443   5.064   3.282  14.394 -0.1640  0.3481 -0.5385
 2343TIP3    H128444   5.008   3.233  14.335  0.8970 -0.1606 -1.1433
 2343TIP3    H228445   5.027   3.370  14.395  0.1860  0.5419 -2.4766
 2344TIP3   OH228446   3.384   5.981   0.990 -0.1181  0.5465  0.0985
 2344TIP3    H128447   3.453   5.950   1.049  0.4125 -1.1075 -1.3390
 2344TIP3    H228448   3.345   6.055   1.036 -0.8037 -1.6803  3.2638
 2345TIP3   OH228449   6.186   3.965  10.339  0.1986 -0.6312 -0.2535
 2345TIP3    H128450   6.192   3.870  10.351 -0.8851 -0.5131  1.3544
 2345TIP3    H228451   6.264   3.988  10.289  0.2915 -2.4154 -0.9701
 2346TIP3   OH228452   0.699   5.258   1.611  0.3326  0.4917 -0.5840
 2346TIP3    H128453   0.760   5.241   1.540  1.2806  0.8575  0.1214
 2346TIP3    H228454   0.618   5.285   1.568  1.0158  1.1014 -1.5045
 2347TIP3   OH228455   5.655   0.244   6.700 -0.0778 -1.0445  0.5773
 2347TIP3    H128456   5.713   0.258   6.775 -1.4338  1.2392  1.2580
 2347TIP3    H228457   5.587   0.185   6.733 -0.4024 -0.4297  1.0229
 2348TIP3   OH228458   3.964   2.869  15.937  0.6708  0.1851  1.1674
 2348TIP3    H128459   3.953   2.961  15.962  1.3771  0.5469  0.2241
 2348TIP3    H228460   3.939   2.867  15.845  0.2518 -0.6546  1.3042
 2349TIP3   OH228461   0.721   4.797  11.371 -0.5720  0.4441  0.3739
 2349TIP3    H128462   0.742   4.770  11.282 -3.0901 -0.4628 -0.0022
 2349TIP3    H228463   0.696   4.889  11.363  0.5178  0.7449  0.3779
 2350TIP3   OH228464   2.753   1.061   0.727  0.1738  0.1108  0.4492
 2350TIP3    H128465   2.755   1.060   0.823 -1.4745 -0.9503  0.4773
 2350TIP3    H228466   2.717   0.976   0.702 -1.5041  1.2259 -1.0497
 2351TIP3   OH228467   6.297   6.427  15.377 -0.3476 -0.2545 -0.6583
 2351TIP3    H128468   6.323   6.336  15.390  0.5493 -0.0668 -1.1442
 2351TIP3    H228469   6.375   6.470  15.342 -0.0602  1.2050  1.6344
 2352TIP3   OH228470   2.949   4.267  14.687  0.3534 -0.2041  0.4065
 2352TIP3    H128471   2.973   4.301  14.601 -0.1460 -0.8143  0.0152
 2352TIP3    H228472   2.906   4.340  14.732  1.3019  0.3428  0.4258
 2353TIP3   OH228473   5.279   6.746   0.577  0.1937  1.1841  0.0893
 2353TIP3    H128474   5.294   6.724   0.669 -1.9226  2.4994  0.7848
 2353TIP3    H228475   5.358   6.791   0.549  2.1488 -1.9613  0.3276
 2354TIP3   OH228476   5.624   3.433   3.556 -0.3086  0.1715 -0.0919
 2354TIP3    H128477   5.692   3.396   3.499 -0.7536  1.1234 -1.2592
 2354TIP3    H228478   5.668   3.503   3.604  0.2290 -1.0482  1.2282
 2355TIP3   OH228479   1.396   0.862   0.947  0.0112  0.0517 -0.3420
 2355TIP3    H128480   1.417   0.911   1.027  0.0139  0.9658 -0.9036
 2355TIP3    H228481   1.426   0.773   0.966  1.7181  0.6816 -0.0362
 2356TIP3   OH228482   6.616   3.809  12.723 -0.8815  0.3725  0.0173
 2356TIP3    H128483   6.620   3.844  12.812 -0.9709  1.6443 -0.4787
 2356TIP3    H228484   6.526   3.824  12.695  0.0622  3.2468 -1.6028
 2357TIP3   OH228485   1.117   3.664   0.460 -0.1232  0.6771  0.0703
 2357TIP3    H128486   1.077   3.703   0.382 -0.0457  0.2764 -0.1743
 2357TIP3    H228487   1.125   3.736   0.522 -0.2721  0.9791 -0.2608
 2358TIP3   OH228488   0.407   1.780  12.318  0.5092 -0.1086 -0.9546
 2358TIP3    H128489   0.493   1.760  12.355  0.8077 -3.0054 -2.9978
 2358TIP3    H228490   0.358   1.698  12.326 -1.7132  1.2097 -0.7858
 2359TIP3   OH228491   2.141   5.870   6.279 -0.6219 -0.4624 -0.2745
 2359TIP3    H128492   2.137   5.872   6.375 -2.9154 -0.3231 -0.3288
 2359TIP3    H228493   2.166   5.959   6.255  0.4270 -0.6223  0.2070
 2360TIP3   OH228494   1.950   5.412   3.563  0.1897  0.4090  0.5063
 2360TIP3    H128495   1.933   5.497   3.605  1.3701  0.5371  0.7420
 2360TIP3    H228496   2.038   5.389   3.592  0.0533 -0.6769  0.0528
 2361TIP3   OH228497   4.337   3.353   3.871 -0.1465 -0.4628 -0.1334
 2361TIP3    H128498   4.253   3.354   3.824  0.7372 -0.9505 -1.7863
 2361TIP3    H228499   4.402   3.346   3.801  1.2077 -1.4342  1.2142
 2362TIP3   OH228500   2.349   2.047  11.293  0.0574 -0.2607  0.0574
 2362TIP3    H128501   2.324   2.071  11.204  0.2351 -0.6511 -0.0981
 2362TIP3    H228502   2.442   2.068  11.298  0.1715 -0.7401 -0.0204
 2363TIP3   OH228503   4.458   0.603  14.624 -0.0520  0.1291 -0.0681
 2363TIP3    H128504   4.539   0.554  14.607  0.6669  1.5754 -0.9037
 2363TIP3    H228505   4.390   0.553  14.580  0.9612  0.8576 -2.5278
 2364TIP3   OH228506   1.883   3.935  16.397  0.2110 -0.0066  0.1289
 2364TIP3    H128507   1.965   3.895  16.369  0.4077  0.8876 -0.5808
 2364TIP3    H228508   1.870   3.902  16.486  0.2344 -1.8431 -0.5379
 2365TIP3   OH228509   5.245   4.182   5.154 -0.2157 -1.2380 -0.2977
 2365TIP3    H128510   5.269   4.247   5.088  0.2712 -1.1578 -0.0478
 2365TIP3    H228511   5.154   4.202   5.176  0.0972 -0.2843  0.1713
 2366TIP3   OH228512   5.967   0.889  10.961 -0.1961 -0.1048 -0.3466
 2366TIP3    H128513   5.980   0.984  10.957  0.4700 -0.2034 -0.4869
 2366TIP3    H228514   6.039   0.857  11.015 -0.2664 -0.5682 -0.5271
 2367TIP3   OH228515   6.343   5.947   3.529 -0.2406  0.1536 -0.3958
 2367TIP3    H128516   6.301   5.934   3.614 -2.6622 -0.2927 -1.6194
 2367TIP3    H228517   6.391   6.029   3.539 -0.7180  0.2473  1.3227
 2368TIP3   OH228518   2.328   1.816   0.092 -0.5715 -0.6320 -0.2818
 2368TIP3    H128519   2.289   1.757   0.156 -1.7302  0.0521 -0.3530
 2368TIP3    H228520   2.391   1.761   0.044 -1.5795 -1.7890 -0.3041
 2369TIP3   OH228521   5.044   1.294  12.113 -0.1050 -0.1049 -0.2552
 2369TIP3    H128522   4.965   1.279  12.060 -0.4801 -1.0317  0.5404
 2369TIP3    H228523   5.079   1.377  12.082 -0.1696 -0.7559 -2.1582
 2370TIP3   OH228524   0.428   5.222  12.561  0.2375 -0.5756  0.1916
 2370TIP3    H128525   0.352   5.174  12.593  0.3912 -0.2068  1.1469
 2370TIP3    H228526   0.393   5.304  12.528  0.3082  0.0525  1.6107
 2371TIP3   OH228527   3.460   2.845   4.652 -0.1874  0.5045 -0.5017
 2371TIP3    H128528   3.422   2.896   4.723  0.4566 -0.7739  0.7685
 2371TIP3    H228529   3.551   2.876   4.646 -0.2900  0.7342 -0.8862
 2372TIP3   OH228530   3.544   2.887  14.840 -0.3075 -0.1083  0.1125
 2372TIP3    H128531   3.544   2.868  14.746 -0.5880  0.9903 -0.1162
 2372TIP3    H228532   3.625   2.936  14.855 -0.7606  0.5935  0.2627
 2373TIP3   OH228533   6.201   6.657   1.342 -0.2276  0.1411 -0.5130
 2373TIP3    H128534   6.271   6.695   1.396  1.1448 -3.1072  0.0981
 2373TIP3    H228535   6.130   6.721   1.348  0.9610  1.3066  2.7116
 2374TIP3   OH228536   5.697   0.804  15.092 -0.5815  0.2391 -0.2499
 2374TIP3    H128537   5.732   0.804  15.003 -3.4597 -1.5273 -1.4139
 2374TIP3    H228538   5.720   0.718  15.127 -1.5032  0.0471 -0.1093
 2375TIP3   OH228539   1.538   4.319  10.556  0.1388  0.3010 -0.3849
 2375TIP3    H128540   1.501   4.246  10.507  1.1874 -0.8504  0.5104
 2375TIP3    H228541   1.632   4.303  10.557  0.4586  2.0260 -0.7420
 2376TIP3   OH228542   4.780   6.187  16.454  0.3627  0.4475  0.1141
 2376TIP3    H128543   4.758   6.280  16.462 -1.9653  0.0129 -0.7467
 2376TIP3    H228544   4.724   6.144  16.519  0.3831 -0.4936 -0.4871
 2377TIP3   OH228545   6.667   4.176  12.738  0.3420 -0.4269 -0.2874
 2377TIP3    H128546   6.576   4.171  12.707  0.1520  0.7673  0.0262
 2377TIP3    H228547   6.681   4.270  12.754  1.5071 -0.6501  0.0358
 2378TIP3   OH228548   3.747   5.358   0.067 -0.1343 -0.1184 -0.2283
 2378TIP3    H128549   3.725   5.449   0.050  0.1389 -0.2158 -1.1520
 2378TIP3    H228550   3.757   5.353   0.162 -2.7136  0.2112  0.0812
 2379TIP3   OH228551   3.313   4.026   5.559 -0.2762 -0.4868  0.0412
 2379TIP3    H128552   3.367   3.963   5.607  1.9622 -0.0462 -1.8258
 2379TIP3    H228553   3.365   4.049   5.482 -2.9674  0.2524 -1.6398
 2380TIP3   OH228554   2.077   0.153  14.839  0.3639 -0.0824 -0.2869
 2380TIP3    H128555   2.056   0.065  14.808  1.5309 -0.5054  0.0898
 2380TIP3    H228556   2.055   0.211  14.765 -0.5669 -0.6710 -0.4693
 2381TIP3   OH228557   5.382   1.688  14.927  0.1552  0.4557 -0.0802
 2381TIP3    H128558   5.450   1.679  14.994 -0.6330 -0.0741  0.6430
 2381TIP3    H228559   5.421   1.747  14.862  0.8131  1.1956  0.9756
 2382TIP3   OH228560   5.603   0.693  14.241 -0.3326 -0.1270 -0.2373
 2382TIP3    H128561   5.539   0.737  14.185 -0.2110 -0.8602 -0.9667
 2382TIP3    H228562   5.557   0.678  14.323 -1.1491 -0.7834 -0.8094
 2383TIP3   OH228563   6.667   5.344  13.018  0.0358  0.4029 -0.7727
 2383TIP3    H128564   6.721   5.348  12.939  1.3987  0.7428  0.1671
 2383TIP3    H228565   6.725   5.308  13.085 -1.1812 -0.0949  0.0204
 2384TIP3   OH228566   2.745   0.008   1.032  0.5734  0.1066 -0.4757
 2384TIP3    H128567   2.767  -0.078   1.067  0.6508  0.4279  0.2776
 2384TIP3    H228568   2.829   0.049   1.015  0.5353 -0.0378 -1.0179
 2385TIP3   OH228569   5.282   4.244   2.342  0.1199  0.6116 -0.2078
 2385TIP3    H128570   5.331   4.288   2.272 -0.7406  1.9423  0.0050
 2385TIP3    H228571   5.249   4.316   2.397 -2.6574 -0.1997 -0.7547
 2386TIP3   OH228572   1.191   5.854  16.314  0.4544 -0.1651  0.1560
 2386TIP3    H128573   1.248   5.795  16.265 -1.4499 -0.3904 -1.9154
 2386TIP3    H228574   1.199   5.938  16.268  0.0348  0.1028  0.5628
 2387TIP3   OH228575   6.063   3.547   5.263  0.1589  0.1146  0.1649
 2387TIP3    H128576   6.101   3.478   5.317  0.6383 -0.5995 -1.0598
 2387TIP3    H228577   6.002   3.593   5.321  0.1572 -1.0660  1.1051
 2388TIP3   OH228578   0.851   1.052  16.904 -0.3960  0.1400 -0.1013
 2388TIP3    H128579   0.799   0.984  16.948 -1.2936 -0.0182 -1.3957
 2388TIP3    H228580   0.892   1.100  16.976  0.9397 -2.2873  0.8249
 2389TIP3   OH228581   6.563   5.387   4.292 -0.2325 -0.6436  0.1650
 2389TIP3    H128582   6.629   5.363   4.228 -0.0683  1.3142 -0.4413
 2389TIP3    H228583   6.612   5.399   4.374 -0.1035 -0.9033  0.1258
 2390TIP3   OH228584   4.446   3.287   3.028  0.1758 -0.4266  0.0979
 2390TIP3    H128585   4.497   3.248   2.957  0.3016 -2.0714  1.0675
 2390TIP3    H228586   4.440   3.380   3.005 -0.6349 -1.1041 -2.5659
 2391TIP3   OH228587   2.710   5.035   2.829 -0.0627 -0.3819 -0.2130
 2391TIP3    H128588   2.791   4.998   2.863  0.2039 -0.8530 -1.3408
 2391TIP3    H228589   2.724   5.040   2.734 -1.0730  0.2069 -0.3324
 2392TIP3   OH228590   4.715   2.443  17.004 -0.7959  0.1255 -0.1158
 2392TIP3    H128591   4.656   2.368  17.000 -1.5903  0.6757  1.1197
 2392TIP3    H228592   4.753   2.438  17.092  0.7268 -0.0042 -0.7613
 2393TIP3   OH228593   0.289   4.739  11.050 -0.0024 -0.0051  0.1941
 2393TIP3    H128594   0.286   4.723  11.145  0.8360  1.7433  0.5338
 2393TIP3    H228595   0.242   4.665  11.012 -0.3353 -0.7420  1.9772
 2394TIP3   OH228596   3.918   2.659   1.666  0.6824 -0.1967 -0.2229
 2394TIP3    H128597   3.991   2.670   1.727  0.0720  0.4615  0.4110
 2394TIP3    H228598   3.870   2.742   1.673 -0.7290 -1.0496  0.1773
 2395TIP3   OH228599   5.879   4.914  15.367  0.4885 -0.5124 -0.3779
 2395TIP3    H128600   5.871   4.868  15.451 -0.9391 -0.9220 -0.7342
 2395TIP3    H228601   5.852   4.850  15.302 -0.4113  0.4589 -0.9790
 2396TIP3   OH228602   6.709   4.813   1.753  1.1065  0.0193 -0.0067
 2396TIP3    H128603   6.646   4.863   1.701  1.7875  1.1062  0.1933
 2396TIP3    H228604   6.655   4.754   1.806  0.2569  0.8105  0.0276
 2397TIP3   OH228605   0.021   4.432   2.829  0.7229 -0.8715 -0.1296
 2397TIP3    H128606  -0.032   4.431   2.750  1.8964 -2.1144 -0.9337
 2397TIP3    H228607  -0.036   4.396   2.897  0.2252 -1.2802 -0.7613
 2398TIP3   OH228608   2.983   5.004   4.382 -0.0162  0.6739  0.2879
 2398TIP3    H128609   2.948   5.009   4.293 -0.2687 -0.2565  0.3346
 2398TIP3    H228610   2.921   5.053   4.436 -1.0165 -0.5808  0.2966
 2399TIP3   OH228611   3.504   0.177  14.610  0.0410  0.6561  0.1387
 2399TIP3    H128612   3.522   0.084  14.625 -1.0481 -0.1117 -2.8726
 2399TIP3    H228613   3.429   0.196  14.667 -1.2847 -0.9988 -0.9870
 2400TIP3   OH228614   6.554   1.118  12.752 -0.1748 -0.3871 -0.1397
 2400TIP3    H128615   6.580   1.055  12.819 -0.8551  0.4560  0.9448
 2400TIP3    H228616   6.461   1.100  12.738 -0.0773 -0.4365 -0.7035
 2401TIP3   OH228617   3.314   2.171   2.009 -0.2009  0.3475  0.5080
 2401TIP3    H128618   3.341   2.089   1.967 -1.2166 -1.2013  2.7833
 2401TIP3    H228619   3.396   2.211   2.039  0.3895  0.7240 -1.5203
 2402TIP3   OH228620   5.794   1.898  16.503  0.9893 -0.2311  0.2686
 2402TIP3    H128621   5.736   1.868  16.433 -0.2745 -0.0605  1.2227
 2402TIP3    H228622   5.869   1.934  16.457  0.9003 -1.5490 -0.9735
 2403TIP3   OH228623   2.629   3.649  12.484 -0.1269  0.2167  0.1081
 2403TIP3    H128624   2.707   3.702  12.472 -1.3725  2.1663  0.3440
 2403TIP3    H228625   2.572   3.702  12.539 -1.5489 -1.2521  0.1175
 2404TIP3   OH228626   3.123   0.297  13.739  0.0135  0.9966 -0.6346
 2404TIP3    H128627   3.141   0.378  13.691  1.5512 -0.0003 -1.8080
 2404TIP3    H228628   3.150   0.316  13.829  2.7862  1.0233 -1.4129
 2405TIP3   OH228629   3.861   0.521   3.248  0.6508  0.5344 -0.4600
 2405TIP3    H128630   3.842   0.440   3.200 -0.0692  0.2019  0.3708
 2405TIP3    H228631   3.857   0.496   3.340  2.0047  1.1778 -0.2108
 2406TIP3   OH228632   5.022   6.498   5.087 -0.0914 -0.1228  0.4455
 2406TIP3    H128633   5.048   6.424   5.032 -0.5253 -0.0340  0.1207
 2406TIP3    H228634   4.944   6.533   5.045  2.3966  3.0944 -1.8002
 2407TIP3   OH228635   6.588   4.100   0.649 -0.1170  0.8137 -0.4096
 2407TIP3    H128636   6.512   4.140   0.608 -1.2091  0.0942  0.8653
 2407TIP3    H228637   6.584   4.127   0.740  0.5803 -0.0649 -0.1006
 2408TIP3   OH228638   2.329   2.301   3.280  0.2826  0.4843  0.3986
 2408TIP3    H128639   2.371   2.215   3.280  0.4715  0.5711 -0.4336
 2408TIP3    H228640   2.241   2.285   3.316  0.4493  0.0137  0.6025
 2409TIP3   OH228641   1.606   2.517  14.144  0.4121 -0.6399 -0.2899
 2409TIP3    H128642   1.670   2.550  14.208  0.3788 -0.8542 -0.1454
 2409TIP3    H228643   1.653   2.447  14.098  0.3731 -0.6125 -0.3686
 2410TIP3   OH228644   5.570   2.063  12.573  0.6588  0.2128  0.0401
 2410TIP3    H128645   5.604   2.133  12.518  1.1090 -0.2720 -0.3023
 2410TIP3    H228646   5.598   1.982  12.530 -2.8558 -0.2791 -1.5331
 2411TIP3   OH228647   6.515   1.755  14.329 -0.0260 -0.4345  0.0156
 2411TIP3    H128648   6.496   1.751  14.235 -0.9626 -4.6288  0.2537
 2411TIP3    H228649   6.565   1.675  14.347  0.5174  0.5027  2.9951
 2412TIP3   OH228650   4.649   4.890   2.903  0.3693 -0.0829  0.2849
 2412TIP3    H128651   4.718   4.956   2.891 -1.0894  1.6427  1.1448
 2412TIP3    H228652   4.669   4.849   2.987  0.1741  0.6459  0.6929
 2413TIP3   OH228653   4.435   2.209   1.187  0.0105  0.0957 -0.3735
 2413TIP3    H128654   4.345   2.234   1.205  0.3589  1.7434 -0.8069
 2413TIP3    H228655   4.460   2.153   1.261 -1.3088 -0.2739 -0.1963
 2414TIP3   OH228656   4.147   0.436  12.263 -0.9350  0.2170  0.3164
 2414TIP3    H128657   4.110   0.356  12.225 -0.7736 -0.4858  1.6279
 2414TIP3    H228658   4.226   0.452  12.212 -0.6525 -0.7986  0.4339
 2415TIP3   OH228659   3.721   2.012   2.086 -0.5749 -0.5859 -0.2324
 2415TIP3    H128660   3.677   2.078   2.033 -0.5900 -0.9745 -0.7055
 2415TIP3    H228661   3.741   2.057   2.169 -0.6438 -0.0117 -0.5247
 2416TIP3   OH228662   4.531   4.146   1.384  0.1240  0.0601 -0.3635
 2416TIP3    H128663   4.623   4.126   1.403  0.3147  0.7724 -0.5278
 2416TIP3    H228664   4.482   4.107   1.456  0.3469 -2.4816 -1.5336
 2417TIP3   OH228665   6.216   2.304  17.200 -0.8597  0.1607  0.0390
 2417TIP3    H128666   6.207   2.398  17.215 -0.4127  0.6929 -2.8743
 2417TIP3    H228667   6.278   2.275  17.268 -0.0906  2.1659  0.2273
 2418TIP3   OH228668   0.792   1.084   4.384 -0.1890  0.5740  0.1288
 2418TIP3    H128669   0.849   1.115   4.454 -1.5608  0.0898  1.5049
 2418TIP3    H228670   0.812   0.990   4.376  0.5260  0.7884 -0.6897
 2419TIP3   OH228671   0.421   2.081  13.042  0.3783 -0.4299 -0.2228
 2419TIP3    H128672   0.450   2.082  12.951  0.9697  1.4006 -0.0305
 2419TIP3    H228673   0.327   2.097  13.038  0.8212  2.4672 -0.4072
 2420TIP3   OH228674   4.328   3.365  13.220  0.6848 -0.6551 -0.2129
 2420TIP3    H128675   4.409   3.341  13.176 -0.4116 -0.1566 -2.5689
 2420TIP3    H228676   4.301   3.285  13.265  2.3478 -0.8801  0.4121
 2421TIP3   OH228677   3.326   5.919   3.492 -0.1105  0.2003 -0.1803
 2421TIP3    H128678   3.343   5.831   3.524 -2.0460 -0.3651 -0.6573
 2421TIP3    H228679   3.275   5.961   3.562  2.1276  1.4980  0.7440
 2422TIP3   OH228680   0.329   2.647  10.976 -0.2694  0.6621  0.3410
 2422TIP3    H128681   0.322   2.662  10.882  1.0371  1.1221  0.2990
 2422TIP3    H228682   0.351   2.554  10.984  2.0347  1.1464  0.0413
 2423TIP3   OH228683   5.032   6.527  12.382  0.2209 -0.2787 -0.4177
 2423TIP3    H128684   5.075   6.585  12.319  2.5650  0.1533  1.4903
 2423TIP3    H228685   5.088   6.449  12.384 -0.5853 -0.8499  0.1537
 2424TIP3   OH228686   2.598   5.456   1.973  0.0363  0.3054 -0.2316
 2424TIP3    H128687   2.587   5.544   2.008 -0.3582 -0.0392  0.5357
 2424TIP3    H228688   2.655   5.413   2.037 -0.2866 -0.1882 -0.2762
 2425TIP3   OH228689   2.403   5.679  16.391 -0.0260  0.0588  0.2962
 2425TIP3    H128690   2.452   5.598  16.375  0.3429  0.5832 -1.2445
 2425TIP3    H228691   2.311   5.653  16.383  0.1122 -0.0497 -0.9443
 2426TIP3   OH228692   4.769   4.380  11.362 -1.0068  0.2862 -0.2549
 2426TIP3    H128693   4.860   4.372  11.333 -0.5775  0.4282  0.9897
 2426TIP3    H228694   4.771   4.351  11.454 -1.2288  4.8754  1.3525
 2427TIP3   OH228695   1.366   5.572   6.819  0.7485  0.1811 -0.4374
 2427TIP3    H128696   1.356   5.651   6.871 -0.8711  0.4613 -1.1378
 2427TIP3    H228697   1.290   5.572   6.761  0.6350 -1.9817 -0.3239
 2428TIP3   OH228698   0.851   6.636   6.399  0.3667  0.2114  0.1148
 2428TIP3    H128699   0.918   6.577   6.364  0.8225 -0.0554  1.3813
 2428TIP3    H228700   0.874   6.722   6.365  2.7675  0.5302  2.4044
 2429TIP3   OH228701   1.635   3.507   5.172 -0.2343  0.0812  0.2476
 2429TIP3    H128702   1.634   3.601   5.157  0.4811  0.3080  1.5302
 2429TIP3    H228703   1.542   3.482   5.170 -0.4114  0.7738 -0.3128
 2430TIP3   OH228704   1.080   1.977  13.006  0.2671 -0.0672 -0.1450
 2430TIP3    H128705   1.151   2.038  12.986  0.5721 -0.8607 -1.5080
 2430TIP3    H228706   1.121   1.891  13.000 -0.2670 -0.4499  1.3351
 2431TIP3   OH228707   3.045   4.260  11.553 -0.2561  0.4828  0.0911
 2431TIP3    H128708   3.087   4.298  11.476 -0.2292 -1.8544 -1.0969
 2431TIP3    H228709   3.107   4.193  11.583 -1.2360 -0.1007  0.8533
 2432TIP3   OH228710   3.281   4.385   4.601 -0.1000  0.0594  0.0141
 2432TIP3    H128711   3.204   4.418   4.555 -0.0553  2.3121  1.5062
 2432TIP3    H228712   3.349   4.382   4.533 -0.9910 -0.1812 -0.8880
 2433TIP3   OH228713   6.726   2.486  11.999 -0.1414 -0.5187  0.3711
 2433TIP3    H128714   6.700   2.410  12.051 -0.9447 -0.1189  0.5581
 2433TIP3    H228715   6.656   2.550  12.012  0.0443 -0.1085 -0.5529
 2434TIP3   OH228716   0.758   2.926   0.562  0.1868 -0.0590 -0.1167
 2434TIP3    H128717   0.828   2.978   0.602  0.2918 -0.1381 -0.1971
 2434TIP3    H228718   0.780   2.923   0.469 -0.4268  0.7099 -0.2954
 2435TIP3   OH228719   4.561   4.140  16.939 -0.1471 -0.6479 -0.0817
 2435TIP3    H128720   4.624   4.134  16.867  0.5259  0.7627  0.3682
 2435TIP3    H228721   4.555   4.234  16.958 -3.6096 -0.5678 -1.1951
 2436TIP3   OH228722   2.280   4.713   3.326 -0.0297 -0.1186  0.2116
 2436TIP3    H128723   2.324   4.666   3.397 -0.1317 -2.0399 -0.9755
 2436TIP3    H228724   2.189   4.682   3.329 -0.4395  1.0637  0.3026
 2437TIP3   OH228725   4.758   3.812   0.010 -0.0637  0.2870  0.0347
 2437TIP3    H128726   4.727   3.799   0.100 -1.4481  0.2899 -0.4309
 2437TIP3    H228727   4.809   3.893   0.014  0.4023 -0.0496  0.9533
 2438TIP3   OH228728   2.410   4.917  16.252  1.0405  0.1473  0.0457
 2438TIP3    H128729   2.504   4.901  16.248  1.0980  0.1430  1.1675
 2438TIP3    H228730   2.371   4.832  16.229  1.3217 -0.0819  0.3997
 2439TIP3   OH228731   0.321   1.458  11.254  0.0832 -0.0643 -0.0544
 2439TIP3    H128732   0.291   1.395  11.188  0.2960  1.9990 -2.1703
 2439TIP3    H228733   0.263   1.443  11.329 -1.0899 -1.4910 -1.2204
 2440TIP3   OH228734   4.251   5.878   1.202  0.4993 -0.0542 -0.3550
 2440TIP3    H128735   4.224   5.925   1.123 -0.3929  0.0017 -0.0224
 2440TIP3    H228736   4.210   5.925   1.274  0.7506 -0.5072  0.0908
 2441TIP3   OH228737   6.749   6.326  14.279  0.0357 -0.8869 -0.9416
 2441TIP3    H128738   6.736   6.275  14.199 -0.7341  0.5114 -1.7327
 2441TIP3    H228739   6.775   6.413  14.248  0.2024 -0.4694  0.3464
 2442TIP3   OH228740   2.500   1.986   5.812  0.4771 -0.1682  0.1814
 2442TIP3    H128741   2.526   2.032   5.732 -1.7329  0.0642 -0.4547
 2442TIP3    H228742   2.545   1.902   5.808  0.7844  0.0500 -1.0748
 2443TIP3   OH228743   2.308   1.633   2.091 -0.2251 -0.3497 -0.4459
 2443TIP3    H128744   2.400   1.624   2.114 -0.1860  1.9524  0.4621
 2443TIP3    H228745   2.306   1.700   2.023 -1.1219 -1.3352 -1.4147
 2444TIP3   OH228746   4.372   4.761   2.922  0.3993  0.1415 -0.2482
 2444TIP3    H128747   4.451   4.799   2.885  1.3404 -2.4373 -1.0386
 2444TIP3    H228748   4.385   4.765   3.017  2.7393 -2.6638 -0.3924
 2445TIP3   OH228749   5.801   1.682  14.905 -0.7036 -0.0136  0.2169
 2445TIP3    H128750   5.869   1.654  14.967  0.1300  0.2349 -0.5801
 2445TIP3    H228751   5.727   1.624  14.923  0.4357 -1.6351 -0.3020
 2446TIP3   OH228752   4.485   4.339   3.672 -0.1497  1.3486  0.0882
 2446TIP3    H128753   4.424   4.340   3.598 -0.5776 -0.1276  0.4130
 2446TIP3    H228754   4.431   4.359   3.748 -0.1826  0.4066  0.3235
 2447TIP3   OH228755   3.559   3.317   5.890 -0.3691  0.1371  0.3167
 2447TIP3    H128756   3.549   3.409   5.865  0.4185 -0.0223 -0.6336
 2447TIP3    H228757   3.597   3.319   5.978 -1.7493  0.7132  0.9139
 2448TIP3   OH228758   2.292   1.649  13.350  1.0089 -0.0656  0.8080
 2448TIP3    H128759   2.310   1.667  13.442 -0.0922  0.7862  0.8723
 2448TIP3    H228760   2.305   1.734  13.307  0.3812 -0.1856  0.3759
 2449TIP3   OH228761   0.050   2.708  17.128  0.1963 -0.1310 -0.3884
 2449TIP3    H128762   0.112   2.726  17.199 -0.2542 -2.0709  0.5422
 2449TIP3    H228763   0.105   2.685  17.054  0.6223 -0.9512  0.1757
 2450TIP3   OH228764   3.359   3.494   3.973 -0.3716  0.4000 -0.6246
 2450TIP3    H128765   3.264   3.489   3.987 -0.0967  0.0681  1.2189
 2450TIP3    H228766   3.395   3.429   4.032  1.0316  0.6675 -1.1838
 2451TIP3   OH228767   5.631   0.136   2.508  0.5905 -0.1892 -0.4946
 2451TIP3    H128768   5.559   0.078   2.484 -1.7934  2.5684 -0.2316
 2451TIP3    H228769   5.639   0.125   2.603  0.0141  0.0392 -0.4172
 2452TIP3   OH228770   2.950   2.907  14.634 -0.2102 -0.0925 -0.3360
 2452TIP3    H128771   2.909   2.925  14.718  1.3414  2.3363 -0.0329
 2452TIP3    H228772   2.883   2.928  14.569 -0.7395  0.0219  0.2494
 2453TIP3   OH228773   2.771   3.519   1.093 -0.1188  0.2583 -0.0655
 2453TIP3    H128774   2.823   3.444   1.122 -0.1574 -0.4359 -1.6939
 2453TIP3    H228775   2.811   3.595   1.135 -1.0899 -0.8139  2.9641
 2454TIP3   OH228776   1.817   0.507  13.935  0.0022  0.0643 -0.0308
 2454TIP3    H128777   1.783   0.567  14.001  0.9182  2.4835 -1.6940
 2454TIP3    H228778   1.897   0.550  13.903 -0.5339 -0.9607 -2.8396
 2455TIP3   OH228779   5.226   0.692  17.178  0.7147  0.3391  0.4681
 2455TIP3    H128780   5.218   0.734  17.093  0.3472  1.1410  0.8927
 2455TIP3    H228781   5.320   0.685  17.193  0.7763  0.3628  0.0846
 2456TIP3   OH228782   4.995   0.443   5.743  0.1410  0.3455 -0.7992
 2456TIP3    H128783   4.985   0.356   5.704 -0.0813 -1.5645  3.3091
 2456TIP3    H228784   5.084   0.469   5.720 -0.1116 -0.4666 -2.8797
 2457TIP3   OH228785   6.028   5.354   2.311  0.0863 -0.0653 -0.3476
 2457TIP3    H128786   6.064   5.440   2.337 -2.7024  0.3122  2.5725
 2457TIP3    H228787   6.092   5.291   2.344  0.0036  0.7475  1.4475
 2458TIP3   OH228788   5.773   2.790   1.672  0.2670  0.2252  0.0543
 2458TIP3    H128789   5.847   2.819   1.617  0.9285  1.3134  1.4839
 2458TIP3    H228790   5.796   2.819   1.760 -1.7820  0.3820  0.5572
 2459TIP3   OH228791   2.939   2.790   6.406  0.3225  0.6257 -0.0755
 2459TIP3    H128792   2.914   2.716   6.351 -0.5091  1.7036 -1.2039
 2459TIP3    H228793   2.855   2.827   6.435  0.6877  1.7735 -0.4516
 2460TIP3   OH228794   2.373   3.643   0.386  0.1109 -0.2761  0.6287
 2460TIP3    H128795   2.455   3.651   0.434 -0.2015  2.9218  0.7201
 2460TIP3    H228796   2.310   3.612   0.452  0.4631  0.7275  1.4540
 2461TIP3   OH228797   1.559   6.364   2.791  0.0876  0.2723  0.3799
 2461TIP3    H128798   1.627   6.350   2.857 -0.2897 -2.7244  0.2061
 2461TIP3    H228799   1.592   6.317   2.714 -1.7434 -0.4454  0.0083
 2462TIP3   OH228800   4.118   3.809  15.769  0.1746  0.4407 -0.3400
 2462TIP3    H128801   4.050   3.862  15.811 -0.4950 -0.9561  0.3706
 2462TIP3    H228802   4.194   3.868  15.762  0.3947  0.6593  3.0570
 2463TIP3   OH228803   0.470   2.628   1.744  0.4781  0.8885  0.5803
 2463TIP3    H128804   0.403   2.602   1.808  0.7983  1.4240  1.1399
 2463TIP3    H228805   0.428   2.695   1.691  0.6889  1.5036  1.1796
 2464TIP3   OH228806   0.527   2.780   0.609  0.1592 -0.3453  0.5723
 2464TIP3    H128807   0.619   2.806   0.600 -0.4934  1.3702 -1.6846
 2464TIP3    H228808   0.523   2.692   0.571  0.7438 -0.1988  0.1686
 2465TIP3   OH228809   1.089   5.007  14.285  0.7246 -0.3383  0.8888
 2465TIP3    H128810   1.033   4.934  14.309 -0.9272  0.6609  0.1440
 2465TIP3    H228811   1.141   4.974  14.211 -0.7936 -0.3988 -0.1564
 2466TIP3   OH228812   1.121   6.570   2.936  0.1673 -0.0734 -0.0907
 2466TIP3    H128813   1.134   6.510   2.862 -0.6930 -0.3795  0.0088
 2466TIP3    H228814   1.209   6.605   2.953  0.3967 -0.0748 -1.1918
 2467TIP3   OH228815   1.835   6.568  15.368 -0.0054 -0.0359  0.1155
 2467TIP3    H128816   1.911   6.553  15.424  1.0648 -1.1292 -1.6040
 2467TIP3    H228817   1.769   6.507  15.399 -0.3598  1.2273  1.9043
 2468TIP3   OH228818   4.199   5.080  15.171  0.0789  0.7267  0.0591
 2468TIP3    H128819   4.182   5.130  15.250 -0.6945  0.1025  0.3028
 2468TIP3    H228820   4.221   4.992  15.202 -0.4812  0.4121 -0.4135
 2469TIP3   OH228821   5.097   0.494  10.690 -0.3441  0.4416 -0.5709
 2469TIP3    H128822   5.072   0.505  10.782  1.4428 -2.4776  0.3369
 2469TIP3    H228823   5.184   0.534  10.684  0.0210 -0.3660 -0.7141
 2470TIP3   OH228824   6.686   1.613  16.212 -0.0593  0.1353 -0.4065
 2470TIP3    H128825   6.769   1.659  16.227 -0.2429 -0.1054  1.4883
 2470TIP3    H228826   6.712   1.530  16.171  0.5909  0.3319 -0.4019
 2471TIP3   OH228827   3.422   0.935   1.706  0.0045 -0.4384 -0.5539
 2471TIP3    H128828   3.485   0.889   1.652  1.6964  1.0775  0.0861
 2471TIP3    H228829   3.388   1.005   1.649 -0.2174 -0.5031 -0.5044
 2472TIP3   OH228830   4.433   2.634   5.972 -0.2712 -0.1146  0.3813
 2472TIP3    H128831   4.405   2.552   6.011  1.7460 -0.4326  1.1998
 2472TIP3    H228832   4.473   2.683   6.044 -0.2930  1.0535 -0.3778
 2473TIP3   OH228833   0.147   1.770   3.522  0.1054  0.8161  0.0069
 2473TIP3    H128834   0.215   1.763   3.456  2.4708  1.0519  2.3413
 2473TIP3    H228835   0.172   1.846   3.574 -1.9810  0.9337  0.8971
 2474TIP3   OH228836   2.593   4.165  14.658  0.3496  0.0966  0.2130
 2474TIP3    H128837   2.614   4.138  14.747  0.0606  3.3901  1.3480
 2474TIP3    H228838   2.501   4.143  14.647  0.5371 -0.8659  0.4598
 2475TIP3   OH228839   6.736   1.899  12.332  0.3420 -0.0412 -0.4254
 2475TIP3    H128840   6.786   1.839  12.387 -1.3216 -0.1926  0.9327
 2475TIP3    H228841   6.663   1.847  12.299 -0.0613  0.7374 -0.7752
 2476TIP3   OH228842   3.218   6.621   1.525  0.0256 -0.3492  0.6119
 2476TIP3    H128843   3.287   6.559   1.501 -0.7234 -2.3715  3.4197
 2476TIP3    H228844   3.257   6.707   1.512  2.0743 -1.4286 -0.6127
 2477TIP3   OH228845   2.379   0.800  11.120  0.5336 -0.1587  0.2581
 2477TIP3    H128846   2.301   0.843  11.085  0.6225 -1.6670 -1.9405
 2477TIP3    H228847   2.452   0.858  11.096  0.2771  0.3030  0.6038
 2478TIP3   OH228848   1.771   3.394  12.859 -0.0440  0.3356  0.0379
 2478TIP3    H128849   1.806   3.373  12.946 -1.8491  2.2691  1.2873
 2478TIP3    H228850   1.716   3.320  12.837  0.3630 -0.1399  0.5808
 2479TIP3   OH228851   6.654   5.683  12.833  0.2704 -0.8686  0.4586
 2479TIP3    H128852   6.702   5.766  12.832  1.4031 -1.5064 -1.5240
 2479TIP3    H228853   6.591   5.691  12.761 -0.7600 -1.0829  1.3305
 2480TIP3   OH228854   3.155   3.615   3.017  0.4956  0.5233  0.0734
 2480TIP3    H128855   3.163   3.635   2.924  2.0384 -0.7562 -0.0833
 2480TIP3    H228856   3.079   3.556   3.023 -0.1750  1.3478 -0.2411
 2481TIP3   OH228857   0.246   4.506   0.217  0.0798  0.6356  0.7488
 2481TIP3    H128858   0.222   4.594   0.248 -0.0920 -0.0006  2.4455
 2481TIP3    H228859   0.310   4.475   0.280 -0.5254 -0.8208  0.6664
 2482TIP3   OH228860   0.928   1.726   5.385  0.0731  0.2193 -0.0653
 2482TIP3    H128861   0.877   1.735   5.466 -1.8712 -1.9420 -0.9953
 2482TIP3    H228862   0.872   1.675   5.327  2.2695  0.0158 -2.0768
 2483TIP3   OH228863   1.764   2.300   2.117 -0.1731  0.0727  0.0540
 2483TIP3    H128864   1.830   2.324   2.051  1.2172 -1.6037  0.7833
 2483TIP3    H228865   1.759   2.376   2.174 -1.4047  1.5616 -1.9685
 2484TIP3   OH228866   1.516   4.111  13.069  0.3910  0.3038 -0.1280
 2484TIP3    H128867   1.456   4.156  13.129  0.2425  0.0438 -0.0830
 2484TIP3    H228868   1.586   4.175  13.054  0.3520  0.4280  0.2001
 2485TIP3   OH228869   5.130   4.727  12.863 -0.4961  0.1638  0.4802
 2485TIP3    H128870   5.155   4.682  12.944 -1.8167  2.1721  2.0673
 2485TIP3    H228871   5.214   4.754  12.824  0.1874 -1.5664  0.7157
 2486TIP3   OH228872   4.517   5.651  15.622 -0.2501 -0.3268 -0.5196
 2486TIP3    H128873   4.445   5.712  15.604 -0.4944 -0.2454  0.7124
 2486TIP3    H228874   4.562   5.642  15.538  0.2020  2.0762 -0.5759
 2487TIP3   OH228875   6.701   4.647  12.987 -0.1709 -0.2634 -0.2930
 2487TIP3    H128876   6.714   4.560  12.947  0.4204 -0.5872  0.5920
 2487TIP3    H228877   6.732   4.708  12.920  2.2714 -0.8691  0.2326
 2488TIP3   OH228878   4.980   2.795  12.321  0.3625 -0.0845  0.5490
 2488TIP3    H128879   4.967   2.751  12.236 -0.6314 -0.9864  1.1617
 2488TIP3    H228880   5.070   2.828  12.316  0.4148 -0.3701 -0.7488
 2489TIP3   OH228881   2.707   3.198   0.069 -0.3391  0.5483 -0.2967
 2489TIP3    H128882   2.664   3.118   0.101  0.9415 -0.1631 -0.3242
 2489TIP3    H228883   2.693   3.196  -0.026  1.3428 -0.6614 -0.5420
 2490TIP3   OH228884   2.514   6.433   1.604 -0.2307 -0.0716  0.1445
 2490TIP3    H128885   2.487   6.489   1.677 -0.2054  0.5360 -0.3144
 2490TIP3    H228886   2.494   6.344   1.634  0.0495  0.1547  1.0086
 2491TIP3   OH228887   5.741   0.628  14.001 -0.3681  0.0386  0.2300
 2491TIP3    H128888   5.828   0.600  14.029 -0.1495 -0.5160 -0.9952
 2491TIP3    H228889   5.690   0.631  14.082  0.9818  1.1384  1.0730
 2492TIP3   OH228890   3.780   5.666   2.750 -0.4732 -0.0548  0.8385
 2492TIP3    H128891   3.712   5.621   2.700  1.2765 -0.1032 -1.5888
 2492TIP3    H228892   3.767   5.759   2.731 -1.2861  0.1215  2.2275
 2493TIP3   OH228893   3.682   2.999  11.969 -0.4429 -0.2405 -0.2725
 2493TIP3    H128894   3.683   2.906  11.946  0.1313 -0.2206 -0.3408
 2493TIP3    H228895   3.656   3.000  12.061 -2.2313 -0.3514 -0.7544
 2494TIP3   OH228896   4.913   2.230  15.960 -0.4700  0.0892 -0.2074
 2494TIP3    H128897   4.919   2.288  15.884  0.8618  1.4317  0.8976
 2494TIP3    H228898   4.859   2.157  15.930 -1.0654  1.2452 -2.0356
 2495TIP3   OH228899   5.474   2.820   1.363  0.4033 -0.4662  0.1749
 2495TIP3    H128900   5.554   2.768   1.374  0.8695 -0.0611 -1.2596
 2495TIP3    H228901   5.502   2.911   1.373 -0.2396 -0.4166  1.6871
 2496TIP3   OH228902   2.250   0.492   1.650  0.2371  0.7569 -0.1658
 2496TIP3    H128903   2.182   0.557   1.629  0.9862  1.9283  0.9729
 2496TIP3    H228904   2.245   0.481   1.745  0.5073 -0.4286 -0.2812
 2497TIP3   OH228905   6.038   6.316   2.152  0.7308  0.6577 -0.2881
 2497TIP3    H128906   6.052   6.297   2.245 -0.7368 -0.1028 -0.1997
 2497TIP3    H228907   5.947   6.347   2.148  0.3774 -0.4930 -1.6310
 2498TIP3   OH228908   1.407   0.086  16.840 -0.3673  0.2661 -0.3646
 2498TIP3    H128909   1.433   0.043  16.922  0.7744  0.6627 -0.5064
 2498TIP3    H228910   1.312   0.075  16.836 -0.2583 -1.0255  0.2910
 2499TIP3   OH228911   4.908   5.061  10.956 -0.2615 -0.4944 -0.0939
 2499TIP3    H128912   4.908   5.008  11.036  0.3360  1.4958  1.2440
 2499TIP3    H228913   4.989   5.112  10.960 -1.2320  1.1577 -0.9335
 2500TIP3   OH228914   5.457   6.535  13.406 -0.0343 -0.2888  0.6431
 2500TIP3    H128915   5.397   6.561  13.336 -0.5685  0.8914  1.5254
 2500TIP3    H228916   5.507   6.614  13.426 -0.1946 -0.4820  1.8809
 2501TIP3   OH228917   3.525   2.315   5.088  0.2918 -0.4700 -0.5101
 2501TIP3    H128918   3.605   2.284   5.046 -0.4226 -0.7854 -1.6557
 2501TIP3    H228919   3.508   2.400   5.047 -0.9662 -1.2415 -1.5736
 2502TIP3   OH228920   0.349   2.597  11.630  0.1237 -0.6453  0.1739
 2502TIP3    H128921   0.335   2.503  11.631 -2.3285 -0.3259 -0.1052
 2502TIP3    H228922   0.275   2.633  11.680  1.0282  1.1234  0.2923
 2503TIP3   OH228923   4.516   1.285  16.144  0.3477 -0.3614 -0.1561
 2503TIP3    H128924   4.490   1.371  16.174  2.5969 -0.0085  0.9055
 2503TIP3    H228925   4.456   1.264  16.073 -1.0310  1.5110  0.4533
 2504TIP3   OH228926   2.751   6.479   2.906  0.6586 -0.2353  0.1882
 2504TIP3    H128927   2.748   6.525   2.823 -1.3423 -0.4859  0.0940
 2504TIP3    H228928   2.787   6.543   2.968  3.6278 -0.5541 -1.1513
 2505TIP3   OH228929   0.390   1.401   5.161 -0.5804 -0.0539 -0.0439
 2505TIP3    H128930   0.336   1.334   5.203 -0.3457 -0.2103  0.0096
 2505TIP3    H228931   0.461   1.417   5.223 -0.0999 -0.4652 -0.4872
 2506TIP3   OH228932   5.555   3.215  15.578  0.0879 -0.1234  0.0569
 2506TIP3    H128933   5.570   3.268  15.500 -0.0793  0.2541  0.2821
 2506TIP3    H228934   5.520   3.133  15.544 -0.9320  0.4129 -0.2005
 2507TIP3   OH228935   0.356   4.056   5.571  0.1965  0.2763  0.4575
 2507TIP3    H128936   0.380   3.975   5.526  1.4281  0.1112  1.3828
 2507TIP3    H228937   0.433   4.077   5.624  0.5189  2.8644 -0.9386
 2508TIP3   OH228938   2.715   4.085  13.085 -0.2277  0.1320 -0.0710
 2508TIP3    H128939   2.705   4.178  13.065 -1.2391  0.1113  0.3099
 2508TIP3    H228940   2.743   4.083  13.176 -0.5466  0.0564  0.0274
 2509TIP3   OH228941   5.188   4.783   2.067  0.0989 -0.0719 -0.3348
 2509TIP3    H128942   5.136   4.739   2.000 -0.1845  0.1613 -0.2668
 2509TIP3    H228943   5.124   4.823   2.126  0.3485  0.2968 -0.3077
 2510TIP3   OH228944   6.615   3.682  16.396  0.1610 -0.1033  0.3673
 2510TIP3    H128945   6.638   3.691  16.488  2.1138 -1.3082  0.0248
 2510TIP3    H228946   6.586   3.591  16.387 -0.1762  0.0506 -0.1942
 2511TIP3   OH228947   6.054   5.251  16.799  0.1491 -0.4266  0.6040
 2511TIP3    H128948   6.043   5.224  16.708 -2.5752  0.8272  0.5125
 2511TIP3    H228949   6.134   5.303  16.799  0.2695 -0.6002 -1.0400
 2512TIP3   OH228950   6.431   6.247   1.690 -0.2918  0.0241 -0.2181
 2512TIP3    H128951   6.510   6.217   1.646 -0.7375 -1.2278 -0.1901
 2512TIP3    H228952   6.412   6.332   1.651  0.9327  0.2250 -0.3848
 2513TIP3   OH228953   2.921   5.213  13.364 -0.2038 -0.6883  0.2575
 2513TIP3    H128954   2.955   5.237  13.450 -0.2055  0.3194 -0.0170
 2513TIP3    H228955   2.827   5.222  13.372 -0.1555  0.1072 -0.0576
 2514TIP3   OH228956   0.306   1.492  16.824 -0.0721  0.1659  0.4675
 2514TIP3    H128957   0.257   1.481  16.906 -1.0202 -0.1945 -0.1412
 2514TIP3    H228958   0.243   1.531  16.763  0.2349 -0.7838 -0.4752
 2515TIP3   OH228959   6.440   6.403   0.445  0.6269  0.0241 -0.0387
 2515TIP3    H128960   6.434   6.309   0.426  1.3540  0.1608 -0.9920
 2515TIP3    H228961   6.363   6.440   0.402  0.8438 -0.0224 -0.4783
 2516TIP3   OH228962   5.950   4.622  12.771  0.1250 -0.5707  0.4849
 2516TIP3    H128963   5.972   4.592  12.859  1.6687  1.3987  0.8192
 2516TIP3    H228964   6.013   4.577  12.714 -0.2436 -1.0977  0.4894
 2517TIP3   OH228965   1.556   2.249  12.240  0.7940 -0.4651  0.0312
 2517TIP3    H128966   1.485   2.197  12.202  0.8699 -0.7939  0.3385
 2517TIP3    H228967   1.627   2.187  12.254  0.8760 -0.2878  0.4257
 2518TIP3   OH228968   1.908   5.783  11.206  0.1991 -0.0853 -0.1332
 2518TIP3    H128969   1.863   5.830  11.277 -1.5494 -0.9722 -0.6194
 2518TIP3    H228970   1.863   5.811  11.126  0.2864 -1.2399 -0.5987
 2519TIP3   OH228971   0.102   4.105   5.628 -0.2013  0.0846  0.7547
 2519TIP3    H128972   0.098   4.177   5.564 -1.1384 -1.1109 -0.5554
 2519TIP3    H228973   0.194   4.078   5.628 -0.3347 -0.4050 -0.6673
 2520TIP3   OH228974   4.293   6.718  11.112  0.2055 -0.2965 -0.2694
 2520TIP3    H128975   4.217   6.687  11.162  0.7715 -0.8995  0.2369
 2520TIP3    H228976   4.317   6.801  11.153  0.8791 -0.9568  0.6998
 2521TIP3   OH228977   6.701   0.751   1.596  0.0353  0.2395 -0.4387
 2521TIP3    H128978   6.719   0.798   1.677 -0.1266 -0.0813 -0.2157
 2521TIP3    H228979   6.754   0.672   1.603  1.0853  0.8560 -1.2590
 2522TIP3   OH228980   1.624   0.209   0.649 -0.6802  0.6396  0.4550
 2522TIP3    H128981   1.604   0.127   0.604 -1.3258  0.1064  1.6822
 2522TIP3    H228982   1.715   0.228   0.625 -0.8630  0.1303 -0.6806
 2523TIP3   OH228983   5.995   5.432  14.284 -0.0121  0.5386  0.0946
 2523TIP3    H128984   5.978   5.450  14.376 -0.1476 -1.3066  0.4447
 2523TIP3    H228985   6.008   5.337  14.280  0.1689  0.6277 -1.7535
 2524TIP3   OH228986   3.144   3.232  10.662 -0.0549 -0.2988  0.0963
 2524TIP3    H128987   3.144   3.326  10.674 -0.3212 -0.2851 -0.0093
 2524TIP3    H228988   3.052   3.208  10.661  0.0199 -0.8226  2.1839
 2525TIP3   OH228989   5.377   6.393   1.409 -0.4656 -0.4042 -0.2263
 2525TIP3    H128990   5.340   6.304   1.406 -1.8888  0.1832 -0.0614
 2525TIP3    H228991   5.309   6.446   1.449  0.2143  0.8663 -0.7511
 2526TIP3   OH228992   4.873   0.494   4.102 -0.0322 -0.2313 -0.2878
 2526TIP3    H128993   4.797   0.498   4.160 -0.1906 -0.2790 -0.4900
 2526TIP3    H228994   4.836   0.493   4.014  0.1933 -0.5738 -0.3809
 2527TIP3   OH228995   2.850   4.035  14.586  0.4007 -0.0329  0.4871
 2527TIP3    H128996   2.860   4.114  14.640 -1.2465 -0.4982  1.5189
 2527TIP3    H228997   2.762   4.043  14.548 -0.1910 -1.8514  1.4206
 2528TIP3   OH228998   1.468   1.076   1.868 -0.4116 -0.8633 -0.4149
 2528TIP3    H128999   1.400   1.028   1.914 -1.4808 -0.0628 -1.1327
 2528TIP3    H229000   1.494   1.146   1.928 -0.1399 -1.2346 -0.0996
 2529TIP3   OH229001   2.557   3.041  13.180 -0.7629  0.1047  0.1091
 2529TIP3    H129002   2.481   3.041  13.121 -3.0795 -0.1963  2.9775
 2529TIP3    H229003   2.557   3.129  13.218 -0.0016 -0.0875  0.5419
 2530TIP3   OH229004   5.658   6.351  15.887 -0.1671 -0.6496 -0.2433
 2530TIP3    H129005   5.649   6.264  15.925 -2.5752 -0.3340 -0.0086
 2530TIP3    H229006   5.642   6.338  15.793 -2.2736 -0.2400  0.0297
 2531TIP3   OH229007   0.187   5.021   6.233  0.3899  0.2938 -0.1439
 2531TIP3    H129008   0.244   4.944   6.230  0.3654  0.3066 -1.3094
 2531TIP3    H229009   0.240   5.089   6.275  1.5869  0.5810 -2.0680
 2532TIP3   OH229010   3.780   6.586   1.187 -0.4271  0.3856 -0.0238
 2532TIP3    H129011   3.832   6.555   1.112 -1.0424 -2.5171  0.6904
 2532TIP3    H229012   3.820   6.544   1.263 -1.8195  0.7194  0.9114
 2533TIP3   OH229013   3.063   0.529   2.129 -0.4948  0.1957  0.5612
 2533TIP3    H129014   3.124   0.601   2.143  0.4237 -0.7678  1.6541
 2533TIP3    H229015   3.089   0.493   2.044  1.0620 -0.7507  1.4057
 2534TIP3   OH229016   0.597   5.660   1.123  0.8524 -0.2839 -0.1471
 2534TIP3    H129017   0.564   5.627   1.207  1.4733  1.6879  0.8990
 2534TIP3    H229018   0.520   5.663   1.067  0.0484  0.1678  0.9504
 2535TIP3   OH229019   2.193   6.444  16.047 -0.3082 -0.0846  0.1113
 2535TIP3    H129020   2.138   6.397  15.985 -0.6893  1.5429 -0.7857
 2535TIP3    H229021   2.217   6.525  16.003 -1.2587  1.4958  2.3451
 2536TIP3   OH229022   6.240   6.639  16.821  0.4025 -0.6791  0.1342
 2536TIP3    H129023   6.206   6.659  16.734 -0.7238 -1.5240  0.3551
 2536TIP3    H229024   6.178   6.575  16.856  0.2036  0.4926  2.0020
 2537TIP3   OH229025   0.227   0.417  10.762  0.0592 -0.0313  0.0360
 2537TIP3    H129026   0.270   0.503  10.758  2.2338 -1.1058 -1.3209
 2537TIP3    H229027   0.169   0.416  10.686 -1.2688  0.8853  1.0370
 2538TIP3   OH229028   4.827   2.606  14.831 -0.4140  0.2961 -0.4494
 2538TIP3    H129029   4.735   2.632  14.837 -0.0600  1.2340  1.2820
 2538TIP3    H229030   4.826   2.511  14.844 -0.9913  0.5334  1.4204
 2539TIP3   OH229031   1.230   4.033  12.246  0.3704  0.2809  0.0650
 2539TIP3    H129032   1.310   3.990  12.277 -0.1571 -0.3584  0.5258
 2539TIP3    H229033   1.164   3.965  12.246 -0.3556  0.9802  0.3554
 2540TIP3   OH229034   4.887   4.427   4.525 -0.3815  0.9241 -0.3325
 2540TIP3    H129035   4.952   4.375   4.574  0.3153  1.4640 -0.6799
 2540TIP3    H229036   4.857   4.492   4.588 -1.7312 -0.2919  0.3035
 2541TIP3   OH229037   0.483   5.182   1.893  0.2229  0.2244 -0.2222
 2541TIP3    H129038   0.462   5.151   1.981  1.2659 -1.1804 -0.4475
 2541TIP3    H229039   0.532   5.110   1.853 -0.6290  0.6642 -2.1191
 2542TIP3   OH229040   4.957   6.205  16.219 -0.0639 -0.0149 -0.1057
 2542TIP3    H129041   4.906   6.181  16.297 -0.1642 -1.4016 -0.5890
 2542TIP3    H229042   5.031   6.145  16.219  1.6750  2.0668  0.6507
 2543TIP3   OH229043   3.259   6.587   4.556 -0.2105 -0.4125 -0.3291
 2543TIP3    H129044   3.237   6.638   4.635 -0.5830  0.4769 -0.9941
 2543TIP3    H229045   3.198   6.514   4.558 -0.4937 -0.1744  0.0032
 2544TIP3   OH229046   3.308   4.031  12.475 -0.8746 -0.2025  0.2560
 2544TIP3    H129047   3.248   4.014  12.403 -1.3069 -1.2027  0.8503
 2544TIP3    H229048   3.270   4.105  12.522  0.4175  1.7324 -1.6660
 2545TIP3   OH229049   6.388   2.820  13.334 -0.4775  0.0198  0.3325
 2545TIP3    H129050   6.390   2.838  13.240  0.0826 -0.3602  0.2687
 2545TIP3    H229051   6.314   2.761  13.345 -0.9769  0.6140  0.2328
 2546TIP3   OH229052   1.219   4.406   0.340  0.3828 -0.1956  1.0573
 2546TIP3    H129053   1.249   4.495   0.363 -1.6829  0.4993  1.1790
 2546TIP3    H229054   1.127   4.405   0.366 -0.8699 -0.8762 -3.0640
 2547TIP3   OH229055   2.239   3.477  15.833 -1.0894 -0.0362  0.3827
 2547TIP3    H129056   2.260   3.570  15.842 -0.5853 -0.1623  0.5060
 2547TIP3    H229057   2.247   3.459  15.740 -2.7790  0.4236  0.1362
 2548TIP3   OH229058   5.588   2.342   6.488  0.0852 -0.0180  0.4571
 2548TIP3    H129059   5.523   2.303   6.429 -0.3810  2.9343 -1.0592
 2548TIP3    H229060   5.550   2.426   6.513  2.2486  0.6570  1.5285
 2549TIP3   OH229061   1.040   6.669   2.551 -0.1531 -0.7644  0.2115
 2549TIP3    H129062   1.045   6.707   2.638 -1.3024  0.5836 -0.3020
 2549TIP3    H229063   1.132   6.652   2.527  0.3835  1.5376  0.5121
 2550TIP3   OH229064   3.462   5.450   4.970 -1.1969  0.4179 -0.5419
 2550TIP3    H129065   3.398   5.448   4.899 -1.4886 -0.9139 -0.2609
 2550TIP3    H229066   3.539   5.491   4.932 -1.2526 -0.5456 -1.7233
 2551TIP3   OH229067   3.164   2.603   1.927 -0.2355  0.2092 -0.3935
 2551TIP3    H129068   3.238   2.618   1.985  0.6360 -1.5352 -1.0031
 2551TIP3    H229069   3.155   2.507   1.924  0.0655  0.2306 -3.4976
 2552TIP3   OH229070   5.726   1.474  15.555  0.1298 -0.3246  0.2579
 2552TIP3    H129071   5.671   1.537  15.600 -0.3134 -0.0989 -0.5966
 2552TIP3    H229072   5.772   1.428  15.625  0.5742  1.0495  0.8768
 2553TIP3   OH229073   6.472   6.441  12.982  0.0478 -0.1576  0.2426
 2553TIP3    H129074   6.558   6.406  12.958 -0.2621 -0.4234 -0.5097
 2553TIP3    H229075   6.427   6.367  13.025 -0.4810 -0.6038 -1.0394
 2554TIP3   OH229076   4.615   4.504   0.173 -0.3537 -0.1449 -0.1723
 2554TIP3    H129077   4.520   4.519   0.172 -0.0826  1.7500 -0.0255
 2554TIP3    H229078   4.628   4.426   0.119 -1.7903  0.7919 -1.9244
 2555TIP3   OH229079   3.260   6.712  14.901  0.0926  0.2791 -0.0149
 2555TIP3    H129080   3.217   6.729  14.817 -0.3547  0.2848  0.2181
 2555TIP3    H229081   3.201   6.748  14.967  0.7647  0.8804  0.2628
 2556TIP3   OH229082   3.332   4.670   4.364 -0.3773 -0.4759 -0.3173
 2556TIP3    H129083   3.300   4.717   4.442 -0.8165 -1.1655 -0.0836
 2556TIP3    H229084   3.416   4.635   4.391  0.5699  1.2671 -0.9054
 2557TIP3   OH229085   3.541   1.588  14.397  0.5783  0.0682  0.5870
 2557TIP3    H129086   3.446   1.578  14.387  0.7650 -1.8866  0.4386
 2557TIP3    H229087   3.577   1.513  14.350  2.1024 -0.5182  2.6308
 2558TIP3   OH229088   4.737   5.723  14.681 -0.3609 -0.1498 -0.3789
 2558TIP3    H129089   4.714   5.694  14.769 -0.1761  1.5301  0.2332
 2558TIP3    H229090   4.806   5.663  14.653  0.0027 -0.3197  0.8488
 2559TIP3   OH229091   6.707   3.856  11.359 -0.7677  0.1179  0.2700
 2559TIP3    H129092   6.629   3.864  11.413  0.1578 -3.7846  2.3538
 2559TIP3    H229093   6.776   3.899  11.409 -0.6560 -0.3068  0.4766
 2560TIP3   OH229094   0.805   6.776   1.517  0.0540 -0.7687  0.4775
 2560TIP3    H129095   0.897   6.772   1.544  0.3847 -1.4045 -0.6985
 2560TIP3    H229096   0.794   6.865   1.484  0.8958 -1.3960 -1.5673
 2561TIP3   OH229097   6.270   5.637  15.048  0.5830  0.2004  0.5692
 2561TIP3    H129098   6.239   5.686  14.972  1.9744 -2.2291 -1.6219
 2561TIP3    H229099   6.190   5.600  15.086  0.1177 -0.6456 -1.2022
 2562TIP3   OH229100   0.937   6.211   2.200 -0.1675 -0.2018  0.1975
 2562TIP3    H129101   0.929   6.137   2.140  2.6776 -0.5609  0.2261
 2562TIP3    H229102   0.986   6.177   2.274 -4.2671  0.0181  3.2194
 2563TIP3   OH229103   3.183   3.422   0.278  0.3558  0.2241  0.2698
 2563TIP3    H129104   3.097   3.443   0.242 -0.0622 -0.1809  1.0317
 2563TIP3    H229105   3.238   3.497   0.256 -0.4315  0.8951  0.6032
 2564TIP3   OH229106   4.290   0.879  10.941  0.1038 -0.3137  0.3025
 2564TIP3    H129107   4.264   0.882  10.849  0.7782  1.4950  0.1521
 2564TIP3    H229108   4.356   0.810  10.945 -0.5389 -0.9850 -0.4009
 2565TIP3   OH229109   4.157   0.027  10.531  1.1691 -0.1036  0.1704
 2565TIP3    H129110   4.182   0.050  10.442  0.6498 -0.8578 -0.1783
 2565TIP3    H229111   4.174   0.106  10.582  2.5129 -0.0271 -0.3838
 2566TIP3   OH229112   5.226   6.614   5.214  0.1559  0.6129 -0.3488
 2566TIP3    H129113   5.154   6.610   5.152 -0.3879  0.2027  0.2988
 2566TIP3    H229114   5.266   6.526   5.210  0.9702  1.0099 -1.1121
 2567TIP3   OH229115   2.904   1.534  14.470 -0.4460  0.2534 -0.5921
 2567TIP3    H129116   2.842   1.500  14.535 -0.0535  0.1015 -0.2928
 2567TIP3    H229117   2.960   1.459  14.449 -0.1185  0.4870 -0.5658
 2568TIP3   OH229118   0.617   5.420   0.063  0.3592 -0.2207  0.4121
 2568TIP3    H129119   0.623   5.453   0.153  2.8162  4.1363 -1.1943
 2568TIP3    H229120   0.583   5.494   0.013  0.4391 -2.0881 -2.5034
 2569TIP3   OH229121   0.205   3.647   0.699 -0.0377 -0.0643  0.0911
 2569TIP3    H129122   0.191   3.689   0.614 -1.0487 -1.0423 -0.2350
 2569TIP3    H229123   0.297   3.666   0.720 -0.4157  2.1622 -0.1101
 2570TIP3   OH229124   6.085   2.721  15.968  0.7237  0.5672  0.2005
 2570TIP3    H129125   6.126   2.646  15.924  2.2286  2.3737 -1.5568
 2570TIP3    H229126   6.158   2.768  16.008 -0.1568  1.4051  0.8304
 2571TIP3   OH229127   1.768   3.069   0.910  0.1518 -0.1538 -0.1582
 2571TIP3    H129128   1.854   3.039   0.881  0.0516 -0.3214 -0.2820
 2571TIP3    H229129   1.706   3.017   0.859 -0.0257  0.5520 -0.6819
 2572TIP3   OH229130   1.994   0.650  14.283 -0.0106 -0.1523 -0.3984
 2572TIP3    H129131   2.046   0.699  14.220  1.1184 -2.5569 -1.4117
 2572TIP3    H229132   2.051   0.644  14.360  0.0696 -0.2957 -0.4667
 2573TIP3   OH229133   1.355   5.827  15.641  0.3858 -0.4044  0.3048
 2573TIP3    H129134   1.381   5.788  15.724  0.8273 -1.2188 -0.2108
 2573TIP3    H229135   1.367   5.758  15.577 -0.1088  0.1690 -0.4184
 2574TIP3   OH229136   3.909   1.588   2.456 -0.4059 -0.2193 -0.8114
 2574TIP3    H129137   3.905   1.649   2.530 -1.6958 -3.1915  1.7186
 2574TIP3    H229138   4.002   1.580   2.435  0.0638 -0.0153  1.1246
 2575TIP3   OH229139   0.453   1.574   0.216  0.2215 -0.0048  0.4821
 2575TIP3    H129140   0.398   1.578   0.295 -0.9346  0.5209 -0.3374
 2575TIP3    H229141   0.450   1.663   0.181  0.8387 -0.2090 -0.1014
 2576TIP3   OH229142   5.639   4.192  14.623 -0.1400 -0.3485  0.3374
 2576TIP3    H129143   5.688   4.151  14.694  1.3498  0.7685 -0.0029
 2576TIP3    H229144   5.630   4.124  14.557  0.9733 -0.5825  0.4150
 2577TIP3   OH229145   0.312   2.641  10.698  0.0522 -0.4506 -0.0191
 2577TIP3    H129146   0.313   2.659  10.604 -1.5716 -0.6882 -0.0910
 2577TIP3    H229147   0.350   2.554  10.706 -0.2208 -0.6180 -0.5105
 2578TIP3   OH229148   4.732   4.022   6.462 -0.1317  0.1852 -0.0774
 2578TIP3    H129149   4.716   4.116   6.453 -1.6236 -0.2546 -2.3941
 2578TIP3    H229150   4.694   4.000   6.548 -0.1557  1.5982  0.2899
 2579TIP3   OH229151   2.853   5.104   3.788 -0.1180 -0.5691 -0.0293
 2579TIP3    H129152   2.795   5.068   3.720  1.1945 -0.7768 -1.0800
 2579TIP3    H229153   2.863   5.196   3.764 -2.1275  0.1172  1.6894
 2580TIP3   OH229154   2.310   5.390  12.655  0.3402 -0.3373 -0.3656
 2580TIP3    H129155   2.220   5.380  12.686  0.1239 -0.4408 -1.0268
 2580TIP3    H229156   2.307   5.465  12.597  0.7451 -0.1668 -0.1667
 2581TIP3   OH229157   3.209   6.274   3.940 -0.2846  0.3031 -0.2490
 2581TIP3    H129158   3.231   6.213   4.010 -1.2232  0.6592  0.3658
 2581TIP3    H229159   3.143   6.332   3.979  0.0657  1.2526 -1.0478
 2582TIP3   OH229160   5.894   3.181  12.224  0.3122 -0.6809  0.4118
 2582TIP3    H129161   5.859   3.128  12.152  1.3569  0.7740 -1.2151
 2582TIP3    H229162   5.989   3.173  12.215  0.5829  3.5304 -1.5192
 2583TIP3   OH229163   1.559   0.035  13.905 -0.1442 -0.5428  0.0571
 2583TIP3    H129164   1.547   0.022  13.811  0.3457 -2.3181  0.2276
 2583TIP3    H229165   1.598  -0.047  13.936  0.3649  0.2958  1.6860
 2584TIP3   OH229166   4.066   2.654  13.218 -1.0637 -0.1810  0.0740
 2584TIP3    H129167   3.983   2.699  13.233 -1.0661  0.0636 -0.6224
 2584TIP3    H229168   4.132   2.709  13.260 -1.4893 -1.5313  2.5923
 2585TIP3   OH229169   0.341   1.097  16.168 -0.2449  0.4169 -0.3436
 2585TIP3    H129170   0.294   1.065  16.245 -1.4983  0.8655 -0.9060
 2585TIP3    H229171   0.417   1.143  16.204 -1.1847  1.2218  0.6577
 2586TIP3   OH229172   1.547   4.396  12.603  0.4148  0.3105  0.3678
 2586TIP3    H129173   1.466   4.441  12.578  0.0803 -1.3075 -1.6273
 2586TIP3    H229174   1.547   4.399  12.699 -1.4992  1.2210  0.3735
 2587TIP3   OH229175   3.745   5.929   0.184 -0.2717  0.5352  0.1627
 2587TIP3    H129176   3.748   5.838   0.216  0.5021  0.7058  0.6029
 2587TIP3    H229177   3.701   5.923   0.100  0.7528 -0.4065 -0.3242
 2588TIP3   OH229178   4.280   5.587   2.203  0.0691  0.1534 -0.5655
 2588TIP3    H129179   4.297   5.586   2.297 -1.7551  1.4095 -0.1850
 2588TIP3    H229180   4.221   5.513   2.189 -1.0656  1.0063 -0.4021
 2589TIP3   OH229181   1.429   5.217   6.153 -0.3343 -0.2688  0.2971
 2589TIP3    H129182   1.400   5.197   6.242  0.8534  0.9118  0.9759
 2589TIP3    H229183   1.421   5.134   6.105 -1.9963 -0.6544  1.2107
 2590TIP3   OH229184   4.893   5.959  12.726 -0.3057 -0.3188 -0.1101
 2590TIP3    H129185   4.833   5.986  12.656  0.3894  1.3704 -0.0729
 2590TIP3    H229186   4.960   5.907  12.681  0.4046  1.1642 -0.8094
 2591TIP3   OH229187   6.504   6.125  12.900  0.1777 -0.2026 -0.1024
 2591TIP3    H129188   6.440   6.139  12.831 -0.0272 -0.1799  0.0949
 2591TIP3    H229189   6.586   6.161  12.864  0.3797 -1.3545 -0.8617
 2592TIP3   OH229190   1.594   0.476   3.942 -0.2922  0.0240 -0.0093
 2592TIP3    H129191   1.665   0.533   3.971 -1.0943  0.2248  1.6166
 2592TIP3    H229192   1.519   0.503   3.994 -0.9548 -1.8122  0.0340
 2593TIP3   OH229193   2.937   4.881   2.048  0.0481 -0.3663  0.1464
 2593TIP3    H129194   2.898   4.921   1.970  1.4833 -1.5214 -1.1961
 2593TIP3    H229195   2.986   4.806   2.014  1.6010 -0.2330  2.0321
 2594TIP3   OH229196   2.259   4.137  15.949 -0.9003  0.6615 -0.3078
 2594TIP3    H129197   2.243   4.098  16.034 -1.0677 -1.5296 -1.3043
 2594TIP3    H229198   2.187   4.199  15.936 -0.8650  1.0152  1.1188
 2595TIP3   OH229199   5.990   1.036  17.032  0.4529 -0.0504 -0.1914
 2595TIP3    H129200   6.008   1.130  17.033  0.4727 -0.0555 -0.1039
 2595TIP3    H229201   6.071   0.997  16.999  0.7150 -0.0991  0.5018
 2596TIP3   OH229202   0.377   5.977  16.955 -0.6565  0.4998 -0.0683
 2596TIP3    H129203   0.385   6.050  17.017  0.5086  1.4914 -1.3540
 2596TIP3    H229204   0.462   5.934  16.957 -0.5007  0.7288 -1.1848
 2597TIP3   OH229205   2.989   6.482   1.542 -0.1031  0.6769 -0.3537
 2597TIP3    H129206   3.037   6.408   1.505 -0.6259  0.9653 -1.6491
 2597TIP3    H229207   3.052   6.554   1.541 -0.0108  0.5974 -0.3354
 2598TIP3   OH229208   3.283   6.650   5.214 -0.3590  0.1328  0.1305
 2598TIP3    H129209   3.314   6.581   5.272  0.2233  1.2621  1.1865
 2598TIP3    H229210   3.199   6.677   5.251 -0.3399  0.3407  0.0239
 2599TIP3   OH229211   2.654   6.143   3.114 -0.3355 -0.5334 -0.4113
 2599TIP3    H129212   2.616   6.130   3.027 -0.3534  1.4079 -0.7145
 2599TIP3    H229213   2.733   6.195   3.097 -0.1126 -0.5070  0.7026
 2600TIP3   OH229214   2.941   0.821  15.601  0.0856 -0.3280  0.7060
 2600TIP3    H129215   2.970   0.841  15.690  2.0799  1.7806 -0.3642
 2600TIP3    H229216   2.983   0.737  15.581  0.5828 -0.2370  1.3287
 2601TIP3   OH229217   3.668   5.938   3.942 -0.0227  0.0104  0.3379
 2601TIP3    H129218   3.587   5.891   3.960  0.8802 -2.1361 -0.9685
 2601TIP3    H229219   3.644   6.030   3.944 -2.2601 -0.5707  1.0362
 2602TIP3   OH229220   0.778   3.734   2.856 -0.2059 -0.0702  0.1803
 2602TIP3    H129221   0.787   3.664   2.921  1.9954 -0.3061 -0.3679
 2602TIP3    H229222   0.732   3.803   2.903  1.0549 -0.3689  1.9099
 2603TIP3   OH229223   3.645   0.299  14.392  0.3745  0.3394 -0.3097
 2603TIP3    H129224   3.707   0.231  14.367 -1.0490 -2.0197  2.2695
 2603TIP3    H229225   3.593   0.259  14.462 -0.2413  4.2019  1.5915
 2604TIP3   OH229226   5.346   0.069  13.810 -0.0004  0.4996 -0.4371
 2604TIP3    H129227   5.388   0.083  13.894  0.9855  0.0000 -0.8352
 2604TIP3    H229228   5.387  -0.010  13.775 -3.0975 -1.5030  0.2994
 2605TIP3   OH229229   5.923   1.788   3.756 -0.2109  0.1412 -0.6611
 2605TIP3    H129230   5.973   1.769   3.677 -0.1768  0.1272 -0.6367
 2605TIP3    H229231   5.972   1.745   3.826 -2.1432 -2.9150 -1.0958
 2606TIP3   OH229232   6.528   0.474   2.380  0.1774 -0.0056 -0.8994
 2606TIP3    H129233   6.572   0.553   2.411 -2.3021  1.2227 -0.4281
 2606TIP3    H229234   6.562   0.404   2.436  0.6524  1.1229  0.2397
 2607TIP3   OH229235   2.915   6.759   0.063 -0.0381  0.3938 -0.2004
 2607TIP3    H129236   2.865   6.813   0.124 -0.3852  1.2542 -1.2091
 2607TIP3    H229237   2.893   6.795  -0.023 -0.8534 -1.8484 -0.9727
 2608TIP3   OH229238   5.709   1.942  14.810 -0.1910 -0.0351  0.0353
 2608TIP3    H129239   5.709   1.933  14.715 -1.7773 -0.8148  0.1000
 2608TIP3    H229240   5.756   1.864  14.841 -2.8723 -1.6906  0.0333
 2609TIP3   OH229241   4.058   0.428  11.845 -0.5576 -0.0654 -0.2044
 2609TIP3    H129242   4.054   0.448  11.938 -1.0443 -0.5563 -0.1171
 2609TIP3    H229243   4.046   0.513  11.801  0.0436  0.2210  0.1741
 2610TIP3   OH229244   5.563   4.713  12.909  0.3067 -0.0018 -0.2781
 2610TIP3    H129245   5.481   4.665  12.922  0.0670  0.2397 -0.8468
 2610TIP3    H229246   5.632   4.650  12.931 -0.0059 -0.5455 -0.8268
 2611TIP3   OH229247   3.838   2.491   0.506  0.3407  0.2278  0.0088
 2611TIP3    H129248   3.784   2.482   0.428  0.1972 -1.0369  0.2525
 2611TIP3    H229249   3.853   2.401   0.537  0.6302  0.6903  1.2710
 2612TIP3   OH229250   4.871   1.364  12.589  0.6313 -0.2557  0.2381
 2612TIP3    H129251   4.928   1.402  12.523  0.8427 -2.6426 -1.0401
 2612TIP3    H229252   4.786   1.355  12.545  0.7920 -1.9160  0.2297
 2613TIP3   OH229253   0.368   0.182  12.315 -0.2784  0.0775 -0.5094
 2613TIP3    H129254   0.331   0.268  12.293 -1.3817 -0.6414 -1.5480
 2613TIP3    H229255   0.446   0.174  12.260 -0.1459  0.4289 -0.3751
 2614TIP3   OH229256   5.128   3.598  10.844  0.6933  0.4036 -0.0350
 2614TIP3    H129257   5.199   3.534  10.852  1.3430  1.3860  2.6027
 2614TIP3    H229258   5.117   3.610  10.750  1.8473 -2.1550 -0.5531
 2615TIP3   OH229259   3.913   6.225   5.412 -0.0445 -0.5194 -0.3623
 2615TIP3    H129260   3.962   6.211   5.331  1.4005  0.5014  0.3248
 2615TIP3    H229261   3.924   6.144   5.461 -0.3207 -0.8620 -0.8607
 2616TIP3   OH229262   4.369   1.473  16.345 -0.1703 -0.1968 -0.0018
 2616TIP3    H129263   4.460   1.496  16.364 -0.1664  0.0082 -0.2567
 2616TIP3    H229264   4.343   1.415  16.417 -0.2418  0.7694  0.7581
 2617TIP3   OH229265   2.003   3.411  16.396 -0.0302  0.1715  0.0274
 2617TIP3    H129266   1.942   3.370  16.458  0.2059  1.3514  1.0656
 2617TIP3    H229267   1.979   3.374  16.311 -0.5996 -1.2081  0.7624
 2618TIP3   OH229268   4.759   3.714   4.191  0.5500  0.0761 -0.2176
 2618TIP3    H129269   4.696   3.780   4.161 -0.3777 -0.6317  0.1653
 2618TIP3    H229270   4.711   3.663   4.257  1.5555 -0.4036  0.1457
 2619TIP3   OH229271   3.613   1.819   3.080  0.1083  0.1461 -0.2201
 2619TIP3    H129272   3.550   1.867   3.133  1.5560 -0.4106  2.0553
 2619TIP3    H229273   3.678   1.787   3.142  1.4848 -1.1205 -2.2420
 2620TIP3   OH229274   4.144   2.639   2.438  0.1872  0.1870  0.0495
 2620TIP3    H129275   4.129   2.706   2.372  1.9624  0.3094 -0.2382
 2620TIP3    H229276   4.209   2.676   2.497  0.5997 -0.9513  0.3371
 2621TIP3   OH229277   5.794   6.119   3.000 -0.3364  0.2459  0.3673
 2621TIP3    H129278   5.765   6.202   2.963 -0.5633  0.1027  0.2273
 2621TIP3    H229279   5.842   6.144   3.079  0.0584  0.5454  0.0349
 2622TIP3   OH229280   5.699   4.497   2.539  0.1013  0.4650 -0.1070
 2622TIP3    H129281   5.769   4.507   2.603 -1.3152 -2.3158  1.9318
 2622TIP3    H229282   5.622   4.534   2.581 -0.1890  1.4961 -1.4857
 2623TIP3   OH229283   6.370   0.919   1.908 -0.0860  0.2208 -0.3193
 2623TIP3    H129284   6.337   0.866   1.835 -1.5289  1.4637 -0.5964
 2623TIP3    H229285   6.324   1.003   1.899  1.4231  1.1856  0.6803
 2624TIP3   OH229286   1.070   3.231   1.518 -0.0888 -0.3182 -0.3028
 2624TIP3    H129287   1.156   3.271   1.506 -0.3780 -0.3502 -2.6987
 2624TIP3    H229288   1.074   3.191   1.605  2.5991 -1.0237 -0.7100
 2625TIP3   OH229289   2.971   6.292  13.009  0.1645  0.1992  0.2512
 2625TIP3    H129290   2.937   6.374  12.972 -1.8776 -0.5822  0.3278
 2625TIP3    H229291   2.957   6.227  12.940 -0.9767 -0.6703  1.2672
 2626TIP3   OH229292   0.256   1.344  11.629  0.8552  0.0379  0.2561
 2626TIP3    H129293   0.304   1.425  11.644  0.7144  0.2497 -0.4075
 2626TIP3    H229294   0.230   1.349  11.537  1.5753 -1.1420 -0.0277
 2627TIP3   OH229295   6.638   4.426  16.539 -0.3321 -0.1583  0.3301
 2627TIP3    H129296   6.599   4.342  16.562 -0.0059 -0.8286 -1.5311
 2627TIP3    H229297   6.706   4.439  16.605 -0.0482 -1.6005  0.3405
 2628TIP3   OH229298   2.449   5.513   3.880 -0.3884  0.1965 -0.0074
 2628TIP3    H129299   2.510   5.443   3.859 -0.6248  0.5438 -1.9003
 2628TIP3    H229300   2.372   5.468   3.914 -0.0969 -0.3896 -0.1145
 2629TIP3   OH229301   1.660   2.990  11.327  0.7259 -0.7708 -0.0449
 2629TIP3    H129302   1.567   3.013  11.324  0.7790 -0.7287 -1.4302
 2629TIP3    H229303   1.680   2.983  11.421 -0.8279 -1.4286  0.2511
 2630TIP3   OH229304   4.235   4.209   1.429  0.1359 -0.1294  0.4064
 2630TIP3    H129305   4.256   4.118   1.408  0.5247  0.0646 -0.0733
 2630TIP3    H229306   4.149   4.206   1.470 -1.5439 -0.3635 -2.9392
 2631TIP3   OH229307   0.559   2.468   5.883  0.3420  0.2399 -0.9495
 2631TIP3    H129308   0.633   2.512   5.924  0.1102 -0.4417  0.2132
 2631TIP3    H229309   0.588   2.450   5.794  0.9523  1.4818 -1.0003
 2632TIP3   OH229310   0.528   3.729   2.651  0.5045 -0.4086  0.3080
 2632TIP3    H129311   0.524   3.743   2.556  0.4058  0.2267  0.4034
 2632TIP3    H229312   0.608   3.773   2.678  1.0997 -1.5023  0.3758
 2633TIP3   OH229313   3.575   4.413   5.067  0.3891  0.9776  0.3844
 2633TIP3    H129314   3.654   4.413   5.121  0.9894  1.4913 -0.4728
 2633TIP3    H229315   3.503   4.421   5.130  0.9231 -0.8203  1.2701
 2634TIP3   OH229316   5.604   1.813   5.246 -0.3811  0.1621  0.0903
 2634TIP3    H129317   5.647   1.894   5.218 -0.3036 -0.0772 -0.4821
 2634TIP3    H229318   5.667   1.773   5.307 -0.2887  0.3786  0.1375
 2635TIP3   OH229319   2.865   3.141  10.708 -0.5160 -0.0846  0.2127
 2635TIP3    H129320   2.772   3.158  10.696 -0.3297  0.1651 -0.9402
 2635TIP3    H229321   2.886   3.073  10.644 -0.1958 -1.1535  1.4241
 2636TIP3   OH229322   2.152   1.040  14.185 -0.1889  0.0155 -0.2940
 2636TIP3    H129323   2.179   1.130  14.166  0.7186 -0.0996  0.4573
 2636TIP3    H229324   2.093   1.048  14.260  0.7528 -0.1232  0.4677
 2637TIP3   OH229325   2.094   1.534  13.719  0.6048 -0.1717  0.1293
 2637TIP3    H129326   2.141   1.451  13.726 -0.9639 -1.0060  1.1218
 2637TIP3    H229327   2.152   1.597  13.760  2.0726 -0.6548 -1.1616
 2638TIP3   OH229328   1.561   5.002   1.794 -0.5474  0.0836  0.4102
 2638TIP3    H129329   1.632   5.066   1.795  0.7467 -1.3367  0.3161
 2638TIP3    H229330   1.548   4.982   1.701  1.0260 -1.9111  0.5734
 2639TIP3   OH229331   1.634   2.969   4.130 -0.2753  0.3815  1.1160
 2639TIP3    H129332   1.720   2.999   4.159  0.0368  1.3460 -0.6986
 2639TIP3    H229333   1.652   2.894   4.074 -0.5803  0.7053  0.5707
 2640TIP3   OH229334   2.529   1.998  14.715  0.0093  0.2688 -0.2773
 2640TIP3    H129335   2.458   2.061  14.701 -0.8727 -0.5892  0.3418
 2640TIP3    H229336   2.600   2.051  14.751 -0.7225  0.9193  0.2413
 2641TIP3   OH229337   4.964   4.573   0.440  0.3989 -0.1477  0.2204
 2641TIP3    H129338   5.019   4.547   0.514  2.1441 -1.9255 -1.6578
 2641TIP3    H229339   4.918   4.651   0.471  4.1708  1.5629  1.7526
 2642TIP3   OH229340   2.938   3.422   0.149 -0.3078 -0.2548  0.2250
 2642TIP3    H129341   2.945   3.455   0.060 -1.3155  1.9595  0.9237
 2642TIP3    H229342   2.877   3.348   0.143  0.7406 -1.0434 -1.1130
 2643TIP3   OH229343   3.821   1.129  12.547 -0.0442  0.4418 -0.7482
 2643TIP3    H129344   3.813   1.215  12.505  0.4712  0.9521  0.1698
 2643TIP3    H229345   3.733   1.110  12.579  0.5579  2.3273  2.2429
 2644TIP3   OH229346   5.318   3.980  12.817 -0.5601  0.2367 -0.0205
 2644TIP3    H129347   5.376   3.991  12.893 -1.8980  1.4623  0.8496
 2644TIP3    H229348   5.372   4.005  12.742  0.6194 -0.4810  0.5695
 2645TIP3   OH229349   6.063   4.743  13.543 -0.0179 -0.3711  0.1097
 2645TIP3    H129350   6.083   4.698  13.461 -1.4804 -1.2004  0.2026
 2645TIP3    H229351   6.025   4.827  13.516  0.9519  0.0360 -0.0455
 2646TIP3   OH229352   3.844   3.434  16.782 -0.0150 -0.3933  0.4284
 2646TIP3    H129353   3.759   3.447  16.739  1.5176  1.7490 -2.0973
 2646TIP3    H229354   3.825   3.442  16.875 -2.5042  0.5272 -0.1187
 2647TIP3   OH229355   3.205   5.924  14.750  0.0097 -0.4932  0.3283
 2647TIP3    H129356   3.180   5.923  14.842  4.6675  1.4314  1.7481
 2647TIP3    H229357   3.189   5.834  14.720 -3.0051 -0.7575  2.5219
 2648TIP3   OH229358   2.168   4.567   0.360  0.2202 -0.1109 -0.0406
 2648TIP3    H129359   2.116   4.646   0.342  0.9395 -0.0273 -1.9129
 2648TIP3    H229360   2.164   4.557   0.455  1.4422  3.1403  0.4362
 2649TIP3   OH229361   0.999   6.590   4.310 -0.1264 -0.0293  0.5164
 2649TIP3    H129362   1.029   6.512   4.356  1.4232  0.7557  0.8585
 2649TIP3    H229363   1.076   6.622   4.264 -1.4653 -0.3944 -2.0952
 2650TIP3   OH229364   3.096   1.402   1.367  0.4586 -0.2242 -0.0481
 2650TIP3    H129365   3.158   1.458   1.413  0.2523 -0.5080  0.5823
 2650TIP3    H229366   3.075   1.333   1.429 -1.1855  0.3630  0.0762
 2651TIP3   OH229367   0.652   2.690   1.456  0.3782 -0.0364  0.4801
 2651TIP3    H129368   0.567   2.735   1.462  0.4799  0.2233  0.0249
 2651TIP3    H229369   0.642   2.634   1.379  0.0807 -1.1596  1.3283
 2652TIP3   OH229370   2.599   1.101   1.251 -0.3332  0.8661 -0.0253
 2652TIP3    H129371   2.653   1.174   1.221  2.3998 -1.0084  0.0981
 2652TIP3    H229372   2.641   1.071   1.331 -0.8249 -1.4283 -0.5806
 2653TIP3   OH229373   3.773   4.813   3.694  0.1963  0.0615 -0.1739
 2653TIP3    H129374   3.727   4.844   3.772  1.1602  0.0464  0.4093
 2653TIP3    H229375   3.743   4.723   3.684 -0.7022  0.3834 -0.4137
 2654TIP3   OH229376   0.548   3.509  14.813 -0.7775  0.6632  0.5969
 2654TIP3    H129377   0.461   3.485  14.843 -0.6342  0.5199  0.9049
 2654TIP3    H229378   0.598   3.523  14.894 -0.7147  1.4673  0.4249
 2655TIP3   OH229379   6.380   1.773   3.578  0.3500 -0.4091  0.1488
 2655TIP3    H129380   6.378   1.683   3.547  0.9283 -0.3972  0.0678
 2655TIP3    H229381   6.472   1.798   3.573 -0.0475  0.8397 -1.6932
 2656TIP3   OH229382   1.886   3.753  12.061  0.0941 -0.1652  0.4643
 2656TIP3    H129383   1.913   3.802  12.139  0.0300  1.5899 -0.6028
 2656TIP3    H229384   1.964   3.706  12.033  0.2495 -0.4013  1.2847
 2657TIP3   OH229385   5.118   0.200  15.121 -0.2529 -0.3849 -0.4785
 2657TIP3    H129386   5.179   0.169  15.187  0.5387 -1.8547 -1.8609
 2657TIP3    H229387   5.033   0.198  15.163  0.1013 -2.2994  0.1814
 2658TIP3   OH229388   4.090   3.378   4.892 -0.1341 -0.0412  0.1898
 2658TIP3    H129389   4.056   3.464   4.867 -0.3385  0.4687  2.1738
 2658TIP3    H229390   4.182   3.394   4.913 -0.5204 -0.0210  1.9325
 2659TIP3   OH229391   5.190   2.141   4.310 -0.2969  0.0347 -0.7303
 2659TIP3    H129392   5.234   2.056   4.313  0.2340  0.3309  0.2871
 2659TIP3    H229393   5.109   2.128   4.361  0.0435  0.2729 -0.1193
 2660TIP3   OH229394   5.146   2.371  14.116  0.9339 -0.2623  0.0993
 2660TIP3    H129395   5.070   2.346  14.064 -0.9514  2.5892  1.3336
 2660TIP3    H229396   5.136   2.321  14.197  0.0715  0.4609  0.4530
 2661TIP3   OH229397   0.165   3.540  14.288  0.3587  0.1439 -0.1226
 2661TIP3    H129398   0.114   3.467  14.254 -0.9746  0.3732  1.3737
 2661TIP3    H229399   0.185   3.516  14.378 -0.2825  1.7219  0.4543
 2662TIP3   OH229400   0.396   4.122  13.925 -0.6027 -0.2706  0.3536
 2662TIP3    H129401   0.452   4.045  13.928 -0.8607 -0.4437  0.9763
 2662TIP3    H229402   0.323   4.098  13.868  0.6845  0.4672 -1.6532
 2663TIP3   OH229403   1.874   2.778   3.236  0.0976 -0.0263  0.1867
 2663TIP3    H129404   1.890   2.785   3.142 -1.3134  1.7257  0.0309
 2663TIP3    H229405   1.939   2.836   3.276 -0.4784  0.6669  0.1386
 2664TIP3   OH229406   4.871   6.566  14.044  0.0177  0.3833 -0.3009
 2664TIP3    H129407   4.817   6.487  14.039 -0.1035  0.4103  0.5014
 2664TIP3    H229408   4.809   6.638  14.035 -0.3039  0.4520  2.1104
 2665TIP3   OH229409   5.660   3.205  16.602 -0.1494 -0.1524  0.1065
 2665TIP3    H129410   5.750   3.173  16.607  0.4012  1.4635  1.1965
 2665TIP3    H229411   5.613   3.139  16.552  1.5581 -1.2198 -0.1204
 2666TIP3   OH229412   4.815   1.196  12.821  0.5563 -0.6649  0.2170
 2666TIP3    H129413   4.719   1.186  12.822  0.6634 -1.7615  0.4543
 2666TIP3    H229414   4.832   1.255  12.748 -0.1880 -2.0026 -1.0917
 2667TIP3   OH229415   1.612   5.018   5.256 -0.0938  0.1609  0.0306
 2667TIP3    H129416   1.683   5.083   5.257  1.0956 -1.1213  0.6246
 2667TIP3    H229417   1.541   5.061   5.209  0.3049  2.2892  1.2943
 2668TIP3   OH229418   3.852   4.327   2.543 -0.7866 -0.4381 -0.8015
 2668TIP3    H129419   3.762   4.329   2.574 -0.0712  0.7326  1.3568
 2668TIP3    H229420   3.870   4.234   2.528 -1.7033 -0.8970  0.7993
 2669TIP3   OH229421   2.115   0.221   4.134 -0.2099 -0.6335 -0.4626
 2669TIP3    H129422   2.068   0.159   4.189 -0.1246  0.1389  0.4978
 2669TIP3    H229423   2.089   0.307   4.167  1.6447 -0.1930 -0.1094
 2670TIP3   OH229424   0.831   1.642  12.190  0.2514  0.0059 -0.0929
 2670TIP3    H129425   0.865   1.557  12.218 -1.6305 -0.5559  0.5278
 2670TIP3    H229426   0.804   1.685  12.270 -0.3140  0.5343 -0.5593
 2671TIP3   OH229427   3.619   3.535  14.989 -0.2864  0.3544 -0.0878
 2671TIP3    H129428   3.664   3.494  15.063  0.2047  0.7614 -0.1532
 2671TIP3    H229429   3.675   3.610  14.966 -0.7839  0.6193 -0.4418
 2672TIP3   OH229430   3.604   2.841   5.981 -0.1693 -0.1430  0.1827
 2672TIP3    H129431   3.534   2.831   5.916  0.2140  0.3850 -0.3083
 2672TIP3    H229432   3.577   2.915   6.035  0.3537  0.5080 -0.4451
 2673TIP3   OH229433   4.916   5.309  14.386  0.8344 -0.2977 -0.7523
 2673TIP3    H129434   4.858   5.380  14.359  0.8339  0.5176  1.3391
 2673TIP3    H229435   4.867   5.229  14.367  0.0492  0.3156 -1.3322
 2674TIP3   OH229436   1.367   3.063  16.416 -0.2662 -0.4310 -0.0598
 2674TIP3    H129437   1.279   3.035  16.443 -0.4490  0.7859  0.6203
 2674TIP3    H229438   1.362   3.158  16.412  1.0179 -0.3616 -0.0484
 2675TIP3   OH229439   0.701   6.761   5.848  0.9070 -0.2355  0.3799
 2675TIP3    H129440   0.638   6.761   5.921  1.0872 -0.3817  0.5334
 2675TIP3    H229441   0.651   6.726   5.774 -0.3888  3.1830 -0.5031
 2676TIP3   OH229442   6.438   5.154  12.051 -0.0902  0.1271 -0.3788
 2676TIP3    H129443   6.524   5.113  12.048 -0.8316 -1.6494  1.5129
 2676TIP3    H229444   6.434   5.199  12.135 -1.0632  0.0937 -0.3942
 2677TIP3   OH229445   6.032   1.311   3.983 -0.3957  0.2807  0.5077
 2677TIP3    H129446   6.045   1.254   4.058  1.9796 -1.2919 -1.0246
 2677TIP3    H229447   6.113   1.361   3.975 -0.2714 -0.1522 -1.4282
 2678TIP3   OH229448   4.947   1.056  13.653 -0.0913  0.1176 -0.2087
 2678TIP3    H129449   4.999   1.013  13.721  1.0908  0.5173 -0.8344
 2678TIP3    H229450   4.958   1.150  13.671  0.0082  0.2172 -0.7753
 2679TIP3   OH229451   3.795   3.805  15.490  0.2772 -0.1402  0.2980
 2679TIP3    H129452   3.706   3.839  15.480  0.2393 -0.1910  0.4649
 2679TIP3    H229453   3.795   3.763  15.576  0.1217 -1.1376 -0.1804
 2680TIP3   OH229454   0.499   6.510  13.860  0.0146 -0.6052  0.4047
 2680TIP3    H129455   0.482   6.479  13.949  0.0890  1.4876  1.1750
 2680TIP3    H229456   0.588   6.546  13.863  0.2079 -0.9568 -0.6536
 2681TIP3   OH229457   1.157   2.949  12.707 -0.2620  0.4523  0.5307
 2681TIP3    H129458   1.184   2.962  12.616  1.1688  1.1715  1.0424
 2681TIP3    H229459   1.140   3.037  12.740 -2.7112  0.0528  0.4027
 2682TIP3   OH229460   3.188   6.691  13.825  0.1379  0.1339 -0.1953
 2682TIP3    H129461   3.192   6.755  13.754 -1.0282 -0.0710 -0.4630
 2682TIP3    H229462   3.242   6.618  13.795 -0.4197  0.0115 -0.9205
 2683TIP3   OH229463   2.769   5.803   0.284  0.1852  0.0330 -0.6718
 2683TIP3    H129464   2.784   5.776   0.194  2.8403 -0.7132 -0.0431
 2683TIP3    H229465   2.687   5.760   0.309  0.9374 -2.0852 -1.7976
 2684TIP3   OH229466   6.447   0.924   2.278 -0.1533 -0.5086 -0.1174
 2684TIP3    H129467   6.516   0.875   2.232 -1.3331 -1.7675 -0.5857
 2684TIP3    H229468   6.451   0.891   2.368 -0.0063 -0.4208 -0.0908
 2685TIP3   OH229469   1.885   6.607   2.847  0.2693  0.1062  0.0499
 2685TIP3    H129470   1.892   6.667   2.921  0.2658  0.4816 -0.2514
 2685TIP3    H229471   1.877   6.520   2.886 -1.9048  0.5022  0.5390
 2686TIP3   OH229472   4.560   5.487   3.889 -0.4009 -0.1054 -0.6870
 2686TIP3    H129473   4.585   5.508   3.979 -2.2083  0.2582 -0.2454
 2686TIP3    H229474   4.638   5.446   3.851  0.8925  1.1739  0.5545
 2687TIP3   OH229475   6.050   5.269  13.986 -0.1451  0.4780 -0.4100
 2687TIP3    H129476   5.970   5.309  14.022 -1.2808 -1.6688 -0.4301
 2687TIP3    H229477   6.021   5.224  13.907  0.8466 -1.2820  0.1962
 2688TIP3   OH229478   3.988   4.967  16.707 -0.6115 -0.1108  0.3248
 2688TIP3    H129479   4.011   5.053  16.742 -1.3038 -0.0798  0.7124
 2688TIP3    H229480   4.061   4.911  16.732  0.1757  0.5205 -0.5424
 2689TIP3   OH229481   0.302   4.711   2.050  0.1629  0.0862 -0.5338
 2689TIP3    H129482   0.241   4.638   2.046  0.1802  0.1260 -1.6051
 2689TIP3    H229483   0.248   4.787   2.073  0.0254 -0.1159 -0.1893
 2690TIP3   OH229484   2.028   1.476   3.794  0.0755  0.2481 -0.5170
 2690TIP3    H129485   1.998   1.434   3.874 -0.2771  0.3092 -0.6154
 2690TIP3    H229486   2.061   1.561   3.822 -0.0449  0.2679 -0.4351
 2691TIP3   OH229487   3.541   1.685   2.871 -0.1417  0.2407 -0.2257
 2691TIP3    H129488   3.556   1.735   2.951  2.4170 -0.5113 -0.2055
 2691TIP3    H229489   3.470   1.624   2.894  0.4990  0.0939  1.4341
 2692TIP3   OH229490   3.110   6.499   3.735  0.2688 -0.9481  0.4231
 2692TIP3    H129491   3.167   6.470   3.664  1.5017  1.0557  0.5513
 2692TIP3    H229492   3.052   6.425   3.751  1.6641 -2.3680 -0.9297
 2693TIP3   OH229493   1.261   2.057   5.460  0.2136  0.2076  0.0047
 2693TIP3    H129494   1.338   2.093   5.504  0.9194 -0.9399 -0.2725
 2693TIP3    H229495   1.200   2.036   5.530  0.9826 -0.7908  0.3872
 2694TIP3   OH229496   3.713   5.143   3.013  0.0153  0.3450 -0.3644
 2694TIP3    H129497   3.799   5.184   3.022 -0.3286  0.8509  0.7252
 2694TIP3    H229498   3.653   5.216   3.000 -0.2809  0.0107 -0.8608
 2695TIP3   OH229499   2.833   5.580  12.348  0.1406 -0.5823 -0.6236
 2695TIP3    H129500   2.764   5.516  12.331 -1.0147  0.3969  0.2391
 2695TIP3    H229501   2.879   5.546  12.424 -1.2293  0.1836  0.5722
 2696TIP3   OH229502   3.819   4.701  11.763 -0.4052  0.4603 -0.4160
 2696TIP3    H129503   3.789   4.757  11.835  0.6881  0.3025  0.1694
 2696TIP3    H229504   3.894   4.654  11.799 -1.4781 -1.6076 -0.8044
 2697TIP3   OH229505   2.243   4.305  13.664 -0.1632 -0.2203 -0.4428
 2697TIP3    H129506   2.230   4.316  13.570 -1.6533  0.6378 -0.1439
 2697TIP3    H229507   2.324   4.352  13.683 -0.3219  0.3276 -1.1459
 2698TIP3   OH229508   6.111   6.011  11.423 -0.4866  0.7296 -0.0034
 2698TIP3    H129509   6.023   6.009  11.386 -1.3074 -0.0366  1.8926
 2698TIP3    H229510   6.113   6.089  11.478  0.1595  0.9692 -0.3597
 2699TIP3   OH229511   0.692   5.771  13.627 -0.1444 -0.9664  0.1380
 2699TIP3    H129512   0.715   5.722  13.705 -1.5034 -0.4937  0.8538
 2699TIP3    H229513   0.651   5.852  13.659 -0.3261 -0.5660 -1.0417
 2700TIP3   OH229514   0.879   3.468   2.624  0.4779 -0.5718  0.1564
 2700TIP3    H129515   0.937   3.408   2.579 -1.4048 -0.8622 -1.9723
 2700TIP3    H229516   0.808   3.413   2.658  0.2210  0.0691  0.7006
 2701TIP3   OH229517   2.042   4.981  13.140 -0.1391  0.5213 -1.3158
 2701TIP3    H129518   1.996   4.910  13.096 -1.7421  1.4218 -1.1404
 2701TIP3    H229519   2.042   5.052  13.075 -0.3596  1.0451 -0.7435
 2702TIP3   OH229520   2.117   3.901  15.618 -0.1686  0.2554 -0.0207
 2702TIP3    H129521   2.044   3.944  15.573 -0.3176  0.0786  0.0467
 2702TIP3    H229522   2.171   3.866  15.547 -1.4702 -1.7740 -0.0682
 2703TIP3   OH229523   6.069   3.195   0.501  0.3690 -0.4913 -0.0611
 2703TIP3    H129524   6.079   3.274   0.556 -0.7821  0.8154 -1.6865
 2703TIP3    H229525   6.151   3.191   0.451  1.0905 -1.2395  1.1591
 2704TIP3   OH229526   4.238   1.426  11.453 -0.0985  0.0402 -0.4943
 2704TIP3    H129527   4.225   1.341  11.410  1.0937  0.6306 -2.0471
 2704TIP3    H229528   4.248   1.488  11.381 -2.8305  1.8335  0.6128
 2705TIP3   OH229529   3.250   4.305  12.581  0.1973  0.4426 -0.7162
 2705TIP3    H129530   3.255   4.363  12.505 -0.2933  1.1411 -0.2218
 2705TIP3    H229531   3.316   4.339  12.641  0.1756  0.2477 -0.5843
 2706TIP3   OH229532   2.154   3.072   5.667 -0.2757 -0.7721 -0.0733
 2706TIP3    H129533   2.124   3.003   5.608 -0.5475 -0.4047 -0.3662
 2706TIP3    H229534   2.103   3.149   5.642 -1.5250 -1.0011  1.6630
 2707TIP3   OH229535   0.170   2.515   5.379 -0.1311  0.0770 -0.3119
 2707TIP3    H129536   0.224   2.444   5.415 -1.0464 -0.2581  0.4406
 2707TIP3    H229537   0.113   2.472   5.316 -0.0382  0.2998 -0.5464
 2708TIP3   OH229538   3.264   6.076  16.223  0.7478  0.3595 -0.5598
 2708TIP3    H129539   3.347   6.123  16.230  0.5306  0.7228 -0.4707
 2708TIP3    H229540   3.289   5.990  16.189  1.4690 -0.4297  1.8854
 2709TIP3   OH229541   3.399   4.523   0.909  0.1823 -0.0055 -0.4254
 2709TIP3    H129542   3.358   4.501   0.825  2.1047 -0.2703 -1.3203
 2709TIP3    H229543   3.463   4.591   0.888 -1.8239  2.5620  1.4477
 2710TIP3   OH229544   4.206   4.749  15.906  0.4360  0.4127 -0.3386
 2710TIP3    H129545   4.277   4.714  15.852  0.2203 -0.7827  0.1418
 2710TIP3    H229546   4.144   4.787  15.843  0.0445 -1.2213 -0.9684
 2711TIP3   OH229547   4.014   4.332   3.334 -0.2168  0.1693  0.1611
 2711TIP3    H129548   4.009   4.284   3.417 -0.7320 -0.0563 -0.0018
 2711TIP3    H229549   4.076   4.403   3.351 -0.9476  0.6165  0.9863
 2712TIP3   OH229550   0.847   5.625   1.296 -0.0312  0.9050 -0.2451
 2712TIP3    H129551   0.776   5.650   1.237 -0.6106 -2.8232 -1.2818
 2712TIP3    H229552   0.811   5.637   1.384 -1.0770  1.3269 -0.7295
 2713TIP3   OH229553   1.987   1.301  12.554 -0.0461 -0.2841 -0.1871
 2713TIP3    H129554   1.946   1.387  12.562 -1.6025 -1.1427  1.1732
 2713TIP3    H229555   2.039   1.292  12.634 -0.2975 -0.8296 -0.0870
 2714TIP3   OH229556   3.582   1.654   0.876 -0.4313 -0.3261  0.3212
 2714TIP3    H129557   3.623   1.577   0.836  0.1031 -0.1013  0.4387
 2714TIP3    H229558   3.503   1.669   0.823 -0.7835 -1.2334  0.5850
 2715TIP3   OH229559   2.940   4.130   3.653  0.0435 -0.7094 -0.5561
 2715TIP3    H129560   2.947   4.159   3.563  1.3387 -1.2984 -0.6523
 2715TIP3    H229561   3.025   4.149   3.692 -0.9648  0.9037  0.9703
 2716TIP3   OH229562   6.522   0.649   6.237 -0.3246 -0.5942 -0.7023
 2716TIP3    H129563   6.581   0.709   6.192  0.9881  0.1112  1.8053
 2716TIP3    H229564   6.446   0.702   6.260 -0.0897 -0.4100 -0.3334
 2717TIP3   OH229565   6.703   2.844   2.739 -0.0594 -0.6622  0.0230
 2717TIP3    H129566   6.665   2.918   2.786 -2.2668 -0.8976 -1.3591
 2717TIP3    H229567   6.692   2.770   2.799 -1.4232 -0.6453 -0.1985
 2718TIP3   OH229568   5.755   4.814   3.946  0.2800 -0.3927 -0.4106
 2718TIP3    H129569   5.849   4.819   3.962  0.0274 -0.1478  1.0462
 2718TIP3    H229570   5.747   4.821   3.851  1.7312 -0.4800 -0.5583
 2719TIP3   OH229571   0.627   6.038   2.554  0.3607 -0.1480  0.1563
 2719TIP3    H129572   0.605   5.993   2.635 -1.5600  0.2326 -0.1446
 2719TIP3    H229573   0.614   5.972   2.486  1.0224 -0.1792  0.0574
 2720TIP3   OH229574   4.253   0.570   1.356 -0.0803  0.0406 -0.2257
 2720TIP3    H129575   4.292   0.521   1.283  0.5841 -1.0136  0.8151
 2720TIP3    H229576   4.318   0.637   1.377  0.5429 -0.8035  0.5692
 2721TIP3   OH229577   0.092   5.115  11.634  0.0540  0.2380  0.0328
 2721TIP3    H129578   0.090   5.204  11.669  0.5232  0.8532 -1.4845
 2721TIP3    H229579   0.185   5.091  11.631 -0.1058 -0.5853  1.0953
 2722TIP3   OH229580   1.025   4.691   5.723  0.3839 -0.3532  0.4859
 2722TIP3    H129581   1.037   4.770   5.775 -0.0954  1.2535 -1.7301
 2722TIP3    H229582   1.109   4.678   5.678 -0.0682 -0.1000 -0.4561
 2723TIP3   OH229583   0.395   2.038  12.354 -0.6462  0.0021 -0.6758
 2723TIP3    H129584   0.395   1.949  12.319 -0.3083  0.7618 -2.6270
 2723TIP3    H229585   0.303   2.060  12.364 -0.7384 -0.2728 -0.9281
 2724TIP3   OH229586   4.485   4.441   5.358 -0.4686 -0.3764  0.6745
 2724TIP3    H129587   4.544   4.425   5.431 -1.2501 -1.7384  1.0132
 2724TIP3    H229588   4.410   4.384   5.374 -1.5142  0.7300 -0.1849
 2725TIP3   OH229589   4.671   2.752   0.763  0.1808 -0.0770 -0.8859
 2725TIP3    H129590   4.649   2.675   0.814  0.4348 -0.7581 -1.7935
 2725TIP3    H229591   4.766   2.760   0.771  0.2750 -0.4376 -1.5960
 2726TIP3   OH229592   0.266   2.796  13.681  0.7110  0.2828  0.8660
 2726TIP3    H129593   0.180   2.833  13.701 -0.3661 -0.5052 -1.9676
 2726TIP3    H229594   0.263   2.706  13.714  0.4650  0.2704  0.8084
 2727TIP3   OH229595   4.483   3.459  15.838  0.1693 -0.6024  0.0373
 2727TIP3    H129596   4.475   3.455  15.934  0.1422  1.4252  0.1383
 2727TIP3    H229597   4.486   3.367  15.811 -2.6102 -1.2633  1.7301
 2728TIP3   OH229598   4.898   2.932  16.847 -0.1755  0.1452 -0.7166
 2728TIP3    H129599   4.935   2.868  16.786 -1.5318 -0.9219 -0.4464
 2728TIP3    H229600   4.929   3.016  16.816  1.6388 -0.6454 -1.0939
 2729TIP3   OH229601   1.434   5.838  11.795 -0.3133 -1.0316  0.3701
 2729TIP3    H129602   1.387   5.760  11.767 -0.3964 -0.8936  0.1296
 2729TIP3    H229603   1.506   5.804  11.849  2.2199 -1.5791 -3.1881
 2730TIP3   OH229604   1.767   2.787   2.344  0.3648  0.3210  0.2023
 2730TIP3    H129605   1.790   2.857   2.283  0.2999  0.9742  0.9345
 2730TIP3    H229606   1.748   2.831   2.426 -2.2501 -0.3162 -0.0190
 2731TIP3   OH229607   2.047   0.200   6.307 -0.7107  0.3565  0.2848
 2731TIP3    H129608   1.996   0.276   6.280 -0.2748  0.9499  1.0931
 2731TIP3    H229609   1.995   0.159   6.376 -1.1208 -0.2931 -0.4099
 2732TIP3   OH229610   5.020   2.613  16.245  0.4025  0.1599 -0.3254
 2732TIP3    H129611   5.113   2.597  16.262  0.8411  1.7705 -1.0699
 2732TIP3    H229612   4.992   2.667  16.319  0.6492  1.5852 -1.2439
 2733TIP3   OH229613   5.950   4.669  17.116  0.5606 -0.0665  0.6387
 2733TIP3    H129614   6.009   4.707  17.051 -0.0739 -1.0295 -0.5234
 2733TIP3    H229615   5.863   4.698  17.089  0.4519  1.0253  2.1162
 2734TIP3   OH229616   2.419   0.313  14.536 -0.1720  0.0292  0.1405
 2734TIP3    H129617   2.329   0.282  14.538  0.3508 -1.6912 -1.6375
 2734TIP3    H229618   2.417   0.390  14.479 -0.1975 -1.1075 -1.4033
 2735TIP3   OH229619   2.649   4.362   5.508  0.1455  0.7392 -0.5440
 2735TIP3    H129620   2.742   4.344   5.497  0.2970  1.2997 -0.1754
 2735TIP3    H229621   2.633   4.355   5.602 -0.3265 -0.0272 -0.6723
 2736TIP3   OH229622   3.911   4.684  13.783 -0.5140 -0.1603  0.1840
 2736TIP3    H129623   3.939   4.705  13.693 -1.7057 -0.7743 -0.3429
 2736TIP3    H229624   3.861   4.761  13.810 -0.2623 -0.0288  0.2772
 2737TIP3   OH229625   6.545   3.189   6.103 -0.2954  0.1934  0.1778
 2737TIP3    H129626   6.490   3.265   6.121  0.5864  0.7073  0.7174
 2737TIP3    H229627   6.518   3.123   6.167  1.6640  1.4252  2.3371
 2738TIP3   OH229628   6.370   4.548   1.069 -0.5178 -0.5298  0.0386
 2738TIP3    H129629   6.318   4.485   1.120 -1.1192  0.4293  0.6077
 2738TIP3    H229630   6.454   4.552   1.114 -1.0864  0.4049  1.0417
 2739TIP3   OH229631   2.435   5.273   1.325  0.5684  0.6259  0.2013
 2739TIP3    H129632   2.438   5.305   1.416  1.2762  1.4224 -0.0904
 2739TIP3    H229633   2.350   5.302   1.293 -0.0592 -0.4294  0.8789
 2740TIP3   OH229634   2.869   5.718  13.051  0.0167  0.0103 -0.8541
 2740TIP3    H129635   2.956   5.734  13.017 -0.0210  1.6280 -0.1961
 2740TIP3    H229636   2.879   5.721  13.146 -0.5234 -1.0807 -0.7504
 2741TIP3   OH229637   4.542   3.933   2.188 -0.4147  0.1791 -0.0429
 2741TIP3    H129638   4.605   3.883   2.136  0.6820  2.0214 -0.5370
 2741TIP3    H229639   4.490   3.867   2.233 -0.0190 -1.4224 -1.8794
 2742TIP3   OH229640   1.137   4.265  14.059  0.1300  0.0521 -0.2375
 2742TIP3    H129641   1.209   4.327  14.068  1.0140 -1.2117  1.8113
 2742TIP3    H229642   1.059   4.320  14.053  0.9213  1.3966  1.1520
 2743TIP3   OH229643   4.566   3.454  12.890  0.1107  0.2062  0.1204
 2743TIP3    H129644   4.474   3.465  12.869 -0.0459  0.3268  0.8691
 2743TIP3    H229645   4.575   3.361  12.912  0.1339  0.2261  0.1959
 2744TIP3   OH229646   1.605   5.611   4.847 -0.2303  0.1527  0.5065
 2744TIP3    H129647   1.603   5.634   4.940  0.0555 -2.3791  1.1732
 2744TIP3    H229648   1.668   5.672   4.808  0.6181  0.3958  2.2298
 2745TIP3   OH229649   1.304   2.937  11.052 -0.0730 -0.4595  0.4141
 2745TIP3    H129650   1.254   2.869  11.006  1.4426 -0.2846 -1.5748
 2745TIP3    H229651   1.280   3.018  11.007 -0.7929  0.1485  1.8580
 2746TIP3   OH229652   2.414   5.794  15.773 -0.7759 -0.3988  0.3937
 2746TIP3    H129653   2.332   5.745  15.767 -2.2901  2.0021  0.8379
 2746TIP3    H229654   2.408   5.841  15.856  0.2636  1.2138 -0.4210
 2747TIP3   OH229655   2.189   5.570   2.272  0.6250  0.6219  0.5219
 2747TIP3    H129656   2.216   5.486   2.308  0.3557  0.2606 -0.1080
 2747TIP3    H229657   2.184   5.629   2.348  0.4053 -0.0368  1.0162
 2748TIP3   OH229658   2.482   1.339   3.021 -0.2688  0.3416 -0.0269
 2748TIP3    H129659   2.434   1.329   3.103 -2.3064  1.5878 -1.0309
 2748TIP3    H229660   2.559   1.391   3.045 -0.7942  0.6205  1.1085
 2749TIP3   OH229661   0.863   2.189   2.409  0.7108  0.3282 -0.3170
 2749TIP3    H129662   0.772   2.187   2.380  0.0897  0.2389  1.5570
 2749TIP3    H229663   0.872   2.275   2.451  0.7534 -0.6844  1.7732
 2750TIP3   OH229664   6.469   5.434   0.372 -0.1415 -0.6706 -0.4758
 2750TIP3    H129665   6.376   5.422   0.353 -0.0581 -0.3130 -1.1063
 2750TIP3    H229666   6.494   5.354   0.419 -0.6619 -0.9613 -0.6895
 2751TIP3   OH229667   5.104   5.097   3.845 -0.6026 -0.0974 -0.1549
 2751TIP3    H129668   5.102   5.185   3.807 -1.5251  0.3750  0.9491
 2751TIP3    H229669   5.015   5.064   3.834 -0.7100 -0.2119  0.9518
 2752TIP3   OH229670   3.940   3.642   2.379  0.4418  0.8372  0.3651
 2752TIP3    H129671   3.914   3.642   2.472 -0.6641  0.6965  0.0666
 2752TIP3    H229672   3.857   3.648   2.331  0.9874  0.6112 -0.6223
 2753TIP3   OH229673   4.716   4.448  16.655 -0.0619 -0.3523 -0.0029
 2753TIP3    H129674   4.708   4.536  16.617 -1.4950  0.1277  1.3516
 2753TIP3    H229675   4.679   4.390  16.589 -0.9251  0.2880 -0.0998
 2754TIP3   OH229676   3.896   1.773   0.573 -0.0337  0.1235  0.9037
 2754TIP3    H129677   3.820   1.776   0.516 -0.2762  1.0421  1.2633
 2754TIP3    H229678   3.892   1.687   0.615 -1.2554  0.4333  1.4472
 2755TIP3   OH229679   2.193   3.361  13.882  0.4038 -0.0324 -0.0142
 2755TIP3    H129680   2.188   3.269  13.905  0.0964 -0.4771 -1.8228
 2755TIP3    H229681   2.285   3.384  13.891  0.5833 -0.6777 -0.2352
 2756TIP3   OH229682   2.690   1.779   5.759 -0.1573 -0.2725 -0.3887
 2756TIP3    H129683   2.710   1.710   5.695  0.4879  0.6181 -1.1555
 2756TIP3    H229684   2.769   1.833   5.761 -0.2298 -0.1890  1.0513
 2757TIP3   OH229685   3.528   0.337   2.488  0.9163 -0.3890 -0.0787
 2757TIP3    H129686   3.615   0.373   2.472  1.2995 -1.4847 -0.5222
 2757TIP3    H229687   3.537   0.244   2.470 -0.4064 -0.4787 -0.3348
 2758TIP3   OH229688   2.546   3.924   1.904 -0.2616  0.1804  0.0753
 2758TIP3    H129689   2.614   3.865   1.936  3.0300  1.9015 -3.2830
 2758TIP3    H229690   2.491   3.870   1.847 -0.8097 -0.8833  1.5967
 2759TIP3   OH229691   3.079   4.048  14.443  0.5283  0.4658 -0.7341
 2759TIP3    H129692   3.128   4.130  14.437  1.0150  0.1111 -1.7899
 2759TIP3    H229693   3.026   4.057  14.522  0.2767  1.9608 -1.0533
 2760TIP3   OH229694   4.350   6.085   4.948 -0.4116 -0.2072 -0.1407
 2760TIP3    H129695   4.388   5.998   4.957 -0.5970 -0.3706 -0.8640
 2760TIP3    H229696   4.256   6.072   4.960 -0.4978 -0.1974 -0.7549
 2761TIP3   OH229697   2.035   5.888   4.711  0.3818 -0.3000 -0.0562
 2761TIP3    H129698   2.051   5.840   4.630  1.8658  0.4139 -0.1906
 2761TIP3    H229699   2.096   5.962   4.708 -0.2129  0.2600  1.2656
 2762TIP3   OH229700   2.095   2.819   3.438  0.2096 -0.4037 -0.6240
 2762TIP3    H129701   2.185   2.816   3.471  0.1566  0.5411 -0.3875
 2762TIP3    H229702   2.043   2.780   3.508  0.0619  1.8692  0.5650
 2763TIP3   OH229703   5.121   4.821   1.626  1.0841  0.2601  0.6618
 2763TIP3    H129704   5.171   4.741   1.641  0.3587 -0.7199 -1.8731
 2763TIP3    H229705   5.030   4.792   1.623  0.6893  1.4088  1.1955
 2764TIP3   OH229706   0.819   3.085   5.043 -0.9614 -0.1168  0.3983
 2764TIP3    H129707   0.821   3.016   4.977  1.3695 -0.5207  0.8611
 2764TIP3    H229708   0.858   3.161   5.000 -1.9153  0.4103  0.4568
 2765TIP3   OH229709   5.786   3.583   2.246 -0.3650 -0.7971 -0.1906
 2765TIP3    H129710   5.828   3.660   2.284 -0.1326 -0.7402 -0.5567
 2765TIP3    H229711   5.811   3.511   2.303 -0.4243 -0.6318  0.0444
 2766TIP3   OH229712   6.610   0.386   3.100  0.2048 -0.1340  0.3988
 2766TIP3    H129713   6.597   0.364   3.007  1.6502  0.5982  0.0008
 2766TIP3    H229714   6.562   0.319   3.147 -2.1117  0.5449 -0.8998
 2767TIP3   OH229715   1.731   6.228   2.645 -0.4782  0.2364  0.4806
 2767TIP3    H129716   1.763   6.173   2.717 -1.6930 -0.5535  0.4263
 2767TIP3    H229717   1.808   6.245   2.592  0.4789  0.9634  2.0560
 2768TIP3   OH229718   0.803   4.765  15.183 -0.2524 -0.7306  0.1954
 2768TIP3    H129719   0.843   4.683  15.213 -0.4713 -0.2703  1.8183
 2768TIP3    H229720   0.775   4.809  15.264 -1.1743  0.4149 -0.7232
 2769TIP3   OH229721   6.585   4.765  13.202  0.0371 -0.3026 -0.0467
 2769TIP3    H129722   6.526   4.695  13.230  0.5705 -0.7609 -0.0503
 2769TIP3    H229723   6.653   4.720  13.151  1.2950  0.0044  1.3268
 2770TIP3   OH229724   6.173   2.704  14.493 -0.0379  0.2380  0.0852
 2770TIP3    H129725   6.229   2.702  14.570 -0.7640  0.2727  0.6173
 2770TIP3    H229726   6.232   2.688  14.420  0.4761 -0.8680  0.7403
 2771TIP3   OH229727   0.561   4.788   1.204 -0.0249 -0.2453  0.6558
 2771TIP3    H129728   0.656   4.787   1.193  0.0792  1.1394  1.2796
 2771TIP3    H229729   0.547   4.795   1.298 -0.7226  0.5203  0.5106
 2772TIP3   OH229730   5.051   1.790  13.209 -0.1660  0.1224 -0.1542
 2772TIP3    H129731   5.129   1.740  13.185  0.0711  0.4613 -0.0959
 2772TIP3    H229732   5.084   1.876  13.234 -0.6959  0.6826 -1.3815
 2773TIP3   OH229733   3.656   6.492   4.782 -0.2529  0.0485  0.6068
 2773TIP3    H129734   3.661   6.580   4.747 -1.4214 -0.3568 -0.6466
 2773TIP3    H229735   3.564   6.481   4.805  0.0356 -0.5679  1.4791
 2774TIP3   OH229736   0.559   4.133   2.742 -0.6744 -0.2669  0.3853
 2774TIP3    H129737   0.589   4.223   2.755 -1.1744 -0.1955  1.0640
 2774TIP3    H229738   0.513   4.135   2.658 -0.6408  0.1025  0.3728
 2775TIP3   OH229739   0.635   0.745  14.204 -0.4028 -0.0018 -0.5274
 2775TIP3    H129740   0.671   0.828  14.174  1.3561 -0.1469  1.0860
 2775TIP3    H229741   0.626   0.692  14.124  1.0253  0.7831 -1.2237
 2776TIP3   OH229742   5.893   2.304  11.966 -0.0454  0.2527  0.1569
 2776TIP3    H129743   5.909   2.287  12.059 -2.0191  0.4058  0.5549
 2776TIP3    H229744   5.914   2.222  11.922 -2.2643 -0.8850  1.1471
 2777TIP3   OH229745   6.271   4.372   4.012  0.1854  0.1423  0.3566
 2777TIP3    H129746   6.296   4.463   3.998 -0.0501 -0.3901 -4.0184
 2777TIP3    H229747   6.176   4.374   4.016  0.2532  0.3374  2.7466
 2778TIP3   OH229748   1.819   4.198   5.432  0.1169 -0.3554  0.0503
 2778TIP3    H129749   1.794   4.289   5.445 -0.3544 -0.5048  0.1991
 2778TIP3    H229750   1.818   4.160   5.520 -1.3034 -0.9172 -0.2002
 2779TIP3   OH229751   1.410   2.027   3.647 -0.2587 -0.0651 -0.0326
 2779TIP3    H129752   1.411   1.932   3.654  2.4344 -0.0053  1.2174
 2779TIP3    H229753   1.318   2.051   3.660 -0.9242 -2.4530 -0.0388
 2780TIP3   OH229754   6.763   4.261   2.176 -0.2616 -0.0079 -0.5503
 2780TIP3    H129755   6.750   4.281   2.084  0.7417 -0.7192 -0.8524
 2780TIP3    H229756   6.807   4.337   2.212 -0.5220  0.2081 -0.6877
 2781TIP3   OH229757   4.281   4.737   0.884 -0.0777  0.1705  0.3085
 2781TIP3    H129758   4.197   4.777   0.904 -0.0278  0.1618  0.5375
 2781TIP3    H229759   4.306   4.691   0.964 -2.0748 -3.7842 -1.2290
 2782TIP3   OH229760   3.044   2.396   1.551  0.3383 -0.0249  0.2611
 2782TIP3    H129761   2.953   2.420   1.568  0.1571  0.4037 -1.2256
 2782TIP3    H229762   3.042   2.350   1.467  1.1977 -2.0065  1.2977
 2783TIP3   OH229763   5.920   3.762   2.442  0.0180  0.0546  0.3033
 2783TIP3    H129764   5.924   3.850   2.478 -1.9669  0.6280 -0.8083
 2783TIP3    H229765   5.944   3.772   2.350 -2.6238 -0.1308 -0.4531
 2784TIP3   OH229766   2.679   6.257  13.101 -0.0910 -0.7312  0.1164
 2784TIP3    H129767   2.750   6.321  13.112 -0.2909 -0.7238  1.4916
 2784TIP3    H229768   2.713   6.178  13.143 -1.6498 -0.1519  2.5334
 2785TIP3   OH229769   0.747   5.581  11.476  0.0050  0.4521 -0.3946
 2785TIP3    H129770   0.702   5.518  11.419  0.0853  1.0823 -1.1743
 2785TIP3    H229771   0.812   5.623  11.419  0.9852  0.1832  0.4937
 2786TIP3   OH229772   2.827   1.257  14.902 -0.1816  0.3499  0.0982
 2786TIP3    H129773   2.890   1.292  14.965 -1.0912  1.0171  0.6597
 2786TIP3    H229774   2.872   1.185  14.860  0.2278 -0.5124  1.9617
 2787TIP3   OH229775   2.140   4.515   0.611 -0.3614  0.0563 -0.0816
 2787TIP3    H129776   2.140   4.584   0.677  0.9577 -1.3115  1.3783
 2787TIP3    H229777   2.170   4.437   0.657 -2.7967 -1.7795 -1.4530
 2788TIP3   OH229778   4.971   4.521  14.289  0.6918 -0.2919  0.1297
 2788TIP3    H129779   4.882   4.490  14.304  1.1458 -1.2291  0.9117
 2788TIP3    H229780   4.966   4.565  14.204 -0.5738 -0.0904  0.2881
 2789TIP3   OH229781   1.561   0.917   3.891 -0.0704 -0.1029 -0.6016
 2789TIP3    H129782   1.634   0.874   3.845 -0.6140 -2.6297  0.7823
 2789TIP3    H229783   1.589   0.919   3.983  1.0968  5.0824 -0.9575
 2790TIP3   OH229784   0.206   5.073   4.262 -0.0238  0.6161  0.3604
 2790TIP3    H129785   0.240   5.146   4.211  0.5726  0.7826  0.9900
 2790TIP3    H229786   0.280   5.044   4.315  0.1206 -1.2898 -0.8390
 2791TIP3   OH229787   5.317   6.357   5.120  0.5190 -0.1249  0.1521
 2791TIP3    H129788   5.299   6.278   5.171 -1.2390  0.1922  0.0611
 2791TIP3    H229789   5.271   6.343   5.037  1.9191  0.1091 -0.6685
 2792TIP3   OH229790   2.261   0.854  12.856 -0.4127 -0.1319 -0.4851
 2792TIP3    H129791   2.321   0.792  12.814 -1.1692 -2.2643  1.5236
 2792TIP3    H229792   2.176   0.811  12.854 -1.3640  1.7048 -0.8412
 2793TIP3   OH229793   1.038   1.839  12.304  0.1509 -0.1476 -0.5011
 2793TIP3    H129794   1.099   1.901  12.343 -0.0645  0.1847 -0.6842
 2793TIP3    H229795   0.991   1.890  12.237 -1.3863  0.0174  0.6598
 2794TIP3   OH229796   1.403   5.148  16.929 -0.4735  0.4186 -0.0425
 2794TIP3    H129797   1.363   5.185  17.007  0.1179  0.6943  0.1302
 2794TIP3    H229798   1.493   5.180  16.930  0.2299 -1.4859  0.4198
 2795TIP3   OH229799   4.760   1.589  11.601  0.2269 -0.0206 -0.3593
 2795TIP3    H129800   4.699   1.574  11.530  1.2452  0.5064 -1.3576
 2795TIP3    H229801   4.845   1.601  11.558  0.5650  2.0820  0.8130
 2796TIP3   OH229802   6.433   5.342  14.541 -0.4539 -0.3148 -0.5153
 2796TIP3    H129803   6.384   5.260  14.534  0.9565 -0.9826 -3.4558
 2796TIP3    H229804   6.418   5.386  14.458 -0.2100  1.8951  0.5711
 2797TIP3   OH229805   0.043   0.426  14.688  0.0057  0.0243  0.3567
 2797TIP3    H129806   0.042   0.459  14.598  0.3822  1.2718  0.7897
 2797TIP3    H229807  -0.005   0.344  14.684 -0.5049  0.3638 -0.8749
 2798TIP3   OH229808   2.413   4.294  12.706  0.3118 -0.1500  0.5586
 2798TIP3    H129809   2.319   4.304  12.718  0.1483 -0.4156 -0.4977
 2798TIP3    H229810   2.423   4.250  12.622  1.4722  2.9918 -1.0515
 2799TIP3   OH229811   2.311   2.577  13.073 -0.4495  0.0936 -0.1184
 2799TIP3    H129812   2.376   2.628  13.025 -0.2290 -1.4043 -1.4557
 2799TIP3    H229813   2.357   2.550  13.153 -0.2101  1.0199  0.0693
 2800TIP3   OH229814   1.142   2.805  15.460 -0.7224  0.7618 -0.3028
 2800TIP3    H129815   1.116   2.718  15.429 -2.3038  1.1488 -0.0947
 2800TIP3    H229816   1.109   2.865  15.393  2.5473  1.0662 -1.7522
 2801TIP3   OH229817   6.423   3.385  13.502  0.1511  0.3003 -0.3594
 2801TIP3    H129818   6.376   3.444  13.443 -1.9999 -1.7127 -0.7063
 2801TIP3    H229819   6.461   3.319  13.444 -0.3723 -0.6187  0.3483
 2802TIP3   OH229820   0.333   3.795   3.995  0.8874  0.5081 -0.0289
 2802TIP3    H129821   0.300   3.881   4.022  0.3325 -0.0918  1.2412
 2802TIP3    H229822   0.259   3.735   4.012  1.4065 -0.2806 -0.5302
 2803TIP3   OH229823   0.300   3.332   2.668  0.0853  0.2738  0.0230
 2803TIP3    H129824   0.343   3.395   2.726 -0.0931 -0.9631  1.5335
 2803TIP3    H229825   0.250   3.276   2.727  0.4614 -1.4611 -1.2639
 2804TIP3   OH229826   5.891   5.835  16.469  0.0433  0.8394 -0.5593
 2804TIP3    H129827   5.812   5.883  16.494  0.1661  1.6550 -1.6577
 2804TIP3    H229828   5.862   5.744  16.458 -0.0992  0.5499  2.0057
 2805TIP3   OH229829   5.706   3.035  11.607 -0.2576 -0.1438  0.0471
 2805TIP3    H129830   5.768   3.105  11.630  1.3020 -1.7581  0.8622
 2805TIP3    H229831   5.727   3.014  11.516  0.2644 -0.5247  0.2487
 2806TIP3   OH229832   1.594   2.970   5.154 -0.1651 -0.3719 -0.2376
 2806TIP3    H129833   1.668   2.920   5.122 -0.8156 -0.3259 -1.8694
 2806TIP3    H229834   1.570   3.027   5.081 -1.1896  0.3111  0.6129
 2807TIP3   OH229835   0.604   4.879  15.016  0.2737  0.0422  0.3091
 2807TIP3    H129836   0.624   4.967  15.048 -0.4598 -0.1316  1.2588
 2807TIP3    H229837   0.666   4.822  15.061 -0.5398 -0.1593  1.2008
 2808TIP3   OH229838   6.110   2.700  11.980  0.0708 -0.6156  0.6049
 2808TIP3    H129839   6.063   2.682  12.062  1.2027 -3.1772  0.7126
 2808TIP3    H229840   6.196   2.732  12.008 -0.2925  0.5538  0.4052
 2809TIP3   OH229841   5.823   5.705  13.914 -0.0849  0.2643 -0.1961
 2809TIP3    H129842   5.746   5.650  13.926  0.5319 -0.1029  2.2740
 2809TIP3    H229843   5.846   5.733  14.002  2.0604  1.1361 -1.0143
 2810TIP3   OH229844   0.610   2.721   4.358  0.0448  0.6350 -0.0809
 2810TIP3    H129845   0.528   2.721   4.409 -0.1222 -0.1609 -0.3522
 2810TIP3    H229846   0.611   2.636   4.314  2.5803 -0.7081  2.4193
 2811TIP3   OH229847   6.357   4.224   3.788 -0.2578  0.6735 -0.0469
 2811TIP3    H129848   6.420   4.280   3.743  0.7615  0.0312  0.5498
 2811TIP3    H229849   6.331   4.274   3.865  0.8733  0.2194  0.6411
 2812TIP3   OH229850   0.026   0.587  13.420 -0.4578 -0.1391  0.0263
 2812TIP3    H129851   0.084   0.598  13.496 -2.0086 -3.3754  1.7699
 2812TIP3    H229852  -0.055   0.632  13.446 -1.1809 -1.7178  0.5320
 2813TIP3   OH229853   3.221   3.513  11.805  0.1383 -0.5612  0.5949
 2813TIP3    H129854   3.275   3.554  11.873 -0.6903  1.1576  0.2410
 2813TIP3    H229855   3.138   3.494  11.848  0.0899 -0.7522  0.4209
 2814TIP3   OH229856   5.961   4.414  13.442 -0.6374 -0.6379  0.2718
 2814TIP3    H129857   5.961   4.394  13.536  0.4829 -1.2181  0.1441
 2814TIP3    H229858   6.015   4.492  13.434 -3.0199  1.0981  0.4509
 2815TIP3   OH229859   4.544   4.767   1.906 -0.5892  0.3967 -0.6536
 2815TIP3    H129860   4.586   4.736   1.986 -1.0131 -0.1246 -0.6318
 2815TIP3    H229861   4.598   4.841   1.878 -2.1458  2.5426  1.7700
 2816TIP3   OH229862   4.053   2.226   5.085 -0.1408  0.9798 -0.5073
 2816TIP3    H129863   4.087   2.266   5.005  0.2291  0.5855 -0.5496
 2816TIP3    H229864   3.968   2.268   5.099 -1.1201 -0.3619 -2.2171
 2817TIP3   OH229865   2.542   5.485  11.600 -0.4167 -0.2924  0.3112
 2817TIP3    H129866   2.462   5.534  11.616  0.3524  1.6540 -1.5504
 2817TIP3    H229867   2.559   5.439  11.682 -2.0423  1.2936  1.5655
 2818TIP3   OH229868   5.635   2.253  16.461 -0.5011  0.5320 -0.5959
 2818TIP3    H129869   5.642   2.190  16.389  2.1152 -0.7177  0.6745
 2818TIP3    H229870   5.674   2.208  16.536  0.2603  3.2187  0.6820
 2819TIP3   OH229871   5.169   5.215   5.505 -0.0448 -0.3681 -0.7345
 2819TIP3    H129872   5.134   5.171   5.428  1.0808 -2.5570 -0.0275
 2819TIP3    H229873   5.257   5.179   5.516  0.9231  2.0752 -0.1189
 2820TIP3   OH229874   5.038   6.189  14.781  0.1119  0.0945  0.3301
 2820TIP3    H129875   5.093   6.123  14.824 -0.7659 -0.4017  0.7006
 2820TIP3    H229876   4.948   6.162  14.800 -0.2728  1.8866  1.2831
 2821TIP3   OH229877   2.540   5.712  13.822  0.0197  0.3689 -0.0923
 2821TIP3    H129878   2.502   5.785  13.871  1.0236  0.0597  1.1598
 2821TIP3    H229879   2.510   5.634  13.869 -0.7516 -0.0214 -1.2120
 2822TIP3   OH229880   3.334   3.532  15.034 -0.3780  0.3675  0.2950
 2822TIP3    H129881   3.360   3.441  15.053 -0.0255  0.5427  0.6738
 2822TIP3    H229882   3.417   3.576  15.015 -0.8179 -0.0650 -2.8727
 2823TIP3   OH229883   4.579   5.862   3.544  0.1179 -0.6591  0.0954
 2823TIP3    H129884   4.662   5.823   3.570  0.5494 -0.4863 -0.9818
 2823TIP3    H229885   4.529   5.790   3.506  0.2310 -0.5230 -0.3122
 2824TIP3   OH229886   3.893   1.629  17.070 -0.2352 -0.4105  0.2119
 2824TIP3    H129887   3.940   1.567  17.126 -0.0637  0.7886  1.4347
 2824TIP3    H229888   3.806   1.636  17.111 -0.5353 -0.4844 -0.4096
 2825TIP3   OH229889   6.770   3.128   0.315 -0.2127 -0.2696 -0.1631
 2825TIP3    H129890   6.777   3.128   0.410  1.0485 -0.1559 -0.2555
 2825TIP3    H229891   6.822   3.053   0.287 -0.6173 -0.3286 -0.7646
 2826TIP3   OH229892   6.577   6.179  14.613 -0.4193 -0.6097 -1.2887
 2826TIP3    H129893   6.560   6.192  14.520  0.2766  1.3954 -1.1572
 2826TIP3    H229894   6.511   6.115  14.641 -3.2094  1.7069 -2.2969
 2827TIP3   OH229895   3.533   1.372  12.667  0.4045  0.1030 -0.4173
 2827TIP3    H129896   3.561   1.368  12.759  0.8879  1.4625 -0.4889
 2827TIP3    H229897   3.595   1.432  12.626 -0.6194  0.5453 -1.3413
 2828TIP3   OH229898   3.396   3.646   2.157  0.0967 -0.0084  0.6525
 2828TIP3    H129899   3.442   3.720   2.116  0.7501 -0.1927  1.0498
 2828TIP3    H229900   3.440   3.569   2.122 -1.8925 -0.2928 -1.3436
 2829TIP3   OH229901   3.239   0.794   3.132  0.0219 -0.1042  0.2487
 2829TIP3    H129902   3.313   0.840   3.094 -0.7872  1.3838  0.4316
 2829TIP3    H229903   3.278   0.735   3.196  1.0700  0.4822  0.1665
 2830TIP3   OH229904   0.988   1.239   4.871 -0.4210  0.0898  0.4916
 2830TIP3    H129905   0.979   1.244   4.966 -1.4707 -2.1963  0.5469
 2830TIP3    H229906   1.012   1.148   4.854 -0.8864  0.3155 -1.4647
 2831TIP3   OH229907   5.461   6.377  14.098  0.0334  0.0912 -0.1978
 2831TIP3    H129908   5.392   6.433  14.062  0.0415  0.1372 -0.1422
 2831TIP3    H229909   5.534   6.387  14.037  1.3760  3.0726  1.8029
 2832TIP3   OH229910   3.929   5.995   0.807 -0.1850  0.0573 -0.2349
 2832TIP3    H129911   3.980   6.055   0.753  2.1549 -0.7536  0.9733
 2832TIP3    H229912   3.870   6.051   0.858 -0.1284  1.0709 -1.2733
 2833TIP3   OH229913   3.890   6.386  16.751 -0.4737 -0.2062 -0.1549
 2833TIP3    H129914   3.830   6.315  16.775  0.7432 -0.9415  0.7613
 2833TIP3    H229915   3.949   6.346  16.687 -0.1351  0.1460 -0.0659
 2834TIP3   OH229916   4.134   1.576   1.620  0.5108 -0.3255 -0.1135
 2834TIP3    H129917   4.074   1.644   1.650  0.8384  0.1188 -0.4641
 2834TIP3    H229918   4.083   1.495   1.626 -0.6160  0.2454 -1.8314
 2835TIP3   OH229919   3.658   0.753  12.228  0.0477  0.2806 -1.0449
 2835TIP3    H129920   3.653   0.728  12.320  2.1763 -0.6248 -1.1388
 2835TIP3    H229921   3.583   0.710  12.187 -0.2602 -0.2443  0.0648
 2836TIP3   OH229922   5.083   2.862  13.529 -0.1823 -0.1386  0.0697
 2836TIP3    H129923   5.145   2.930  13.553  0.2258 -0.4660 -0.0527
 2836TIP3    H229924   5.109   2.786  13.581 -0.3442 -0.3407 -0.1393
 2837TIP3   OH229925   3.781   2.607   2.517  0.4205 -0.2713 -0.0270
 2837TIP3    H129926   3.739   2.541   2.462 -2.9783  0.3136  1.7124
 2837TIP3    H229927   3.856   2.562   2.556  0.2201 -2.0099 -1.5743
 2838TIP3   OH229928   1.877   4.240  16.563  0.3560  0.1888 -0.0704
 2838TIP3    H129929   1.845   4.162  16.608  0.4411  1.0716  1.5683
 2838TIP3    H229930   1.804   4.267  16.508  1.1590 -2.3834 -2.4884
 2839TIP3   OH229931   4.416   0.441   5.904  0.0860 -0.3451 -0.6475
 2839TIP3    H129932   4.397   0.482   5.989 -0.0019 -0.4304 -0.6249
 2839TIP3    H229933   4.380   0.352   5.912  1.5199 -0.9014 -0.2016
 2840TIP3   OH229934   4.460   4.261  11.094 -0.0781  0.2843 -0.0745
 2840TIP3    H129935   4.537   4.211  11.066  1.4886  2.6038  0.0440
 2840TIP3    H229936   4.419   4.290  11.012 -1.0922 -1.2796 -0.1497
 2841TIP3   OH229937   2.232   4.107   2.477  0.4668  0.3335 -0.3862
 2841TIP3    H129938   2.277   4.098   2.393 -1.2328 -1.1593 -1.1621
 2841TIP3    H229939   2.290   4.065   2.540  0.3783 -1.2210 -1.3110
 2842TIP3   OH229940   1.786   0.865  13.356 -0.1382 -0.1514 -0.3092
 2842TIP3    H129941   1.838   0.821  13.288 -1.9780 -2.2955 -0.4089
 2842TIP3    H229942   1.798   0.958  13.339  2.0635 -0.6228 -1.5409
 2843TIP3   OH229943   2.188   6.286   0.175  0.1346 -0.1651 -0.4841
 2843TIP3    H129944   2.241   6.211   0.149 -1.5980 -1.0586 -1.5205
 2843TIP3    H229945   2.158   6.324   0.093  1.1133  1.7536  0.0381
 2844TIP3   OH229946   0.440   1.847   1.609  0.8469 -0.7505  0.5529
 2844TIP3    H129947   0.418   1.867   1.700  1.6400  0.6423  0.4616
 2844TIP3    H229948   0.531   1.876   1.600  0.0684  1.2660 -1.2922
 2845TIP3   OH229949   3.112   0.599  13.208  0.5344  0.0846  0.3981
 2845TIP3    H129950   3.088   0.614  13.117  0.2650  0.1240  0.4765
 2845TIP3    H229951   3.045   0.540  13.242  0.9837 -0.4247  0.3968
 2846TIP3   OH229952   0.288   0.287   1.753  0.7693  0.2594  0.2460
 2846TIP3    H129953   0.252   0.254   1.670  2.3651  1.6448 -1.0188
 2846TIP3    H229954   0.339   0.213   1.787  1.6659  0.3134 -0.9574
 2847TIP3   OH229955   4.522   5.333  11.831  0.1108 -0.0630  0.2771
 2847TIP3    H129956   4.557   5.314  11.918  1.6903  0.9983 -0.0897
 2847TIP3    H229957   4.518   5.248  11.787 -1.1433 -0.6637  1.5402
 2848TIP3   OH229958   4.893   1.244   5.735 -0.0182 -0.2377 -0.1058
 2848TIP3    H129959   4.827   1.307   5.764 -0.4196  0.5867 -2.6912
 2848TIP3    H229960   4.850   1.159   5.740  0.0720 -0.1800  2.0670
 2849TIP3   OH229961   2.131   5.879  15.006  0.3066 -0.0511  0.6098
 2849TIP3    H129962   2.057   5.870  15.067  0.4074  2.0805  1.0692
 2849TIP3    H229963   2.111   5.817  14.935 -1.2764 -0.4155  1.3438
 2850TIP3   OH229964   2.848   0.285  13.705 -0.2650  0.0560  0.2969
 2850TIP3    H129965   2.840   0.360  13.646 -0.5388 -0.6778 -0.6103
 2850TIP3    H229966   2.936   0.292  13.741 -0.8279  1.6762  1.4041
 2851TIP3   OH229967   5.181   0.976   0.570  0.1262 -0.1963 -0.2225
 2851TIP3    H129968   5.213   1.066   0.566 -3.2836  1.0697 -0.5622
 2851TIP3    H229969   5.198   0.940   0.483  0.0471  0.6396 -0.5861
 2852TIP3   OH229970   2.457   2.730   4.293 -0.5945 -0.3402  0.0877
 2852TIP3    H129971   2.414   2.647   4.314 -0.7804 -0.1463  0.4847
 2852TIP3    H229972   2.550   2.715   4.315 -1.0009  0.2977  2.4171
 2853TIP3   OH229973   1.658   3.013   3.593 -0.6014  0.3599 -0.0176
 2853TIP3    H129974   1.622   2.926   3.577 -0.4220  0.4471 -0.8845
 2853TIP3    H229975   1.696   3.007   3.681 -2.1309  0.0717  0.6474
 2854TIP3   OH229976   1.789   3.560   0.042  0.4143 -0.2536 -0.1410
 2854TIP3    H129977   1.843   3.580  -0.034  1.0535 -0.0981  0.3483
 2854TIP3    H229978   1.809   3.469   0.063  1.2386  0.1080  0.6465
 2855TIP3   OH229979   0.867   6.284  14.160  0.2244 -0.7482 -0.1898
 2855TIP3    H129980   0.780   6.273  14.123 -0.1784  0.7405  0.2789
 2855TIP3    H229981   0.877   6.211  14.221  0.0061 -1.9215 -1.5371
 2856TIP3   OH229982   2.353   2.576  13.961 -0.0166 -0.1053 -0.0707
 2856TIP3    H129983   2.353   2.480  13.970  0.5082  0.0020  1.2733
 2856TIP3    H229984   2.345   2.592  13.867 -2.5967 -1.4465 -0.1395
 2857TIP3   OH229985   2.176   4.548   1.517  0.5678 -0.3373  0.1971
 2857TIP3    H129986   2.133   4.557   1.602  0.1278  1.2153 -0.1761
 2857TIP3    H229987   2.106   4.554   1.453  1.2527  1.6580 -0.3938
 2858TIP3   OH229988   0.056   6.052  11.586  0.7285  0.1371 -0.7182
 2858TIP3    H129989   0.016   5.969  11.612  0.2155  0.6291  0.0423
 2858TIP3    H229990   0.040   6.111  11.659 -0.1140  1.3252 -1.8462
 2859TIP3   OH229991   6.189   6.169  11.094  0.1157 -0.4111  0.1199
 2859TIP3    H129992   6.244   6.103  11.135  2.1194  0.8854 -0.4285
 2859TIP3    H229993   6.225   6.179  11.006  0.5317  2.1918  0.5630
 2860TIP3   OH229994   1.424   3.206   3.585 -0.5126 -0.4480 -0.1132
 2860TIP3    H129995   1.372   3.159   3.520 -1.5849 -0.4922  0.7634
 2860TIP3    H229996   1.480   3.140   3.624 -1.5161 -0.8841  0.6204
 2861TIP3   OH229997   2.275   3.159  15.335  0.7782 -0.6477 -0.6249
 2861TIP3    H129998   2.198   3.204  15.302 -0.1088 -0.3507  1.7415
 2861TIP3    H229999   2.254   3.066  15.327 -0.6137 -0.5697  1.6870
 2862TIP3   OH230000   3.363   5.726  11.677 -0.7882 -0.0176  0.0271
 2862TIP3    H130001   3.353   5.653  11.616  0.5892 -0.4068  0.2628
 2862TIP3    H230002   3.318   5.799  11.634  1.3099  0.0818 -2.1147
 2863TIP3   OH230003   6.749   1.209   2.012 -0.2931 -0.0749 -0.4071
 2863TIP3    H130004   6.789   1.123   2.023  0.1309  0.1950  0.1752
 2863TIP3    H230005   6.776   1.258   2.089 -0.2001  0.7150 -0.9337
 2864TIP3   OH230006   3.707   4.876   1.065 -0.4740  0.4558  0.3692
 2864TIP3    H130007   3.665   4.959   1.088  0.8557  1.1693  0.2272
 2864TIP3    H230008   3.798   4.899   1.046 -0.7316 -0.5943 -2.4227
 2865TIP3   OH230009   5.523   4.800   5.547 -0.6409 -0.0598 -0.4663
 2865TIP3    H130010   5.609   4.794   5.506  0.1489 -1.0059  1.2686
 2865TIP3    H230011   5.518   4.724   5.605 -1.9373  0.9165  0.7495
 2866TIP3   OH230012   1.403   2.165   5.014 -0.1813 -0.4315 -0.0479
 2866TIP3    H130013   1.418   2.159   5.109 -0.3961 -2.3531 -0.1002
 2866TIP3    H230014   1.360   2.082   4.992  1.2632 -0.6887 -2.0673
 2867TIP3   OH230015   4.874   3.345  11.458  0.3446  0.4233  0.4858
 2867TIP3    H130016   4.954   3.317  11.413  0.3416 -0.0803  0.7926
 2867TIP3    H230017   4.894   3.433  11.489  0.7254  0.3591  0.4317
 2868TIP3   OH230018   4.141   5.716   5.362  0.3935  0.5364 -0.0309
 2868TIP3    H130019   4.194   5.659   5.308  0.2563  0.8931 -0.5436
 2868TIP3    H230020   4.180   5.803   5.352 -0.4787  0.8626 -0.6650
 2869TIP3   OH230021   5.590   5.885  15.428 -0.0529  0.0493 -0.3364
 2869TIP3    H130022   5.577   5.793  15.452  0.0972  0.0082 -0.4078
 2869TIP3    H230023   5.656   5.882  15.359  1.4136  0.3492  1.0060
 2870TIP3   OH230024   6.120   1.647  15.100 -0.5633  1.0721 -0.3917
 2870TIP3    H130025   6.095   1.595  15.177  2.5354  0.3611  0.1703
 2870TIP3    H230026   6.081   1.733  15.116 -1.9560  0.2442  0.8247
 2871TIP3   OH230027   2.712   3.454   4.238 -0.1458  0.8019  0.2327
 2871TIP3    H130028   2.706   3.542   4.276 -0.7645  1.0191 -0.3315
 2871TIP3    H230029   2.667   3.463   4.153  0.8410  0.2346 -0.3526
 2872TIP3   OH230030   0.623   3.810  11.105 -0.2183 -0.0490  0.2473
 2872TIP3    H130031   0.550   3.768  11.152 -0.3195 -0.5557 -0.3505
 2872TIP3    H230032   0.678   3.846  11.174 -1.9185  1.8398  0.6818
 2873TIP3   OH230033   0.488   4.720  15.741 -0.0336 -0.4507 -0.7833
 2873TIP3    H130034   0.464   4.675  15.822  1.4627 -0.7293 -0.4845
 2873TIP3    H230035   0.545   4.659  15.695 -0.9197 -0.3160 -2.0864
 2874TIP3   OH230036   4.055   2.035  11.848 -0.2154  0.2616  0.1784
 2874TIP3    H130037   4.028   2.087  11.924  0.2608  2.0544 -0.8562
 2874TIP3    H230038   4.132   1.986  11.879 -0.1096  0.8664  0.8985
 2875TIP3   OH230039   3.381   4.147  14.819 -0.4505  0.3661  0.1694
 2875TIP3    H130040   3.349   4.238  14.820 -1.4031  0.0442  0.1258
 2875TIP3    H230041   3.303   4.095  14.838 -0.4637 -0.5990 -2.3964
 2876TIP3   OH230042   0.430   5.067  16.299  0.1469 -0.1565  0.4233
 2876TIP3    H130043   0.383   5.009  16.359  0.1274 -0.6169 -0.0365
 2876TIP3    H230044   0.520   5.068  16.332 -0.1322  0.5724  1.1862
 2877TIP3   OH230045   1.930   2.673  10.835  0.0648  0.0644 -0.7107
 2877TIP3    H130046   1.898   2.635  10.753 -0.4808 -0.9602 -0.0322
 2877TIP3    H230047   1.999   2.614  10.863 -0.1723  0.0734 -0.1105
 2878TIP3   OH230048   5.283   0.086  12.087 -0.3488 -0.1808 -0.3803
 2878TIP3    H130049   5.332   0.050  12.014  2.1366  0.8429  0.7152
 2878TIP3    H230050   5.256   0.010  12.139  1.9368 -0.6734  0.1229
 2879TIP3   OH230051   2.527   6.351   1.347  0.8433 -0.6238  0.1277
 2879TIP3    H130052   2.504   6.425   1.403  2.3425 -0.8738  1.0961
 2879TIP3    H230053   2.572   6.289   1.405 -0.1352 -2.1791 -0.7352
 2880TIP3   OH230054   3.288   6.737  15.520 -0.4514  0.7916  0.2333
 2880TIP3    H130055   3.329   6.812  15.563  0.3855  1.3006 -1.4257
 2880TIP3    H230056   3.361   6.680  15.496 -0.9481  0.2757 -0.0740
 2881TIP3   OH230057   1.588   6.609  16.867 -0.0019 -0.0238  0.3139
 2881TIP3    H130058   1.581   6.703  16.847 -0.3552  0.3491  2.1310
 2881TIP3    H230059   1.652   6.576  16.803  0.3563  1.5030 -0.1505
 2882TIP3   OH230060   6.481   3.082   0.906 -0.5501 -0.3018 -0.2613
 2882TIP3    H130061   6.533   3.007   0.878  1.4525  0.8686  0.2486
 2882TIP3    H230062   6.424   3.100   0.831 -1.2494 -2.4598 -0.2944
 2883TIP3   OH230063   5.814   0.142   0.506 -0.6175  0.0912 -0.7010
 2883TIP3    H130064   5.817   0.188   0.422 -1.0357 -0.0912 -0.8206
 2883TIP3    H230065   5.840   0.053   0.484  1.8185  0.6544 -0.1816
 2884TIP3   OH230066   4.627   1.546  15.864 -0.2871 -0.3439  0.1843
 2884TIP3    H130067   4.633   1.594  15.947 -1.0122  3.6471 -1.9675
 2884TIP3    H230068   4.534   1.526  15.855 -0.4039  0.4086 -0.2983
 2885TIP3   OH230069   3.571   0.561   3.399 -0.1116 -0.2420 -0.1292
 2885TIP3    H130070   3.484   0.576   3.363 -1.4306 -2.4374  1.9806
 2885TIP3    H230071   3.621   0.523   3.327 -2.2261 -3.1043 -0.1565
 2886TIP3   OH230072   3.485   1.333   2.416 -0.9634  0.1916  0.1902
 2886TIP3    H130073   3.552   1.265   2.415 -0.9257  0.2240 -0.8675
 2886TIP3    H230074   3.475   1.356   2.508 -0.9684 -1.2230  0.5568
 2887TIP3   OH230075   0.157   2.196   0.104 -0.5992 -0.2594  0.2882
 2887TIP3    H130076   0.156   2.126   0.039  1.8819  1.3189 -1.5328
 2887TIP3    H230077   0.109   2.160   0.179  0.3408 -3.7643 -0.7008
 2888TIP3   OH230078   6.513   6.278   4.279  0.7606  0.1483  0.5056
 2888TIP3    H130079   6.592   6.238   4.242  1.3212  1.1132  0.6230
 2888TIP3    H230080   6.473   6.325   4.206 -0.6292 -1.7319  0.0477
 2889TIP3   OH230081   1.889   2.936  12.134 -0.0308  0.1196 -0.2415
 2889TIP3    H130082   1.930   2.930  12.220  0.1968  0.6333 -0.3164
 2889TIP3    H230083   1.864   3.028  12.125  1.0282  0.3177 -1.2274
 2890TIP3   OH230084   5.643   2.029  12.860 -0.0732  0.0135 -0.2208
 2890TIP3    H130085   5.718   1.970  12.861  2.0623  2.6575  0.5135
 2890TIP3    H230086   5.619   2.036  12.767  1.6083  0.3920 -0.6341
 2891TIP3   OH230087   4.667   5.689  16.906 -0.3448 -0.3305 -0.1276
 2891TIP3    H130088   4.583   5.698  16.862 -0.4374 -0.4439  0.0240
 2891TIP3    H230089   4.687   5.595  16.902 -1.9455 -0.8921  2.9570
 2892TIP3   OH230090   2.196   5.378   3.631 -0.7576  0.2806 -0.1716
 2892TIP3    H130091   2.264   5.428   3.586 -1.4375  2.3561  1.0259
 2892TIP3    H230092   2.225   5.287   3.626  3.0040  1.2904  1.7685
 2893TIP3   OH230093   6.162   3.556   3.081 -0.6074 -0.0830  0.2690
 2893TIP3    H130094   6.139   3.578   2.990 -0.6335 -0.9850  0.0494
 2893TIP3    H230095   6.247   3.598   3.095  0.2955 -1.4960 -0.8022
 2894TIP3   OH230096   3.032   4.110   4.195  0.1114 -0.2107 -0.3167
 2894TIP3    H130097   2.939   4.132   4.200  0.0270 -0.3535 -1.3071
 2894TIP3    H230098   3.039   4.025   4.239 -0.6025 -1.3315 -2.3385
 2895TIP3   OH230099   4.195   4.959  15.528  0.8412 -0.4010 -0.2647
 2895TIP3    H130100   4.211   5.038  15.580  0.3004  0.3288 -1.1871
 2895TIP3    H230101   4.206   4.987  15.437 -0.6649 -1.0477 -0.6708
 2896TIP3   OH230102   3.009   6.127  15.001  0.7614 -0.2883  0.0226
 2896TIP3    H130103   3.105   6.127  15.004  0.7534  1.1925  0.8248
 2896TIP3    H230104   2.985   6.216  15.026 -0.8697 -1.0103  1.0977
 2897TIP3   OH230105   5.240   6.651  15.164  0.0215  0.3703  0.2681
 2897TIP3    H130106   5.224   6.565  15.204 -0.9187 -0.0605 -1.0284
 2897TIP3    H230107   5.228   6.637  15.070 -2.1232  2.3458  0.2065
 2898TIP3   OH230108   4.536   5.955   0.178 -0.7449 -0.4269  0.6374
 2898TIP3    H130109   4.494   5.891   0.236 -2.6573  0.7971  0.6368
 2898TIP3    H230110   4.493   5.942   0.094  0.7664 -0.9606 -0.0606
 2899TIP3   OH230111   6.119   5.942   4.888  0.1252 -0.1119 -0.0965
 2899TIP3    H130112   6.127   5.879   4.816 -2.2073  0.5856 -1.0076
 2899TIP3    H230113   6.203   5.988   4.888  0.5088 -0.7418 -1.8039
 2900TIP3   OH230114   0.407   0.166   1.032 -0.2522 -0.1112  0.1125
 2900TIP3    H130115   0.443   0.192   0.947 -0.5115  1.5969  0.5110
 2900TIP3    H230116   0.350   0.092   1.012 -1.1639  0.9649 -1.3803
 2901TIP3   OH230117   4.812   6.131  11.097 -0.1822 -0.3167  0.5655
 2901TIP3    H130118   4.759   6.210  11.109 -0.4970 -0.3049 -0.8087
 2901TIP3    H230119   4.894   6.162  11.059 -0.5006 -0.7039 -0.4455
 2902TIP3   OH230120   2.128   4.428  17.094 -0.2888  0.2196  0.9005
 2902TIP3    H130121   2.184   4.356  17.124 -1.3950  0.3004  3.2920
 2902TIP3    H230122   2.127   4.420  16.999  0.6635 -2.1294  1.0618
 2903TIP3   OH230123   5.961   0.477  14.053  0.0208 -0.1226 -0.0052
 2903TIP3    H130124   6.028   0.445  14.115  0.2167  1.3616  0.5637
 2903TIP3    H230125   6.002   0.552  14.010 -0.6728 -0.2381 -0.8752
 2904TIP3   OH230126   1.817   2.892   1.521 -0.7333  0.3832  0.1729
 2904TIP3    H130127   1.802   2.808   1.564 -1.2516  0.6880  0.5848
 2904TIP3    H230128   1.911   2.892   1.502 -0.7422 -0.3190  0.1056
 2905TIP3   OH230129   6.539   0.022   5.505  0.1316 -0.4745 -0.1575
 2905TIP3    H130130   6.506   0.101   5.549  0.0638 -1.0353  0.8189
 2905TIP3    H230131   6.620   0.050   5.463 -0.2314  0.2770 -0.3745
 2906TIP3   OH230132   4.482   6.485  12.462 -0.2899 -0.7531  0.0995
 2906TIP3    H130133   4.386   6.478  12.469 -0.4396  1.5210  1.0253
 2906TIP3    H230134   4.497   6.511  12.371 -0.6562 -0.1175  0.2110
 2907TIP3   OH230135   0.820   5.240   4.506  0.1531 -0.0729  0.4221
 2907TIP3    H130136   0.818   5.272   4.596 -0.8843  1.8818 -0.2680
 2907TIP3    H230137   0.767   5.160   4.508 -1.5957  1.0612  1.1701
 2908TIP3   OH230138   1.309   2.181   1.163 -0.0815  0.2891  0.0923
 2908TIP3    H130139   1.388   2.230   1.186 -1.6799  2.6802  0.6936
 2908TIP3    H230140   1.331   2.136   1.082  1.9099  0.8734  0.2824
 2909TIP3   OH230141   6.692   5.844  11.663 -0.0335  0.6019 -0.0843
 2909TIP3    H130142   6.728   5.757  11.681  0.1334  0.3888 -1.3648
 2909TIP3    H230143   6.674   5.881  11.749  0.4261 -0.4793  0.4902
 2910TIP3   OH230144   4.069   4.498  15.702 -0.0242 -0.2367  0.4628
 2910TIP3    H130145   4.057   4.414  15.657 -0.3569  0.2053 -0.2734
 2910TIP3    H230146   4.115   4.475  15.783  1.4720 -0.9071 -0.5683
 2911TIP3   OH230147   1.197   5.141   1.162  0.3012  0.1852 -0.2503
 2911TIP3    H130148   1.264   5.194   1.206 -1.0005  2.5721 -1.0584
 2911TIP3    H230149   1.158   5.200   1.098 -1.5763 -1.6219 -0.8319
 2912TIP3   OH230150   5.219   5.290  14.888 -0.3475  0.1282  1.0361
 2912TIP3    H130151   5.163   5.226  14.932 -0.6570 -0.7458 -0.5956
 2912TIP3    H230152   5.172   5.312  14.807  1.4886 -0.3736 -0.1972
 2913TIP3   OH230153   3.982   5.122  11.336 -0.1191  0.5572 -0.0608
 2913TIP3    H130154   3.912   5.186  11.351 -1.7984 -1.2549  0.0333
 2913TIP3    H230155   3.961   5.083  11.251 -0.4825 -1.5542  0.9689
 2914TIP3   OH230156   4.528   5.280  11.220  0.1335  0.4135  0.0403
 2914TIP3    H130157   4.572   5.335  11.285  1.5124  1.5075 -1.7778
 2914TIP3    H230158   4.552   5.190  11.244  0.2797  0.7718  1.2727
 2915TIP3   OH230159   5.634   5.820   1.974 -0.3764  0.3204 -0.1243
 2915TIP3    H130160   5.557   5.812   2.029 -0.3869  0.0233 -0.1804
 2915TIP3    H230161   5.668   5.730   1.966 -0.3591  0.3640 -0.5753
 2916TIP3   OH230162   1.190   6.526   5.378  0.2327 -0.0457 -0.2923
 2916TIP3    H130163   1.219   6.439   5.351 -1.0377  0.2987 -2.9338
 2916TIP3    H230164   1.094   6.520   5.381  0.2194  0.7472  1.4150
 2917TIP3   OH230165   2.433   2.612  16.055 -0.5434  0.5861  0.1989
 2917TIP3    H130166   2.414   2.523  16.027  0.2715  0.8009 -1.1036
 2917TIP3    H230167   2.522   2.629  16.022  0.8268  0.5603  3.7112
 2918TIP3   OH230168   3.790   4.967  13.783 -0.7094  0.4408 -0.0959
 2918TIP3    H130169   3.703   4.928  13.798  0.4797 -1.3108  2.7139
 2918TIP3    H230170   3.806   5.020  13.860  1.1390 -0.0758 -0.0998
 2919TIP3   OH230171   6.781   4.453  16.784 -0.1401 -0.2320  0.2492
 2919TIP3    H130172   6.854   4.435  16.844 -0.8237 -2.2210  0.5487
 2919TIP3    H230173   6.715   4.497  16.838  0.6957  1.2945  0.0507
 2920TIP3   OH230174   5.119   1.572   4.663  0.2658  0.6282  0.0794
 2920TIP3    H130175   5.169   1.611   4.591 -0.3163  0.0269 -0.6668
 2920TIP3    H230176   5.028   1.595   4.644 -0.0928 -0.9993 -0.3506
 2921TIP3   OH230177   5.633   2.107  13.672 -0.4292 -0.0056  0.1646
 2921TIP3    H130178   5.569   2.036  13.669 -0.2814 -0.2145  1.5520
 2921TIP3    H230179   5.610   2.158  13.749  0.3531  0.6144  0.0015
 2922TIP3   OH230180   1.523   3.760   2.043 -0.1179 -0.3346 -0.4835
 2922TIP3    H130181   1.573   3.804   2.112 -0.5824  0.3049 -0.5464
 2922TIP3    H230182   1.468   3.697   2.089  0.5590 -0.8718 -0.3920
 2923TIP3   OH230183   5.391   5.900  16.188  0.2928  0.5941 -0.0817
 2923TIP3    H130184   5.427   5.879  16.274 -2.4796 -0.9897  0.7324
 2923TIP3    H230185   5.377   5.815  16.146 -1.6263  1.2059 -0.7170
 2924TIP3   OH230186   6.719   1.559   5.676  0.3497  0.9688  0.7714
 2924TIP3    H130187   6.780   1.486   5.660 -0.1046  0.4440  1.4188
 2924TIP3    H230188   6.710   1.601   5.591  0.6886  0.3255  0.4091
 2925TIP3   OH230189   2.498   5.666   2.779 -0.0352  0.2215  0.5971
 2925TIP3    H130190   2.578   5.718   2.786  0.3735 -0.4818  1.1492
 2925TIP3    H230191   2.496   5.614   2.858 -1.4003  0.7169  0.9040
 2926TIP3   OH230192   3.895   0.644  14.732  0.2035  0.3033 -0.4818
 2926TIP3    H130193   3.976   0.641  14.682 -1.2905  0.4375 -2.9851
 2926TIP3    H230194   3.829   0.608  14.673 -1.4095 -0.6826  1.8474
 2927TIP3   OH230195   3.184   4.829  14.302 -0.0621  0.1379  0.1300
 2927TIP3    H130196   3.257   4.785  14.346 -0.4445  1.0345  1.6725
 2927TIP3    H230197   3.158   4.767  14.233  0.4171 -1.3672  1.2688
 2928TIP3   OH230198   5.369   0.062  14.853  0.5370 -0.0675  0.9355
 2928TIP3    H130199   5.366   0.129  14.921 -1.3131  2.3189 -1.4004
 2928TIP3    H230200   5.286   0.015  14.862  1.2276 -1.1643  1.6772
 2929TIP3   OH230201   5.354   1.901  12.879 -0.4304  0.2234 -0.0219
 2929TIP3    H130202   5.298   1.935  12.950  0.2196  0.0909  0.5602
 2929TIP3    H230203   5.322   1.812  12.864  1.2018 -0.7577  2.0232
 2930TIP3   OH230204   3.227   1.087   1.129 -0.6163  0.4756  0.4247
 2930TIP3    H130205   3.296   1.051   1.185 -0.8639  1.0588  1.1267
 2930TIP3    H230206   3.147   1.081   1.183 -1.0476  0.1111 -0.2509
 2931TIP3   OH230207   1.016   2.161  16.070 -0.0047  0.3963  0.2544
 2931TIP3    H130208   0.968   2.081  16.045  2.3982 -0.9629 -0.1998
 2931TIP3    H230209   0.954   2.211  16.123 -1.9368 -1.2623 -0.3695
 2932TIP3   OH230210   2.834   2.106  14.873  0.0518 -0.1244 -0.6862
 2932TIP3    H130211   2.919   2.137  14.839  0.3441 -0.8117 -0.5849
 2932TIP3    H230212   2.835   2.130  14.966  0.7218 -1.3541 -0.3605
 2933TIP3   OH230213   3.594   0.975   1.995 -0.0824 -0.1096  0.4026
 2933TIP3    H130214   3.612   0.947   1.905 -1.8964  0.5322 -0.1916
 2933TIP3    H230215   3.680   0.999   2.030  0.4176  1.7417 -1.9178
 2934TIP3   OH230216   6.774   0.671  16.755 -0.3060  0.3371 -0.2142
 2934TIP3    H130217   6.779   0.766  16.746 -0.3380  0.3307 -0.2954
 2934TIP3    H230218   6.770   0.638  16.665  1.6744  0.1448 -0.2387
 2935TIP3   OH230219   2.321   2.329  16.674 -0.0306  0.4014 -0.3976
 2935TIP3    H130220   2.371   2.326  16.756  0.7614 -1.1619 -0.9249
 2935TIP3    H230221   2.233   2.300  16.698  0.0059  0.6454  0.0349
 2936TIP3   OH230222   3.066   3.213  14.117 -0.2150 -0.2420 -0.3456
 2936TIP3    H130223   3.028   3.125  14.122 -0.7200 -0.0668 -0.9614
 2936TIP3    H230224   3.090   3.233  14.207 -0.8301 -0.6962 -0.0697
 2937TIP3   OH230225   0.587   2.543   1.230 -0.1665 -0.2338 -0.4388
 2937TIP3    H130226   0.645   2.467   1.220  1.5802  1.1613 -1.1037
 2937TIP3    H230227   0.587   2.584   1.143 -1.7460  0.0836 -0.2926
 2938TIP3   OH230228   2.968   3.560   5.058 -0.0933  0.3332 -0.1330
 2938TIP3    H130229   3.012   3.554   5.143 -1.5018  1.8653  0.7418
 2938TIP3    H230230   3.009   3.634   5.015  0.4312 -0.2754 -0.6869
 2939TIP3   OH230231   5.804   0.272  13.973  0.2742  0.1490 -0.1747
 2939TIP3    H130232   5.856   0.334  14.026 -2.7775  1.2711  1.6264
 2939TIP3    H230233   5.806   0.308  13.885  1.4621  0.8876  0.1423
 2940TIP3   OH230234   3.250   4.370  14.227 -0.0291 -0.0813  0.2694
 2940TIP3    H130235   3.253   4.386  14.321  1.2972 -0.1672  0.2436
 2940TIP3    H230236   3.312   4.298  14.212 -0.2146 -0.0544 -0.6676
 2941TIP3   OH230237   3.231   1.477  11.903  0.1330  0.9421 -0.0031
 2941TIP3    H130238   3.225   1.396  11.953 -1.5312  1.6666  1.0171
 2941TIP3    H230239   3.283   1.454  11.826 -0.5013 -1.1382  0.1658
 2942TIP3   OH230240   3.497   0.181  13.757  0.3048 -0.3054  0.3154
 2942TIP3    H130241   3.555   0.119  13.801 -0.0148  0.3151  1.6245
 2942TIP3    H230242   3.423   0.127  13.727  1.0607 -0.9198 -0.4851
 2943TIP3   OH230243   1.764   6.627   0.590 -0.1314 -0.2347 -0.0369
 2943TIP3    H130244   1.857   6.612   0.573 -0.3741  0.6230 -2.2675
 2943TIP3    H230245   1.720   6.548   0.557 -0.1867 -0.8252  1.3974
 2944TIP3   OH230246   5.700   1.895   1.296 -0.0206  0.3028 -0.0468
 2944TIP3    H130247   5.768   1.948   1.339 -0.2568  0.8741 -0.3736
 2944TIP3    H230248   5.747   1.845   1.229  0.0074  1.0614 -0.5999
 2945TIP3   OH230249   1.978   4.708  13.254  0.2466 -0.4987  0.5073
 2945TIP3    H130250   1.980   4.703  13.350  0.7481 -1.4828  0.4538
 2945TIP3    H230251   2.070   4.701  13.228 -0.0631 -2.6085 -0.1394
 2946TIP3   OH230252   0.083   2.507  11.193  0.0295  0.3401 -0.3463
 2946TIP3    H130253   0.062   2.542  11.280  0.3187  2.1503 -0.9755
 2946TIP3    H230254   0.002   2.465  11.164  0.4843 -1.9307  1.5465
 2947TIP3   OH230255   3.951   5.989  13.203 -0.2704  0.5855  0.0767
 2947TIP3    H130256   4.036   6.026  13.224  0.4950 -0.6012 -0.9132
 2947TIP3    H230257   3.923   5.946  13.284  1.0538 -0.8755 -0.2097
 2948TIP3   OH230258   6.741   0.832   6.162  0.0873 -0.0186  0.4742
 2948TIP3    H130259   6.779   0.825   6.250  0.9685  0.4663  0.1372
 2948TIP3    H230260   6.801   0.890   6.115 -2.6064  3.1185  0.7966
 2949TIP3   OH230261   4.964   6.585   3.730 -0.5686  0.5363 -0.0997
 2949TIP3    H130262   5.017   6.665   3.734  0.8633 -0.2900 -1.6450
 2949TIP3    H230263   5.000   6.528   3.798 -1.1194  0.9217  0.5191
 2950TIP3   OH230264   6.783   1.501   2.793 -0.1084  0.3368 -0.4942
 2950TIP3    H130265   6.696   1.485   2.756  0.1285  0.3944 -1.0872
 2950TIP3    H230266   6.804   1.421   2.841 -1.4654  1.2055  1.6148
 2951TIP3   OH230267   3.104   6.392   0.325  0.0917  0.5349 -0.4471
 2951TIP3    H130268   3.129   6.480   0.297  1.2944  0.5670  0.6815
 2951TIP3    H230269   3.028   6.371   0.272  0.4576  1.8213 -1.5139
 2952TIP3   OH230270   1.053   5.158   0.220  0.3035  0.2586  0.2587
 2952TIP3    H130271   0.981   5.167   0.283 -1.3356 -0.8072 -1.4304
 2952TIP3    H230272   1.032   5.220   0.150  2.6068  2.1239  1.1487
 2953TIP3   OH230273   0.620   6.359   3.347  0.1282  0.6257  0.3378
 2953TIP3    H130274   0.586   6.270   3.341 -0.5222  0.8610  0.4851
 2953TIP3    H230275   0.652   6.366   3.437 -0.7785  0.8750  0.6477
 2954TIP3   OH230276   1.031   6.183   1.075 -0.3247 -0.5359  0.6285
 2954TIP3    H130277   0.962   6.242   1.045  0.9208 -1.0329 -3.5365
 2954TIP3    H230278   1.100   6.242   1.107 -1.4759  0.0411  2.0965
 2955TIP3   OH230279   0.416   5.348  14.394  0.0543  0.7185 -0.5214
 2955TIP3    H130280   0.505   5.376  14.372 -0.0914  2.7677  1.4051
 2955TIP3    H230281   0.425   5.304  14.478 -0.2506 -2.2525 -1.9601
 2956TIP3   OH230282   3.966   4.143  14.524 -0.1385 -0.6205  0.0610
 2956TIP3    H130283   4.000   4.180  14.605 -1.2899  0.6617 -0.0409
 2956TIP3    H230284   4.042   4.099  14.485  1.4311  2.1118 -0.1018
 2957TIP3   OH230285   5.931   4.329   3.665 -0.4096  0.5291  0.1226
 2957TIP3    H130286   6.002   4.390   3.647 -1.6096  1.4651 -1.6014
 2957TIP3    H230287   5.939   4.263   3.596  0.9178 -1.3512  2.0057
 2958TIP3   OH230288   4.086   5.378  13.035  0.3818  0.4731  0.2652
 2958TIP3    H130289   4.054   5.455  13.082 -0.3054 -0.0693  0.6816
 2958TIP3    H230290   4.008   5.327  13.015  0.5942  0.9754 -1.9839
 2959TIP3   OH230291   2.965   1.671  16.121 -0.1001  0.2794 -0.2249
 2959TIP3    H130292   2.902   1.742  16.106  0.0771  0.9761  2.0596
 2959TIP3    H230293   3.010   1.661  16.037 -1.0140  2.0117 -0.9611
 2960TIP3   OH230294   4.144   5.575   5.810  0.7477 -0.2230  0.3092
 2960TIP3    H130295   4.083   5.589   5.737  1.0991  0.0309  0.0628
 2960TIP3    H230296   4.184   5.660   5.824  0.6428 -0.2619  0.8368
 2961TIP3   OH230297   4.297   0.610   4.021 -0.2524 -0.4676 -0.0948
 2961TIP3    H130298   4.212   0.623   3.978 -0.6741  0.2370  0.9330
 2961TIP3    H230299   4.282   0.535   4.079  0.0015 -0.7271 -0.3656
 2962TIP3   OH230300   0.968   1.075  12.955  0.5391 -0.4170  0.1884
 2962TIP3    H130301   0.899   1.142  12.960  0.8488 -0.0477 -0.3948
 2962TIP3    H230302   0.983   1.049  13.046 -0.7438 -0.8823  0.2749
 2963TIP3   OH230303   2.317   5.594   6.516 -0.4550 -0.5589  0.4413
 2963TIP3    H130304   2.233   5.634   6.535 -1.0843 -1.0780 -1.1620
 2963TIP3    H230305   2.296   5.517   6.464  1.0567 -0.0797 -0.9277
 2964TIP3   OH230306   2.688   5.367   6.160  0.0745  0.3306  0.6436
 2964TIP3    H130307   2.748   5.296   6.185  2.2308  0.9783 -2.3779
 2964TIP3    H230308   2.684   5.423   6.238  2.4383 -0.4065  1.3529
 2965TIP3   OH230309   3.256   2.535  16.377  0.1245 -0.3965 -0.5042
 2965TIP3    H130310   3.207   2.570  16.303  0.4091 -0.1895 -0.5966
 2965TIP3    H230311   3.189   2.511  16.441 -0.2485 -2.6966 -1.7353
 2966TIP3   OH230312   2.513   6.197   2.288  0.0230  0.2963 -0.1524
 2966TIP3    H130313   2.502   6.215   2.195 -0.0579  0.2941 -0.1432
 2966TIP3    H230314   2.483   6.107   2.300 -0.4126  0.4540 -0.0424
 2967TIP3   OH230315   2.684   0.508  14.475 -0.4411  0.4603  0.2562
 2967TIP3    H130316   2.641   0.495  14.391  1.2872 -0.7241 -0.4887
 2967TIP3    H230317   2.613   0.515  14.538 -1.7346 -0.3594 -1.0772
 2968TIP3   OH230318   0.151   0.425  16.592  0.1688  0.6741 -0.5956
 2968TIP3    H130319   0.062   0.438  16.559 -0.8422 -0.4020  1.5944
 2968TIP3    H230320   0.187   0.356  16.536 -0.4651  0.9451 -1.3453
 2969TIP3   OH230321   4.781   5.275  12.005 -0.8418  0.0134 -0.4147
 2969TIP3    H130322   4.869   5.239  11.998 -1.6774 -1.7806 -2.6832
 2969TIP3    H230323   4.733   5.213  12.060 -0.1050  2.2887  2.9074
 2970TIP3   OH230324   2.853   0.489  10.323 -0.0306 -0.0081 -0.3133
 2970TIP3    H130325   2.817   0.480  10.411  0.4923  0.5425 -0.0424
 2970TIP3    H230326   2.816   0.415  10.275  0.7140 -1.0653  0.7165
 2971TIP3   OH230327   3.351   3.014   0.242 -0.4888 -0.3728  0.0904
 2971TIP3    H130328   3.428   3.059   0.208 -0.3653 -1.1328 -0.6490
 2971TIP3    H230329   3.373   2.995   0.333 -0.0360 -0.0854  0.0446
 2972TIP3   OH230330   3.043   6.747  16.408 -0.4179  0.1890  0.4319
 2972TIP3    H130331   2.982   6.716  16.341  0.3264 -0.2482 -0.0519
 2972TIP3    H230332   3.015   6.837  16.426 -0.9269  0.1438 -0.1151
 2973TIP3   OH230333   5.314   3.052  13.093  0.2116 -0.4248  0.2062
 2973TIP3    H130334   5.349   2.989  13.156  0.1136  0.3058  0.9956
 2973TIP3    H230335   5.376   3.124  13.094  0.8082 -0.8814 -1.3661
 2974TIP3   OH230336   4.912   2.099   4.894  0.1675  0.0904 -0.0537
 2974TIP3    H130337   4.843   2.156   4.929 -0.9902 -0.7465 -0.9304
 2974TIP3    H230338   4.886   2.083   4.803  0.2512 -2.1496  0.2901
 2975TIP3   OH230339   1.921   6.713   2.114 -0.7355 -0.2449  0.2522
 2975TIP3    H130340   1.855   6.777   2.091  0.5775  0.7462 -0.8117
 2975TIP3    H230341   1.998   6.765   2.137  0.8509 -1.4208 -2.1853
 2976TIP3   OH230342   4.924   0.362   2.440 -0.1195  0.3413  0.1138
 2976TIP3    H130343   4.951   0.444   2.480  0.1062  1.0296 -1.3959
 2976TIP3    H230344   5.001   0.305   2.447  0.0247  0.5655  0.3451
 2977TIP3   OH230345   3.095   1.806  16.851 -0.1466 -0.3723 -0.2245
 2977TIP3    H130346   3.128   1.719  16.872 -1.2358 -1.0302 -1.2016
 2977TIP3    H230347   3.121   1.820  16.760 -0.4092  0.1166 -0.2235
 2978TIP3   OH230348   3.480   0.372   1.894  0.4465  0.0267 -0.2621
 2978TIP3    H130349   3.545   0.442   1.906  1.3248 -0.4610 -2.0558
 2978TIP3    H230350   3.487   0.319   1.973  0.4239  1.4277  0.7063
 2979TIP3   OH230351   2.384   3.523   4.232 -0.5443  0.5541  0.8680
 2979TIP3    H130352   2.371   3.526   4.327  0.3717  1.7117  0.9770
 2979TIP3    H230353   2.341   3.443   4.204  2.8695 -2.1358  2.8523
 2980TIP3   OH230354   5.102   2.678  13.149  0.2201  0.6107  0.1040
 2980TIP3    H130355   5.036   2.744  13.170 -1.1822 -0.5964 -0.4211
 2980TIP3    H230356   5.098   2.670  13.054  0.0805 -0.5272  0.2027
 2981TIP3   OH230357   3.753   1.141   5.389 -0.6255  0.4147  0.5635
 2981TIP3    H130358   3.803   1.113   5.466 -1.7250 -1.4311  0.6362
 2981TIP3    H230359   3.774   1.076   5.322 -2.5174 -0.1106  0.4507
 2982TIP3   OH230360   0.227   0.495   5.936  0.0748 -0.1326 -0.1662
 2982TIP3    H130361   0.308   0.471   5.892  0.5854  0.8621  0.1928
 2982TIP3    H230362   0.158   0.452   5.887  0.8739 -1.4803 -0.1178
 2983TIP3   OH230363   5.993   1.365   2.130  0.2238  0.0551 -0.0508
 2983TIP3    H130364   5.985   1.429   2.059  1.6736  1.9808  1.4616
 2983TIP3    H230365   5.924   1.389   2.192  1.0321  0.4632  0.7152
 2984TIP3   OH230366   1.378   0.669  16.933 -0.0276 -0.1371  0.1326
 2984TIP3    H130367   1.383   0.575  16.948  3.2007  0.2276  1.6641
 2984TIP3    H230368   1.395   0.709  17.018 -0.4021  1.8521 -0.6803
 2985TIP3   OH230369   6.670   6.266  12.278 -0.5639  0.9912  0.4476
 2985TIP3    H130370   6.680   6.284  12.371 -1.3391  0.4351  0.6428
 2985TIP3    H230371   6.585   6.304  12.254 -0.9962 -0.0553  0.2840
 2986TIP3   OH230372   1.059   2.599   3.857 -0.6863  0.2212  0.4681
 2986TIP3    H130373   1.020   2.569   3.940 -0.8097 -0.5632  0.1347
 2986TIP3    H230374   0.988   2.590   3.793 -0.0346 -1.0317 -0.1060
 2987TIP3   OH230375   6.165   0.713  14.359  0.0510 -0.1472  0.6559
 2987TIP3    H130376   6.084   0.666  14.378 -0.5632  0.9416  0.8018
 2987TIP3    H230377   6.144   0.766  14.282  1.1944 -1.2481 -0.4532
 2988TIP3   OH230378   1.540   4.634  12.216 -0.4088 -0.0121  0.0876
 2988TIP3    H130379   1.610   4.569  12.205  0.9517  1.5083 -0.4047
 2988TIP3    H230380   1.540   4.653  12.310  0.2643  0.4493 -0.0051
 2989TIP3   OH230381   5.253   1.874   5.442  0.0342  0.3195 -0.2931
 2989TIP3    H130382   5.171   1.827   5.458 -0.0740  0.6486  0.1125
 2989TIP3    H230383   5.290   1.830   5.365  0.4477 -1.1336  0.7146
 2990TIP3   OH230384   2.851   4.664  15.230  0.3957 -0.5612 -0.0299
 2990TIP3    H130385   2.943   4.670  15.253 -0.0028 -0.2506  1.5605
 2990TIP3    H230386   2.808   4.635  15.311 -1.1531  1.3581 -0.1304
 2991TIP3   OH230387   0.425   0.876   3.190 -0.1162 -0.1846  0.8230
 2991TIP3    H130388   0.484   0.818   3.141  1.1281  1.2892  0.5419
 2991TIP3    H230389   0.337   0.843   3.170  0.3941 -0.1201 -1.7632
 2992TIP3   OH230390   6.070   2.235   1.254  0.1946  0.0524  0.1143
 2992TIP3    H130391   6.098   2.146   1.231  0.4230 -0.1094  0.9701
 2992TIP3    H230392   6.137   2.265   1.316  0.8643  1.3353 -1.1911
 2993TIP3   OH230393   2.079   0.911   0.835 -0.1561  0.5617 -0.1279
 2993TIP3    H130394   2.097   1.005   0.829  0.7125  0.3274 -1.3438
 2993TIP3    H230395   2.014   0.904   0.904  0.1231  2.0168  0.3042
 2994TIP3   OH230396   0.794   0.286   2.343 -0.3271  0.0054  0.1427
 2994TIP3    H130397   0.812   0.331   2.260 -2.5053 -1.3651 -1.1313
 2994TIP3    H230398   0.877   0.246   2.367  0.2586  0.1613 -1.5442
 2995TIP3   OH230399   6.472   5.852   0.526  0.4735  0.1210 -0.0035
 2995TIP3    H130400   6.493   5.883   0.614 -0.9348  0.1649  0.3326
 2995TIP3    H230401   6.386   5.890   0.507  0.5312 -0.3151 -1.1916
 2996TIP3   OH230402   4.602   3.029   5.797  0.2418  0.1400 -0.3289
 2996TIP3    H130403   4.541   2.980   5.742  0.3594  0.6460 -0.9218
 2996TIP3    H230404   4.676   2.969   5.809  1.2030  0.8293 -2.5938
 2997TIP3   OH230405   5.192   2.587   1.921  0.1486  1.4538 -0.0203
 2997TIP3    H130406   5.179   2.494   1.941  1.6298  1.2051 -0.2056
 2997TIP3    H230407   5.133   2.604   1.848  0.6734  0.3892 -0.7047
 2998TIP3   OH230408   5.180   1.777  15.653  0.1653  0.0327  0.0214
 2998TIP3    H130409   5.168   1.697  15.704  0.7973  0.0387  0.1887
 2998TIP3    H230410   5.275   1.785  15.643  0.0387 -0.0659 -1.3277
 2999TIP3   OH230411   4.694   2.837  15.011  0.1569  0.1264 -0.0021
 2999TIP3    H130412   4.784   2.835  15.044  0.0654 -1.5032  0.1845
 2999TIP3    H230413   4.640   2.857  15.087  0.1876 -0.8424  0.2688
 3000TIP3   OH230414   3.091   3.119   0.222  0.1130  0.2541 -0.0606
 3000TIP3    H130415   3.096   3.210   0.193  0.9489  0.1471 -0.2725
 3000TIP3    H230416   3.182   3.095   0.240 -0.0406 -0.7030 -0.5380
 3001TIP3   OH230417   4.359   3.090   6.359 -0.1362  0.2504 -0.1938
 3001TIP3    H130418   4.312   3.167   6.328 -0.5039 -0.2030 -0.7760
 3001TIP3    H230419   4.352   3.093   6.454 -0.7542  0.5499 -0.2503
 3002TIP3   OH230420   2.148   3.623  12.043  0.3893  0.1334  0.3320
 3002TIP3    H130421   2.150   3.612  12.138  0.1039 -2.3123  0.0662
 3002TIP3    H230422   2.231   3.667  12.023  0.2208  1.1493  1.7487
 3003TIP3   OH230423   2.846   0.849  11.966 -0.5249 -0.0692 -0.1023
 3003TIP3    H130424   2.929   0.891  11.946  1.4995 -3.7190  0.1969
 3003TIP3    H230425   2.795   0.856  11.886  1.0067  0.1042 -1.0806
 3004TIP3   OH230426   2.577   0.244  10.948  0.1043 -0.5218  0.2656
 3004TIP3    H130427   2.548   0.248  11.039 -0.6494  0.5573 -0.0122
 3004TIP3    H230428   2.538   0.162  10.915 -2.1489  0.5823  0.0860
 3005TIP3   OH230429   3.778   0.836  17.225 -0.6286  0.2626  0.1545
 3005TIP3    H130430   3.821   0.871  17.147  0.7302 -0.6151  0.5091
 3005TIP3    H230431   3.696   0.886  17.230  0.0936  1.5904 -0.8064
 3006TIP3   OH230432   3.052   5.706   6.129  0.2687 -0.4025 -0.1639
 3006TIP3    H130433   3.134   5.739   6.165  0.5234 -1.0723 -0.1305
 3006TIP3    H230434   3.064   5.710   6.034  1.2546 -2.7187 -0.1768
 3007TIP3   OH230435   0.373   4.697  11.624  0.6187  0.2591  0.0515
 3007TIP3    H130436   0.410   4.611  11.605 -0.3687 -0.3582  0.8761
 3007TIP3    H230437   0.444   4.758  11.607  1.2050 -0.6801 -0.9581
 3008TIP3   OH230438   0.309   1.942  14.682 -0.0624 -0.3379  0.1492
 3008TIP3    H130439   0.378   1.876  14.684 -0.0547 -0.4122 -1.6799
 3008TIP3    H230440   0.286   1.955  14.774  2.8271  0.1727  0.8689
 3009TIP3   OH230441   2.023   3.651   2.829 -0.1994  0.0154 -0.1320
 3009TIP3    H130442   2.052   3.607   2.749 -1.1867 -2.1374  0.6573
 3009TIP3    H230443   1.971   3.585   2.875 -0.4175  1.5304  1.8465
 3010TIP3   OH230444   4.944   5.230   0.776 -0.4463  0.2639 -0.0955
 3010TIP3    H130445   4.977   5.161   0.718 -2.7370 -0.1326 -1.0307
 3010TIP3    H230446   4.900   5.183   0.847  0.4565  0.7566  0.7900
 3011TIP3   OH230447   6.234   1.234   0.382  0.1502 -0.2794  0.4129
 3011TIP3    H130448   6.250   1.302   0.448 -1.1584 -0.0564  0.5116
 3011TIP3    H230449   6.297   1.254   0.312  1.1815 -0.1998  1.3484
 3012TIP3   OH230450   2.524   3.081   4.017 -0.2620 -0.0783 -0.1199
 3012TIP3    H130451   2.596   3.115   4.070  0.1445 -2.6387  1.0037
 3012TIP3    H230452   2.553   3.092   3.927 -1.1362  4.7323  0.0470
 3013TIP3   OH230453   4.807   6.057  13.403  0.1686 -0.1123  0.2131
 3013TIP3    H130454   4.804   6.122  13.333 -0.7192  4.2255  4.0019
 3013TIP3    H230455   4.724   6.067  13.448  0.6572 -2.8801  1.8394
 3014TIP3   OH230456   2.076   3.315   5.614  0.3003 -0.5689  0.0102
 3014TIP3    H130457   2.016   3.377   5.655  0.1312  0.8614 -2.3452
 3014TIP3    H230458   2.151   3.368   5.588  0.4679 -1.4740 -1.3752
 3015TIP3   OH230459   6.509   6.704   2.226 -0.0012 -0.3142  0.5093
 3015TIP3    H130460   6.428   6.678   2.270  0.9486  1.7206  3.6725
 3015TIP3    H230461   6.577   6.651   2.268  0.9196  1.6060  1.5126
 3016TIP3   OH230462   4.345   2.243  13.432  0.4123  0.4625 -0.0889
 3016TIP3    H130463   4.330   2.188  13.510  2.2575  0.7687  0.5034
 3016TIP3    H230464   4.440   2.252  13.428  0.2107  2.0532 -1.2922
 3017TIP3   OH230465   0.606   5.993   0.560 -0.4524 -0.1821 -0.3964
 3017TIP3    H130466   0.579   5.979   0.469  1.9937 -0.6575 -1.0693
 3017TIP3    H230467   0.699   6.013   0.555 -0.2517 -0.3702  2.0397
 3018TIP3   OH230468   0.267   3.663  12.113  0.2785  0.1218 -0.1639
 3018TIP3    H130469   0.194   3.608  12.085 -1.2616  2.0441  0.0413
 3018TIP3    H230470   0.328   3.660  12.039 -0.0093 -1.4009 -0.3707
 3019TIP3   OH230471   4.472   1.298  14.954 -0.3458 -0.2597 -0.2373
 3019TIP3    H130472   4.482   1.204  14.941 -0.0297 -0.0093 -1.9081
 3019TIP3    H230473   4.430   1.306  15.040 -1.8779 -1.9880 -0.7951
 3020TIP3   OH230474   1.327   1.555   1.504 -0.3808 -0.0794  0.0121
 3020TIP3    H130475   1.406   1.559   1.558 -0.5900 -0.2169  0.3323
 3020TIP3    H230476   1.356   1.512   1.423  0.3495  1.8009 -0.7589
 3021TIP3   OH230477   3.518   2.754  11.794  0.3158  0.1275 -0.0529
 3021TIP3    H130478   3.502   2.667  11.830 -1.2787  0.8802  1.1144
 3021TIP3    H230479   3.612   2.769  11.808  0.0310 -0.2203  2.4595
 3022TIP3   OH230480   6.672   3.776  14.551 -0.1224  0.1639 -0.2300
 3022TIP3    H130481   6.727   3.853  14.547 -0.3784  0.3903  0.5096
 3022TIP3    H230482   6.583   3.810  14.565 -0.2037 -0.2684  0.3199
 3023TIP3   OH230483   5.408   1.996  13.432  0.2395 -0.1767 -0.3159
 3023TIP3    H130484   5.487   1.944  13.418 -0.7107 -1.5319 -0.7335
 3023TIP3    H230485   5.342   1.956  13.375 -0.6349  1.2114 -0.3091
 3024TIP3   OH230486   5.001   1.430   2.401 -0.2905 -0.2591  0.0618
 3024TIP3    H130487   4.913   1.420   2.439 -1.0838  1.2492 -1.3154
 3024TIP3    H230488   5.031   1.340   2.388 -0.6545 -0.8235  2.6932
 3025TIP3   OH230489   5.304   6.228   6.013 -0.1560 -0.6191 -0.4858
 3025TIP3    H130490   5.340   6.189   6.092 -1.6123  1.5488  1.3159
 3025TIP3    H230491   5.215   6.255   6.037 -1.8263 -2.7819 -3.8051
 3026TIP3   OH230492   0.919   0.759   3.317  0.1867  0.1171  0.0645
 3026TIP3    H130493   0.840   0.800   3.354  0.1583  0.7614 -0.6975
 3026TIP3    H230494   0.886   0.704   3.246  0.4274  0.3813 -0.2498
 3027TIP3   OH230495   5.271   4.972  12.113 -0.1081  0.1324 -0.5371
 3027TIP3    H130496   5.230   5.009  12.192 -1.4773  0.0281 -1.1760
 3027TIP3    H230497   5.310   4.890  12.142  1.6617  1.3328  0.5778
 3028TIP3   OH230498   1.804   0.973   4.781 -0.0121 -0.5330  0.7795
 3028TIP3    H130499   1.816   0.879   4.764  0.9239 -0.0816 -1.1794
 3028TIP3    H230500   1.734   0.976   4.847  1.4511 -2.6813  2.5252
 3029TIP3   OH230501   1.736   4.142   0.352 -0.7887 -1.0230  0.3514
 3029TIP3    H130502   1.831   4.137   0.340 -0.6819  0.3739  0.5353
 3029TIP3    H230503   1.724   4.209   0.419 -2.0110  0.3464 -1.2061
 3030TIP3   OH230504   4.471   0.413   4.998  0.0357 -0.3625 -0.0924
 3030TIP3    H130505   4.497   0.490   5.048 -1.2425  0.0004  0.0241
 3030TIP3    H230506   4.417   0.362   5.058 -1.6544  0.1614 -1.1356
 3031TIP3   OH230507   1.322   0.419  17.034 -0.1409 -0.6770  1.0729
 3031TIP3    H130508   1.308   0.334  16.994 -1.0721 -0.5481  1.1346
 3031TIP3    H230509   1.348   0.399  17.124 -0.7291 -0.8793  1.1969
 3032TIP3   OH230510   5.810   5.334  11.545 -0.0130  0.0701 -0.5206
 3032TIP3    H130511   5.734   5.284  11.513  0.3086 -0.1475 -0.9434
 3032TIP3    H230512   5.775   5.422  11.559 -0.4688 -0.1528 -0.2225
 3033TIP3   OH230513   4.519   6.181  16.545 -0.3087  0.1166  0.1860
 3033TIP3    H130514   4.479   6.246  16.486  0.7765  0.0338 -0.6644
 3033TIP3    H230515   4.456   6.109  16.548  0.3411 -0.5963 -2.2032
 3034TIP3   OH230516   0.547   4.637  13.989 -0.5714 -0.1175 -0.8965
 3034TIP3    H130517   0.495   4.654  13.911 -2.4508 -1.3777  0.0309
 3034TIP3    H230518   0.514   4.553  14.021 -0.6073  0.9189  1.8807
 3035TIP3   OH230519   1.118   3.414  13.889 -0.1234  0.0098  0.1857
 3035TIP3    H130520   1.037   3.376  13.856  1.1392 -1.3121 -1.4512
 3035TIP3    H230521   1.101   3.509  13.890 -1.2924 -0.1698 -1.2084
 3036TIP3   OH230522   0.197   5.453  14.069 -0.6353 -0.1055  0.5180
 3036TIP3    H130523   0.213   5.420  13.981 -0.8761  0.1284  0.3881
 3036TIP3    H230524   0.160   5.378  14.116 -0.1627 -0.3363  0.5229
 3037TIP3   OH230525   4.003   1.338   1.589 -0.4139 -0.1356  0.0075
 3037TIP3    H130526   3.957   1.367   1.668 -1.5622 -1.5435 -0.1158
 3037TIP3    H230527   4.015   1.244   1.601  0.0500 -0.2389 -1.1718
 3038TIP3   OH230528   5.322   1.917   2.776 -0.1859 -0.5872  0.3911
 3038TIP3    H130529   5.258   1.852   2.746 -1.9591  1.1449  0.2964
 3038TIP3    H230530   5.332   1.900   2.870 -2.1592  0.2193  0.7787
 3039TIP3   OH230531   6.704   4.022   1.751 -0.2369 -0.2385 -0.4468
 3039TIP3    H130532   6.764   3.976   1.809  0.6196  0.5638 -0.6905
 3039TIP3    H230533   6.642   3.954   1.723 -1.0371 -0.5017  1.8456
 3040TIP3   OH230534   0.851   5.780   1.579  0.6089  0.6408 -0.0320
 3040TIP3    H130535   0.825   5.851   1.521 -0.1034  1.6979  1.5618
 3040TIP3    H230536   0.770   5.754   1.623  0.8544 -1.1828 -0.6086
 3041TIP3   OH230537   1.562   4.329   5.212  0.4796 -0.3816 -0.2436
 3041TIP3    H130538   1.646   4.357   5.176  0.2957 -0.7631 -0.9796
 3041TIP3    H230539   1.568   4.348   5.306  0.4705  1.8520 -0.6680
 3042TIP3   OH230540   4.926   3.879   3.328 -0.4290  0.2399  0.5642
 3042TIP3    H130541   4.903   3.970   3.349 -0.2444  0.4497 -0.1415
 3042TIP3    H230542   4.928   3.876   3.233 -0.8898 -0.6282  0.5834
 3043TIP3   OH230543   1.738   2.142  15.523  0.0531  0.4312  0.1200
 3043TIP3    H130544   1.671   2.162  15.588 -0.4791 -1.9285  0.3333
 3043TIP3    H230545   1.733   2.215  15.460 -0.9236  1.6003  1.5164
 3044TIP3   OH230546   3.695   3.185   5.137 -0.5826 -0.1475 -0.7929
 3044TIP3    H130547   3.652   3.107   5.102 -0.4985 -0.5578  0.0100
 3044TIP3    H230548   3.634   3.219   5.202 -0.6066  0.4445 -1.1184
 3045TIP3   OH230549   0.182   4.983  11.897  0.8313 -0.6765  0.6918
 3045TIP3    H130550   0.165   5.077  11.903  0.1760 -0.6803 -0.7777
 3045TIP3    H230551   0.250   4.966  11.962  1.3858  0.9157  0.5421
 3046TIP3   OH230552   0.891   0.414   2.125  0.4158 -0.6045 -0.7074
 3046TIP3    H130553   0.973   0.410   2.077  1.2563  1.3007  0.4952
 3046TIP3    H230554   0.833   0.464   2.067  0.1516 -1.7596 -1.4596
 3047TIP3   OH230555   0.667   0.124   1.989  0.1759 -0.3315 -0.5206
 3047TIP3    H130556   0.641   0.177   2.064  1.0594 -1.4927  0.6361
 3047TIP3    H230557   0.714   0.050   2.027  0.1162 -1.2553 -2.1850
 3048TIP3   OH230558   3.262   4.757  17.017  0.4293  0.4315 -0.3846
 3048TIP3    H130559   3.334   4.805  16.977 -0.1112 -0.2823 -2.2306
 3048TIP3    H230560   3.264   4.783  17.109  2.5748  0.9807 -0.5777
 3049TIP3   OH230561   3.270   1.171   1.647 -0.3256 -0.1747  0.0045
 3049TIP3    H130562   3.335   1.219   1.596 -0.9908 -0.1438 -0.8256
 3049TIP3    H230563   3.258   1.225   1.726  0.1929  0.1393 -0.1265
 3050TIP3   OH230564   5.006   4.661   1.871  0.0966  0.3583 -0.0342
 3050TIP3    H130565   4.946   4.730   1.843 -0.7948 -0.6918 -0.7369
 3050TIP3    H230566   4.955   4.607   1.931  0.2164 -0.7482 -0.9112
 3051TIP3   OH230567   5.381   0.289   6.848  0.5105 -0.9499  0.2578
 3051TIP3    H130568   5.320   0.298   6.775  0.7138  0.3181  0.2343
 3051TIP3    H230569   5.329   0.255   6.920 -0.2090  0.0810  0.2251
 3052TIP3   OH230570   0.226   0.901  15.030 -0.3037  0.5735 -0.5929
 3052TIP3    H130571   0.177   0.983  15.020  0.0852  1.1726  2.0833
 3052TIP3    H230572   0.158   0.834  15.038 -0.6259  0.6612 -2.3120
 3053TIP3   OH230573   5.137   0.298  12.642  0.3061 -0.4130  0.1006
 3053TIP3    H130574   5.061   0.244  12.622  0.6318 -1.1452  0.8084
 3053TIP3    H230575   5.121   0.380  12.596 -2.0432  0.3056  2.1036
 3054TIP3   OH230576   0.270   4.705  15.197  0.2040  0.7940 -0.3680
 3054TIP3    H130577   0.330   4.671  15.263 -0.2973  1.5112  0.4573
 3054TIP3    H230578   0.267   4.799  15.213 -0.9381  0.7990 -0.5650
 3055TIP3   OH230579   4.721   3.590   1.282  0.0150 -0.3264 -0.1561
 3055TIP3    H130580   4.631   3.562   1.301 -0.0318 -0.7625 -0.9912
 3055TIP3    H230581   4.756   3.617   1.367 -0.5931 -1.0577  0.3334
 3056TIP3   OH230582   0.425   6.202  17.150 -0.1891 -0.0892 -0.2033
 3056TIP3    H130583   0.402   6.260  17.077  0.0907 -0.2757 -0.4415
 3056TIP3    H230584   0.499   6.246  17.193 -1.3730  0.8409  0.9502
 3057TIP3   OH230585   3.402   5.038  12.939  0.5863  0.1729  0.9024
 3057TIP3    H130586   3.347   5.090  12.998 -0.5023  1.9492 -1.5713
 3057TIP3    H230587   3.351   4.959  12.922 -0.1935  0.7693  0.4357
 3058TIP3   OH230588   0.976   1.582   0.198 -0.2099  0.1994  0.4070
 3058TIP3    H130589   0.904   1.645   0.202 -0.4083 -0.0364  0.5476
 3058TIP3    H230590   0.945   1.506   0.247 -0.6574 -0.6833 -1.1803
 3059TIP3   OH230591   1.501   6.526   3.336  1.0151  0.1808 -0.2800
 3059TIP3    H130592   1.453   6.478   3.403 -0.6362  1.2542 -0.6562
 3059TIP3    H230593   1.586   6.484   3.333  1.2738  0.3250  2.7604
 3060TIP3   OH230594   4.347   5.244   5.773  0.0890  0.3171  0.2100
 3060TIP3    H130595   4.329   5.318   5.715  0.7488  1.1252  1.0214
 3060TIP3    H230596   4.355   5.283   5.860 -1.9711 -1.0201  1.0386
 3061TIP3   OH230597   3.127   6.455  16.207 -0.1804 -0.5890 -0.1769
 3061TIP3    H130598   3.155   6.365  16.225 -1.3272 -0.6735  1.2055
 3061TIP3    H230599   3.187   6.509  16.258  0.9503 -0.5115 -1.5463
 3062TIP3   OH230600   6.372   4.743   0.765 -0.1776 -0.0234  0.7656
 3062TIP3    H130601   6.303   4.799   0.799  0.1724  0.7147  0.2826
 3062TIP3    H230602   6.384   4.771   0.674 -1.1903 -2.0650 -0.0241
 3063TIP3   OH230603   0.820   1.454  14.877  0.3731  0.4912  0.1198
 3063TIP3    H130604   0.763   1.427  14.949  1.7989 -1.1127  0.6620
 3063TIP3    H230605   0.900   1.484  14.919  0.9827  0.1308 -0.7628
 3064TIP3   OH230606   2.786   3.708  13.942 -0.1327  0.0729  0.5001
 3064TIP3    H130607   2.790   3.785  13.886  1.4230 -0.2335  0.1747
 3064TIP3    H230608   2.710   3.723  13.998 -0.4545  1.3549 -0.2580
 3065TIP3   OH230609   6.315   5.240   2.093  0.4149  0.4080 -0.4040
 3065TIP3    H130610   6.227   5.277   2.082  1.2539  2.3826 -0.7114
 3065TIP3    H230611   6.341   5.215   2.004  0.6286  0.9336 -0.4914
 3066TIP3   OH230612   1.331   3.367  14.827 -0.1035  0.5791 -0.2878
 3066TIP3    H130613   1.303   3.435  14.887  0.5569  1.0775 -0.5368
 3066TIP3    H230614   1.296   3.286  14.864 -1.4755  1.1274 -0.3642
 3067TIP3   OH230615   2.304   2.091   4.322 -0.2643  0.2704 -0.6346
 3067TIP3    H130616   2.399   2.090   4.310 -0.1941  0.9717 -0.1366
 3067TIP3    H230617   2.271   2.151   4.255 -0.2995  0.5163 -0.3975
 3068TIP3   OH230618   5.780   5.706  13.621 -0.0565  0.2745  0.5076
 3068TIP3    H130619   5.827   5.672  13.697  0.8708  1.1392  0.3253
 3068TIP3    H230620   5.725   5.777  13.655  0.5708  0.8497  0.3301
 3069TIP3   OH230621   3.595   0.839   1.149  0.3006 -0.1468  0.1937
 3069TIP3    H130622   3.591   0.920   1.097  0.8936  1.2043  2.1852
 3069TIP3    H230623   3.537   0.778   1.104 -2.1025  2.1928  0.0151
 3070TIP3   OH230624   5.590   3.343  15.344 -0.0848 -0.0537 -0.1481
 3070TIP3    H130625   5.649   3.275  15.312  0.8432  0.8004 -0.2609
 3070TIP3    H230626   5.578   3.402  15.270 -1.2350 -0.3059 -0.1809
 3071TIP3   OH230627   0.890   2.490   5.175  0.2739 -0.0459  0.5579
 3071TIP3    H130628   0.862   2.572   5.134 -0.2364 -0.5839 -0.1897
 3071TIP3    H230629   0.986   2.497   5.180  0.0752  1.5409  2.5677
 3072TIP3   OH230630   1.675   4.913   1.213 -0.2168  0.5408  0.9212
 3072TIP3    H130631   1.580   4.907   1.220 -0.1856 -0.8609  0.3572
 3072TIP3    H230632   1.690   4.975   1.142 -0.6744  2.0861  2.1338
 3073TIP3   OH230633   1.766   5.131  11.685  0.4461 -0.2004 -0.6791
 3073TIP3    H130634   1.707   5.072  11.731  1.8250 -0.5017  0.7603
 3073TIP3    H230635   1.749   5.217  11.724  0.5581 -0.1867 -0.6590
 3074TIP3   OH230636   4.144   6.483   4.081 -0.1754  0.2386  0.4251
 3074TIP3    H130637   4.061   6.475   4.034  0.9336 -0.7527 -1.4179
 3074TIP3    H230638   4.144   6.410   4.143  0.8125 -1.9015 -2.0005
 3075TIP3   OH230639   5.844   4.552  15.536 -0.2174 -0.0766 -0.1857
 3075TIP3    H130640   5.793   4.507  15.467 -1.1891  1.5364 -0.5341
 3075TIP3    H230641   5.779   4.599  15.587  0.7714  0.6773  0.3908
 3076TIP3   OH230642   4.791   2.884   1.508 -0.2298  0.4231  0.4036
 3076TIP3    H130643   4.810   2.879   1.602 -2.4763 -0.6456  0.8271
 3076TIP3    H230644   4.826   2.803   1.471 -0.6994  0.1402  0.5766
 3077TIP3   OH230645   5.992   4.140   3.438 -0.4790 -0.0763  0.1301
 3077TIP3    H130646   5.948   4.100   3.362 -1.5534  2.6821 -0.7643
 3077TIP3    H230647   6.085   4.135   3.417 -0.7642  0.5685 -1.3807
 3078TIP3   OH230648   6.405   2.063   3.943 -0.3268 -0.4112  0.0763
 3078TIP3    H130649   6.322   2.100   3.912 -0.3441 -0.8093 -0.3566
 3078TIP3    H230650   6.426   2.115   4.020 -0.5663  0.2316 -0.2812
 3079TIP3   OH230651   1.371   1.663   2.402  0.4964  0.0604 -0.1235
 3079TIP3    H130652   1.334   1.724   2.465  1.3075  0.9235 -0.4679
 3079TIP3    H230653   1.455   1.638   2.439  1.0348  0.6791 -0.9335
 3080TIP3   OH230654   5.938   5.407  15.441 -0.1961 -0.3735 -0.0270
 3080TIP3    H130655   5.890   5.325  15.452  0.9833 -1.0304  0.2787
 3080TIP3    H230656   6.027   5.381  15.418  0.0333  0.8334 -0.5748
 3081TIP3   OH230657   0.475   0.454   5.808  0.6211  0.2711  0.1432
 3081TIP3    H130658   0.567   0.436   5.794  0.3481 -0.1776 -1.1471
 3081TIP3    H230659   0.452   0.518   5.740  0.2139  1.0947  1.0480
 3082TIP3   OH230660   2.733   4.431  15.139 -0.3444 -0.1268  0.1402
 3082TIP3    H130661   2.819   4.433  15.179 -0.6830 -1.2921  0.9267
 3082TIP3    H230662   2.703   4.522  15.144  0.4025  0.0929  0.7926
 3083TIP3   OH230663   0.665   1.384  14.092  0.2561 -0.4318 -0.3973
 3083TIP3    H130664   0.675   1.333  14.172 -0.8296 -1.1793 -0.7201
 3083TIP3    H230665   0.572   1.405  14.088  0.8388  2.3581  0.1808
 3084TIP3   OH230666   0.611   2.989  12.052 -0.2959 -0.1066  0.2269
 3084TIP3    H130667   0.531   2.969  12.003  1.1078  0.5958 -2.3769
 3084TIP3    H230668   0.590   2.961  12.142 -3.4932  0.1470 -0.3577
 3085TIP3   OH230669   2.946   5.496  16.692 -0.4814  0.3186  0.0138
 3085TIP3    H130670   2.987   5.513  16.777  1.3982 -0.3451 -0.7483
 3085TIP3    H230671   2.918   5.405  16.697  0.3318  0.0421 -0.3495
 3086TIP3   OH230672   4.944   5.145  15.819  0.4559  0.1122  0.8465
 3086TIP3    H130673   5.028   5.166  15.780 -0.9620 -0.3177 -2.5798
 3086TIP3    H230674   4.941   5.050  15.823 -0.1355  0.1039  0.3334
 3087TIP3   OH230675   1.374   0.995  13.360  0.4375 -0.2312 -0.0703
 3087TIP3    H130676   1.341   0.909  13.385  1.7057 -0.4247  0.9651
 3087TIP3    H230677   1.296   1.051  13.359 -0.0729 -0.9089  1.3133
 3088TIP3   OH230678   2.385   0.073   4.211  0.0881 -0.4692  0.4846
 3088TIP3    H130679   2.350  -0.013   4.188 -0.0148 -0.8531  1.9883
 3088TIP3    H230680   2.339   0.134   4.154 -1.5314 -1.1881  0.9918
 3089TIP3   OH230681   2.165   5.183  13.633 -0.1503  0.1530  0.0850
 3089TIP3    H130682   2.168   5.143  13.720 -0.4011  0.9634  0.4689
 3089TIP3    H230683   2.153   5.109  13.573  1.5188 -0.5656  0.6119
 3090TIP3   OH230684   4.487   6.690  15.539 -0.4080 -0.4362  0.3964
 3090TIP3    H130685   4.532   6.774  15.539 -0.1161 -0.5918  0.5327
 3090TIP3    H230686   4.479   6.667  15.631 -0.1409 -0.7451  0.3418
 3091TIP3   OH230687   0.499   3.350  10.535  0.4297  0.0033  0.1229
 3091TIP3    H130688   0.581   3.395  10.557 -0.0965  1.0790 -0.1329
 3091TIP3    H230689   0.433   3.390  10.591 -0.5199  1.3052 -1.8392
 3092TIP3   OH230690   3.823   1.774  12.735  0.4178 -0.3322  0.1044
 3092TIP3    H130691   3.785   1.750  12.819 -0.1195 -0.0124 -0.0480
 3092TIP3    H230692   3.915   1.794  12.755  0.3095 -0.3330  0.6019
 3093TIP3   OH230693   3.111   0.416  14.244  0.1227  0.9041 -0.1419
 3093TIP3    H130694   3.085   0.410  14.153 -1.0822  2.0176  0.1065
 3093TIP3    H230695   3.036   0.380  14.293  0.8843  0.0303  0.3957
 3094TIP3   OH230696   0.970   4.776   0.429 -0.7054  0.1301  0.1770
 3094TIP3    H130697   0.891   4.722   0.423  0.4261 -1.3882 -1.4135
 3094TIP3    H230698   0.944   4.850   0.485 -3.7056  0.4803 -1.5696
 3095TIP3   OH230699   4.173   0.251  16.667  0.6486  0.2563 -0.2817
 3095TIP3    H130700   4.138   0.163  16.683  2.2399 -0.2435  0.4576
 3095TIP3    H230701   4.154   0.299  16.748  0.6806  0.3163 -0.3100
 3096TIP3   OH230702   0.097   0.566   1.603 -0.3718 -0.5650 -0.4460
 3096TIP3    H130703   0.167   0.629   1.623 -1.4836  0.7303 -0.5542
 3096TIP3    H230704   0.136   0.481   1.620  1.1051  0.1637 -0.0916
 3097TIP3   OH230705   3.876   4.344  16.795  0.2749  0.1503  0.3404
 3097TIP3    H130706   3.957   4.327  16.845  0.2885 -1.8863 -0.3175
 3097TIP3    H230707   3.806   4.331  16.859  0.3258 -1.7482  0.0379
 3098TIP3   OH230708   3.652   0.082   2.719  0.2732 -0.1174  0.7939
 3098TIP3    H130709   3.631   0.061   2.628  2.4543 -1.7431  0.6305
 3098TIP3    H230710   3.627   0.004   2.768 -0.3327  0.5195  1.5160
 3099TIP3   OH230711   0.480   3.840   0.069 -0.2305 -0.6405 -0.1789
 3099TIP3    H130712   0.534   3.913   0.098  1.1697 -1.6817 -0.1646
 3099TIP3    H230713   0.451   3.865  -0.019  2.2138 -1.1299 -1.1412
 3100TIP3   OH230714   3.741   2.700   0.700  0.3255  0.3221  0.4836
 3100TIP3    H130715   3.781   2.649   0.629  1.0759 -1.0916  1.8744
 3100TIP3    H230716   3.673   2.752   0.658  0.1528 -1.1797 -1.1195
 3101TIP3   OH230717   2.078   3.710  14.171  0.4270  0.3616 -0.3572
 3101TIP3    H130718   2.061   3.679  14.082 -0.5351 -0.6360  0.1556
 3101TIP3    H230719   2.118   3.635  14.215  0.0943  0.5619  0.2920
 3102TIP3   OH230720   2.292   2.352   1.975  0.1186 -0.1220  0.1040
 3102TIP3    H130721   2.291   2.349   1.879 -1.0167  0.0241  0.1032
 3102TIP3    H230722   2.363   2.292   2.000 -0.9259 -1.7762 -0.7724
 3103TIP3   OH230723   3.153   3.749  13.695  0.2581  0.6204 -0.0134
 3103TIP3    H130724   3.213   3.788  13.632 -0.2534 -1.2155 -1.6903
 3103TIP3    H230725   3.210   3.709  13.760  0.7991  1.8264  0.2739
 3104TIP3   OH230726   2.931   4.243   6.760 -0.1132  0.3228  0.0682
 3104TIP3    H130727   2.969   4.224   6.674 -0.1644  0.1603  0.0819
 3104TIP3    H230728   2.901   4.159   6.792 -1.3169  0.5846 -0.3407
 3105TIP3   OH230729   0.196   6.351   6.592  0.1767 -0.2370 -0.2816
 3105TIP3    H130730   0.143   6.390   6.523  0.0144  0.7081  0.3679
 3105TIP3    H230731   0.246   6.425   6.628  1.2835 -0.9632 -0.3072
 3106TIP3   OH230732   2.109   3.143  16.985 -0.0089  0.3633 -0.4063
 3106TIP3    H130733   2.079   3.155  16.895 -0.2797  0.6709 -0.2754
 3106TIP3    H230734   2.172   3.071  16.980 -1.8356 -1.2759 -0.4474
 3107TIP3   OH230735   0.044   3.993  14.537 -0.2949 -0.2817  0.5515
 3107TIP3    H130736   0.082   4.004  14.625  0.2594 -0.7401  0.3675
 3107TIP3    H230737   0.118   3.972  14.481 -0.6833 -0.2093  0.0057
 3108TIP3   OH230738   0.724   5.450  14.305 -0.2341 -0.0402  0.1552
 3108TIP3    H130739   0.732   5.539  14.270  1.9966 -0.8388 -1.5271
 3108TIP3    H230740   0.740   5.393  14.229 -0.5209 -1.8766  1.4343
 3109TIP3   OH230741   3.425   2.610  15.695  0.8391 -0.1872 -0.0905
 3109TIP3    H130742   3.453   2.533  15.745 -0.7363 -1.6709 -1.4301
 3109TIP3    H230743   3.360   2.652  15.751 -1.3747 -2.1847 -1.0457
 3110TIP3   OH230744   1.628   2.793   3.403  0.1094 -0.0740  0.1471
 3110TIP3    H130745   1.673   2.728   3.457 -1.4694 -1.5863 -0.3251
 3110TIP3    H230746   1.636   2.760   3.314  0.1555  0.9090 -0.2180
 3111TIP3   OH230747   2.779   5.226  16.470  0.2409 -0.0357  0.2541
 3111TIP3    H130748   2.854   5.274  16.437  0.6369 -0.6228  0.2917
 3111TIP3    H230749   2.777   5.247  16.564  0.1321  0.2759  0.1820
 3112TIP3   OH230750   1.708   1.797  11.906 -0.1187 -0.4545 -0.1882
 3112TIP3    H130751   1.632   1.796  11.849  0.3536  1.6364 -0.8875
 3112TIP3    H230752   1.679   1.843  11.985  0.9346  2.1258 -1.2563
 3113TIP3   OH230753   4.998   2.325  16.188 -0.4763 -0.0974  0.4039
 3113TIP3    H130754   4.950   2.283  16.116 -0.6719  0.5666  0.1368
 3113TIP3    H230755   5.040   2.401  16.147  0.4760 -0.4395  0.7212
 3114TIP3   OH230756   3.476   4.595  12.924  0.1618  0.5774  0.1954
 3114TIP3    H130757   3.504   4.528  12.987 -3.0739 -1.8480 -0.8047
 3114TIP3    H230758   3.453   4.670  12.978 -0.2930 -0.6340  1.7188
 3115TIP3   OH230759   4.519   5.955   2.333  0.0345 -0.5063  0.1941
 3115TIP3    H130760   4.567   6.025   2.288  0.6201 -0.7406  0.4511
 3115TIP3    H230761   4.547   5.961   2.424 -2.2131  0.8578  0.8200
 3116TIP3   OH230762   1.014   5.188   2.979  0.5174 -0.8057 -0.3751
 3116TIP3    H130763   0.988   5.252   3.045 -0.6584 -0.3383 -1.2852
 3116TIP3    H230764   0.932   5.159   2.939  1.3921  1.3189 -3.8971
 3117TIP3   OH230765   3.569   0.954   5.262  0.4991 -0.4045 -0.2673
 3117TIP3    H130766   3.513   0.901   5.319 -1.2253  0.3480 -1.2290
 3117TIP3    H230767   3.594   0.895   5.191  0.5402 -0.6234 -0.0701
 3118TIP3   OH230768   0.856   5.084   3.376 -0.6304 -0.1821  0.3023
 3118TIP3    H130769   0.933   5.031   3.356 -0.1737  1.3098 -1.9654
 3118TIP3    H230770   0.890   5.170   3.398 -1.6019  0.2148  0.2937
 3119TIP3   OH230771   2.271   5.533   2.905  0.5942 -0.9418 -0.3209
 3119TIP3    H130772   2.209   5.466   2.875 -1.7090  0.6353  0.7546
 3119TIP3    H230773   2.320   5.557   2.826 -1.7211 -0.6317 -1.7183
 3120TIP3   OH230774   4.817   2.235  14.673 -0.5549  0.2174 -0.2697
 3120TIP3    H130775   4.753   2.179  14.717 -0.3898 -0.0692 -0.3976
 3120TIP3    H230776   4.830   2.308  14.734 -1.0420  0.3029 -0.2634
 3121TIP3   OH230777   5.106   4.665  15.925 -0.0204 -0.2805 -0.0567
 3121TIP3    H130778   5.131   4.609  15.999 -0.6864 -0.3345  0.1326
 3121TIP3    H230779   5.024   4.627  15.893 -1.4879  1.6595  1.2413
 3122TIP3   OH230780   4.522   5.944   2.604 -0.4630  0.2008  0.0318
 3122TIP3    H130781   4.554   5.869   2.654  1.5524 -1.1198 -3.0668
 3122TIP3    H230782   4.433   5.958   2.636  0.3667 -1.2875  3.1190
 3123TIP3   OH230783   0.081   3.076   3.110 -0.0645  0.0725 -0.0133
 3123TIP3    H130784   0.085   3.039   3.198 -0.4157  2.8347  1.2113
 3123TIP3    H230785   0.003   3.037   3.071 -0.6693 -0.1153  1.3769
 3124TIP3   OH230786   0.940   3.491   1.503 -0.1052  0.0359  0.0642
 3124TIP3    H130787   0.969   3.401   1.490  0.8322  0.1772  1.0547
 3124TIP3    H230788   0.890   3.489   1.585  0.7777  0.5826  0.6344
 3125TIP3   OH230789   4.730   2.507   3.487 -0.3327 -0.1715  0.1603
 3125TIP3    H130790   4.654   2.524   3.543  0.3914  0.8715  0.8603
 3125TIP3    H230791   4.748   2.592   3.446  1.0532 -0.1587  0.7756
 3126TIP3   OH230792   0.209   4.979  15.308 -0.4953 -0.0712 -0.4605
 3126TIP3    H130793   0.144   4.913  15.333  0.2720 -0.9522 -0.7586
 3126TIP3    H230794   0.227   5.027  15.388 -1.6782  0.3390 -0.4184
 3127TIP3   OH230795   1.024   1.502  15.499  0.3822 -0.4777  0.9217
 3127TIP3    H130796   1.027   1.407  15.487  2.1234 -0.4438  1.0468
 3127TIP3    H230797   0.955   1.516  15.564 -1.6391 -1.4565 -0.9329
 3128TIP3   OH230798   2.221   4.911   4.381  0.2832 -0.6814 -0.2521
 3128TIP3    H130799   2.217   4.945   4.291  0.4874 -1.5592 -0.6039
 3128TIP3    H230800   2.299   4.951   4.418 -0.5983  0.8186  0.0167
 3129TIP3   OH230801   2.170   2.752  14.888 -0.2152 -0.0645 -0.0826
 3129TIP3    H130802   2.234   2.792  14.947  0.5371  2.9256 -2.7692
 3129TIP3    H230803   2.111   2.704  14.946  1.4288  1.3816  2.9400
 3130TIP3   OH230804   1.262   1.164   1.354  0.2475 -0.6159 -0.7809
 3130TIP3    H130805   1.290   1.158   1.446 -2.3984 -0.9608  0.0411
 3130TIP3    H230806   1.299   1.247   1.324 -0.0664  0.2218  1.0412
 3131TIP3   OH230807   5.540   5.350   1.523  0.1498 -0.1667  0.0748
 3131TIP3    H130808   5.505   5.435   1.550  1.0465  0.4049 -0.5357
 3131TIP3    H230809   5.471   5.313   1.467  0.1204  0.5355 -0.3609
 3132TIP3   OH230810   1.396   3.906  16.748 -0.4468  0.3773  0.3657
 3132TIP3    H130811   1.460   3.964  16.705 -1.5880  0.1329 -1.7114
 3132TIP3    H230812   1.330   3.966  16.782 -0.0770  0.4948  0.8916
 3133TIP3   OH230813   4.843   6.227  15.948 -0.4912 -0.0569 -0.1051
 3133TIP3    H130814   4.757   6.260  15.974 -0.0093  0.2196  1.1991
 3133TIP3    H230815   4.871   6.174  16.023  1.0643  0.9808  0.0692
 3134TIP3   OH230816   5.784   3.823   0.568 -0.3392  0.2756 -0.5715
 3134TIP3    H130817   5.798   3.763   0.642 -1.4525 -0.2585 -0.7893
 3134TIP3    H230818   5.707   3.789   0.523 -0.2359  1.1503 -1.4384
 3135TIP3   OH230819   4.389   2.397   5.004  0.4365 -0.4830 -0.3194
 3135TIP3    H130820   4.449   2.393   5.078 -0.7445 -2.5937  0.6078
 3135TIP3    H230821   4.376   2.305   4.980 -1.1658  0.0308 -1.4940
 3136TIP3   OH230822   2.244   0.282  11.367 -0.2881  0.0619 -0.1118
 3136TIP3    H130823   2.273   0.316  11.452  1.5806 -1.6402 -0.0440
 3136TIP3    H230824   2.162   0.235  11.387  1.0924 -1.8986  1.0866
 3137TIP3   OH230825   5.645   3.127   4.080  0.2981 -0.2756 -0.1443
 3137TIP3    H130826   5.658   3.194   4.013 -3.8172 -0.7245 -1.5590
 3137TIP3    H230827   5.576   3.071   4.044  1.6444 -3.6109  2.2516
 3138TIP3   OH230828   2.191   3.140  12.436  0.0565  0.4058  0.0714
 3138TIP3    H130829   2.247   3.205  12.394 -0.6056  1.0433  0.1642
 3138TIP3    H230830   2.224   3.134  12.526 -0.2977  1.1049  0.2524
 3139TIP3   OH230831   0.361   5.156  12.065 -0.3986  0.0014  0.8451
 3139TIP3    H130832   0.351   5.251  12.071 -0.9547 -0.0680  1.0096
 3139TIP3    H230833   0.442   5.144  12.015 -0.3483  0.5614  0.7866
 3140TIP3   OH230834   5.210   1.218   3.316 -0.0583 -0.0430 -0.1365
 3140TIP3    H130835   5.209   1.203   3.221 -0.7750 -2.4343  0.2073
 3140TIP3    H230836   5.302   1.211   3.340  0.2301  1.4350 -0.7693
 3141TIP3   OH230837   3.613   2.790   2.639  0.5329 -0.2501 -0.0700
 3141TIP3    H130838   3.680   2.816   2.701 -0.1564  0.3875  0.4143
 3141TIP3    H230839   3.636   2.700   2.615  1.7204  0.0630 -0.1451
 3142TIP3   OH230840   3.328   6.092  13.013 -0.0820 -0.2155  0.2403
 3142TIP3    H130841   3.394   6.111  12.946 -0.0414  1.0155  0.6269
 3142TIP3    H230842   3.375   6.102  13.096 -0.6527  0.2680  0.5057
 3143TIP3   OH230843   5.515   2.167  16.822  0.1364 -0.5328  0.7625
 3143TIP3    H130844   5.586   2.107  16.798 -0.4920 -1.1609  0.4623
 3143TIP3    H230845   5.537   2.249  16.779 -0.1954 -1.2169 -0.7153
 3144TIP3   OH230846   2.801   0.928  15.133 -0.2979 -0.2820  0.3517
 3144TIP3    H130847   2.786   1.021  15.147  0.1069 -0.5450  2.6295
 3144TIP3    H230848   2.714   0.888  15.142 -0.3238 -0.2347  0.3085
 3145TIP3   OH230849   0.354   0.496   4.692  0.6270  0.1795  0.1263
 3145TIP3    H130850   0.357   0.544   4.775 -0.2091  0.3046  0.0883
 3145TIP3    H230851   0.306   0.415   4.712  3.8130 -1.6816  0.6985
 3146TIP3   OH230852   4.645   1.694  13.020 -0.2845 -0.0965  0.3284
 3146TIP3    H130853   4.691   1.613  12.998  0.0033  0.0589  0.3531
 3146TIP3    H230854   4.714   1.761  13.022 -0.5175  0.1448  0.3244
 3147TIP3   OH230855   6.649   2.770  12.330  0.2352  0.1174 -0.4302
 3147TIP3    H130856   6.644   2.734  12.242  1.0892  0.6906 -0.7237
 3147TIP3    H230857   6.743   2.774  12.349  0.1122  1.2779 -0.0343
 3148TIP3   OH230858   6.489   2.456   5.140 -0.2912  0.5660  0.0177
 3148TIP3    H130859   6.463   2.371   5.104  0.4998 -0.3181  1.4998
 3148TIP3    H230860   6.517   2.437   5.230 -0.8972  2.5240  0.6449
 3149TIP3   OH230861   6.298   5.441   1.649 -0.5049 -0.2603  0.4694
 3149TIP3    H130862   6.341   5.514   1.603  0.6590 -1.7662 -0.9004
 3149TIP3    H230863   6.208   5.444   1.618 -0.5598  0.8640  0.7335
 3150TIP3   OH230864   2.075   6.516  14.392  0.7333 -0.0449 -0.1667
 3150TIP3    H130865   2.144   6.451  14.379  0.5296 -0.2660 -0.1304
 3150TIP3    H230866   2.119   6.600  14.378  1.4880 -0.0829  1.7160
 3151TIP3   OH230867   3.266   2.290  13.277  0.1482 -0.1586  0.0716
 3151TIP3    H130868   3.193   2.351  13.269  0.2111 -0.1818 -0.6898
 3151TIP3    H230869   3.328   2.333  13.337 -0.1675  0.1679  0.1593
 3152TIP3   OH230870   1.631   1.261   3.591  0.5536  0.0361 -0.4020
 3152TIP3    H130871   1.670   1.180   3.625  0.4125 -0.0899 -0.5335
 3152TIP3    H230872   1.696   1.329   3.609 -0.6401  0.4804  2.6025
 3153TIP3   OH230873   4.164   6.754   4.761 -0.3989  0.1989 -0.2852
 3153TIP3    H130874   4.241   6.710   4.798 -0.7667  0.3894  0.7224
 3153TIP3    H230875   4.120   6.686   4.710  1.4664  0.5895 -2.4805
 3154TIP3   OH230876   0.873   4.014   2.528  0.1615 -0.6683  0.2438
 3154TIP3    H130877   0.884   4.062   2.610  1.8866 -1.7399  0.6698
 3154TIP3    H230878   0.855   3.924   2.556 -0.9161 -0.7117 -0.5597
 3155TIP3   OH230879   4.504   0.022   0.006 -0.2388 -0.5563  0.6025
 3155TIP3    H130880   4.523   0.064   0.091  0.7934 -1.1534  0.6707
 3155TIP3    H230881   4.574   0.052  -0.052  0.1677 -1.7042  0.4877
 3156TIP3   OH230882   4.441   2.726   4.823 -0.7083  0.0191  0.3271
 3156TIP3    H130883   4.422   2.817   4.799 -0.4857 -0.3521 -1.3312
 3156TIP3    H230884   4.498   2.732   4.899  1.5580  1.3410 -1.4174
 3157TIP3   OH230885   5.055   1.697   1.055 -0.2056  0.6507 -0.1030
 3157TIP3    H130886   5.067   1.692   0.960 -0.2143  2.2156 -0.2085
 3157TIP3    H230887   5.062   1.791   1.075 -1.0878  0.4333  1.3207
 3158TIP3   OH230888   4.153   3.194  11.693 -0.3054 -0.6827 -0.1193
 3158TIP3    H130889   4.062   3.178  11.716 -0.7198  1.1444 -0.4337
 3158TIP3    H230890   4.167   3.140  11.615 -1.0964 -1.0038 -0.0441
 3159TIP3   OH230891   5.639   0.091  15.064  0.0441  0.4480 -0.7003
 3159TIP3    H130892   5.636   0.001  15.097 -1.9331  1.3289  1.6381
 3159TIP3    H230893   5.731   0.116  15.073  0.0594 -0.3015  1.5424
 3160TIP3   OH230894   6.445   0.141   6.177  0.2401 -0.5631  0.1688
 3160TIP3    H130895   6.539   0.156   6.165 -0.1327  0.7390 -1.3504
 3160TIP3    H230896   6.427   0.168   6.267  1.3366 -0.9551  0.5132
 3161TIP3   OH230897   2.354   2.741  14.526 -0.2875 -0.0679 -0.1149
 3161TIP3    H130898   2.326   2.657  14.562 -2.0844  0.6719  0.2330
 3161TIP3    H230899   2.433   2.720  14.477 -0.5598 -1.9196  0.1995
 3162TIP3   OH230900   1.297   2.511   1.703  0.2488 -0.6672 -0.0246
 3162TIP3    H130901   1.372   2.571   1.698  0.6462 -0.9574  2.1808
 3162TIP3    H230902   1.297   2.466   1.618  0.5761  1.6746 -1.3112
 3163TIP3   OH230903   2.139   0.790   2.731 -0.4138 -0.1742  0.1663
 3163TIP3    H130904   2.210   0.804   2.667 -1.5972  0.5266 -1.0255
 3163TIP3    H230905   2.177   0.732   2.796  0.9345 -0.6512 -1.0099
 3164TIP3   OH230906   5.638   0.110  15.658 -0.1267  0.3336  0.5830
 3164TIP3    H130907   5.663   0.058  15.581 -1.7780 -0.1138  0.3345
 3164TIP3    H230908   5.550   0.140  15.638  0.1586  1.8166  1.4867
 3165TIP3   OH230909   0.828   5.814   0.268  0.1577 -0.5079  0.5585
 3165TIP3    H130910   0.878   5.877   0.320  1.3641 -0.3078 -0.8223
 3165TIP3    H230911   0.882   5.798   0.191 -1.8952 -0.2910 -0.9830
 3166TIP3   OH230912   0.076   1.138  11.675 -0.5802 -0.1249  0.1972
 3166TIP3    H130913   0.141   1.208  11.678  1.3344 -1.8369  0.4594
 3166TIP3    H230914   0.092   1.095  11.591 -2.1457  0.1204 -0.2340
 3167TIP3   OH230915   1.000   0.962   3.936  0.6088 -0.0858  0.2055
 3167TIP3    H130916   1.070   0.969   4.001 -1.7164  0.7484  2.7011
 3167TIP3    H230917   0.952   0.883   3.961 -0.6821  0.5797 -0.1304
 3168TIP3   OH230918   5.232   2.735  14.665 -0.3765  0.0802  0.0742
 3168TIP3    H130919   5.269   2.822  14.680  1.8429 -1.1693  2.1654
 3168TIP3    H230920   5.300   2.687  14.618 -1.4348 -0.6758 -0.7324
 3169TIP3   OH230921   4.908   4.535  13.706 -0.1250  0.6152  0.0713
 3169TIP3    H130922   4.910   4.595  13.632 -1.0468  1.4773  0.7292
 3169TIP3    H230923   5.000   4.519  13.726  0.1622 -0.8754 -2.2159
 3170TIP3   OH230924   4.724   5.448  16.301  0.9431  0.0341  0.2587
 3170TIP3    H130925   4.680   5.531  16.283  2.6278  0.8520 -0.2231
 3170TIP3    H230926   4.664   5.381  16.269  0.8463  1.1999 -2.0908
 3171TIP3   OH230927   3.091   0.112  14.023  0.2754 -0.1879 -0.0725
 3171TIP3    H130928   3.155   0.076  14.084  1.0591 -0.7169 -1.1867
 3171TIP3    H230929   3.057   0.036  13.976 -0.0616  0.2467 -0.5447
 3172TIP3   OH230930   2.527   4.730  13.834  0.2227  0.3015  0.5976
 3172TIP3    H130931   2.511   4.637  13.821  0.3618  0.3480  0.0925
 3172TIP3    H230932   2.454   4.760  13.888 -0.5675  0.1933 -0.3993
 3173TIP3   OH230933   6.163   0.773   4.396 -0.3322  0.0509 -0.3291
 3173TIP3    H130934   6.244   0.736   4.360  0.0194 -0.2845  0.8042
 3173TIP3    H230935   6.102   0.772   4.322  0.4892 -0.3175 -1.0145
 3174TIP3   OH230936   5.783   6.420  13.315 -0.1016  0.3288  0.2197
 3174TIP3    H130937   5.874   6.447  13.303  0.4058 -1.1292  0.7283
 3174TIP3    H230938   5.787   6.353  13.383 -1.4867 -0.1835 -0.2008
 3175TIP3   OH230939   4.887   0.551   3.309 -0.1850 -0.0734 -0.1300
 3175TIP3    H130940   4.870   0.534   3.217 -0.1754 -0.5395 -0.0483
 3175TIP3    H230941   4.982   0.564   3.314 -0.0990 -0.7017 -0.0872
 3176TIP3   OH230942   1.570   2.742  13.984 -0.2362 -0.5281 -0.5086
 3176TIP3    H130943   1.562   2.659  14.031  0.6731 -0.2616  0.1367
 3176TIP3    H230944   1.589   2.718  13.894  0.4670 -1.0143 -0.2297
 3177TIP3   OH230945   2.360   1.502   0.528  0.5872  0.2741 -0.5003
 3177TIP3    H130946   2.388   1.415   0.500  0.5365  0.1483 -0.1562
 3177TIP3    H230947   2.265   1.498   0.531  0.5827  0.3541 -0.5268
 3178TIP3   OH230948   2.832   3.860  12.173 -0.3198  0.0496  0.0733
 3178TIP3    H130949   2.746   3.876  12.211 -0.1186  0.1408  0.4903
 3178TIP3    H230950   2.827   3.899  12.086 -0.0858  1.7177  0.7975
 3179TIP3   OH230951   4.708   4.647  13.224  0.6406  0.1355  0.5328
 3179TIP3    H130952   4.803   4.647  13.238  0.4647  0.9682  1.8092
 3179TIP3    H230953   4.671   4.661  13.311 -0.6474  0.3620 -0.0408
 3180TIP3   OH230954   2.174   5.341  16.431 -0.3432 -0.2874 -0.2108
 3180TIP3    H130955   2.203   5.401  16.362 -0.3789 -0.0510 -0.0191
 3180TIP3    H230956   2.211   5.256  16.405  1.1887  0.1631  0.4371
 3181TIP3   OH230957   1.851   2.721  12.325 -0.6051  0.3613 -0.5688
 3181TIP3    H130958   1.778   2.700  12.383  0.9295 -0.3989  1.1302
 3181TIP3    H230959   1.820   2.795  12.273 -1.5551  1.9215  2.1508
 3182TIP3   OH230960   5.183   3.422  10.519  0.3480  0.0100  0.0240
 3182TIP3    H130961   5.203   3.514  10.533  0.3084 -0.0305  0.3481
 3182TIP3    H230962   5.265   3.385  10.486  0.4583  0.0935  0.2036
 3183TIP3   OH230963   2.161   3.713  13.770 -0.2147 -0.1970 -0.4031
 3183TIP3    H130964   2.116   3.651  13.827 -1.4300  1.5228  0.5616
 3183TIP3    H230965   2.138   3.799  13.806  1.9280  0.7942 -1.3331
 3184TIP3   OH230966   6.198   4.076   0.807  0.1089  0.1880 -0.3397
 3184TIP3    H130967   6.173   4.168   0.798 -0.2111  0.1946  0.6373
 3184TIP3    H230968   6.124   4.034   0.850 -1.2931 -1.2830 -3.9655
 3185TIP3   OH230969   0.092   4.165   1.048 -0.1799  0.1432 -0.3030
 3185TIP3    H130970   0.051   4.242   1.008  1.4445  1.6150  0.8213
 3185TIP3    H230971   0.113   4.107   0.974  0.8830  1.8976 -1.4014
 3186TIP3   OH230972   2.940   4.370   5.546  0.0241  0.2878 -0.1313
 3186TIP3    H130973   2.988   4.295   5.512  0.1088 -0.2171  1.1017
 3186TIP3    H230974   2.949   4.437   5.478  2.2589  0.1189 -0.0157
 3187TIP3   OH230975   0.137   5.616  12.972 -0.1877  0.5359 -0.4283
 3187TIP3    H130976   0.064   5.613  12.911 -0.0591 -0.9470 -0.5087
 3187TIP3    H230977   0.205   5.561  12.933 -0.0711 -0.3501  0.9972
 3188TIP3   OH230978   0.673   4.282   6.402  0.4105 -0.4079 -0.0620
 3188TIP3    H130979   0.581   4.257   6.414 -0.2088  1.7601 -0.1831
 3188TIP3    H230980   0.707   4.217   6.341 -1.4815 -0.3020 -1.2839
 3189TIP3   OH230981   0.165   2.278   1.616  0.1090  0.6732  0.3613
 3189TIP3    H130982   0.207   2.350   1.569  1.0997 -0.4772 -0.5329
 3189TIP3    H230983   0.206   2.199   1.581 -2.3887 -0.4513 -0.1317
 3190TIP3   OH230984   3.212   1.408   1.915  0.1675 -0.3954  0.3998
 3190TIP3    H130985   3.297   1.438   1.948 -0.0911  2.1345 -1.1224
 3190TIP3    H230986   3.148   1.451   1.972 -0.1690  0.6510 -0.7558
 3191TIP3   OH230987   5.151   5.331  15.446 -0.5708 -0.3485  0.5547
 3191TIP3    H130988   5.167   5.343  15.540 -0.5802 -0.0384  0.5155
 3191TIP3    H230989   5.064   5.370  15.432  0.0154  0.8493  0.1550
 3192TIP3   OH230990   5.867   6.562  11.887 -0.0706 -0.2823 -0.1058
 3192TIP3    H130991   5.835   6.525  11.970 -3.0402  0.4241 -0.8665
 3192TIP3    H230992   5.880   6.655  11.906  1.3372 -0.5126  0.1196
 3193TIP3   OH230993   2.679   4.146   1.997  0.1556  0.4103 -0.0800
 3193TIP3    H130994   2.689   4.112   2.086  0.3403  0.4509 -0.0858
 3193TIP3    H230995   2.616   4.087   1.956 -1.6585  1.7058  0.7770
 3194TIP3   OH230996   5.990   1.292   3.301 -0.0654 -0.4262 -0.2287
 3194TIP3    H130997   6.078   1.312   3.271  1.0751 -1.5236  2.3348
 3194TIP3    H230998   5.998   1.209   3.349 -2.5700 -0.8063 -0.3670
 3195TIP3   OH230999   1.494   0.959  13.121 -0.3053  0.1228 -0.2898
 3195TIP3    H131000   1.424   0.951  13.186 -0.2864 -1.6061 -0.4509
 3195TIP3    H231001   1.575   0.962  13.172 -0.3007 -1.0822 -0.1972
 3196TIP3   OH231002   4.094   3.819   5.898  0.0949 -0.5257  0.2214
 3196TIP3    H131003   4.081   3.800   5.805  0.3759  0.2761  0.0187
 3196TIP3    H231004   4.068   3.911   5.908  0.1605 -0.5808  0.9153
 3197TIP3   OH231005   1.342   3.905  11.115  0.2247 -0.3992  0.0786
 3197TIP3    H131006   1.343   3.810  11.122  1.2020 -0.3470  0.6536
 3197TIP3    H231007   1.279   3.923  11.046  0.8024 -1.5028 -0.7431
 3198TIP3   OH231008   4.586   0.314  16.456  0.3755  0.2580 -0.7607
 3198TIP3    H131009   4.492   0.328  16.460  0.1824 -0.7668 -1.4624
 3198TIP3    H231010   4.607   0.316  16.362  1.3347  2.2324 -0.5369
 3199TIP3   OH231011   0.583   4.863   0.578 -0.1215 -0.0158  0.2980
 3199TIP3    H131012   0.517   4.831   0.640  0.3295 -0.4699  0.5437
 3199TIP3    H231013   0.631   4.785   0.551  0.5606  0.3624  0.4008
 3200TIP3   OH231014   2.267   2.150  14.378  0.0811 -0.2480 -0.3982
 3200TIP3    H131015   2.239   2.065  14.414 -0.2381  0.0931  0.1708
 3200TIP3    H231016   2.358   2.136  14.353  0.7274 -0.1383  1.7671
 3201TIP3   OH231017   4.229   5.173  13.761 -0.0159 -0.5673  0.6156
 3201TIP3    H131018   4.205   5.155  13.670  1.8257 -0.8402  0.1540
 3201TIP3    H231019   4.213   5.267  13.772  0.3674 -0.4024 -0.1876
 3202TIP3   OH231020   2.919   6.300  15.289  0.2222  0.1614 -0.2729
 3202TIP3    H131021   2.990   6.344  15.242  2.2339 -0.7728  1.7805
 3202TIP3    H231022   2.924   6.337  15.378 -0.2923 -1.6633  0.5289
 3203TIP3   OH231023   5.503   3.444   3.224 -0.4528  0.0477  0.1196
 3203TIP3    H131024   5.495   3.360   3.270  1.4029 -0.2609 -0.0805
 3203TIP3    H231025   5.521   3.508   3.293  1.2006 -0.2331 -0.0281
 3204TIP3   OH231026   0.097   3.164   1.246  1.2390  0.0870 -0.3914
 3204TIP3    H131027   0.064   3.203   1.165 -0.3217  1.3296  0.8139
 3204TIP3    H231028   0.159   3.228   1.280  0.5986  0.3638  0.2716
 3205TIP3   OH231029   2.955   5.717   3.506  0.0529  0.0372  0.0624
 3205TIP3    H131030   2.894   5.776   3.463  1.2687 -0.1855 -2.0766
 3205TIP3    H231031   2.937   5.631   3.467  0.0977 -0.4871  1.1850
 3206TIP3   OH231032   1.237   1.637  15.610 -0.0435  0.2586 -0.3703
 3206TIP3    H131033   1.233   1.733  15.606  0.0494  0.2923  0.2966
 3206TIP3    H231034   1.160   1.612  15.660 -0.9322 -0.1208 -1.9121
 3207TIP3   OH231035   1.897   5.440  13.081  0.0474  0.1201  0.0807
 3207TIP3    H131036   1.989   5.414  13.074  0.7996  2.1836  1.7599
 3207TIP3    H231037   1.875   5.474  12.995  0.7770 -0.6439 -0.4144
 3208TIP3   OH231038   2.828   1.054  13.085 -0.1206  0.1646 -0.3369
 3208TIP3    H131039   2.756   1.101  13.044 -1.2006 -1.5678 -0.4620
 3208TIP3    H231040   2.897   1.119  13.094 -1.2750  1.5427 -1.3018
 3209TIP3   OH231041   0.614   1.692   3.148  0.8242 -0.3257 -0.7128
 3209TIP3    H131042   0.580   1.631   3.082 -0.8475  0.6502 -0.7643
 3209TIP3    H231043   0.651   1.635   3.215 -0.7794 -1.4297 -0.7222
 3210TIP3   OH231044   5.559   2.625  12.998  0.1025  0.0564 -0.7606
 3210TIP3    H131045   5.618   2.555  12.970  0.2465  0.3846 -1.2782
 3210TIP3    H231046   5.482   2.614  12.943 -0.3802 -0.4451 -0.0086
 3211TIP3   OH231047   0.718   1.986   1.815  0.7124  0.4550 -0.2083
 3211TIP3    H131048   0.636   2.024   1.847 -0.5670 -0.3762 -2.4166
 3211TIP3    H231049   0.772   1.976   1.894 -0.1725  3.7163  0.8794
 3212TIP3   OH231050   2.004   3.996  13.681  0.0515 -0.7210 -0.3681
 3212TIP3    H131051   1.926   4.006  13.736  0.1946  0.2387 -0.3246
 3212TIP3    H231052   1.987   3.917  13.630  0.0386 -1.7810  1.2475
 3213TIP3   OH231053   2.393   2.297   2.444 -0.3066  0.0756  0.1637
 3213TIP3    H131054   2.332   2.310   2.371  0.6507  1.2485 -0.4703
 3213TIP3    H231055   2.373   2.368   2.505  0.8094  0.8552 -0.3470
 3214TIP3   OH231056   0.713   6.602  11.744 -0.4495 -0.1149 -0.1116
 3214TIP3    H131057   0.779   6.580  11.677 -0.2882 -0.6450  0.2184
 3214TIP3    H231058   0.764   6.640  11.815 -0.1686 -2.7327  1.1699
 3215TIP3   OH231059   5.289   1.593  17.140 -0.0909 -0.4866  0.1955
 3215TIP3    H131060   5.300   1.684  17.114  0.4432 -0.5859  0.0735
 3215TIP3    H231061   5.324   1.542  17.066  3.4163 -0.7672  1.9496
 3216TIP3   OH231062   0.940   0.683  13.567  0.6861  0.4381 -0.2257
 3216TIP3    H131063   0.897   0.761  13.603 -1.5018 -0.7650 -0.1500
 3216TIP3    H231064   0.927   0.616  13.634 -2.5909 -1.5698 -2.6952
 3217TIP3   OH231065   0.737   0.188  13.156  0.5045  0.3230 -0.1851
 3217TIP3    H131066   0.668   0.238  13.111 -0.0827  0.9709  1.4252
 3217TIP3    H231067   0.817   0.237  13.139 -0.0699  1.8638  1.4109
 3218TIP3   OH231068   2.323   2.596   4.632  0.1154  0.7404  0.0441
 3218TIP3    H131069   2.338   2.525   4.694 -0.0391  0.9741  0.3489
 3218TIP3    H231070   2.406   2.643   4.627  0.8645 -0.6691 -1.7058
 3219TIP3   OH231071   6.691   1.937   2.750  0.3854 -0.1916  0.7538
 3219TIP3    H131072   6.748   2.002   2.708 -1.3059  0.9203  0.1131
 3219TIP3    H231073   6.690   1.863   2.689 -0.0877  0.4194  0.0065
 3220TIP3   OH231074   2.011   4.479  11.580 -0.0097  0.0553  0.5318
 3220TIP3    H131075   2.007   4.425  11.500 -2.8164  0.7496  0.1836
 3220TIP3    H231076   2.003   4.569  11.548 -0.8309  0.3515  1.5884
 3221TIP3   OH231077   4.150   2.318   0.259 -1.0088 -0.0390  0.2284
 3221TIP3    H131078   4.082   2.276   0.205 -0.4962  1.2263 -1.4613
 3221TIP3    H231079   4.133   2.412   0.249  0.8877  0.2885 -0.1061
 3222TIP3   OH231080   4.079   6.154   0.586 -0.5436  0.9916 -0.4015
 3222TIP3    H131081   4.142   6.121   0.522 -0.7402 -0.8213  0.3050
 3222TIP3    H231082   3.994   6.147   0.542 -0.5853  0.5348 -0.2516
 3223TIP3   OH231083   4.079   0.062   5.014  0.0693 -0.0368 -0.0011
 3223TIP3    H131084   4.016  -0.004   5.043  0.1499 -0.5693 -1.0188
 3223TIP3    H231085   4.090   0.045   4.920  2.0748 -0.2291  0.2560
 3224TIP3   OH231086   1.208   0.890   5.093 -0.1525  0.2788 -0.1489
 3224TIP3    H131087   1.299   0.918   5.081 -0.8903  1.6571 -2.9781
 3224TIP3    H231088   1.164   0.967   5.129 -0.6184  0.3148 -0.7834
 3225TIP3   OH231089   4.343   4.916  13.378  0.0263  0.0961 -0.4428
 3225TIP3    H131090   4.373   4.853  13.443 -0.7184  1.1517  0.9508
 3225TIP3    H231091   4.248   4.903  13.372 -0.1799  1.2603  0.0727
 3226TIP3   OH231092   6.040   5.075  10.269  0.0841  0.5519  0.0543
 3226TIP3    H131093   6.075   5.127  10.342  1.8632  1.0013 -1.0941
 3226TIP3    H231094   6.097   4.997  10.266 -1.3083 -0.4972  0.4772
 3227TIP3   OH231095   1.045   4.305  13.451  0.2399  0.1299 -0.2995
 3227TIP3    H131096   1.044   4.355  13.533 -1.0441  0.5943 -0.5775
 3227TIP3    H231097   1.114   4.345  13.399  1.7019 -0.7784  0.9215
 3228TIP3   OH231098   6.618   4.213   1.935 -0.6303  0.0837  0.1266
 3228TIP3    H131099   6.608   4.305   1.907 -0.0323  0.5577  1.4649
 3228TIP3    H231100   6.636   4.166   1.853 -3.7579  0.6885 -1.0123
 3229TIP3   OH231101   0.933   5.620   3.239  0.3345 -0.0097 -0.3377
 3229TIP3    H131102   0.961   5.696   3.188  0.4805 -0.1032 -0.3961
 3229TIP3    H231103   0.959   5.641   3.329  2.0357 -0.7871 -0.6266
 3230TIP3   OH231104   2.817   1.287  14.245 -0.4304 -0.3782 -0.2298
 3230TIP3    H131105   2.836   1.207  14.196  0.5985  0.2978 -0.9733
 3230TIP3    H231106   2.900   1.310  14.287 -1.0111 -0.3248  0.9335
 3231TIP3   OH231107   1.203   2.876   1.148 -0.2548 -0.2084  0.5118
 3231TIP3    H131108   1.121   2.869   1.196  0.2992 -0.2270  1.4852
 3231TIP3    H231109   1.256   2.803   1.181  0.2593 -0.0218  0.1173
 3232TIP3   OH231110   1.858   2.223  16.627 -0.0237 -0.0181 -0.2029
 3232TIP3    H131111   1.833   2.308  16.589 -0.3857 -0.4134 -0.8599
 3232TIP3    H231112   1.872   2.167  16.551  0.0004 -0.6079  0.2383
 3233TIP3   OH231113   5.614   2.513   6.012  0.0229  0.7118  0.5817
 3233TIP3    H131114   5.691   2.515   5.956 -0.2803  3.0106  0.1951
 3233TIP3    H231115   5.573   2.428   5.992  1.6234  0.1085 -0.2963
 3234TIP3   OH231116   6.185   2.654  15.209  0.5968  0.0189  0.2103
 3234TIP3    H131117   6.147   2.599  15.277 -0.0402  0.9506  0.6040
 3234TIP3    H231118   6.144   2.624  15.128 -0.3770  0.4880  0.5328
 3235TIP3   OH231119   6.226   1.143  14.593  0.2979 -0.3405 -0.0958
 3235TIP3    H131120   6.140   1.102  14.603  0.9972 -1.4535  1.4508
 3235TIP3    H231121   6.274   1.119  14.672  1.5817  1.4143 -0.3051
 3236TIP3   OH231122   0.946   6.547  15.542 -0.3322  0.2230 -0.0794
 3236TIP3    H131123   0.991   6.531  15.625 -2.5745  1.9173  1.5302
 3236TIP3    H231124   0.988   6.625  15.507  0.1668 -0.0969 -0.1924
 3237TIP3   OH231125   0.329   5.002  16.842 -0.1626  0.1078 -0.1750
 3237TIP3    H131126   0.273   5.043  16.777 -0.8138 -1.5546 -0.6718
 3237TIP3    H231127   0.344   4.913  16.809  2.9898  0.5907 -0.1952
 3238TIP3   OH231128   1.166   1.822   2.551 -0.2208 -0.0785  0.3117
 3238TIP3    H131129   1.143   1.893   2.611 -1.7177  1.5068 -2.0560
 3238TIP3    H231130   1.092   1.762   2.556 -1.1379  0.8863 -1.1176
 3239TIP3   OH231131   6.218   3.457  12.274 -0.4417 -0.0277  0.0906
 3239TIP3    H131132   6.233   3.489  12.185 -0.8255  0.2963  0.1433
 3239TIP3    H231133   6.133   3.493  12.299 -0.5176 -0.4422  0.4410
 3240TIP3   OH231134   4.067   4.798  11.105  0.1031 -0.3334 -0.1128
 3240TIP3    H131135   4.018   4.796  11.022 -1.9107 -0.3191  1.0255
 3240TIP3    H231136   4.126   4.872  11.096 -1.4580  0.8595 -0.8124
 3241TIP3   OH231137   3.803   2.795  17.078  0.7512  0.1586  0.5303
 3241TIP3    H131138   3.880   2.764  17.030  0.5723 -0.4086  0.6019
 3241TIP3    H231139   3.776   2.874  17.032 -0.8759 -1.6713 -1.8292
 3242TIP3   OH231140   6.683   5.976  12.513  0.7987  0.1315 -0.9442
 3242TIP3    H131141   6.717   5.960  12.425  0.1496  2.5219 -1.6650
 3242TIP3    H231142   6.587   5.977  12.502  0.6979 -0.0229 -0.1190
 3243TIP3   OH231143   4.791   4.028   3.693  0.0809  0.2266 -0.2170
 3243TIP3    H131144   4.750   4.010   3.777  1.1303  0.8215  0.4199
 3243TIP3    H231145   4.790   3.944   3.647  1.3756 -0.5720  1.1828
 3244TIP3   OH231146   3.904   2.065   2.334 -0.4231 -0.1193  0.1782
 3244TIP3    H131147   3.941   1.985   2.295  1.5322  1.5252 -1.4252
 3244TIP3    H231148   3.948   2.073   2.419  1.8257  0.9676 -1.0442
 3245TIP3   OH231149   4.033   1.668   3.705  0.2027 -0.0106 -0.1530
 3245TIP3    H131150   4.023   1.749   3.654  1.1322  0.8975  1.0574
 3245TIP3    H231151   4.080   1.609   3.647  0.4338  0.6849 -0.6895
 3246TIP3   OH231152   3.864   5.270  13.694  0.0933  0.4704 -0.2379
 3246TIP3    H131153   3.771   5.286  13.680 -0.6204 -2.0038  1.3656
 3246TIP3    H231154   3.878   5.182  13.660  1.2049 -0.3235  2.2231
 3247TIP3   OH231155   5.905   4.815  15.646 -0.1430  0.0426 -0.2058
 3247TIP3    H131156   5.827   4.813  15.700  0.3134 -0.3749  0.4468
 3247TIP3    H231157   5.974   4.779  15.702  0.9815  2.3214 -0.0281
 3248TIP3   OH231158   1.688   2.446   6.466 -0.2692 -0.3677  0.8052
 3248TIP3    H131159   1.739   2.376   6.508 -0.1792  0.1190  1.5241
 3248TIP3    H231160   1.609   2.452   6.519 -0.7600 -0.6431  0.1078
 3249TIP3   OH231161   1.455   1.217  14.746 -0.0441  0.0597  0.5108
 3249TIP3    H131162   1.424   1.278  14.679 -1.0325  0.5376  1.3787
 3249TIP3    H231163   1.509   1.271  14.804 -0.3154 -0.0454  0.8645
 3250TIP3   OH231164   1.834   3.067   3.081  0.2949 -0.2362 -0.0148
 3250TIP3    H131165   1.834   3.082   3.176 -0.2005 -0.5252  0.0337
 3250TIP3    H231166   1.925   3.081   3.054  0.1138  1.5507  0.2407
 3251TIP3   OH231167   5.657   4.439  12.779 -0.0312 -0.0802 -0.1501
 3251TIP3    H131168   5.589   4.498  12.746  0.0283  0.0634 -0.0110
 3251TIP3    H231169   5.699   4.487  12.849 -0.4780 -0.5774  0.4657
 3252TIP3   OH231170   0.646   4.086  12.823 -0.7015 -0.3076  0.3214
 3252TIP3    H131171   0.701   4.142  12.878 -2.1741 -0.6535  2.1879
 3252TIP3    H231172   0.708   4.037  12.769  0.7585  0.1584  1.5558
 3253TIP3   OH231173   4.582   3.675   4.411 -0.6744 -0.3317 -0.0190
 3253TIP3    H131174   4.527   3.602   4.384 -0.5852  0.1840 -1.6528
 3253TIP3    H231175   4.519   3.744   4.435 -0.7479 -0.0865 -0.9112
 3254TIP3   OH231176   2.912   1.837   0.007  0.2003 -0.2278  0.4927
 3254TIP3    H131177   2.882   1.765  -0.048  0.7739 -0.8472  0.9790
 3254TIP3    H231178   2.869   1.822   0.092 -1.7970  1.5088 -0.1823
 3255TIP3   OH231179   4.180   5.939   1.537  0.1097  0.0564  0.2913
 3255TIP3    H131180   4.172   5.922   1.631  1.6365  0.8663  0.5810
 3255TIP3    H231181   4.237   6.015   1.531 -2.1455  1.6826 -1.2147
 3256TIP3   OH231182   1.029   5.453   2.354  0.2571  0.2371 -0.1531
 3256TIP3    H131183   1.117   5.468   2.320 -0.0897  0.7088 -0.8524
 3256TIP3    H231184   0.971   5.488   2.287 -0.4543  0.4766  0.5763
 3257TIP3   OH231185   3.756   2.581   5.584  0.4836  0.0756  0.3862
 3257TIP3    H131186   3.760   2.605   5.492  0.1363 -0.4468  0.2343
 3257TIP3    H231187   3.666   2.552   5.598 -0.3699  3.1079  1.6306
 3258TIP3   OH231188   4.355   6.282  12.906 -0.3992  0.2794  0.1298
 3258TIP3    H131189   4.287   6.279  12.839  0.3755 -0.2970 -0.6476
 3258TIP3    H231190   4.381   6.374  12.910 -1.2003  0.4951  0.4101
 3259TIP3   OH231191   0.629   1.961   0.916  0.0707  0.1469  0.4988
 3259TIP3    H131192   0.655   2.051   0.896 -0.7331  0.1589 -0.5883
 3259TIP3    H231193   0.684   1.935   0.990  1.3660  1.0162 -0.1435
 3260TIP3   OH231194   4.202   2.205  13.127 -0.0473  0.5028 -0.1907
 3260TIP3    H131195   4.127   2.262  13.146 -0.6678  0.0815 -1.2787
 3260TIP3    H231196   4.179   2.121  13.167 -0.0086  0.4766 -0.2230
 3261TIP3   OH231197   1.335   3.689   1.642 -0.5200 -0.2525 -0.2874
 3261TIP3    H131198   1.399   3.631   1.684  0.6144  0.5146 -0.9238
 3261TIP3    H231199   1.294   3.736   1.714 -0.2809 -0.6620  0.1178
 3262TIP3   OH231200   5.907   5.571  12.210 -0.0079 -0.2014 -0.1237
 3262TIP3    H131201   5.962   5.631  12.160  0.4936 -0.9156 -0.4461
 3262TIP3    H231202   5.855   5.525  12.143 -1.6904  1.1357  0.2377
 3263TIP3   OH231203   1.746   0.823  16.700  0.1404 -0.6111  0.0809
 3263TIP3    H131204   1.696   0.904  16.708 -2.5851 -2.3774  1.8518
 3263TIP3    H231205   1.818   0.832  16.761  0.7343  1.0615 -0.8381
 3264TIP3   OH231206   4.593   3.759   5.893  0.0011  0.1746  0.1211
 3264TIP3    H131207   4.601   3.670   5.928 -0.4325 -0.5197 -1.4729
 3264TIP3    H231208   4.576   3.746   5.800  2.1527  1.9913 -0.5572
 3265TIP3   OH231209   5.956   2.360   5.963 -0.0004  1.0672 -0.5284
 3265TIP3    H131210   5.955   2.265   5.961  0.4020  1.0628 -0.4188
 3265TIP3    H231211   5.904   2.383   6.041  0.2091  0.9341 -0.3510
 3266TIP3   OH231212   6.406   3.777   4.458  0.4745  0.0835  0.4888
 3266TIP3    H131213   6.390   3.823   4.375 -2.6995 -0.1302  0.9162
 3266TIP3    H231214   6.416   3.847   4.522  0.7491  0.2207  0.2998
 3267TIP3   OH231215   0.196   5.240  12.768  0.3145 -0.1250  0.7690
 3267TIP3    H131216   0.183   5.189  12.689  1.0332  0.8080  0.0430
 3267TIP3    H231217   0.113   5.285  12.781  0.0505 -0.6178  0.7933
 3268TIP3   OH231218   5.883   3.617   2.660 -0.1426 -0.2349  0.3694
 3268TIP3    H131219   5.920   3.647   2.577  0.7009  1.2030  1.2511
 3268TIP3    H231220   5.853   3.696   2.704 -1.7512 -1.1182  0.8903
 3269TIP3   OH231221   5.534   2.249   1.870 -0.6336  0.2291 -0.3698
 3269TIP3    H131222   5.577   2.334   1.882 -0.4766 -0.0196  0.9634
 3269TIP3    H231223   5.480   2.239   1.949 -0.0055 -1.2777 -0.1130
 3270TIP3   OH231224   3.126   2.100  12.719  0.2030  0.3573 -0.1972
 3270TIP3    H131225   3.042   2.117  12.677 -0.0919  1.0296  0.6454
 3270TIP3    H231226   3.165   2.187  12.731  0.2716  0.1820  0.9235
 3271TIP3   OH231227   1.980   2.473   5.455  0.6897  0.2722 -0.1633
 3271TIP3    H131228   1.938   2.485   5.540  0.1189  2.2588 -0.6967
 3271TIP3    H231229   2.071   2.452   5.476  0.5349  0.6784  0.9358
 3272TIP3   OH231230   3.542   2.468   2.937  0.1944  0.7271 -0.2964
 3272TIP3    H131231   3.562   2.446   2.846 -0.4376  0.1308 -0.2959
 3272TIP3    H231232   3.586   2.552   2.952 -0.7792  1.4855 -1.5575
 3273TIP3   OH231233   0.643   3.946  14.345 -0.1824  0.0091 -0.7354
 3273TIP3    H131234   0.612   3.999  14.272  1.0291 -0.2318 -1.4419
 3273TIP3    H231235   0.672   4.009  14.410 -0.3554  0.2167 -0.8581
 3274TIP3   OH231236   5.986   4.382  11.221  0.2718 -0.2716 -0.1359
 3274TIP3    H131237   6.023   4.380  11.132 -0.1815  0.1212 -0.3305
 3274TIP3    H231238   5.892   4.369  11.209  0.1061  0.5626  0.2286
 3275TIP3   OH231239   0.297   4.817   5.379  0.2971 -0.4023  0.3663
 3275TIP3    H131240   0.340   4.731   5.383  0.4457 -0.3785 -0.5726
 3275TIP3    H231241   0.204   4.797   5.365  0.2311 -0.4205  0.8166
 3276TIP3   OH231242   2.346   6.729   6.137 -0.3792  0.4357  0.6098
 3276TIP3    H131243   2.346   6.819   6.171 -1.4347  0.5069  0.4301
 3276TIP3    H231244   2.344   6.674   6.215 -1.1956  0.5830  0.6914
 3277TIP3   OH231245   2.056   1.875  11.161 -0.2080 -0.0053  0.1687
 3277TIP3    H131246   1.963   1.851  11.159  0.5002 -2.7590 -0.9972
 3277TIP3    H231247   2.083   1.878  11.070  1.3050 -1.0424  0.5611
 3278TIP3   OH231248   4.977   6.311   5.445  0.0553  0.0464  0.4930
 3278TIP3    H131249   4.935   6.246   5.389  0.6426 -0.8585  1.0923
 3278TIP3    H231250   5.069   6.311   5.416  0.1083  0.4473  0.6557
 3279TIP3   OH231251   5.807   1.560   2.801 -0.4992  0.0743  0.1515
 3279TIP3    H131252   5.744   1.500   2.840 -1.3066  0.8795  0.1143
 3279TIP3    H231253   5.794   1.642   2.849 -2.1728  1.3543 -2.4040
 3280TIP3   OH231254   4.035   2.810  11.981  0.3177 -0.5978  0.4337
 3280TIP3    H131255   4.037   2.834  12.074  3.2654 -0.1620  0.2824
 3280TIP3    H231256   4.126   2.792  11.958 -0.1313  0.8687 -2.7877
 3281TIP3   OH231257   5.104   6.141  11.025  0.0844  0.0548 -0.3436
 3281TIP3    H131258   5.195   6.123  11.046  0.2848  1.3860  0.0017
 3281TIP3    H231259   5.097   6.237  11.029 -1.1413  0.0104 -1.1156
 3282TIP3   OH231260   2.469   1.156   4.898  0.4701  0.0919 -0.2065
 3282TIP3    H131261   2.458   1.081   4.956 -0.4641  0.5187  0.1744
 3282TIP3    H231262   2.556   1.189   4.918  0.6244 -0.4893  0.0894
 3283TIP3   OH231263   0.817   5.261  10.734  0.0599 -0.1153  0.1886
 3283TIP3    H131264   0.849   5.252  10.644 -2.0492  0.6135 -0.6651
 3283TIP3    H231265   0.831   5.175  10.773 -0.5459 -0.9506 -1.3817
 3284TIP3   OH231266   3.257   2.993   3.334  0.5339 -0.1447 -0.1422
 3284TIP3    H131267   3.249   2.913   3.282 -0.6187  0.1255 -0.3850
 3284TIP3    H231268   3.171   3.033   3.330 -0.2929 -1.2356  3.7669
 3285TIP3   OH231269   2.314   1.660   5.993  0.2438  0.2536 -1.2964
 3285TIP3    H131270   2.308   1.729   6.059 -1.7173 -0.0712 -1.1098
 3285TIP3    H231271   2.398   1.618   6.009 -0.3817 -0.0952  1.2849
 3286TIP3   OH231272   0.598   1.617  12.961  0.0038 -0.1324 -0.4070
 3286TIP3    H131273   0.688   1.647  12.965  0.4859 -1.7633  2.8855
 3286TIP3    H231274   0.548   1.684  13.007 -0.4779  0.6778 -2.0683
 3287TIP3   OH231275   0.500   6.221   1.627  0.5171 -0.0058  0.5051
 3287TIP3    H131276   0.434   6.170   1.579 -0.2421 -2.0859  3.5898
 3287TIP3    H231277   0.450   6.292   1.667  0.7494  0.4350  0.0063
 3288TIP3   OH231278   2.880   5.488   0.804 -0.4036 -0.4925  0.5479
 3288TIP3    H131279   2.850   5.461   0.890 -0.4046 -1.7046  0.1906
 3288TIP3    H231280   2.893   5.405   0.757 -1.3154  0.1908 -0.9200
 3289TIP3   OH231281   0.648   1.552   2.467 -0.8115 -0.0363 -0.3782
 3289TIP3    H131282   0.698   1.514   2.539  0.9966  0.0466 -1.5713
 3289TIP3    H231283   0.570   1.497   2.461  0.7077 -2.2323 -0.6420
 3290TIP3   OH231284   0.415   6.416  16.070  0.4656  0.3173  0.1337
 3290TIP3    H131285   0.488   6.409  16.008  0.2779  1.8345 -0.2588
 3290TIP3    H231286   0.443   6.483  16.132  0.1544 -0.3742  1.0389
 3291TIP3   OH231287   2.661   2.138   3.707 -0.8291  0.2628  0.2068
 3291TIP3    H131288   2.581   2.189   3.695 -1.4917 -0.6652  0.6015
 3291TIP3    H231289   2.706   2.180   3.780 -0.6012  1.2201 -0.4749
 3292TIP3   OH231290   5.332   4.498   2.542 -0.1444 -0.0179  0.0365
 3292TIP3    H131291   5.353   4.533   2.456 -1.9114 -0.0549 -0.4336
 3292TIP3    H231292   5.354   4.570   2.602  0.3034  0.3112 -0.5105
 3293TIP3   OH231293   2.393   3.815   1.177  0.3944  0.0807  0.0499
 3293TIP3    H131294   2.465   3.758   1.150  0.3375 -0.5720  1.2759
 3293TIP3    H231295   2.402   3.823   1.272 -1.6843 -0.7766  0.3444
 3294TIP3   OH231296   3.314   0.661   3.989  0.3274 -0.4126  0.6761
 3294TIP3    H131297   3.287   0.631   3.903 -0.0356 -1.8068  1.2566
 3294TIP3    H231298   3.340   0.752   3.976 -2.0187  0.1467 -0.4523
 3295TIP3   OH231299   5.876   4.720  15.175 -0.3678 -0.3862  0.2103
 3295TIP3    H131300   5.823   4.646  15.204  0.0236 -0.8760 -0.3092
 3295TIP3    H231301   5.875   4.716  15.080  0.1785 -0.0988  0.1840
 3296TIP3   OH231302   3.031   6.471  11.368 -0.5225 -0.1775 -0.1618
 3296TIP3    H131303   3.032   6.376  11.375 -2.2757 -0.3528 -1.7388
 3296TIP3    H231304   3.049   6.488  11.275 -1.2277  0.9854 -0.0966
 3297TIP3   OH231305   1.984   4.950   0.773 -0.6931  0.3836  0.4066
 3297TIP3    H131306   1.893   4.958   0.802 -1.1024 -0.8132 -0.5340
 3297TIP3    H231307   1.981   4.967   0.679  0.2089  1.2961  0.5243
 3298TIP3   OH231308   3.074   5.360  14.297  0.0365  0.0152 -0.1931
 3298TIP3    H131309   3.160   5.383  14.332  0.5352 -1.6751 -0.2958
 3298TIP3    H231310   3.074   5.265  14.294 -0.8980  0.0638 -2.5645
 3299TIP3   OH231311   1.137   1.153  11.191 -0.4594  0.0332  0.1919
 3299TIP3    H131312   1.148   1.175  11.283 -0.3093 -1.4884  0.5358
 3299TIP3    H231313   1.085   1.226  11.156  1.6806  1.9654  0.8620
 3300TIP3   OH231314   1.271   0.517   3.663  0.4259 -0.1115  0.3318
 3300TIP3    H131315   1.306   0.581   3.724  0.1015 -0.4075  0.8281
 3300TIP3    H231316   1.245   0.568   3.586 -0.4144  0.4396  0.9734
 3301TIP3   OH231317   5.438   3.183   4.476 -0.6909 -0.3276  0.0250
 3301TIP3    H131318   5.471   3.253   4.420  0.2961  1.8138  3.0823
 3301TIP3    H231319   5.346   3.206   4.491 -0.5346  0.0062  0.5110
 3302TIP3   OH231320   1.187   6.716   0.267  0.0988  0.0205  0.1847
 3302TIP3    H131321   1.278   6.709   0.294  0.1472 -1.0029 -0.1977
 3302TIP3    H231322   1.186   6.789   0.205  0.8592 -0.5945 -0.5760
 3303TIP3   OH231323   0.608   0.306  14.799 -0.3430 -0.1648 -0.8791
 3303TIP3    H131324   0.550   0.369  14.757  1.1327  1.3506 -0.6765
 3303TIP3    H231325   0.549   0.251  14.852 -1.4310  2.4166  0.6822
 3304TIP3   OH231326   1.186   2.224  12.125 -0.3346  0.0916  0.7885
 3304TIP3    H131327   1.201   2.245  12.033  0.9018 -1.9634  0.4794
 3304TIP3    H231328   1.252   2.157  12.145 -3.6008 -2.9650  1.8277
 3305TIP3   OH231329   3.727   3.472  12.706 -0.2218 -0.8677 -0.0164
 3305TIP3    H131330   3.726   3.475  12.611  1.4625 -3.5499 -0.1807
 3305TIP3    H231331   3.651   3.418  12.729  0.8760 -2.4758 -0.0323
 3306TIP3   OH231332   3.905   2.969  10.410 -0.1087  0.3870 -0.0385
 3306TIP3    H131333   3.845   3.043  10.412 -1.7510 -0.8737 -0.9959
 3306TIP3    H231334   3.901   2.932  10.498  0.3156  1.1259  0.2886
 3307TIP3   OH231335   5.216   0.818  11.860 -0.3333  0.3848 -0.8808
 3307TIP3    H131336   5.165   0.784  11.934 -1.4578  1.1080 -1.3250
 3307TIP3    H231337   5.205   0.913  11.866  2.9735  0.7584  0.4954
 3308TIP3   OH231338   2.998   4.455   0.023  0.1188 -0.3890 -0.2027
 3308TIP3    H131339   2.920   4.488   0.067  0.3566  1.4990 -1.1062
 3308TIP3    H231340   3.001   4.505  -0.059  4.0234  1.9998  1.2438
 3309TIP3   OH231341   5.943   2.888  14.068 -0.5037 -0.1477  0.2524
 3309TIP3    H131342   5.884   2.830  14.117  2.1906 -0.1465  3.6843
 3309TIP3    H231343   6.013   2.908  14.130  1.1236  2.9340 -2.4647
 3310TIP3   OH231344   2.106   3.026  16.372  0.0209  0.4206 -0.1185
 3310TIP3    H131345   2.050   3.094  16.336 -0.7046 -0.5596 -0.8815
 3310TIP3    H231346   2.046   2.954  16.393  0.6417  0.3822  1.6034
 3311TIP3   OH231347   4.358   1.659  17.130 -0.3381  0.3960  0.2965
 3311TIP3    H131348   4.324   1.599  17.063 -0.8431  0.5421  0.4193
 3311TIP3    H231349   4.348   1.612  17.212  1.1499 -0.1537  0.1687
 3312TIP3   OH231350   4.828   2.268   3.932  0.4592  0.4384 -0.1106
 3312TIP3    H131351   4.746   2.226   3.904  0.1257  0.7148  0.4484
 3312TIP3    H231352   4.888   2.252   3.860  0.4137 -1.2286  0.1941
 3313TIP3   OH231353   4.934   2.143  17.184 -0.2144 -0.0425 -0.4012
 3313TIP3    H131354   4.916   2.227  17.225  0.8169 -0.5593  1.1713
 3313TIP3    H231355   5.013   2.157  17.132  0.0799 -0.0887  0.0339
 3314TIP3   OH231356   5.821   3.638   0.795 -0.5779 -0.1289 -0.1481
 3314TIP3    H131357   5.735   3.610   0.826  0.1786 -1.5880  0.6931
 3314TIP3    H231358   5.882   3.601   0.859  1.0123 -2.7166 -3.0139
 3315TIP3   OH231359   3.536   4.589  15.848  0.2729  0.7214 -0.0575
 3315TIP3    H131360   3.630   4.597  15.829  0.7790 -1.3172  1.3907
 3315TIP3    H231361   3.523   4.642  15.926  0.7124 -0.8087  1.0839
 3316TIP3   OH231362   3.740   0.656   1.684 -0.1063  0.8600  0.2508
 3316TIP3    H131363   3.809   0.713   1.717  0.5826  0.3665 -0.3166
 3316TIP3    H231364   3.778   0.568   1.689 -0.6047  0.6117 -0.2959
 3317TIP3   OH231365   5.249   5.410   2.178 -0.4715 -0.5340 -0.2353
 3317TIP3    H131366   5.337   5.430   2.208 -0.9659  2.0324 -0.3622
 3317TIP3    H231367   5.234   5.320   2.205  0.5137  0.4081  3.8793
 3318TIP3   OH231368   5.121   1.750   4.158 -0.2054 -0.2630 -0.1435
 3318TIP3    H131369   5.199   1.695   4.170 -0.1343 -0.4983 -1.5654
 3318TIP3    H231370   5.081   1.755   4.245  1.9251  0.6775  0.8153
 3319TIP3   OH231371   1.232   0.468  13.386  0.2414  0.0289 -0.2322
 3319TIP3    H131372   1.142   0.435  13.392  0.8760 -1.6110  0.7539
 3319TIP3    H231373   1.284   0.403  13.434  2.2369 -0.1560 -2.5438
 3320TIP3   OH231374   2.638   3.326  12.662 -0.2462  0.2575  0.1113
 3320TIP3    H131375   2.586   3.389  12.612  0.3989 -0.3349 -1.3570
 3320TIP3    H231376   2.678   3.378  12.732 -1.6251  0.9952  0.3562
 3321TIP3   OH231377   5.897   3.126  13.395  0.0186  0.1875 -0.1010
 3321TIP3    H131378   5.945   3.195  13.440  0.7461 -0.3700 -0.0042
 3321TIP3    H231379   5.806   3.141  13.417  0.2880  0.4582  0.8227
 3322TIP3   OH231380   0.290   0.669   5.206  0.2140 -0.1645  0.4299
 3322TIP3    H131381   0.307   0.742   5.265 -0.4649 -0.3248  0.8226
 3322TIP3    H231382   0.268   0.596   5.263 -1.3330 -0.0886 -0.0352
 3323TIP3   OH231383   5.388   0.371  10.861  0.3936  0.1469 -0.2164
 3323TIP3    H131384   5.343   0.325  10.932  0.8597 -0.2984 -0.2095
 3323TIP3    H231385   5.372   0.464  10.878  1.1252  0.0780  0.8878
 3324TIP3   OH231386   4.333   4.514   5.107 -0.1028  0.2086 -0.2432
 3324TIP3    H131387   4.405   4.463   5.144 -0.8905 -0.6876  0.0837
 3324TIP3    H231388   4.328   4.592   5.162  0.0310 -0.1699  0.3122
 3325TIP3   OH231389   2.614   1.958   2.736 -0.3863  0.0985  0.5656
 3325TIP3    H131390   2.666   1.885   2.703 -1.4452 -1.3779  2.0249
 3325TIP3    H231391   2.569   1.993   2.659  1.4295  0.3067 -0.4237
 3326TIP3   OH231392   5.500   1.777  13.681  0.0910  0.7354  0.1255
 3326TIP3    H131393   5.444   1.708  13.714 -0.1072  0.8412  0.0104
 3326TIP3    H231394   5.440   1.847  13.655  0.2833  0.9197  0.1698
 3327TIP3   OH231395   5.242   0.551  13.212 -0.4719  0.0399  0.4553
 3327TIP3    H131396   5.157   0.520  13.242 -1.0133 -0.1885 -1.2212
 3327TIP3    H231397   5.234   0.553  13.116  1.4984 -0.2652  0.2615
 3328TIP3   OH231398   6.723   3.038  15.479  0.2427 -0.2744 -0.9572
 3328TIP3    H131399   6.632   3.060  15.496  0.0979 -0.4777 -1.4528
 3328TIP3    H231400   6.773   3.085  15.545 -0.2737 -0.6764 -0.2802
 3329TIP3   OH231401   4.701   0.609   4.302  0.6869 -0.1764  0.4590
 3329TIP3    H131402   4.616   0.653   4.297  1.1609  0.6765 -0.3619
 3329TIP3    H231403   4.758   0.674   4.345  1.2909 -0.1354 -0.3841
 3330TIP3   OH231404   4.876   5.633  15.215 -0.5264  0.0035 -0.0158
 3330TIP3    H131405   4.929   5.555  15.200  1.3520  1.4662 -1.2885
 3330TIP3    H231406   4.937   5.706  15.203 -2.4630  1.6962  0.1315
 3331TIP3   OH231407   0.247   6.574  15.910 -0.3501 -0.6514 -0.5764
 3331TIP3    H131408   0.297   6.515  15.967 -1.4398 -1.3660 -0.3412
 3331TIP3    H231409   0.233   6.524  15.830  0.0442 -0.1270 -0.9820
 3332TIP3   OH231410   0.136   4.711   2.529  0.3517  0.2268  0.0688
 3332TIP3    H131411   0.226   4.743   2.539  0.3258  0.7738 -1.3170
 3332TIP3    H231412   0.140   4.653   2.453 -0.0569 -1.3819  1.2433
 3333TIP3   OH231413   6.327   4.551  10.260 -0.0499 -0.3284  1.0081
 3333TIP3    H131414   6.422   4.542  10.266 -0.2469 -2.0041  1.8678
 3333TIP3    H231415   6.299   4.474  10.212 -0.8671  0.8376 -0.4131
 3334TIP3   OH231416   1.828   5.080  16.044 -0.2412  0.1947  0.4552
 3334TIP3    H131417   1.821   4.991  16.079 -1.9611  0.4132  0.7275
 3334TIP3    H231418   1.828   5.069  15.949 -2.0471 -0.0355  0.4527
 3335TIP3   OH231419   4.484   3.777   0.763 -0.0624 -0.4362 -0.0885
 3335TIP3    H131420   4.567   3.814   0.735 -0.6163 -0.6372 -2.0132
 3335TIP3    H231421   4.508   3.705   0.822  1.0782  0.4862  0.5884
 3336TIP3   OH231422   2.062   6.380   6.324  0.8766 -0.2259  0.0118
 3336TIP3    H131423   2.090   6.288   6.326  1.0774 -0.1525  0.4847
 3336TIP3    H231424   2.139   6.430   6.351  0.4800  0.0134  0.7238
 3337TIP3   OH231425   5.242   3.970   0.306 -0.3744 -0.1908 -0.1481
 3337TIP3    H131426   5.329   3.932   0.310 -0.3145 -0.3669 -2.3133
 3337TIP3    H231427   5.257   4.064   0.293 -0.5195 -0.1527 -0.0583
 3338TIP3   OH231428   5.367   4.607   3.017  0.5978  0.7631 -0.2423
 3338TIP3    H131429   5.340   4.679   2.961  0.1453  0.7250 -0.0776
 3338TIP3    H231430   5.285   4.572   3.052  0.7246 -0.6085 -1.2760
 3339TIP3   OH231431   2.482   3.582   3.556  0.4290  0.1550 -0.2283
 3339TIP3    H131432   2.577   3.586   3.568  0.4628  0.4182 -0.5690
 3339TIP3    H231433   2.465   3.492   3.527  0.3235 -0.5574  1.9493
 3340TIP3   OH231434   0.282   6.705  15.578 -0.1470 -0.2879 -0.5289
 3340TIP3    H131435   0.338   6.644  15.531 -0.9362 -1.7767  0.4309
 3340TIP3    H231436   0.193   6.674  15.560 -0.5269  0.2607  0.4054
 3341TIP3   OH231437   2.151   4.556  15.064  0.6165  0.2198 -0.1741
 3341TIP3    H131438   2.126   4.647  15.079  0.6735  0.1927  0.0995
 3341TIP3    H231439   2.125   4.538  14.974  2.9637  1.2918 -1.1022
 3342TIP3   OH231440   6.475   4.884  14.426 -0.4397  0.0492  0.0843
 3342TIP3    H131441   6.565   4.855  14.408 -1.7079 -2.0554 -3.3756
 3342TIP3    H231442   6.464   4.870  14.520  2.3882 -1.0258  0.3037
 3343TIP3   OH231443   3.024   4.474   1.635 -0.2549  0.4365 -0.2402
 3343TIP3    H131444   2.996   4.420   1.561 -1.1671  1.0971 -0.3895
 3343TIP3    H231445   3.086   4.419   1.683 -0.8777 -0.5988 -0.6005
 3344TIP3   OH231446   0.805   4.541   1.163 -0.5137 -0.3806 -0.1790
 3344TIP3    H131447   0.893   4.519   1.196 -0.4084  1.2833  0.7076
 3344TIP3    H231448   0.814   4.630   1.130 -1.7323 -0.4402 -0.6722
 3345TIP3   OH231449   3.394   0.553   4.348 -0.1253  0.1376  0.0423
 3345TIP3    H131450   3.401   0.526   4.257  1.9557  0.3317  0.1265
 3345TIP3    H231451   3.470   0.609   4.363  0.0458 -0.6083  2.1447
 3346TIP3   OH231452   2.240   5.524  16.872 -0.5661  0.7090 -0.0503
 3346TIP3    H131453   2.288   5.587  16.818  0.5155 -1.0898 -1.2232
 3346TIP3    H231454   2.248   5.558  16.961  1.0322  1.5832 -0.5058
 3347TIP3   OH231455   6.459   5.492   0.087  0.4120  0.1139  0.3226
 3347TIP3    H131456   6.440   5.584   0.105  2.0246  0.4561  0.3005
 3347TIP3    H231457   6.500   5.460   0.167 -0.6075 -0.7328  0.5185
 3348TIP3   OH231458   0.591   3.717   0.877  0.4393  0.4868 -0.3897
 3348TIP3    H131459   0.525   3.764   0.826  1.7391  1.3339 -1.3409
 3348TIP3    H231460   0.655   3.785   0.900  1.9061 -0.6632 -1.0475
 3349TIP3   OH231461   4.916   0.013  13.571  0.1000  0.2265  0.2472
 3349TIP3    H131462   4.931   0.085  13.632 -1.0175 -0.2279  1.0603
 3349TIP3    H231463   4.940  -0.066  13.619  0.7881  0.0005 -0.4546
 3350TIP3   OH231464   0.756   2.626  15.459  0.6844  0.3485 -0.3094
 3350TIP3    H131465   0.697   2.561  15.421  0.5882  0.7320 -0.8113
 3350TIP3    H231466   0.813   2.575  15.518  0.7123 -0.2146 -0.8174
 3351TIP3   OH231467   2.842   1.117  15.786  0.0640  0.2555 -0.1774
 3351TIP3    H131468   2.929   1.158  15.781  0.0257  0.2220 -1.1287
 3351TIP3    H231469   2.790   1.177  15.839  0.6168  0.3668  0.2477
 3352TIP3   OH231470   3.903   5.316  15.798 -0.5179  0.1759  0.1033
 3352TIP3    H131471   3.872   5.240  15.748  1.6654  0.7297 -2.2117
 3352TIP3    H231472   3.823   5.360  15.826 -1.8132 -1.6916 -0.5638
 3353TIP3   OH231473   5.431   5.014  14.813  0.2695  0.9159  0.5736
 3353TIP3    H131474   5.338   5.014  14.789  0.6249 -0.5977 -0.9005
 3353TIP3    H231475   5.432   4.994  14.906 -0.8437 -0.1517  0.3593
 3354TIP3   OH231476   4.052   3.126  14.819  0.0537  0.1680  0.0585
 3354TIP3    H131477   4.096   3.100  14.738  0.2592 -0.0135  0.2258
 3354TIP3    H231478   3.986   3.190  14.792  0.7134  0.7678 -0.1381
 3355TIP3   OH231479   2.129   1.487  17.218 -0.3460  0.7050  0.8131
 3355TIP3    H131480   2.185   1.544  17.165 -0.0666 -0.0294  0.3067
 3355TIP3    H231481   2.183   1.463  17.293 -0.0759  0.2050  0.4565
 3356TIP3   OH231482   1.504   6.728   1.434 -0.0671  0.1351 -0.3751
 3356TIP3    H131483   1.584   6.675   1.426  1.9617  3.2040 -1.6281
 3356TIP3    H231484   1.495   6.770   1.348 -3.0503 -0.1254 -0.2243
 3357TIP3   OH231485   5.851   6.583  13.654  0.6705  0.2091  0.4802
 3357TIP3    H131486   5.766   6.575  13.611  0.9525  4.5355 -1.0308
 3357TIP3    H231487   5.899   6.506  13.624 -1.6795 -0.7607 -0.9930
 3358TIP3   OH231488   0.844   1.375  15.784  0.1348  0.0320 -0.5862
 3358TIP3    H131489   0.804   1.368  15.871 -0.2841 -1.5305 -0.8830
 3358TIP3    H231490   0.770   1.387  15.724  0.5403  2.6869 -0.5760
 3359TIP3   OH231491   1.973   4.785   5.402  0.3262  0.3160  0.1805
 3359TIP3    H131492   1.909   4.833   5.455 -0.7066  0.5521 -1.2567
 3359TIP3    H231493   2.001   4.848   5.335  0.6138 -0.3982 -0.3755
 3360TIP3   OH231494   4.790   5.031  11.511 -0.1217 -0.7027 -0.2426
 3360TIP3    H131495   4.767   5.060  11.422 -1.4999 -0.0743  0.3002
 3360TIP3    H231496   4.801   4.937  11.503  1.5151 -0.4273 -1.4420
 3361TIP3   OH231497   0.960   0.782   5.149 -0.0672 -0.8208  0.7035
 3361TIP3    H131498   1.021   0.840   5.103 -2.2470 -0.3518 -1.6860
 3361TIP3    H231499   1.016   0.713   5.186  1.7727 -1.3094 -2.7793
 3362TIP3   OH231500   1.449   1.887  15.040  0.1465 -0.0086  0.0810
 3362TIP3    H131501   1.473   1.891  14.948  0.6519  0.8744  0.2456
 3362TIP3    H231502   1.353   1.892  15.041  0.2255  2.2558 -0.2884
 3363TIP3   OH231503   6.518   1.391  11.892 -0.6354 -0.4513 -0.6948
 3363TIP3    H131504   6.459   1.351  11.828 -1.7057  0.0099 -0.0090
 3363TIP3    H231505   6.589   1.427  11.839 -0.7824 -1.3094 -1.5027
 3364TIP3   OH231506   0.694   1.075   1.705 -0.2760  0.1554 -0.7453
 3364TIP3    H131507   0.689   0.999   1.647 -0.1551 -0.6171  0.2232
 3364TIP3    H231508   0.768   1.055   1.763 -1.4895  0.0574  0.8256
 3365TIP3   OH231509   2.474   5.879   1.732  0.0135 -0.0382 -0.2780
 3365TIP3    H131510   2.428   5.845   1.656  1.2547  1.6326 -1.8012
 3365TIP3    H231511   2.475   5.805   1.794 -2.2776 -0.9362 -1.2665
 3366TIP3   OH231512   0.558   3.046   2.754  0.2081 -0.9184  0.0479
 3366TIP3    H131513   0.506   3.060   2.675  2.0748 -0.5726 -1.1374
 3366TIP3    H231514   0.494   3.053   2.826 -1.2576  0.1390 -1.3180
 3367TIP3   OH231515   0.289   0.127   4.038  0.1075 -0.2496 -0.1669
 3367TIP3    H131516   0.312   0.036   4.022  0.9090 -0.1029  0.1547
 3367TIP3    H231517   0.373   0.173   4.045 -0.2554  0.1542  1.8025
 3368TIP3   OH231518   6.091   1.849  11.737  0.4300  0.5884  0.0258
 3368TIP3    H131519   6.037   1.806  11.670  2.3270  0.0058 -1.1808
 3368TIP3    H231520   6.155   1.782  11.762 -0.0641  0.9044  2.2299
 3369TIP3   OH231521   3.872   4.114  16.060 -0.7924 -0.0322 -0.5522
 3369TIP3    H131522   3.930   4.190  16.054 -1.3271  0.5626  1.2969
 3369TIP3    H231523   3.930   4.041  16.079 -0.4092  0.1463 -1.0262
 3370TIP3   OH231524   5.417   5.341   4.673  0.1238 -0.2523 -0.0776
 3370TIP3    H131525   5.342   5.355   4.731 -0.1833 -0.7616 -0.3448
 3370TIP3    H231526   5.398   5.393   4.596 -0.8274 -1.7867 -0.9054
 3371TIP3   OH231527   4.171   0.671   2.605  0.2450 -0.4608 -0.2256
 3371TIP3    H131528   4.164   0.583   2.642  2.5268  0.2508  2.0826
 3371TIP3    H231529   4.208   0.724   2.676  1.1410  1.8471 -2.3279
 3372TIP3   OH231530   6.483   6.177   5.323  0.6358  0.1881 -0.5574
 3372TIP3    H131531   6.501   6.260   5.279 -0.1913 -0.4522 -2.1305
 3372TIP3    H231532   6.458   6.203   5.412 -0.0190  1.6518 -1.1456
 3373TIP3   OH231533   5.835   1.759   3.085 -0.2133 -0.0124 -0.1553
 3373TIP3    H131534   5.919   1.792   3.053 -0.2111 -0.2024 -0.3540
 3373TIP3    H231535   5.839   1.769   3.180 -0.9972  2.3790 -0.3498
 3374TIP3   OH231536   1.285   2.243  16.090 -0.0624 -0.3125  0.3279
 3374TIP3    H131537   1.193   2.222  16.074  0.7536 -3.7595 -0.2960
 3374TIP3    H231538   1.287   2.273  16.181 -1.9511  1.0625 -0.0367
 3375TIP3   OH231539   0.364   3.562  12.865  0.0849 -0.1647 -0.2709
 3375TIP3    H131540   0.369   3.471  12.835  1.5941  0.5134 -2.2553
 3375TIP3    H231541   0.318   3.558  12.948  0.8488 -2.8458  0.0704
 3376TIP3   OH231542   4.926   1.085  15.203  0.5616 -0.4720 -0.2982
 3376TIP3    H131543   4.871   1.141  15.148  1.0579  0.4363  0.1263
 3376TIP3    H231544   5.015   1.117  15.189  0.9114 -1.4493 -0.3929
 3377TIP3   OH231545   2.730   4.310  16.749 -0.8676  0.0852 -0.6006
 3377TIP3    H131546   2.641   4.281  16.728 -1.3927 -0.5121  2.2453
 3377TIP3    H231547   2.729   4.324  16.844  1.4492  2.2802 -0.8410
 3378TIP3   OH231548   0.674   4.281   1.512 -0.1804  0.0796 -0.4760
 3378TIP3    H131549   0.713   4.295   1.426  1.2490  2.3757  0.4787
 3378TIP3    H231550   0.749   4.264   1.569 -1.1433 -1.8433  0.2536
 3379TIP3   OH231551   5.821   1.285  11.306  0.1323  0.1314  0.0290
 3379TIP3    H131552   5.879   1.321  11.239 -1.5894  1.5863 -0.7220
 3379TIP3    H231553   5.821   1.350  11.375  1.0353 -0.8549  0.9712
 3380TIP3   OH231554   6.785   5.809  13.237 -0.7678  0.1731  0.8639
 3380TIP3    H131555   6.779   5.775  13.326 -1.1843  0.8016  1.0808
 3380TIP3    H231556   6.732   5.748  13.185  0.5415 -0.9397  0.8132
 3381TIP3   OH231557   6.440   3.556  11.374 -0.2467 -0.1086 -0.4954
 3381TIP3    H131558   6.465   3.636  11.421 -3.6365 -1.0605  3.2479
 3381TIP3    H231559   6.508   3.493  11.396  1.3847  1.1158 -1.8489
 3382TIP3   OH231560   6.282   4.965  16.057 -0.2022  0.0419 -0.5377
 3382TIP3    H131561   6.321   4.890  16.103 -0.6638 -0.7751 -1.4605
 3382TIP3    H231562   6.292   4.944  15.964  1.0837  1.8624 -0.8399
 3383TIP3   OH231563   6.118   4.697  11.634  0.2179  0.4049  0.2397
 3383TIP3    H131564   6.113   4.719  11.727  0.0263  0.9646  0.0990
 3383TIP3    H231565   6.212   4.691  11.616  0.3063  2.1536  0.0416
 3384TIP3   OH231566   1.211   2.837   3.554 -0.1556 -0.6497  0.2996
 3384TIP3    H131567   1.241   2.759   3.599  0.3322 -0.5828  0.0898
 3384TIP3    H231568   1.142   2.872   3.611  0.2876 -0.7008  0.8741
 3385TIP3   OH231569   3.071   3.723  16.835  0.2316 -0.4298 -0.3402
 3385TIP3    H131570   3.100   3.795  16.779 -0.4289 -0.3791 -0.6098
 3385TIP3    H231571   3.002   3.680  16.786 -0.8905  0.0880  0.7618
 3386TIP3   OH231572   1.129   5.619  13.848 -0.0476 -0.4824  0.2763
 3386TIP3    H131573   1.171   5.535  13.832  0.0461 -0.2675 -0.6146
 3386TIP3    H231574   1.168   5.650  13.930  1.0511 -0.6007 -0.1955
 3387TIP3   OH231575   1.322   1.989  12.364 -0.2371 -0.5421 -0.1544
 3387TIP3    H131576   1.299   2.076  12.398 -1.4783 -1.0529  0.3401
 3387TIP3    H231577   1.377   1.950  12.432  1.4259  0.3422 -0.9503
 3388TIP3   OH231578   2.178   1.373  16.351 -0.3759  0.0896 -0.0354
 3388TIP3    H131579   2.108   1.311  16.373 -1.3103  1.2581  0.3602
 3388TIP3    H231580   2.234   1.375  16.429  0.1249 -0.8891 -0.3730
 3389TIP3   OH231581   6.000   6.526   3.242 -0.0275  0.3264  0.1827
 3389TIP3    H131582   6.045   6.442   3.246  1.5366  1.1331 -0.1893
 3389TIP3    H231583   6.005   6.561   3.331  1.2409  1.0045 -0.1474
 3390TIP3   OH231584   3.766   5.872   4.338 -0.2294 -0.2958 -0.2389
 3390TIP3    H131585   3.783   5.955   4.294 -0.0980 -0.4343 -0.4489
 3390TIP3    H231586   3.684   5.841   4.300  0.6439 -1.1370 -1.4478
 3391TIP3   OH231587   1.821   1.397  14.804 -0.7087 -0.2269  0.1578
 3391TIP3    H131588   1.821   1.492  14.819  1.3615  0.0804 -1.5080
 3391TIP3    H231589   1.857   1.360  14.884  1.5059  0.6627 -0.3843
 3392TIP3   OH231590   4.272   0.884  16.240 -0.2187 -0.9560  0.1242
 3392TIP3    H131591   4.241   0.912  16.154  1.0567 -0.6337 -0.2380
 3392TIP3    H231592   4.347   0.940  16.258 -1.3399 -0.0501  2.0868
 3393TIP3   OH231593   3.464   1.970  15.863 -0.1836  0.4175  0.1058
 3393TIP3    H131594   3.403   1.977  15.936 -0.2227 -0.5788  0.1780
 3393TIP3    H231595   3.544   2.013  15.894 -0.8847  1.8911 -0.0559
 3394TIP3   OH231596   2.333   6.247   1.177 -0.0583 -0.2269 -0.3223
 3394TIP3    H131597   2.369   6.159   1.189  0.1953 -0.3978 -2.1380
 3394TIP3    H231598   2.371   6.298   1.248  0.5814 -1.3554  0.1692
 3395TIP3   OH231599   5.957   3.130   2.831  0.7114 -0.2490  0.5444
 3395TIP3    H131600   5.928   3.193   2.765  2.5984  0.5945  0.4822
 3395TIP3    H231601   5.888   3.131   2.898  0.7524  1.9250  0.5667
 3396TIP3   OH231602   2.901   4.334   2.425 -0.0984  0.1943 -0.3370
 3396TIP3    H131603   2.901   4.284   2.343  2.0407  2.2175 -1.6353
 3396TIP3    H231604   2.964   4.288   2.481  1.1802  0.8866 -1.1896
 3397TIP3   OH231605   2.231   4.651  14.293  0.2229  0.3940 -1.2084
 3397TIP3    H131606   2.139   4.666  14.272 -0.2101  0.4127  0.6465
 3397TIP3    H231607   2.253   4.719  14.356  0.6240 -1.4831  0.7368
 3398TIP3   OH231608   6.321   0.866   0.498  0.6834 -0.3138  0.0935
 3398TIP3    H131609   6.301   0.947   0.544  1.3497 -0.2643  0.3032
 3398TIP3    H231610   6.330   0.892   0.406  1.7699  0.0031  0.2841
 3399TIP3   OH231611   5.371   4.074   4.479  0.5406  0.0900 -0.5347
 3399TIP3    H131612   5.281   4.040   4.472  0.2133  0.6352  0.9244
 3399TIP3    H231613   5.395   4.059   4.570  1.6262  0.7403 -0.7104
 3400TIP3   OH231614   1.526   4.197  13.830 -0.8594  0.4918 -0.3657
 3400TIP3    H131615   1.556   4.137  13.898  0.1291  0.9752 -0.3661
 3400TIP3    H231616   1.577   4.173  13.753 -1.4046  0.4724 -0.7218
 3401TIP3   OH231617   3.083   5.623   0.946  0.1112 -0.1658 -0.2500
 3401TIP3    H131618   3.034   5.575   0.879  1.6057 -1.6011 -0.3554
 3401TIP3    H231619   3.101   5.708   0.906 -2.9003  0.6936  0.0869
 3402TIP3   OH231620   4.712   2.315  14.248  0.3628 -0.3111 -0.1346
 3402TIP3    H131621   4.753   2.304  14.162 -0.0412 -0.0044 -0.3658
 3402TIP3    H231622   4.636   2.369  14.231 -0.1796 -0.9373  0.2903
 3403TIP3   OH231623   6.659   3.983   5.675  0.4530 -0.9992  0.0037
 3403TIP3    H131624   6.736   4.031   5.645  1.3754 -2.3747  0.1807
 3403TIP3    H231625   6.614   3.959   5.594 -0.6393  1.1271 -0.0712
 3404TIP3   OH231626   4.362   0.686  11.192  0.2100 -0.1524 -0.3917
 3404TIP3    H131627   4.448   0.725  11.173 -0.3055  0.5540 -1.3138
 3404TIP3    H231628   4.345   0.710  11.283  0.2323  1.1644 -0.7199
 3405TIP3   OH231629   6.019   0.170  15.396 -0.4830  0.0306 -0.4252
 3405TIP3    H131630   6.039   0.241  15.458 -0.7235  0.6216 -1.0184
 3405TIP3    H231631   6.078   0.099  15.422 -0.3398  0.3890  0.2699
 3406TIP3   OH231632   4.771   2.772  11.578 -0.5921  0.5488  0.6990
 3406TIP3    H131633   4.858   2.783  11.614 -0.4490  1.1151  0.1829
 3406TIP3    H231634   4.727   2.856  11.591  0.2708  1.5660 -2.5840
 3407TIP3   OH231635   2.096   3.336   0.506 -0.1359 -0.9163 -0.4241
 3407TIP3    H131636   2.032   3.334   0.435 -0.3717 -2.6060 -0.1878
 3407TIP3    H231637   2.052   3.293   0.580  0.6504 -0.5447  0.2764
 3408TIP3   OH231638   0.584   4.483  13.055  0.6896 -0.3179 -0.2895
 3408TIP3    H131639   0.532   4.531  12.990  0.6008 -0.3516 -0.2420
 3408TIP3    H231640   0.646   4.548  13.089  1.6578 -0.6411 -1.4049
 3409TIP3   OH231641   3.346   2.262  11.233 -0.1630  0.0886 -0.3210
 3409TIP3    H131642   3.330   2.181  11.281 -0.8856  0.1208 -0.5105
 3409TIP3    H231643   3.325   2.332  11.295 -0.6387  0.1298 -0.5269
 3410TIP3   OH231644   6.031   3.289   3.165  0.4592  0.8045 -0.1298
 3410TIP3    H131645   5.970   3.362   3.164 -0.0238  0.3944 -0.9390
 3410TIP3    H231646   6.105   3.318   3.113  0.6517  1.0358  0.2676
 3411TIP3   OH231647   4.855   4.645   0.143  0.4852 -0.6579 -0.1458
 3411TIP3    H131648   4.891   4.614   0.227  1.6540 -1.3030 -0.8756
 3411TIP3    H231649   4.770   4.602   0.137  0.5141 -0.8279  0.5846
 3412TIP3   OH231650   1.395   0.216   0.424 -0.3229 -0.2326  0.0273
 3412TIP3    H131651   1.381   0.138   0.370  1.3458 -0.1376 -0.5987
 3412TIP3    H231652   1.477   0.198   0.470 -0.3948  0.7766  0.5573
 3413TIP3   OH231653   1.815   1.494  13.642  0.1062 -0.0156  0.6616
 3413TIP3    H131654   1.906   1.526  13.645 -0.1324  0.5941  1.5241
 3413TIP3    H231655   1.778   1.519  13.726 -1.0570  0.2849  0.0720
 3414TIP3   OH231656   0.959   6.303  13.089  0.3075 -0.0741  0.2043
 3414TIP3    H131657   0.890   6.362  13.118  0.8787  0.8724 -0.3461
 3414TIP3    H231658   0.912   6.228  13.052 -0.4134 -0.1956  1.3459
 3415TIP3   OH231659   5.500   0.104   4.284  0.0667 -0.1362  0.4439
 3415TIP3    H131660   5.426   0.163   4.272  0.4171  0.6309  1.9689
 3415TIP3    H231661   5.497   0.080   4.376  0.7887 -1.3702  0.1668
 3416TIP3   OH231662   5.894   6.243  11.551 -0.6397 -0.3761 -0.7395
 3416TIP3    H131663   5.889   6.314  11.487 -0.1223  1.6287  1.3928
 3416TIP3    H231664   5.940   6.280  11.626  0.6718 -3.3109  0.0131
 3417TIP3   OH231665   4.487   1.104   3.662 -0.3575 -0.5154 -0.4884
 3417TIP3    H131666   4.495   1.027   3.605 -2.4394 -0.7956 -0.4516
 3417TIP3    H231667   4.466   1.176   3.602  1.6596  0.0615 -0.5306
 3418TIP3   OH231668   3.588   1.216  13.216 -0.4426  0.1591  0.4547
 3418TIP3    H131669   3.513   1.233  13.159  0.0184  1.7410  0.3102
 3418TIP3    H231670   3.644   1.158  13.165  0.3001  2.1090 -0.9987
 3419TIP3   OH231671   1.642   3.361  13.680  0.0354  0.2345 -0.3469
 3419TIP3    H131672   1.644   3.417  13.603  0.5305  1.2268  0.3676
 3419TIP3    H231673   1.697   3.406  13.744 -0.6906 -0.3684  0.7286
 3420TIP3   OH231674   5.300   4.973   1.023  0.2279 -0.9707 -0.2242
 3420TIP3    H131675   5.305   4.946   1.115 -0.4112  0.4795  0.2592
 3420TIP3    H231676   5.391   4.990   0.998  0.1854  1.5139  1.0745
 3421TIP3   OH231677   4.533   4.618   0.492 -0.3538 -0.4205  0.1810
 3421TIP3    H131678   4.485   4.686   0.445  0.1303  0.1843  0.5468
 3421TIP3    H231679   4.516   4.538   0.443 -3.8592 -0.7265  1.7794
 3422TIP3   OH231680   4.087   3.302  16.893 -0.3258  0.8175 -0.3052
 3422TIP3    H131681   4.023   3.348  16.839  2.5004  0.9231 -3.8020
 3422TIP3    H231682   4.100   3.218  16.849  1.0308  0.3130  0.9894
 3423TIP3   OH231683   0.411   1.423   2.512 -0.0632  0.5163 -0.1491
 3423TIP3    H131684   0.365   1.351   2.468  0.2544  1.1424 -1.5429
 3423TIP3    H231685   0.345   1.492   2.521 -0.8344 -0.5095  2.6937
 3424TIP3   OH231686   0.854   0.861   1.842 -0.4305  0.1809 -0.0445
 3424TIP3    H131687   0.809   0.785   1.804 -1.1649  1.1771 -1.1872
 3424TIP3    H231688   0.947   0.840   1.833 -0.5659  0.3949 -2.4710
 3425TIP3   OH231689   6.474   1.052   5.219 -0.2147  0.3267  0.0709
 3425TIP3    H131690   6.460   0.970   5.172  0.6432  0.3522 -0.2334
 3425TIP3    H231691   6.413   1.049   5.292 -2.4300  0.8345 -1.7199
 3426TIP3   OH231692   3.506   3.337   4.136 -0.0827 -0.3192  0.3854
 3426TIP3    H131693   3.513   3.260   4.192 -0.4244 -0.6613 -0.0485
 3426TIP3    H231694   3.570   3.399   4.173  1.9504 -1.6885 -0.7103
 3427TIP3   OH231695   6.598   5.977   0.745 -0.0264  0.5436  0.5261
 3427TIP3    H131696   6.547   5.996   0.824  1.6323  0.1243  1.7139
 3427TIP3    H231697   6.683   6.018   0.760  0.7033 -0.5361 -0.5490
 3428TIP3   OH231698   0.076   1.629  15.181 -0.0623 -0.0014 -0.2508
 3428TIP3    H131699   0.001   1.639  15.122  0.0850  0.2442 -0.3966
 3428TIP3    H231700   0.077   1.536  15.203 -1.2376  0.2387  0.8448
 3429TIP3   OH231701   5.634   5.387   1.900  0.0444  0.5255  0.5745
 3429TIP3    H131702   5.540   5.377   1.887  0.2349 -0.1218 -0.3268
 3429TIP3    H231703   5.668   5.298   1.905  0.9912  0.6998 -1.9678
 3430TIP3   OH231704   0.158   5.216   4.699 -0.2248 -0.0845 -0.6946
 3430TIP3    H131705   0.109   5.284   4.744  0.1594 -0.4314  0.2704
 3430TIP3    H231706   0.105   5.194   4.622 -0.8238  0.6069 -0.4791
 3431TIP3   OH231707   4.754   5.076  13.967 -0.1150  0.4676  0.0196
 3431TIP3    H131708   4.744   5.142  14.036 -0.5219  0.0694  0.3400
 3431TIP3    H231709   4.688   5.010  13.987 -0.1303  0.2739 -0.6637
 3432TIP3   OH231710   2.384   0.179   6.485  0.1461  0.2458 -0.2768
 3432TIP3    H131711   2.471   0.211   6.507 -0.0255  1.9973 -1.9597
 3432TIP3    H231712   2.324   0.237   6.532 -0.1567  2.1534 -2.8711
 3433TIP3   OH231713   4.198   3.043   0.860  0.1699  0.2437  0.1850
 3433TIP3    H131714   4.276   3.057   0.806  0.2877  0.9067  0.5153
 3433TIP3    H231715   4.152   2.970   0.819 -0.7782  2.0215 -1.9645
 3434TIP3   OH231716   1.082   3.220   1.799 -0.4085  0.8392 -0.0464
 3434TIP3    H131717   1.143   3.243   1.869  0.5642  0.3244 -0.7065
 3434TIP3    H231718   0.996   3.243   1.833  0.0923  0.9383  1.1697
 3435TIP3   OH231719   0.593   2.456   2.431  0.4519 -0.6850 -0.3019
 3435TIP3    H131720   0.688   2.457   2.428  0.5128 -0.7413  1.4029
 3435TIP3    H231721   0.567   2.545   2.407  0.9406 -0.5747 -0.4136
 3436TIP3   OH231722   3.709   5.438  12.033 -0.4981  0.4303 -0.0076
 3436TIP3    H131723   3.654   5.394  12.099 -1.4808  2.6000  0.6648
 3436TIP3    H231724   3.780   5.477  12.084  0.2359 -0.1692 -0.5680
 3437TIP3   OH231725   5.311   0.698  15.445  0.2025 -0.0424 -0.3574
 3437TIP3    H131726   5.259   0.771  15.411  0.1662  0.0157 -0.1777
 3437TIP3    H231727   5.352   0.660  15.368  0.9574  0.7462 -0.3551
 3438TIP3   OH231728   4.406   1.429  15.446  0.0670 -0.4173 -0.2617
 3438TIP3    H131729   4.369   1.355  15.494 -0.6760 -0.7570 -1.3428
 3438TIP3    H231730   4.466   1.470  15.508  1.8736 -2.9877 -0.2320
 3439TIP3   OH231731   3.312   5.593  15.970 -0.1603 -0.6138  0.2874
 3439TIP3    H131732   3.276   5.594  16.059  0.0084 -1.5162  0.3707
 3439TIP3    H231733   3.379   5.525  15.971  0.3252 -0.1575 -0.3484
 3440TIP3   OH231734   5.817   5.591   6.192 -0.9951 -0.4363  0.0913
 3440TIP3    H131735   5.739   5.550   6.229 -2.0252  0.4160 -1.0998
 3440TIP3    H231736   5.797   5.601   6.099  0.1922  0.5694 -0.0669
 3441TIP3   OH231737   5.899   1.009  11.272 -0.1502  0.7842  0.3569
 3441TIP3    H131738   5.844   1.088  11.270 -0.1298  0.7717 -0.8425
 3441TIP3    H231739   5.861   0.956  11.342 -1.3817  0.9955 -0.1341
 3442TIP3   OH231740   1.148   3.214   3.509  0.3208  0.0803  0.0111
 3442TIP3    H131741   1.147   3.138   3.567 -1.4564 -0.8639 -1.1959
 3442TIP3    H231742   1.187   3.284   3.561  1.6680 -1.5719  1.2557
 3443TIP3   OH231743   0.084   4.161   1.314 -0.0049  0.3689  0.4339
 3443TIP3    H131744   0.080   4.142   1.220 -0.5945  0.3489  0.4643
 3443TIP3    H231745   0.137   4.241   1.320  1.9840 -0.9056  0.2646
 3444TIP3   OH231746   0.440   0.679   4.969  0.1002  0.0989 -0.4122
 3444TIP3    H131747   0.522   0.706   5.011 -0.1631 -0.4635  0.4772
 3444TIP3    H231748   0.380   0.662   5.042 -0.2399 -1.2764 -0.9993
 3445TIP3   OH231749   4.734   6.599  11.712 -0.3576 -0.1362  0.1045
 3445TIP3    H131750   4.672   6.655  11.665 -0.0788  0.2566  0.1982
 3445TIP3    H231751   4.679   6.538  11.760 -0.6978  0.5998  0.6665
 3446TIP3   OH231752   5.805   2.678  13.166  0.4255  0.1157  0.1530
 3446TIP3    H131753   5.741   2.701  13.098  1.9416 -0.8392 -1.6253
 3446TIP3    H231754   5.777   2.591  13.196  1.7913 -1.0695 -1.8266
 3447TIP3   OH231755   1.469   2.626   4.056 -0.2534  0.4836  0.4672
 3447TIP3    H131756   1.421   2.548   4.030  2.3570 -1.3156  0.8527
 3447TIP3    H231757   1.454   2.688   3.985 -3.2796  0.0678  0.6980
 3448TIP3   OH231758   1.679   2.608  12.484  0.1150  0.0456 -0.2935
 3448TIP3    H131759   1.762   2.583  12.524 -0.4984  0.2628  1.1794
 3448TIP3    H231760   1.627   2.527  12.486  0.1999 -0.0291 -0.9898
 3449TIP3   OH231761   6.766   2.998   6.188 -0.2390 -0.4612  0.0602
 3449TIP3    H131762   6.755   3.087   6.220  1.0098 -0.1419 -0.4147
 3449TIP3    H231763   6.823   2.956   6.253 -0.6171 -0.8454  0.1464
 3450TIP3   OH231764   5.338   6.496   2.019  0.3686 -0.2013  0.8369
 3450TIP3    H131765   5.333   6.459   1.931  0.5634 -0.3602  0.8914
 3450TIP3    H231766   5.416   6.551   2.017  0.1677  0.0850  0.8027
 3451TIP3   OH231767   3.951   3.712  17.185 -0.1751 -0.3926 -0.5366
 3451TIP3    H131768   4.013   3.643  17.163  0.6201 -0.0329  0.5646
 3451TIP3    H231769   3.933   3.755  17.101  0.8698 -0.6360 -0.8959
 3452TIP3   OH231770   4.357   4.761   5.233  0.2482 -0.2663  0.7775
 3452TIP3    H131771   4.316   4.773   5.319 -1.4812  0.8767 -0.1721
 3452TIP3    H231772   4.342   4.844   5.187  0.7483 -1.0207 -0.7899
 3453TIP3   OH231773   3.006   4.625  17.025  0.8375  0.2666  0.1077
 3453TIP3    H131774   3.026   4.620  16.931 -0.6556  1.4476 -0.3149
 3453TIP3    H231775   3.073   4.683  17.061  1.2162  0.0806 -0.2895
 3454TIP3   OH231776   4.314   4.173   2.950  0.1781 -0.5902 -0.1012
 3454TIP3    H131777   4.254   4.233   2.907  2.6116  1.8093 -0.2638
 3454TIP3    H231778   4.398   4.185   2.905  1.1955 -2.6842  1.1432
 3455TIP3   OH231779   5.851   1.288  15.729  0.2333 -0.0843  0.0469
 3455TIP3    H131780   5.844   1.257  15.820 -2.5831 -1.1688 -0.4906
 3455TIP3    H231781   5.931   1.247  15.696 -0.3921 -2.2379  1.1010
 3456TIP3   OH231782   2.727   0.447  10.552  0.0553  0.4881  0.3495
 3456TIP3    H131783   2.759   0.359  10.572  0.4439  0.5154 -0.1469
 3456TIP3    H231784   2.638   0.449  10.589 -0.0309 -0.1780  0.1802
 3457TIP3   OH231785   3.439   1.151  16.843  0.8635 -0.8822  0.2193
 3457TIP3    H131786   3.478   1.193  16.767  1.1585  1.3022  1.5297
 3457TIP3    H231787   3.510   1.144  16.906  0.1714 -0.8697  1.0103
 3458TIP3   OH231788   3.370   2.813   0.055  0.6064  0.0868 -0.4333
 3458TIP3    H131789   3.372   2.882   0.121 -1.2802  2.1707 -2.4403
 3458TIP3    H231790   3.281   2.779   0.059  1.4401 -2.0454  0.3161
 3459TIP3   OH231791   2.278   4.830  14.492 -0.7695 -0.5601  0.3473
 3459TIP3    H131792   2.285   4.761  14.558 -1.3869 -1.1370 -0.1867
 3459TIP3    H231793   2.253   4.908  14.541  2.1079 -0.1691  1.2754
 3460TIP3   OH231794   3.834   6.527  13.271 -0.1195 -0.1164 -0.8562
 3460TIP3    H131795   3.909   6.473  13.245 -0.4976  0.1690 -2.5996
 3460TIP3    H231796   3.872   6.611  13.297  0.5654 -1.4339  2.7681
 3461TIP3   OH231797   0.358   0.552  13.851  0.1825 -0.2112 -0.4774
 3461TIP3    H131798   0.300   0.603  13.795  0.0933 -1.6160 -1.7089
 3461TIP3    H231799   0.359   0.465  13.811  2.3920 -0.4681  0.0752
 3462TIP3   OH231800   0.608   3.941   2.921 -0.3701 -0.0369 -0.0887
 3462TIP3    H131801   0.537   3.924   2.984  1.1418 -1.0972  1.3787
 3462TIP3    H231802   0.570   4.003   2.858 -3.1225 -1.8420 -0.2946
 3463TIP3   OH231803   4.417   3.750  16.061  0.3729  0.3886 -0.1699
 3463TIP3    H131804   4.410   3.659  16.092  2.5546  0.6031  1.1116
 3463TIP3    H231805   4.376   3.802  16.130 -1.3653  0.3461 -1.1657
 3464TIP3   OH231806   1.787   3.876  15.276 -0.4542 -0.0928 -0.0570
 3464TIP3    H131807   1.818   3.851  15.189 -1.3085 -3.0952  0.4375
 3464TIP3    H231808   1.811   3.802  15.332 -1.0359  1.2473  1.9883
 3465TIP3   OH231809   0.043   0.321  13.438  0.0029  0.0452 -0.7646
 3465TIP3    H131810  -0.007   0.379  13.495  1.0397  0.9139 -0.7255
 3465TIP3    H231811   0.135   0.341  13.457  0.3792 -1.1756 -1.1868
 3466TIP3   OH231812   5.242   1.609   3.315  0.6580 -0.2545 -0.8434
 3466TIP3    H131813   5.173   1.588   3.377  0.3157  0.9233 -0.8175
 3466TIP3    H231814   5.317   1.556   3.344  0.1614 -0.5684 -0.1124
 3467TIP3   OH231815   3.872   6.441   3.556  0.0569 -0.0425  0.0621
 3467TIP3    H131816   3.928   6.491   3.497  1.3022 -1.7395 -0.2137
 3467TIP3    H231817   3.850   6.362   3.507 -1.4181 -0.0634  0.7233
 3468TIP3   OH231818   6.700   5.323   1.793 -0.1987 -0.0933  0.0313
 3468TIP3    H131819   6.711   5.248   1.734 -0.7881 -0.9035  0.9397
 3468TIP3    H231820   6.765   5.386   1.762  3.4587 -2.6767  1.9808
 3469TIP3   OH231821   0.743   2.623  16.724 -0.2387  0.4340 -0.6676
 3469TIP3    H131822   0.819   2.572  16.697 -1.8660 -2.1498 -0.4816
 3469TIP3    H231823   0.779   2.690  16.783  1.6129 -2.1546  1.2276
 3470TIP3   OH231824   4.998   2.862   2.914  0.3055  0.1138  0.1029
 3470TIP3    H131825   5.009   2.901   3.000 -0.1149  0.5724 -0.0495
 3470TIP3    H231826   4.930   2.915   2.872 -0.3926 -0.8853 -0.0453
 3471TIP3   OH231827   3.323   3.915  14.154 -0.7793 -0.1520 -0.0181
 3471TIP3    H131828   3.295   4.002  14.125  2.0898  0.5551 -0.7803
 3471TIP3    H231829   3.285   3.856  14.088 -2.4486  0.5258  0.3060
 3472TIP3   OH231830   3.330   4.506  17.113  0.4038  0.0936  0.3653
 3472TIP3    H131831   3.270   4.458  17.056  0.2708  0.8273 -0.1229
 3472TIP3    H231832   3.324   4.597  17.083  0.3597  0.4832  1.5255
 3473TIP3   OH231833   1.570   1.022   4.382  0.2296 -0.0456 -0.0586
 3473TIP3    H131834   1.617   1.055   4.458 -1.7850 -1.4147  1.8573
 3473TIP3    H231835   1.480   1.053   4.393 -0.0740 -0.1650 -1.9506
 3474TIP3   OH231836   4.185   3.471   2.982  0.3001  0.4381 -0.1502
 3474TIP3    H131837   4.181   3.481   2.887  0.6322  0.9064 -0.1177
 3474TIP3    H231838   4.102   3.507   3.014 -0.5534 -1.2939 -0.3866
 3475TIP3   OH231839   1.599   3.762  16.635 -0.4274  0.5573 -0.1824
 3475TIP3    H131840   1.570   3.752  16.545 -2.1339 -1.4589  0.5400
 3475TIP3    H231841   1.523   3.799  16.680  0.7173  2.4174  0.2686
 3476TIP3   OH231842   1.997   0.641  15.890 -0.0668 -0.0412  0.0202
 3476TIP3    H131843   1.988   0.727  15.931 -0.4402  0.1079 -0.3672
 3476TIP3    H231844   1.951   0.581  15.948  0.5044 -0.0390  0.4788
 3477TIP3   OH231845   6.719   6.210  11.780 -0.1533  0.9480 -0.2165
 3477TIP3    H131846   6.793   6.263  11.809 -0.6739  2.0756 -0.9427
 3477TIP3    H231847   6.648   6.273  11.766 -1.0863 -0.0555 -0.0733
 3478TIP3   OH231848   6.367   3.980  11.340  0.3981  0.3879 -0.2657
 3478TIP3    H131849   6.373   4.058  11.394  0.4544  1.3389 -1.6296
 3478TIP3    H231850   6.321   4.008  11.261  0.1630 -1.0210 -0.6504
 3479TIP3   OH231851   1.783   4.158  11.531 -0.6251 -0.4530  0.8544
 3479TIP3    H131852   1.725   4.088  11.561  1.9470 -3.0971 -0.1567
 3479TIP3    H231853   1.860   4.113  11.497  0.4562  2.8155 -1.2928
 3480TIP3   OH231854   1.837   1.702  12.580 -0.5914  0.3911  0.1278
 3480TIP3    H131855   1.804   1.719  12.492 -0.4072 -1.1622 -0.2580
 3480TIP3    H231856   1.812   1.612  12.598  2.0096 -0.3048  0.4711
 3481TIP3   OH231857   6.165   4.206   2.016 -0.4165  0.2134  0.2952
 3481TIP3    H131858   6.090   4.147   2.011  0.0796 -0.5497  1.5917
 3481TIP3    H231859   6.201   4.193   2.103  0.4392  1.5525  0.1707
 3482TIP3   OH231860   5.718   3.155  15.186 -0.9708 -0.0509  0.0177
 3482TIP3    H131861   5.769   3.178  15.108  1.3747 -1.3439  1.1158
 3482TIP3    H231862   5.657   3.088  15.156 -1.1084  0.5343 -1.0310
 3483TIP3   OH231863   5.040   1.446  15.457 -0.0292  0.1368  0.5187
 3483TIP3    H131864   4.999   1.514  15.404 -0.6618 -0.6295  0.0113
 3483TIP3    H231865   5.043   1.483  15.545  1.2649  1.5288 -0.0854
 3484TIP3   OH231866   2.088   2.265   3.371 -0.4798 -0.6700 -0.4587
 3484TIP3    H131867   2.107   2.283   3.463 -0.9522 -1.9411 -0.0949
 3484TIP3    H231868   2.038   2.341   3.341 -0.9146 -0.5587  0.5287
 3485TIP3   OH231869   2.169   5.815   2.533 -0.3836  0.2306  0.5646
 3485TIP3    H131870   2.089   5.770   2.504 -0.8792  1.1178  0.5363
 3485TIP3    H231871   2.197   5.865   2.457  0.0363  0.1481  0.6663
 3486TIP3   OH231872   3.351   0.800   5.359 -0.4703  0.6105 -0.6925
 3486TIP3    H131873   3.303   0.745   5.297  0.0693 -0.0670 -0.5151
 3486TIP3    H231874   3.283   0.854   5.400 -1.0669 -0.1931 -0.5979
 3487TIP3   OH231875   6.404   5.975   1.877 -0.4919  0.1147  0.4377
 3487TIP3    H131876   6.444   6.062   1.866 -0.0010 -0.3373 -1.5518
 3487TIP3    H231877   6.365   5.978   1.965  0.9699  1.7544  1.0721
 3488TIP3   OH231878   4.318   0.908   0.471  0.1959  0.0915 -0.0211
 3488TIP3    H131879   4.364   0.837   0.427  0.9538 -0.5962  1.8420
 3488TIP3    H231880   4.308   0.975   0.403 -0.5395 -1.7690 -1.8092
 3489TIP3   OH231881   0.557   0.746  14.564 -0.0432  0.1668 -0.4112
 3489TIP3    H131882   0.503   0.675  14.528 -0.9945 -0.0924  1.4453
 3489TIP3    H231883   0.501   0.823  14.560 -0.0956  0.1679  0.3590
 3490TIP3   OH231884   1.569   3.953  11.642 -0.2020 -0.3972 -0.3271
 3490TIP3    H131885   1.631   3.904  11.697 -0.1581  0.5243  0.4677
 3490TIP3    H231886   1.488   3.955  11.694 -0.2803  0.1544 -0.4714
 3491TIP3   OH231887   0.584   2.544  12.803  0.2218  0.3160  0.3697
 3491TIP3    H131888   0.560   2.594  12.725  0.1573 -0.6978 -0.2735
 3491TIP3    H231889   0.676   2.567  12.819  0.6318 -0.4523 -0.7835
 3492TIP3   OH231890   0.664   2.914  15.611  0.0291 -0.4115  0.1161
 3492TIP3    H131891   0.669   2.889  15.703  2.2544 -0.6201 -0.0350
 3492TIP3    H231892   0.665   2.830  15.564  0.0129 -0.2720 -0.1309
 3493TIP3   OH231893   2.827   6.178   2.509  0.0004 -0.2020  0.3482
 3493TIP3    H131894   2.914   6.209   2.482  0.2357  1.0465  2.4669
 3493TIP3    H231895   2.844   6.097   2.557 -0.0740 -0.3050  0.2017
 3494TIP3   OH231896   1.444   2.279   5.307  0.2380 -0.2532 -0.0657
 3494TIP3    H131897   1.471   2.368   5.330  1.1839 -0.6817  0.4611
 3494TIP3    H231898   1.465   2.226   5.383 -0.0213 -0.9991 -0.5033
 3495TIP3   OH231899   3.624   6.703  15.207 -0.3048 -0.6869 -0.1850
 3495TIP3    H131900   3.710   6.661  15.207 -0.6197 -1.3369 -0.4978
 3495TIP3    H231901   3.610   6.730  15.117 -0.2923 -0.2915 -0.0696
 3496TIP3   OH231902   0.552   2.661  15.995 -0.0380  0.3958  0.0594
 3496TIP3    H131903   0.533   2.752  15.969  2.7035  0.9784 -0.0533
 3496TIP3    H231904   0.529   2.658  16.088  1.4099  1.7000  0.4872
 3497TIP3   OH231905   3.025   4.139   5.133 -0.4266 -0.2979 -0.3014
 3497TIP3    H131906   3.076   4.102   5.205 -0.1286 -0.4841 -0.6106
 3497TIP3    H231907   3.000   4.226   5.164 -0.6376 -0.5304  0.1917
 3498TIP3   OH231908   2.564   2.750   0.351  0.4655 -0.1969 -0.1650
 3498TIP3    H131909   2.586   2.764   0.443 -0.1344 -1.8482  0.2551
 3498TIP3    H231910   2.490   2.689   0.353  0.0930  0.1707 -1.7289
 3499TIP3   OH231911   5.162   0.554  14.989 -0.0843  0.0343  0.2430
 3499TIP3    H131912   5.078   0.585  14.954  0.3171 -0.3435 -1.0853
 3499TIP3    H231913   5.170   0.597  15.074 -1.8149 -0.2394  0.5592
 3500TIP3   OH231914   5.128   4.848   1.228  0.6848 -0.6281 -0.2875
 3500TIP3    H131915   5.044   4.892   1.216  0.9386  0.6068  2.1306
 3500TIP3    H231916   5.114   4.760   1.192 -1.8272 -0.6465  0.6194
 3501TIP3   OH231917   4.245   5.371   4.284 -0.5292  0.0536 -0.2707
 3501TIP3    H131918   4.166   5.377   4.337 -0.8724 -1.0308 -0.6342
 3501TIP3    H231919   4.237   5.287   4.239  0.1626  0.5692 -1.3835
 3502TIP3   OH231920   1.022   0.674  14.497  0.4328 -0.6505 -0.5623
 3502TIP3    H131921   0.971   0.741  14.451 -0.6070 -0.7728  0.3832
 3502TIP3    H231922   0.956   0.623  14.544  1.5423  0.3518  2.2193
 3503TIP3   OH231923   6.692   2.011   3.300  0.2653 -0.2931 -0.4432
 3503TIP3    H131924   6.688   2.077   3.370  2.1752 -1.5587  0.8826
 3503TIP3    H231925   6.746   2.052   3.233 -1.9381  1.1065 -1.4413
 3504TIP3   OH231926   0.082   4.003   3.077 -0.1132  0.1488 -0.0778
 3504TIP3    H131927   0.057   3.950   3.002 -0.1944  0.9975 -0.6516
 3504TIP3    H231928   0.118   4.084   3.039  0.4144  0.3263  0.7798
 3505TIP3   OH231929   5.876   5.812  14.639 -0.5230  0.6657  0.1813
 3505TIP3    H131930   5.830   5.836  14.559  0.0500 -0.6061 -0.5516
 3505TIP3    H231931   5.906   5.895  14.676  0.0999  1.1750 -1.4594
 3506TIP3   OH231932   3.227   2.470   5.743  0.1654 -0.9471 -0.3052
 3506TIP3    H131933   3.179   2.407   5.797 -1.4394  1.5656  1.2737
 3506TIP3    H231934   3.167   2.491   5.672  0.4607 -0.7455 -0.4975
 3507TIP3   OH231935   4.816   2.580  12.468 -0.0458  0.1354 -0.1336
 3507TIP3    H131936   4.896   2.615  12.427  0.2604 -0.5221 -0.0999
 3507TIP3    H231937   4.752   2.578  12.396  0.3401 -0.5292 -0.4613
 3508TIP3   OH231938   2.437   3.719  12.028  0.1300  0.0491  0.1200
 3508TIP3    H131939   2.483   3.738  12.110 -0.5766  2.2998  0.0246
 3508TIP3    H231940   2.498   3.749  11.960 -0.3466  0.5324 -0.0924
 3509TIP3   OH231941   2.696   2.494   2.679  0.6011  0.1631  0.5034
 3509TIP3    H131942   2.665   2.444   2.754 -0.4548  2.6930  1.8194
 3509TIP3    H231943   2.617   2.534   2.642  1.1540 -0.6862 -1.7246
 3510TIP3   OH231944   0.846   5.976  12.218 -0.5824  0.3811 -0.1257
 3510TIP3    H131945   0.796   5.937  12.146 -1.3681  0.8397  0.1686
 3510TIP3    H231946   0.794   5.958  12.296 -0.1975  0.7105  0.2097
 3511TIP3   OH231947   6.530   5.852  13.395 -0.3273 -0.1755 -0.1019
 3511TIP3    H131948   6.442   5.867  13.429 -0.0328  2.3108 -0.3337
 3511TIP3    H231949   6.530   5.893  13.309  0.9023 -0.6263 -0.3269
 3512TIP3   OH231950   4.379   0.602   2.429 -0.1853  0.2189 -0.3777
 3512TIP3    H131951   4.304   0.617   2.486  0.1419 -1.7164  0.6095
 3512TIP3    H231952   4.428   0.684   2.432 -2.1430  1.4204 -0.8800
 3513TIP3   OH231953   5.922   4.826   0.199  0.0123  0.2268 -0.4295
 3513TIP3    H131954   5.859   4.894   0.173  0.6915 -0.0942 -3.0695
 3513TIP3    H231955   5.868   4.749   0.216 -0.4945  0.5897 -0.3691
 3514TIP3   OH231956   1.565   6.764   3.951 -0.0773 -0.3542  0.1234
 3514TIP3    H131957   1.576   6.677   3.988  0.8089 -0.3407 -0.0882
 3514TIP3    H231958   1.509   6.751   3.874  1.6957 -1.0480 -1.0743
 3515TIP3   OH231959   4.766   4.338  16.396  0.2835 -0.1392 -0.6618
 3515TIP3    H131960   4.817   4.271  16.442  0.1293 -0.1337 -0.4830
 3515TIP3    H231961   4.709   4.288  16.337 -1.4862 -0.2728  1.1378
 3516TIP3   OH231962   3.108   5.097   3.147 -0.6032  0.1299  1.0874
 3516TIP3    H131963   3.142   5.132   3.230 -1.3468 -2.0617  2.3821
 3516TIP3    H231964   3.015   5.080   3.165 -0.6729 -0.7720 -0.0559
 3517TIP3   OH231965   1.083   3.215  12.810  0.0955  0.3770  0.5212
 3517TIP3    H131966   1.094   3.297  12.761 -0.2456 -0.4984 -1.0469
 3517TIP3    H231967   0.988   3.206  12.821  0.2032  0.8486  1.8184
 3518TIP3   OH231968   1.425   1.158   0.737 -0.3017 -0.5137 -0.7287
 3518TIP3    H131969   1.461   1.160   0.826 -1.6808  0.4444 -0.1626
 3518TIP3    H231970   1.430   1.066   0.711  1.3350 -0.5860 -0.1784
 3519TIP3   OH231971   1.652   5.387   1.616 -0.4843  0.2472  0.0459
 3519TIP3    H131972   1.683   5.478   1.624 -2.3643  0.9779 -0.5707
 3519TIP3    H231973   1.730   5.334   1.629  0.6918  1.9660  0.2477
 3520TIP3   OH231974   3.000   6.766   3.656 -0.1058  0.3388 -0.0749
 3520TIP3    H131975   2.969   6.804   3.738 -0.0742 -1.5244  0.8264
 3520TIP3    H231976   3.035   6.680   3.681  0.1011 -0.1634 -2.0061
 3521TIP3   OH231977   4.530   0.833   4.300 -0.5510 -0.6913 -0.1688
 3521TIP3    H131978   4.570   0.898   4.243 -0.1766 -0.5935  0.2023
 3521TIP3    H231979   4.435   0.844   4.287 -0.4958  0.0475  0.0267
 3522TIP3   OH231980   2.030   1.646   3.072  0.4880  0.3157 -0.0138
 3522TIP3    H131981   2.086   1.568   3.070  1.6989  1.1843 -0.3160
 3522TIP3    H231982   1.976   1.639   2.993 -1.0281 -1.3734  1.1299
 3523TIP3   OH231983   3.185   5.965   0.244 -0.0261  0.3865  0.1487
 3523TIP3    H131984   3.180   6.050   0.201 -0.5620  0.7302  0.8598
 3523TIP3    H231985   3.254   5.975   0.310  0.0281  0.2191  0.1176
 3524TIP3   OH231986   0.199   0.746  15.945  0.0831  0.1265 -0.1117
 3524TIP3    H131987   0.289   0.759  15.976  0.3460  1.7468 -1.4792
 3524TIP3    H231988   0.209   0.704  15.860 -0.3763  1.8387 -1.0320
 3525TIP3   OH231989   3.876   5.562  16.673 -0.1600  0.0782  1.0011
 3525TIP3    H131990   3.793   5.523  16.700  0.5677 -2.3848 -0.1121
 3525TIP3    H231991   3.919   5.584  16.756 -0.6972 -1.3649  1.6896
 3526TIP3   OH231992   1.190   0.126  11.715 -0.5704  0.1167 -0.3930
 3526TIP3    H131993   1.284   0.113  11.727 -0.3389 -0.4349 -2.5417
 3526TIP3    H231994   1.162   0.176  11.792  0.9418 -2.0510  1.6449
 3527TIP3   OH231995   3.355   0.105   4.259 -0.6501 -0.6320  0.1363
 3527TIP3    H131996   3.390   0.170   4.321 -0.5418  0.3335 -0.9170
 3527TIP3    H231997   3.432   0.061   4.224 -0.5966 -0.0420 -0.5166
 3528TIP3   OH231998   3.327   2.861  14.433  0.1432  0.1620 -0.0785
 3528TIP3    H131999   3.282   2.797  14.377  2.1423 -1.5837  0.2394
 3528TIP3    H232000   3.300   2.837  14.522 -1.0941  1.3858 -0.1079
 3529TIP3   OH232001   3.871   6.473   0.960  0.3186  0.1064 -0.1026
 3529TIP3    H132002   3.950   6.420   0.947  0.8396  0.5498  1.1977
 3529TIP3    H232003   3.874   6.537   0.889  2.1029  1.2824  1.0061
 3530TIP3   OH232004   0.129   2.574  13.856 -0.1024 -0.5869  0.1031
 3530TIP3    H132005   0.150   2.655  13.902 -2.1934 -0.0586  0.1731
 3530TIP3    H232006   0.155   2.505  13.917  1.0102  0.0399  0.3449
 3531TIP3   OH232007   4.592   4.634  13.467 -0.3427  0.2203  0.0960
 3531TIP3    H132008   4.498   4.649  13.459 -0.4541 -0.7092 -0.3635
 3531TIP3    H232009   4.617   4.681  13.547 -0.9995  1.3453 -0.3446
 3532TIP3   OH232010   1.837   5.904  15.942 -0.0946 -0.2616 -0.1731
 3532TIP3    H132011   1.892   5.931  15.868  0.9684 -0.3686  0.5639
 3532TIP3    H232012   1.846   5.809  15.945 -0.0439 -0.2459  0.1636
 3533TIP3   OH232013   4.813   1.487  12.993  0.2190  0.0135 -0.6608
 3533TIP3    H132014   4.888   1.448  12.948  0.1449 -1.0569  0.1506
 3533TIP3    H232015   4.842   1.499  13.083 -0.3920  0.1176 -0.4748
 3534TIP3   OH232016   3.945   3.344   1.964 -0.3676  0.3151 -0.0411
 3534TIP3    H132017   3.973   3.288   1.892  1.1088  1.4359 -0.3549
 3534TIP3    H232018   3.950   3.288   2.042  2.5530  0.4163 -0.1299
 3535TIP3   OH232019   5.729   6.421  15.446 -0.0786 -0.0175 -0.3613
 3535TIP3    H132020   5.714   6.332  15.478  2.1789 -0.4051 -0.3192
 3535TIP3    H232021   5.817   6.420  15.411 -0.9131  1.5819 -2.6215
 3536TIP3   OH232022   4.007   1.382  12.654  0.2843  0.2802 -0.1396
 3536TIP3    H132023   4.061   1.397  12.576  0.5925 -1.3519 -0.2560
 3536TIP3    H232024   3.989   1.288  12.653 -0.2448  0.3539  1.4136
 3537TIP3   OH232025   4.640   3.078   5.167  0.2502  0.1451 -0.2286
 3537TIP3    H132026   4.575   3.102   5.101  0.3905  1.2044  0.0071
 3537TIP3    H232027   4.601   3.103   5.250  0.1430 -1.0387  0.0928
 3538TIP3   OH232028   0.223   2.626   2.777 -0.1064  0.3179 -0.2199
 3538TIP3    H132029   0.192   2.665   2.695 -1.1065 -0.5302 -0.2446
 3538TIP3    H232030   0.282   2.556   2.749 -0.5745 -0.0765 -0.2098
 3539TIP3   OH232031   5.017   4.694   2.716 -0.2312  0.5558 -0.4454
 3539TIP3    H132032   5.092   4.731   2.763 -0.7238  0.3663  0.4949
 3539TIP3    H232033   4.960   4.659   2.785 -0.2483 -1.0636 -1.2660
 3540TIP3   OH232034   4.489   4.999   0.178  0.3928 -0.5184 -0.0837
 3540TIP3    H132035   4.426   4.981   0.248  1.4221  2.0006  1.5241
 3540TIP3    H232036   4.532   4.915   0.163 -0.9047 -1.4459  1.2274
 3541TIP3   OH232037   5.485   0.794  14.451 -0.4728  0.0264  0.1881
 3541TIP3    H132038   5.505   0.836  14.535  1.8406  0.4326 -0.5407
 3541TIP3    H232039   5.413   0.846  14.415 -0.0846  1.1099  0.9625
 3542TIP3   OH232040   2.354   4.669   1.806 -0.2703 -0.5270  0.2854
 3542TIP3    H132041   2.279   4.613   1.822 -2.8710  2.3540 -1.2625
 3542TIP3    H232042   2.374   4.658   1.713  1.5888 -1.6355  0.7822
 3543TIP3   OH232043   6.114   1.794   2.539  0.6330  0.5521 -0.2494
 3543TIP3    H132044   6.055   1.721   2.519  0.3234  0.5954  0.5003
 3543TIP3    H232045   6.174   1.797   2.465  0.6240 -0.4374 -0.2993
 3544TIP3   OH232046   2.249   5.315  12.260  0.0376  0.0318  0.0766
 3544TIP3    H132047   2.158   5.343  12.264 -0.3851 -1.0494 -1.6698
 3544TIP3    H232048   2.299   5.395  12.274 -1.1833  0.9651 -0.7993
 3545TIP3   OH232049   5.794   5.670   3.306 -0.5114 -0.2169  0.7488
 3545TIP3    H132050   5.821   5.716   3.226 -1.3784  1.1059  1.2006
 3545TIP3    H232051   5.867   5.685   3.367 -0.8911  0.7754  0.9706
 3546TIP3   OH232052   6.276   1.049   0.695  0.6593  0.2313 -0.1982
 3546TIP3    H132053   6.224   1.127   0.679 -0.3638 -0.5836 -0.8920
 3546TIP3    H232054   6.317   1.065   0.780 -0.4094  1.0486  0.1798
 3547TIP3   OH232055   0.739   2.664   6.690  0.4626  0.2429  0.4131
 3547TIP3    H132056   0.654   2.621   6.691 -0.1293  1.3959  0.6123
 3547TIP3    H232057   0.802   2.593   6.704 -0.4779 -0.5672  0.5970
 3548TIP3   OH232058   0.757   2.817   2.060 -0.2810  0.4970 -0.4847
 3548TIP3    H132059   0.740   2.891   2.118 -0.7975 -0.7891  1.0590
 3548TIP3    H232060   0.844   2.833   2.024 -0.2084  1.6188  0.1776
 3549TIP3   OH232061   6.279   2.437  13.782  0.0158 -0.0383  0.3074
 3549TIP3    H132062   6.270   2.449  13.877 -0.7484  1.5338  0.0501
 3549TIP3    H232063   6.365   2.474  13.762 -1.0258  2.3130 -0.0134
 3550TIP3   OH232064   0.800   0.952   5.625  0.0812 -0.4605  0.4344
 3550TIP3    H132065   0.757   0.931   5.542  1.4193  0.0244 -0.3835
 3550TIP3    H232066   0.742   1.016   5.667  0.2373  0.5645 -0.8858
 3551TIP3   OH232067   4.301   4.871  15.284 -0.2321 -0.3263  0.0365
 3551TIP3    H132068   4.393   4.896  15.294 -0.2299 -0.0975 -0.5578
 3551TIP3    H232069   4.293   4.789  15.333  0.3258 -0.4339 -0.0542
 3552TIP3   OH232070   2.241   4.881   5.952 -0.0757  0.7843 -0.0889
 3552TIP3    H132071   2.184   4.958   5.957 -0.8424  0.3525 -2.0284
 3552TIP3    H232072   2.201   4.825   5.887  2.3115  0.2445 -1.1608
 3553TIP3   OH232073   0.018   6.208  13.073  0.2520  0.0594 -0.1009
 3553TIP3    H132074   0.024   6.293  13.116 -0.3180 -0.6512  1.3924
 3553TIP3    H232075   0.059   6.147  13.133 -0.9604 -1.0131 -0.3370
 3554TIP3   OH232076   5.480   2.316  15.588  0.3857 -0.8183  0.2269
 3554TIP3    H132077   5.523   2.399  15.608 -0.5997 -0.1643 -0.3196
 3554TIP3    H232078   5.392   2.325  15.626  0.4980 -1.8642  0.7287
 3555TIP3   OH232079   6.412   6.339  14.003 -0.3119  0.2444  0.6138
 3555TIP3    H132080   6.415   6.384  14.088  1.2901  0.8967  0.2294
 3555TIP3    H232081   6.333   6.285  14.008 -0.2122  0.2169  2.5547
 3556TIP3   OH232082   2.444   1.570  13.890 -0.4026 -1.1667  0.1782
 3556TIP3    H132083   2.446   1.528  13.976  1.2960 -1.2380  0.1208
 3556TIP3    H232084   2.469   1.501  13.829  0.9211 -0.4810 -0.0784
 3557TIP3   OH232085   5.239   4.196  13.456 -0.0989  0.4317  0.6055
 3557TIP3    H132086   5.157   4.147  13.449  0.9091 -1.0971 -0.8133
 3557TIP3    H232087   5.250   4.210  13.550 -0.7041 -1.5692  1.0011
 3558TIP3   OH232088   4.138   5.787  14.358  0.0443 -0.1699  0.3289
 3558TIP3    H132089   4.153   5.881  14.374  0.4986 -0.3899  1.2641
 3558TIP3    H232090   4.064   5.784  14.298  1.3565  0.8548 -1.3991
 3559TIP3   OH232091   3.373   3.103   5.897  0.2428 -0.0224 -0.1944
 3559TIP3    H132092   3.411   3.053   5.969 -0.9135 -0.0177  0.4404
 3559TIP3    H232093   3.422   3.185   5.896  0.6234 -0.2393  0.2431
 3560TIP3   OH232094   4.821   5.354  14.807 -0.0345  0.0739 -0.3233
 3560TIP3    H132095   4.838   5.313  14.892 -0.1842  2.0889  0.7210
 3560TIP3    H232096   4.774   5.288  14.757  0.3781 -1.2738  1.0445
 3561TIP3   OH232097   5.943   1.322  13.607 -0.1314 -0.7494 -0.3210
 3561TIP3    H132098   6.026   1.325  13.559 -0.7856 -2.3056 -1.6352
 3561TIP3    H232099   5.879   1.297  13.540 -1.4900 -0.4981  0.8760
 3562TIP3   OH232100   1.223   3.543   1.448 -0.3068 -0.3579 -0.3587
 3562TIP3    H132101   1.135   3.532   1.482 -0.2921  1.0548  0.1642
 3562TIP3    H232102   1.268   3.597   1.513  1.3975 -2.2784  0.1289
 3563TIP3   OH232103   4.010   0.745   0.798  0.4423 -0.1692  0.0080
 3563TIP3    H132104   4.023   0.810   0.729 -2.0907 -0.5084 -0.8177
 3563TIP3    H232105   3.982   0.796   0.874 -1.1925 -0.2277 -0.5370
 3564TIP3   OH232106   4.614   5.106  12.148  0.1670  0.5657 -0.0573
 3564TIP3    H132107   4.609   5.169  12.219  0.5684 -0.3826  0.8293
 3564TIP3    H232108   4.522   5.090  12.124 -0.0265  0.1322  0.9388
 3565TIP3   OH232109   2.076   3.672  13.517 -0.0691 -0.1938  0.2010
 3565TIP3    H132110   2.138   3.689  13.587  2.3797  0.2077 -1.9998
 3565TIP3    H232111   2.128   3.677  13.436 -3.5099  3.7441 -2.0140
 3566TIP3   OH232112   1.501   0.478   0.035  0.6154  0.0348  0.0800
 3566TIP3    H132113   1.498   0.561  -0.011  0.5455  0.1036  0.2125
 3566TIP3    H232114   1.448   0.491   0.114  0.1401 -0.3041 -0.1771
 3567TIP3   OH232115   2.813   2.117   1.934  0.4814  0.1655  0.4984
 3567TIP3    H132116   2.896   2.079   1.962  1.3634 -0.5317 -2.7591
 3567TIP3    H232117   2.832   2.209   1.919 -0.2281  0.7486  2.9584
 3568TIP3   OH232118   1.880   5.695  13.703  0.3465  0.1366 -0.1107
 3568TIP3    H132119   1.910   5.649  13.625 -0.3464  0.9201 -0.8523
 3568TIP3    H232120   1.921   5.781  13.698 -0.0456  0.3445  0.1584
 3569TIP3   OH232121   0.254   6.285   0.285  0.0580 -0.5816 -0.1775
 3569TIP3    H132122   0.322   6.342   0.249  0.9666 -0.0238  2.3269
 3569TIP3    H232123   0.297   6.239   0.357 -2.1105 -0.4217  1.2699
 3570TIP3   OH232124   2.762   4.533   3.437 -0.3711  0.0961  0.1472
 3570TIP3    H132125   2.741   4.498   3.351  1.5444 -0.0910 -0.2487
 3570TIP3    H232126   2.715   4.476   3.498  0.2821 -1.2901 -0.6385
 3571TIP3   OH232127   1.223   0.351   2.538 -0.4052 -0.2731 -0.2410
 3571TIP3    H132128   1.317   0.353   2.550 -0.5245  1.8407  0.6195
 3571TIP3    H232129   1.201   0.438   2.504 -2.0282 -0.7819 -0.5837
 3572TIP3   OH232130   1.229   4.856  12.903  0.3734  0.1493 -0.4673
 3572TIP3    H132131   1.164   4.792  12.874 -0.3674  0.4441  0.5133
 3572TIP3    H232132   1.306   4.804  12.926  0.3901 -0.2249 -1.3517
 3573TIP3   OH232133   3.547   0.004  11.821 -0.4172  0.3644 -0.3907
 3573TIP3    H132134   3.559  -0.011  11.915  0.6433 -1.6459 -0.8210
 3573TIP3    H232135   3.468  -0.045  11.799 -0.4137  0.4711 -0.6376
 3574TIP3   OH232136   1.024   0.126  12.878  0.1327  0.3209  0.4890
 3574TIP3    H132137   1.014   0.213  12.839 -2.6979 -0.3816 -0.4108
 3574TIP3    H232138   1.046   0.143  12.970  2.0590  1.9538 -0.2229
 3575TIP3   OH232139   5.909   4.351  16.479  0.2327  0.4591 -0.1212
 3575TIP3    H132140   5.875   4.434  16.512  0.2682  0.7832 -0.8790
 3575TIP3    H232141   5.917   4.295  16.556  0.9687  1.4197  0.5059
 3576TIP3   OH232142   5.628   4.831   5.045 -0.1995 -0.5101  0.2312
 3576TIP3    H132143   5.673   4.878   4.974  1.4588 -1.5046  0.5872
 3576TIP3    H232144   5.560   4.891   5.075 -1.3963 -0.3488 -2.6809
 3577TIP3   OH232145   0.885   1.824  11.988 -0.1391 -0.2901 -0.4242
 3577TIP3    H132146   0.850   1.783  12.067  0.5220  1.7242  0.9710
 3577TIP3    H232147   0.929   1.903  12.020 -0.3444  0.8658 -2.8812
 3578TIP3   OH232148   4.757   1.151  14.515 -0.3333 -0.4328  0.2464
 3578TIP3    H132149   4.852   1.144  14.522 -0.0232  3.2784  0.6805
 3578TIP3    H232150   4.727   1.166  14.605 -1.0453  0.9481 -0.2041
 3579TIP3   OH232151   4.502   6.585  13.774  0.4710  0.3793  0.1888
 3579TIP3    H132152   4.509   6.607  13.867 -1.0213 -0.3012  0.4724
 3579TIP3    H232153   4.489   6.670  13.731  0.0163  0.5846  0.7249
 3580TIP3   OH232154   2.061   0.495  17.171  0.2019  0.5544  0.1072
 3580TIP3    H132155   2.066   0.487  17.076 -0.6252 -0.2539  0.1256
 3580TIP3    H232156   1.989   0.557  17.186  0.0589  0.3637  0.2136
 3581TIP3   OH232157   1.779   0.778   3.759 -0.0266 -0.2657 -0.6755
 3581TIP3    H132158   1.842   0.761   3.829  1.1365  0.3523 -1.5623
 3581TIP3    H232159   1.739   0.693   3.742  2.0728 -1.1150 -1.5332
 3582TIP3   OH232160   0.909   0.759  14.050 -0.0957 -0.1456  0.3250
 3582TIP3    H132161   0.833   0.716  14.011  0.9474  0.5195 -2.5203
 3582TIP3    H232162   0.901   0.850  14.023  1.8016 -0.1034 -0.1591
 3583TIP3   OH232163   1.487   6.639  14.944 -0.4196 -0.1369  0.1088
 3583TIP3    H132164   1.563   6.694  14.923 -2.0151  1.1276 -2.7319
 3583TIP3    H232165   1.460   6.602  14.859 -2.4275 -1.2713  1.2015
 3584TIP3   OH232166   0.828   1.592  14.153 -0.8898  0.1983 -0.0421
 3584TIP3    H132167   0.766   1.527  14.120 -0.0708 -0.2896 -0.6462
 3584TIP3    H232168   0.884   1.612  14.077 -0.3500  0.6694  0.4789
 3585TIP3   OH232169   0.965   6.612  12.164  0.3752  0.0762 -0.3685
 3585TIP3    H132170   1.016   6.659  12.230 -0.4729  0.9866 -0.3436
 3585TIP3    H232171   0.894   6.571  12.213 -1.9103  3.0520 -0.9858
 3586TIP3   OH232172   5.316   4.739  12.309 -0.8794 -0.0646  0.1409
 3586TIP3    H132173   5.377   4.787  12.364 -0.1883 -1.7188  0.8671
 3586TIP3    H232174   5.278   4.673  12.368 -1.0765 -1.0400 -1.0645
 3587TIP3   OH232175   3.237   2.631  12.519  0.6898 -0.0664 -0.2927
 3587TIP3    H132176   3.153   2.666  12.549 -0.2372 -2.6752  0.2711
 3587TIP3    H232177   3.301   2.697  12.547 -0.7866  0.3338  2.3455
 3588TIP3   OH232178   0.140   2.973   4.545  0.0511  0.1779 -0.2630
 3588TIP3    H132179   0.059   3.010   4.580 -0.7218 -0.9226 -0.8800
 3588TIP3    H232180   0.155   3.020   4.463  1.8894  2.7970  1.4817
 3589TIP3   OH232181   3.261   5.358   2.931 -0.3588 -0.3275 -0.0475
 3589TIP3    H132182   3.290   5.397   2.848 -2.3819  0.2262 -0.5117
 3589TIP3    H232183   3.321   5.284   2.943  1.4180  0.9255 -0.8248
 3590TIP3   OH232184   2.673   2.757   5.241 -0.3719 -0.3742 -0.5220
 3590TIP3    H132185   2.694   2.692   5.174 -0.7392 -0.5387 -0.4806
 3590TIP3    H232186   2.638   2.832   5.192 -1.8907 -0.9978 -0.4342
 3591TIP3   OH232187   6.381   0.597   4.942 -0.5756 -0.2004 -0.0060
 3591TIP3    H132188   6.350   0.603   4.852 -0.3883  0.3562 -0.0352
 3591TIP3    H232189   6.468   0.557   4.935 -0.5440 -0.1202 -0.0767
 3592TIP3   OH232190   1.057   4.328  16.410  0.1868 -0.5630  0.0978
 3592TIP3    H132191   1.086   4.404  16.360  0.9416  0.2016  1.6581
 3592TIP3    H232192   0.977   4.299  16.366  0.9799 -0.0946 -1.6897
 3593TIP3   OH232193   3.446   6.098  13.855  0.1939 -0.2177  0.0295
 3593TIP3    H132194   3.460   6.192  13.862  0.0962 -0.2876  1.2721
 3593TIP3    H232195   3.527   6.064  13.818  0.5620  0.2541  0.3928
 3594TIP3   OH232196   4.350   2.009  11.040 -0.0202  0.3539 -0.4231
 3594TIP3    H132197   4.325   2.005  10.947 -0.7055  1.2913 -0.2877
 3594TIP3    H232198   4.425   2.068  11.043  1.8491 -1.9512 -0.7441
 3595TIP3   OH232199   2.462   6.187  14.269  0.1004  0.5997  0.7767
 3595TIP3    H132200   2.495   6.207  14.182 -1.4788  1.1358  0.2820
 3595TIP3    H232201   2.534   6.139  14.312  1.5653  1.9135 -0.1701
 3596TIP3   OH232202   0.691   0.859   1.530 -0.4848  0.7297 -0.4248
 3596TIP3    H132203   0.707   0.785   1.471  1.8855 -0.2459  1.3607
 3596TIP3    H232204   0.714   0.936   1.478  2.2756 -0.1672 -0.6035
 3597TIP3   OH232205   2.986   3.978   2.758 -0.0812 -0.1731  0.7484
 3597TIP3    H132206   3.007   3.929   2.678  0.4327 -0.6515  1.1763
 3597TIP3    H232207   2.917   3.927   2.801  0.1099 -0.2629  0.9474
 3598TIP3   OH232208   3.561   5.662   2.552  0.1810 -0.3505 -0.6552
 3598TIP3    H132209   3.628   5.635   2.489  0.0538 -0.5221 -0.7185
 3598TIP3    H232210   3.544   5.754   2.533 -0.6284 -0.6829 -1.5717
 3599TIP3   OH232211   6.454   5.159   5.218  0.0029 -0.1980 -0.0420
 3599TIP3    H132212   6.454   5.250   5.187  1.6502 -0.8246 -2.0412
 3599TIP3    H232213   6.451   5.107   5.138  1.6165 -1.8972  0.9660
 3600TIP3   OH232214   4.277   6.611  16.081  0.0067 -0.4357 -0.4218
 3600TIP3    H132215   4.308   6.695  16.113  0.3522 -0.6182 -0.2719
 3600TIP3    H232216   4.241   6.629  15.994 -0.0402 -0.1123 -0.3331
 3601TIP3   OH232217   6.777   3.277   1.036  0.5217 -0.0185  0.0719
 3601TIP3    H132218   6.827   3.313   0.963  0.2063  0.2939  0.0075
 3601TIP3    H232219   6.743   3.354   1.082  0.9453 -0.2117  0.7055
 3602TIP3   OH232220   5.090   4.854   4.542  0.1843 -0.2723 -0.4780
 3602TIP3    H132221   5.182   4.878   4.535 -0.3883  2.0466 -0.4520
 3602TIP3    H232222   5.052   4.917   4.603 -1.5663 -0.7723 -1.0017
 3603TIP3   OH232223   5.263   1.338  11.727  0.1773 -0.6742  0.0469
 3603TIP3    H132224   5.335   1.401  11.732  0.0803 -0.5625  0.0637
 3603TIP3    H232225   5.184   1.392  11.739 -0.0336 -0.4976 -1.9283
 3604TIP3   OH232226   6.234   0.146   3.953  0.3421 -0.2559  0.3884
 3604TIP3    H132227   6.310   0.156   4.011  0.3628 -1.9208  0.6837
 3604TIP3    H232228   6.220   0.233   3.917  1.5089  0.3934  1.4410
 3605TIP3   OH232229   3.147   1.645   0.530 -0.6543 -0.3027  0.1181
 3605TIP3    H132230   3.124   1.721   0.583  0.5637 -1.0549  1.7609
 3605TIP3    H232231   3.190   1.683   0.453  1.7423  0.6425  1.8430
 3606TIP3   OH232232   1.748   0.306   2.382 -0.0108  0.3121 -0.1288
 3606TIP3    H132233   1.697   0.235   2.422  3.4764 -3.5434 -2.1848
 3606TIP3    H232234   1.809   0.334   2.451  1.5835 -1.8028 -0.6492
 3607TIP3   OH232235   3.270   5.268  13.387 -0.0032 -0.0084  0.2511
 3607TIP3    H132236   3.313   5.193  13.347  1.8492 -0.2787  2.6407
 3607TIP3    H232237   3.206   5.229  13.447 -1.9610  0.3882 -1.5075
 3608TIP3   OH232238   4.045   5.423  14.434  1.2770 -0.0358  0.0791
 3608TIP3    H132239   4.105   5.453  14.503  2.1870  1.7176 -1.4089
 3608TIP3    H232240   4.086   5.454  14.353  0.3442 -2.2605 -1.2612
 3609TIP3   OH232241   2.994   4.892   1.138  0.9507 -0.2047 -0.3569
 3609TIP3    H132242   2.995   4.798   1.154 -0.4574 -0.3202 -0.8656
 3609TIP3    H232243   2.950   4.929   1.214  0.4451 -0.0795 -0.7082
 3610TIP3   OH232244   1.625   4.212  16.193  0.2635  0.6239 -0.2562
 3610TIP3    H132245   1.573   4.199  16.114 -1.4193  2.5122  0.4983
 3610TIP3    H232246   1.715   4.192  16.166 -0.3930  0.4864 -2.4301
 3611TIP3   OH232247   2.066   3.113  15.965  0.0749  0.4899 -0.5526
 3611TIP3    H132248   2.074   3.136  15.872  1.5340  0.2302 -0.5171
 3611TIP3    H232249   2.150   3.071  15.986 -0.5952 -0.2880  0.6478
 3612TIP3   OH232250   5.955   3.701  14.272 -0.0811  0.4157 -0.4435
 3612TIP3    H132251   5.957   3.606  14.276 -1.1038  0.2055 -3.3184
 3612TIP3    H232252   5.862   3.723  14.273  0.1511  1.3699  0.1688
 3613TIP3   OH232253   2.673   3.695   2.132 -0.3433  0.2428 -0.5928
 3613TIP3    H132254   2.592   3.649   2.154 -0.8707  0.3044 -2.3548
 3613TIP3    H232255   2.742   3.636   2.161 -1.0138 -0.2541  0.0171
 3614TIP3   OH232256   5.199   1.636   3.734 -0.5324  0.2888  0.2527
 3614TIP3    H132257   5.222   1.729   3.723 -1.4883  0.5818  0.6742
 3614TIP3    H232258   5.280   1.589   3.713  0.3296  1.2738  1.2880
 3615TIP3   OH232259   2.773   2.526  14.304  0.0118 -0.2853 -0.8385
 3615TIP3    H132260   2.835   2.556  14.371 -0.5905  0.7511 -0.7259
 3615TIP3    H232261   2.687   2.539  14.344 -0.3462  0.1195 -1.7184
 3616TIP3   OH232262   1.538   5.500  15.601 -0.1378  0.2097 -0.6545
 3616TIP3    H132263   1.458   5.461  15.638  0.6500 -1.8512 -1.0608
 3616TIP3    H232264   1.508   5.580  15.557 -1.8515 -0.1260 -0.1208
 3617TIP3   OH232265   5.050   5.405   1.823  0.3350  0.6735  0.8075
 3617TIP3    H132266   5.052   5.433   1.731  2.3263  0.4469  0.7550
 3617TIP3    H232267   4.957   5.391   1.842 -0.1222  0.9845 -1.0940
 3618TIP3   OH232268   4.153   6.321   4.755  0.0299 -0.6713  0.1662
 3618TIP3    H132269   4.174   6.230   4.735 -1.6029 -0.7470 -1.2004
 3618TIP3    H232270   4.188   6.371   4.681 -1.4588 -0.4536 -0.3933
 3619TIP3   OH232271   2.219   5.284   2.402  0.5699 -0.1477  0.0583
 3619TIP3    H132272   2.135   5.238   2.414 -0.0974  0.6491 -1.4132
 3619TIP3    H232273   2.255   5.290   2.490 -0.2246 -1.8041  0.5247
 3620TIP3   OH232274   5.960   2.899  15.799  0.2144  0.3443  0.1634
 3620TIP3    H132275   6.002   2.883  15.714 -0.4687  0.6762 -0.2353
 3620TIP3    H232276   5.984   2.823  15.852 -0.6170 -0.6106 -0.8068
 3621TIP3   OH232277   0.237   5.125   2.696 -0.0589 -0.1453  0.1875
 3621TIP3    H132278   0.247   5.034   2.723 -1.1599 -0.7669 -1.4153
 3621TIP3    H232279   0.147   5.130   2.663  0.0301  1.4937  0.1779
 3622TIP3   OH232280   6.676   3.325  17.187  0.0225  0.3003  0.0123
 3622TIP3    H132281   6.723   3.408  17.194  0.0498  0.4932 -2.2608
 3622TIP3    H232282   6.727   3.273  17.125  0.6059 -1.8648  2.2344
 3623TIP3   OH232283   1.623   3.608   5.515 -0.1840  0.6151  0.2757
 3623TIP3    H132284   1.641   3.518   5.488 -1.1374  0.0116  1.6088
 3623TIP3    H232285   1.636   3.660   5.435  0.6718 -0.6512 -0.4320
 3624TIP3   OH232286   5.509   1.343   2.119  0.3569  0.4537 -0.0475
 3624TIP3    H132287   5.515   1.433   2.149  0.2047  0.4337  0.0465
 3624TIP3    H232288   5.415   1.325   2.118  0.3346  0.5819 -0.9126
 3625TIP3   OH232289   0.565   3.670  13.694 -0.4992  0.4769  0.1880
 3625TIP3    H132290   0.556   3.576  13.708 -0.2567 -0.0863 -3.0312
 3625TIP3    H232291   0.652   3.681  13.656 -0.1674  2.1353  1.3659
 3626TIP3   OH232292   3.792   2.307  15.092 -0.3295 -0.0990  0.5311
 3626TIP3    H132293   3.701   2.315  15.120 -0.3209 -0.8428  0.7801
 3626TIP3    H232294   3.796   2.224  15.044  0.9357 -1.8157  3.4297
 3627TIP3   OH232295   6.287   5.122  14.518  0.0618 -0.4511  0.0067
 3627TIP3    H132296   6.200   5.092  14.546 -0.8313  0.4477 -1.7709
 3627TIP3    H232297   6.346   5.054  14.549 -1.5875 -2.4960 -1.2062
 3628TIP3   OH232298   2.968   3.994  16.967 -0.0775  0.0282  0.2597
 3628TIP3    H132299   2.962   4.060  17.036  0.8272  0.3240  0.0621
 3628TIP3    H232300   2.977   3.911  17.014 -2.1701 -0.0826  0.5235
 3629TIP3   OH232301   4.963   3.705   1.288  0.4143  0.1340  0.1448
 3629TIP3    H132302   5.022   3.755   1.232  0.2837  0.1711  0.0419
 3629TIP3    H232303   4.881   3.699   1.239  0.0905  0.7107  0.5921
 3630TIP3   OH232304   6.354   5.851   4.594 -0.2854 -0.1155  0.3319
 3630TIP3    H132305   6.346   5.915   4.523 -0.6467  0.7611  1.1504
 3630TIP3    H232306   6.383   5.902   4.670  1.7932 -1.3231  0.4008
 3631TIP3   OH232307   3.760   3.276  13.959  0.4216 -0.1964 -0.4710
 3631TIP3    H132308   3.675   3.262  13.918 -0.6148 -0.1341  1.5944
 3631TIP3    H232309   3.783   3.190  13.995 -0.2299  0.5006  1.6527
 3632TIP3   OH232310   2.860   2.149  11.972  0.0026 -0.4127 -0.3385
 3632TIP3    H132311   2.785   2.205  11.954 -0.0526 -0.2460  0.3993
 3632TIP3    H232312   2.824   2.060  11.974 -0.1997 -0.3233  0.1248
 3633TIP3   OH232313   2.477   6.191  11.357  0.0120 -0.5020  0.1311
 3633TIP3    H132314   2.503   6.195  11.265  0.4507 -1.1221  0.2280
 3633TIP3    H232315   2.469   6.282  11.383 -0.3979 -0.3212 -0.6035
 3634TIP3   OH232316   3.794   3.174   2.219  0.2135 -0.1240  0.0680
 3634TIP3    H132317   3.730   3.181   2.148 -1.0274 -0.3355  1.1505
 3634TIP3    H232318   3.751   3.121   2.285  1.1297  0.5687  1.2394
 3635TIP3   OH232319   3.515   3.001  17.109 -0.0847  0.1013  0.0985
 3635TIP3    H132320   3.432   2.974  17.070  0.3809  0.7449 -1.3640
 3635TIP3    H232321   3.497   3.003  17.203 -1.6244 -0.0963 -0.1699
 3636TIP3   OH232322   2.756   5.263  14.030 -0.1574  0.1150 -0.1731
 3636TIP3    H132323   2.766   5.317  13.952  0.2797  0.4510  0.1094
 3636TIP3    H232324   2.826   5.293  14.089 -0.6616  0.0651  0.4570
 3637TIP3   OH232325   2.456   2.740  12.079 -0.5196 -0.7472 -0.2868
 3637TIP3    H132326   2.401   2.797  12.025 -2.0754 -0.4104  1.6038
 3637TIP3    H232327   2.397   2.670  12.107  0.7267 -1.8890 -0.4385
 3638TIP3   OH232328   4.274   5.100  12.972 -0.2479  0.0532 -0.4743
 3638TIP3    H132329   4.310   5.183  12.939 -0.2608 -0.1355 -0.9663
 3638TIP3    H232330   4.200   5.082  12.915 -1.0716  0.3900  0.4827
 3639TIP3   OH232331   6.174   4.686  11.059 -0.1513 -0.0559  0.3034
 3639TIP3    H132332   6.202   4.637  10.982 -1.1585 -0.7302  0.3475
 3639TIP3    H232333   6.214   4.772  11.049  3.9234 -1.6762  1.5947
 3640TIP3   OH232334   6.437   3.217   4.173  0.5458 -0.4751  0.4463
 3640TIP3    H132335   6.392   3.283   4.121 -0.2784 -1.5700 -0.2696
 3640TIP3    H232336   6.495   3.173   4.111  1.9311  0.3069  1.1626
 3641TIP3   OH232337   4.812   5.130   3.572  0.2333 -0.3390 -0.1809
 3641TIP3    H132338   4.801   5.218   3.536 -0.3239 -0.2553  0.1874
 3641TIP3    H232339   4.854   5.080   3.502  0.6825  0.2569 -0.3372
 3642TIP3   OH232340   2.063   4.335  15.888  0.4646  0.4751 -0.0358
 3642TIP3    H132341   2.024   4.419  15.911 -0.9003  0.1889 -1.2080
 3642TIP3    H232342   2.134   4.356  15.828  0.5191  0.8391  0.1589
 3643TIP3   OH232343   3.856   5.182  14.240 -0.3816 -0.7348  0.0046
 3643TIP3    H132344   3.770   5.205  14.274  0.3567 -0.0316  1.4713
 3643TIP3    H232345   3.844   5.174  14.145 -1.6531  1.1751 -0.0159
 3644TIP3   OH232346   0.313   5.214  16.104  0.1479 -1.0773 -0.2540
 3644TIP3    H132347   0.223   5.222  16.134 -0.1542 -0.6889 -1.2595
 3644TIP3    H232348   0.347   5.137  16.150 -1.1756 -2.1576 -1.0675
 3645TIP3   OH232349   5.473   2.025   2.532 -0.2902  0.2262  0.1840
 3645TIP3    H132350   5.444   1.957   2.471  0.7051 -0.3541  0.3410
 3645TIP3    H232351   5.440   1.997   2.617 -1.6999  1.0492 -0.0807
 3646TIP3   OH232352   2.945   5.430  16.283 -0.3079 -0.5187  0.0933
 3646TIP3    H132353   2.865   5.422  16.230 -1.3029  1.4692  1.2232
 3646TIP3    H232354   2.976   5.519  16.266  1.4469 -1.1405 -0.0120
 3647TIP3   OH232355   1.488   6.353   0.106  0.8249  0.4450 -0.0142
 3647TIP3    H132356   1.514   6.381   0.018  0.0368 -2.8861 -1.3933
 3647TIP3    H232357   1.562   6.376   0.161  2.5436  0.0578 -2.0770
 3648TIP3   OH232358   2.757   4.689  14.596 -0.0332  0.5393 -0.5583
 3648TIP3    H132359   2.731   4.711  14.507 -3.0458  1.8994  0.5821
 3648TIP3    H232360   2.709   4.750  14.651  0.7687 -1.1087  2.0881
 3649TIP3   OH232361   6.233   4.310   5.245  0.4911 -0.1116  0.5108
 3649TIP3    H132362   6.242   4.226   5.291  0.1110 -0.0985  0.6092
 3649TIP3    H232363   6.176   4.290   5.171  1.8613 -0.3424 -0.4850
 3650TIP3   OH232364   2.565   3.394   1.271 -0.0135 -0.1470 -0.8221
 3650TIP3    H132365   2.619   3.436   1.204  1.1119 -1.3423 -0.6883
 3650TIP3    H232366   2.567   3.300   1.248  1.3493 -0.7243  1.5425
 3651TIP3   OH232367   3.957   4.755  15.226  0.0063 -0.4098 -0.0212
 3651TIP3    H132368   3.863   4.770  15.240 -0.0601 -1.0351  0.1992
 3651TIP3    H232369   3.981   4.690  15.292  0.6527 -0.0558  0.0990
 3652TIP3   OH232370   5.370   2.903   2.956 -0.2068  0.1301 -1.1977
 3652TIP3    H132371   5.382   2.950   3.039  0.8641  0.9659 -1.8207
 3652TIP3    H232372   5.372   2.810   2.982 -1.5745  0.3936 -0.0709
 3653TIP3   OH232373   4.871   4.923  17.212 -0.6585 -0.1914  0.0624
 3653TIP3    H132374   4.828   4.966  17.286  0.2877 -0.2703  0.6571
 3653TIP3    H232375   4.890   4.835  17.242  1.0197  0.2052  0.2377
 3654TIP3   OH232376   0.949   1.063   0.260  0.5444 -0.0799 -0.1130
 3654TIP3    H132377   0.903   1.057   0.177  0.0603 -0.1530  0.1575
 3654TIP3    H232378   1.029   1.112   0.240  1.1273 -1.3332 -0.9001
 3655TIP3   OH232379   1.258   3.036   2.111 -0.0992  0.1199  0.5433
 3655TIP3    H132380   1.274   2.948   2.076 -0.8495  0.5482 -0.9237
 3655TIP3    H232381   1.291   3.032   2.201  0.1897 -1.5593  0.3904
 3656TIP3   OH232382   1.362   5.912   6.348  0.2475 -0.3745  0.6587
 3656TIP3    H132383   1.281   5.861   6.357  0.7191 -1.1767  0.4703
 3656TIP3    H232384   1.423   5.851   6.306  0.7344  0.4499  0.1701
 3657TIP3   OH232385   1.252   6.328  10.862  0.7730 -0.5574 -0.4631
 3657TIP3    H132386   1.190   6.273  10.814 -0.1188  0.1887 -0.1752
 3657TIP3    H232387   1.338   6.291  10.840  0.3563 -0.5362 -2.2474
 3658TIP3   OH232388   3.268   0.361  15.251  0.4275  0.2620  0.1057
 3658TIP3    H132389   3.232   0.280  15.286  0.8525  0.0938  0.1617
 3658TIP3    H232390   3.330   0.332  15.183  2.5020  0.4187  1.8704
 3659TIP3   OH232391   4.652   1.733   5.120 -0.2548 -0.1398 -0.4984
 3659TIP3    H132392   4.691   1.820   5.123 -0.2084 -0.1303 -1.3317
 3659TIP3    H232393   4.571   1.741   5.171 -0.4194  0.4708 -0.8571
 3660TIP3   OH232394   5.776   6.609  14.240  0.5382  0.2969  0.2655
 3660TIP3    H132395   5.846   6.595  14.176 -0.7432 -3.1798 -0.4941
 3660TIP3    H232396   5.728   6.685  14.206  1.9309  0.6430 -1.0035
 3661TIP3   OH232397   4.065   5.316  17.010  0.0696  0.0288 -0.5022
 3661TIP3    H132398   4.118   5.384  16.969  0.5340 -0.4658 -0.7262
 3661TIP3    H232399   4.100   5.234  16.976  0.8838 -0.4319  1.3452
 3662TIP3   OH232400   6.661   0.916   1.138 -0.0191  0.0594  0.2914
 3662TIP3    H132401   6.748   0.938   1.105 -0.8981  0.1265 -2.0583
 3662TIP3    H232402   6.643   0.983   1.204  0.7076  1.4953 -0.9521
 3663TIP3   OH232403   5.193   2.871   3.794  0.3594  0.4991  0.0958
 3663TIP3    H132404   5.249   2.798   3.770  0.5624  0.9698 -0.8663
 3663TIP3    H232405   5.155   2.902   3.712 -0.6798  0.7057  0.6367
 3664TIP3   OH232406   3.847   4.688   0.731 -0.1887  0.8883 -0.1998
 3664TIP3    H132407   3.891   4.727   0.806 -0.6381  2.1523 -0.5637
 3664TIP3    H232408   3.775   4.749   0.712  0.5964  1.2128 -2.3492
 3665TIP3   OH232409   5.545   5.700   3.208 -0.0123 -0.2912  0.2737
 3665TIP3    H132410   5.537   5.796   3.204  0.6767 -0.2907 -1.3906
 3665TIP3    H232411   5.615   5.685   3.272 -0.6051  0.2866  1.0725
 3666TIP3   OH232412   6.402   5.359  12.249  0.6201  0.0950 -0.5410
 3666TIP3    H132413   6.398   5.418  12.174  1.5041  0.0600 -0.6206
 3666TIP3    H232414   6.363   5.409  12.321 -0.1988  0.1411 -1.0085
 3667TIP3   OH232415   2.954   6.153   5.980 -0.5664  0.4913 -0.0848
 3667TIP3    H132416   2.908   6.104   6.048 -0.2136  2.4731  1.6486
 3667TIP3    H232417   3.045   6.155   6.011 -0.5387  2.0095 -0.2509
 3668TIP3   OH232418   2.906   2.898  14.948 -0.1748  0.2213  0.4831
 3668TIP3    H132419   2.957   2.876  15.025 -0.8191 -0.2201  0.7882
 3668TIP3    H232420   2.815   2.895  14.977 -0.4639 -0.6775 -0.4546
 3669TIP3   OH232421   0.726   1.057   0.073  0.2114 -0.2038 -0.2230
 3669TIP3    H132422   0.719   0.965   0.048 -1.1350  0.0091 -0.6941
 3669TIP3    H232423   0.636   1.082   0.097  1.2132 -0.0861  3.8257
 3670TIP3   OH232424   3.716   5.606   4.101  0.1152  0.2354  0.3662
 3670TIP3    H132425   3.789   5.616   4.163  1.5896  1.1960 -1.4657
 3670TIP3    H232426   3.750   5.641   4.019 -1.5773 -1.5997 -1.1670
 3671TIP3   OH232427   5.728   1.488   3.175  0.0505  0.2509 -0.0835
 3671TIP3    H132428   5.745   1.571   3.132  0.6784  0.1320 -0.0751
 3671TIP3    H232429   5.721   1.509   3.268  2.0359  0.0572  0.1371
 3672TIP3   OH232430   3.339   6.238  11.749  0.1923 -0.2108  0.0516
 3672TIP3    H132431   3.397   6.205  11.680 -0.4184 -1.2724  0.0403
 3672TIP3    H232432   3.297   6.160  11.785 -0.7888  0.4911  0.4604
 3673TIP3   OH232433   3.697   2.808   2.038 -0.3104  0.4113  0.0988
 3673TIP3    H132434   3.739   2.809   2.124 -1.8360 -0.3596  0.8768
 3673TIP3    H232435   3.747   2.870   1.986  0.7270  0.7771  1.5059
 3674TIP3   OH232436   4.818   5.230  13.218  0.4876 -0.1891  0.5739
 3674TIP3    H132437   4.830   5.236  13.312 -0.1868 -2.7734  0.8635
 3674TIP3    H232438   4.830   5.137  13.198 -2.1367 -0.1648 -1.4680
 3675TIP3   OH232439   0.377   1.587   2.950  0.1125  0.0732 -0.8598
 3675TIP3    H132440   0.299   1.633   2.920  0.4352 -0.5757 -2.7778
 3675TIP3    H232441   0.346   1.501   2.977 -0.0565  0.3596 -0.1379
 3676TIP3   OH232442   4.768   4.576  12.276  0.1406 -0.5618  0.4158
 3676TIP3    H132443   4.833   4.523  12.322  0.1157 -1.9494 -1.0719
 3676TIP3    H232444   4.819   4.638  12.224  0.1893  0.3500  1.5348
 3677TIP3   OH232445   3.401   6.132  10.556  0.1419  0.0333  0.1731
 3677TIP3    H132446   3.369   6.219  10.532 -0.2636 -0.0525  0.3960
 3677TIP3    H232447   3.404   6.133  10.651  0.3978 -0.1037  0.1648
 3678TIP3   OH232448   4.695   6.518   1.193 -0.6245  0.0931  0.0148
 3678TIP3    H132449   4.687   6.445   1.254  0.0198  0.2395  0.2761
 3678TIP3    H232450   4.619   6.573   1.212  1.4362  2.0129  3.1962
 3679TIP3   OH232451   4.504   4.943  11.201 -0.2623 -0.0698  0.2996
 3679TIP3    H132452   4.489   4.855  11.235 -0.6035  1.2332  3.7005
 3679TIP3    H232453   4.416   4.980  11.190 -0.0962  1.0570  2.3922
 3680TIP3   OH232454   2.141   0.833   3.295 -0.5679  0.0286 -0.4749
 3680TIP3    H132455   2.087   0.755   3.284 -1.6252  0.7321 -0.3527
 3680TIP3    H232456   2.178   0.849   3.209 -0.4587 -0.5289 -0.5311
 3681TIP3   OH232457   4.743   0.956   2.446 -0.1447 -0.3235 -0.6223
 3681TIP3    H132458   4.677   0.906   2.495 -0.6098 -1.0463 -1.9371
 3681TIP3    H232459   4.754   0.906   2.365  0.7581  0.7385 -1.1595
 3682TIP3   OH232460   2.986   2.355  15.765 -0.3841  0.7025 -0.0824
 3682TIP3    H132461   3.078   2.339  15.741 -0.0157  0.9807  1.0961
 3682TIP3    H232462   2.987   2.443  15.804 -1.1964  0.7907 -0.2562
 3683TIP3   OH232463   2.737   6.679   3.599  0.0365  0.1567  0.2289
 3683TIP3    H132464   2.696   6.763   3.580 -2.7199 -0.3081  3.4811
 3683TIP3    H232465   2.825   6.701   3.629 -0.5613  1.8765  0.7626
 3684TIP3   OH232466   0.385   2.671  11.305 -0.1136 -0.9346 -0.4926
 3684TIP3    H132467   0.450   2.661  11.374 -0.3793 -0.2144 -0.1439
 3684TIP3    H232468   0.338   2.751  11.326  1.1342  0.4082 -2.6014
 3685TIP3   OH232469   1.180   4.519   4.990  0.3066 -0.0784  0.6732
 3685TIP3    H132470   1.241   4.504   4.917  1.7890  1.6781  1.5048
 3685TIP3    H232471   1.161   4.431   5.024  0.2250 -0.8517 -1.3070
 3686TIP3   OH232472   6.387   3.245  15.921 -0.5240  0.0709  0.1448
 3686TIP3    H132473   6.398   3.260  15.827 -0.3191  2.8375  0.5759
 3686TIP3    H232474   6.292   3.242  15.933 -0.5436 -0.7299 -0.2243
 3687TIP3   OH232475   3.863   1.766   4.219  0.0276  0.7027  0.0679
 3687TIP3    H132476   3.805   1.747   4.146  0.6772 -2.2109  0.2791
 3687TIP3    H232477   3.950   1.771   4.180 -0.1068  3.7395 -0.0295
 3688TIP3   OH232478   0.403   3.517   5.648 -0.0064  1.1083  0.5125
 3688TIP3    H132479   0.467   3.450   5.623  1.6792  2.4919  1.0397
 3688TIP3    H232480   0.344   3.472   5.710 -0.9743 -0.8117 -1.7231
 3689TIP3   OH232481   1.403   4.066  12.812  0.4452  0.1369  0.1798
 3689TIP3    H132482   1.379   4.047  12.903 -1.1422 -1.4006 -0.5297
 3689TIP3    H232483   1.497   4.082  12.815  0.2366  1.2361  2.2590
 3690TIP3   OH232484   4.915   5.340   1.320 -0.4283  0.5377  0.1211
 3690TIP3    H132485   4.877   5.252   1.321  0.9051 -0.0906 -2.1679
 3690TIP3    H232486   4.842   5.397   1.343 -1.8105 -1.0043 -0.3254
 3691TIP3   OH232487   6.027   3.990  13.499 -0.2437 -0.5625 -0.0356
 3691TIP3    H132488   6.095   4.058  13.507  0.5862 -1.5038  1.2521
 3691TIP3    H232489   5.949   4.030  13.537  0.5023 -0.6396  1.6494
 3692TIP3   OH232490   1.992   6.651  11.733  0.6715  0.8004 -0.3163
 3692TIP3    H132491   1.974   6.630  11.642  0.2531  1.6352 -0.4350
 3692TIP3    H232492   2.018   6.568  11.773  0.4612  0.3585 -1.0967
 3693TIP3   OH232493   3.195   3.105   4.850  0.2524 -0.0272 -0.0971
 3693TIP3    H132494   3.269   3.055   4.885  1.4668  1.0764 -1.0320
 3693TIP3    H232495   3.232   3.152   4.774 -1.6457 -0.2364 -1.1765
 3694TIP3   OH232496   1.270   1.364   5.247 -0.5847 -0.5217  0.0870
 3694TIP3    H132497   1.350   1.316   5.269  0.0074  0.8791  1.0179
 3694TIP3    H232498   1.258   1.426   5.319 -2.3478 -0.5018 -0.1939
 3695TIP3   OH232499   0.117   0.807  14.056  0.0843 -0.0115  0.3166
 3695TIP3    H132500   0.161   0.754  14.123  2.1391 -1.2511 -1.9308
 3695TIP3    H232501   0.058   0.746  14.012  0.8336  0.0843 -0.8358
 3696TIP3   OH232502   6.483   2.517   1.217 -0.2913  0.0990 -0.5128
 3696TIP3    H132503   6.486   2.457   1.143  2.8731  1.8273 -1.8995
 3696TIP3    H232504   6.543   2.480   1.281  0.2963  0.8184 -0.6339
 3697TIP3   OH232505   0.960   0.972  15.861  0.5774 -0.1159  0.2533
 3697TIP3    H132506   0.993   0.904  15.919 -0.5854 -0.3749  0.6083
 3697TIP3    H232507   0.930   0.925  15.784  2.0494  0.2213 -0.5557
 3698TIP3   OH232508   5.148   3.754  15.184 -0.1157 -0.4439  0.2124
 3698TIP3    H132509   5.117   3.750  15.093 -0.2703  1.4191  0.1692
 3698TIP3    H232510   5.169   3.846  15.198  1.6977 -1.0244  1.4832
 3699TIP3   OH232511   6.676   2.659   0.123 -0.2027  0.1417  0.1762
 3699TIP3    H132512   6.662   2.566   0.142 -2.2013  0.3522 -0.1766
 3699TIP3    H232513   6.741   2.660   0.053  0.2612 -0.9649  0.5790
 3700TIP3   OH232514   3.708   6.460  15.504  0.2118 -0.0762  0.1722
 3700TIP3    H132515   3.692   6.376  15.462  0.6713 -0.7942  1.4113
 3700TIP3    H232516   3.799   6.454  15.534  0.1790  0.7817  0.4504
 3701TIP3   OH232517   2.806   1.468   2.881 -0.0266 -0.2409  0.1551
 3701TIP3    H132518   2.764   1.473   2.967  0.1779 -1.3183  0.3190
 3701TIP3    H232519   2.743   1.509   2.821 -0.1967  0.4483  0.8017
 3702TIP3   OH232520   2.011   3.904   0.958 -0.5079  0.6464 -0.7544
 3702TIP3    H132521   2.102   3.923   0.979 -0.7869 -1.2455  2.6203
 3702TIP3    H232522   1.960   3.956   1.020 -1.7383  1.0888 -2.0921
 3703TIP3   OH232523   4.547   0.643  16.314  0.1238  0.3646 -0.1238
 3703TIP3    H132524   4.518   0.684  16.395 -0.2220 -0.2209  0.0526
 3703TIP3    H232525   4.467   0.610  16.272  0.1287  1.9693 -1.4423
 3704TIP3   OH232526   0.225   0.448   0.701 -0.1371 -0.3809  0.3210
 3704TIP3    H132527   0.130   0.437   0.706 -0.2022 -0.3158 -0.7205
 3704TIP3    H232528   0.239   0.494   0.619  0.7093  0.6967  1.0576
 3705TIP3   OH232529   5.372   0.967   4.687  0.1738  0.1002 -0.4176
 3705TIP3    H132530   5.376   0.881   4.646  0.9169 -0.7571  1.4040
 3705TIP3    H232531   5.463   0.995   4.692 -0.2317  2.0015 -3.0494
 3706TIP3   OH232532   6.730   4.538  11.581  0.3574  0.7976 -0.4482
 3706TIP3    H132533   6.793   4.542  11.509 -1.2195  4.1414 -1.7500
 3706TIP3    H232534   6.754   4.611  11.638 -0.5807  0.3263  0.5643
 3707TIP3   OH232535   4.700   0.827  12.563 -0.4490 -0.1115 -0.0886
 3707TIP3    H132536   4.735   0.820  12.474 -2.4917  0.1818 -0.9270
 3707TIP3    H232537   4.616   0.782  12.561 -0.6531  0.1279  1.6339
 3708TIP3   OH232538   1.912   5.000   4.047  0.5843 -0.6095  0.0852
 3708TIP3    H132539   1.903   4.905   4.054 -0.8316 -0.3814  1.5989
 3708TIP3    H232540   1.846   5.025   3.981  0.8047 -0.6462 -0.1504
 3709TIP3   OH232541   2.295   0.337  12.901 -0.0745 -0.4542 -0.0816
 3709TIP3    H132542   2.231   0.318  12.970 -0.3204 -1.2995 -0.5302
 3709TIP3    H232543   2.379   0.308  12.939 -0.4766 -2.7479 -0.8401
 3710TIP3   OH232544   1.268   3.649   2.174  0.2397 -0.0332 -0.1226
 3710TIP3    H132545   1.182   3.635   2.136  1.0859 -1.3881 -1.5944
 3710TIP3    H232546   1.266   3.601   2.257 -0.6800  0.6111  0.2306
 3711TIP3   OH232547   4.454   0.404  12.771 -0.5477  0.0696  0.0646
 3711TIP3    H132548   4.419   0.481  12.726 -1.0421 -0.9450 -1.3074
 3711TIP3    H232549   4.380   0.343  12.775 -0.5955  0.2113  2.4917
 3712TIP3   OH232550   4.121   1.287   2.464  0.0253  0.7051  0.1108
 3712TIP3    H132551   4.187   1.257   2.401 -0.1529 -1.4054  0.8818
 3712TIP3    H232552   4.172   1.321   2.538  0.2441  0.3504  0.1240
 3713TIP3   OH232553   5.854   1.518   3.947  0.2109 -0.0706 -0.1128
 3713TIP3    H132554   5.933   1.570   3.931  0.5625 -0.9184 -1.2396
 3713TIP3    H232555   5.882   1.427   3.935 -1.0879 -0.3441 -1.3007
 3714TIP3   OH232556   0.790   3.667   0.194 -0.1306 -0.0021  0.1484
 3714TIP3    H132557   0.749   3.752   0.211  0.1271  0.0820  0.3662
 3714TIP3    H232558   0.884   3.684   0.205  0.1379  0.2659 -2.2605
 3715TIP3   OH232559   3.688   0.172  14.085 -0.1548 -0.7980 -0.0955
 3715TIP3    H132560   3.747   0.170  14.160  0.7010 -0.5172 -0.7490
 3715TIP3    H232561   3.630   0.247  14.102  0.2790 -0.5056  0.1012
 3716TIP3   OH232562   2.081   0.831   5.002  0.0204  0.3233 -0.8186
 3716TIP3    H132563   2.153   0.870   4.953  1.1182 -0.6507  0.0021
 3716TIP3    H232564   2.057   0.753   4.953 -0.0133  0.2728 -0.7221
 3717TIP3   OH232565   5.064   6.663  14.570  0.2059 -0.6705  0.0099
 3717TIP3    H132566   5.031   6.634  14.485  0.8832 -0.3380 -0.3763
 3717TIP3    H232567   5.158   6.643  14.567  0.3351 -0.1334  0.4598
 3718TIP3   OH232568   2.603   5.499  15.467 -0.3040  0.7722 -0.2622
 3718TIP3    H132569   2.631   5.516  15.377  0.7825 -0.2787 -0.1212
 3718TIP3    H232570   2.638   5.572  15.518 -0.2542  0.9497 -0.5509
 3719TIP3   OH232571   4.479   0.782   4.883  0.3679 -0.6765 -0.7185
 3719TIP3    H132572   4.406   0.738   4.840  0.0525 -1.4670  0.5973
 3719TIP3    H232573   4.490   0.864   4.835  0.5473 -1.8849 -2.7828
 3720TIP3   OH232574   4.817   0.781   1.714  0.0824 -0.1898 -0.7736
 3720TIP3    H132575   4.818   0.707   1.653 -1.9499 -0.0293 -1.0670
 3720TIP3    H232576   4.764   0.848   1.669 -0.5352  0.3339  0.7048
 3721TIP3   OH232577   3.985   6.586   5.364 -0.3996  0.2557  0.1391
 3721TIP3    H132578   4.033   6.520   5.313 -0.6688  1.0432 -1.1381
 3721TIP3    H232579   4.053   6.640   5.404 -0.1952 -0.0974  0.2694
 3722TIP3   OH232580   3.966   2.490   5.169  0.0235 -1.1022 -0.3996
 3722TIP3    H132581   4.056   2.486   5.202  0.1141  1.8588 -0.1485
 3722TIP3    H232582   3.922   2.417   5.212  1.7004 -1.0977  1.4149
 3723TIP3   OH232583   0.764   0.149  17.078 -0.4615  0.4976  0.5665
 3723TIP3    H132584   0.805   0.199  17.149  1.2353  1.8153 -1.2775
 3723TIP3    H232585   0.789   0.058  17.097  0.7806  0.9378  1.1493
 3724TIP3   OH232586   0.557   6.604  16.191  0.2706 -0.1595  0.4730
 3724TIP3    H132587   0.612   6.621  16.114  0.6412  0.5677  0.9008
 3724TIP3    H232588   0.521   6.689  16.215 -1.4626 -0.6991 -0.1026
 3725TIP3   OH232589   0.471   4.236   1.195 -0.1476  0.0168  0.3574
 3725TIP3    H132590   0.448   4.144   1.212 -0.7886 -0.2163 -1.6885
 3725TIP3    H232591   0.563   4.242   1.222  0.2155 -1.4950 -0.4706
 3726TIP3   OH232592   6.162   4.368   2.273 -0.5022 -0.3021  0.2329
 3726TIP3    H132593   6.097   4.437   2.258  0.4241  0.5565  0.1048
 3726TIP3    H232594   6.246   4.408   2.248 -0.3101 -2.5425 -3.0543
 3727TIP3   OH232595   4.158   3.155   1.393 -0.7325  0.3522 -0.3119
 3727TIP3    H132596   4.191   3.071   1.424 -0.3647  0.5256 -0.2217
 3727TIP3    H232597   4.170   3.153   1.298  0.0980  0.6436 -0.2242
 3728TIP3   OH232598   6.777   5.791  10.658  0.3687  0.7690  0.6625
 3728TIP3    H132599   6.850   5.737  10.629  0.7076 -0.5372  3.7870
 3728TIP3    H232600   6.815   5.879  10.667  0.3334  1.1481 -2.3322
 3729TIP3   OH232601   2.069   6.402  15.493  0.3184 -0.0189 -0.2484
 3729TIP3    H132602   2.096   6.426  15.581  2.3580 -1.3983 -0.4736
 3729TIP3    H232603   2.118   6.461  15.435 -1.1077  0.9717 -0.4852
 3730TIP3   OH232604   0.840   5.240  15.461  0.3138  0.0221  0.3671
 3730TIP3    H132605   0.816   5.209  15.549 -1.2668 -0.6804 -0.2874
 3730TIP3    H232606   0.762   5.286  15.430  1.7385  2.5348  0.3109
 3731TIP3   OH232607   2.357   0.569   2.559  0.2595  0.3067 -0.1013
 3731TIP3    H132608   2.427   0.528   2.507  0.0152 -0.9934  0.5656
 3731TIP3    H232609   2.364   0.662   2.540  2.8820  0.3237  0.8126
 3732TIP3   OH232610   5.411   4.753  14.120 -0.0054 -0.1182 -0.1881
 3732TIP3    H132611   5.501   4.785  14.124  0.2919 -0.9010 -0.5615
 3732TIP3    H232612   5.390   4.754  14.027 -0.0036 -0.9736 -0.1983
 3733TIP3   OH232613   4.153   5.867   2.103  0.5196 -0.0968  0.1202
 3733TIP3    H132614   4.152   5.771   2.101  3.0849 -0.1723  0.6958
 3733TIP3    H232615   4.172   5.889   2.194  0.4623  0.9400 -0.1139
 3734TIP3   OH232616   1.547   2.362  13.705  0.3459  0.6227 -0.8908
 3734TIP3    H132617   1.468   2.314  13.728  0.1511  0.4549 -1.9033
 3734TIP3    H232618   1.517   2.452  13.693  0.5672  0.8471  0.1772
 3735TIP3   OH232619   4.295   0.580   3.305  0.4045  0.6108  0.2359
 3735TIP3    H132620   4.217   0.581   3.360  0.3080  0.8312  0.0913
 3735TIP3    H232621   4.352   0.515   3.347 -0.8220 -1.3286 -0.9950
 3736TIP3   OH232622   4.576   6.507  14.741 -0.1136  0.2021 -0.0766
 3736TIP3    H132623   4.664   6.479  14.716  0.3653  0.5245  1.1977
 3736TIP3    H232624   4.553   6.574  14.677  1.1426  1.1112  0.4060
 3737TIP3   OH232625   5.153   4.493  10.576  0.4784  1.0280  0.7457
 3737TIP3    H132626   5.172   4.432  10.648 -0.8623  0.4315  0.6063
 3737TIP3    H232627   5.153   4.437  10.498 -0.0248  1.3305  0.5272
 3738TIP3   OH232628   1.016   4.969  13.102  0.2856  0.2442 -0.5343
 3738TIP3    H132629   1.028   4.879  13.134  0.0554  0.0860 -0.8875
 3738TIP3    H232630   0.927   4.970  13.067  0.2742  0.6219 -0.4940
 3739TIP3   OH232631   0.215   3.490  14.560 -0.3362  0.5740  0.4446
 3739TIP3    H132632   0.264   3.559  14.605  0.9735  1.9977 -2.9687
 3739TIP3    H232633   0.275   3.416  14.556 -0.6685  0.2330  1.4744
 3740TIP3   OH232634   5.400   0.349  15.287  0.6874 -0.3800 -0.5362
 3740TIP3    H132635   5.410   0.260  15.253  0.0992 -0.6366 -0.0523
 3740TIP3    H232636   5.395   0.404  15.209  2.8194 -0.5551 -0.8340
 3741TIP3   OH232637   4.277   2.269  12.702 -0.1737 -0.2626  0.7952
 3741TIP3    H132638   4.361   2.232  12.729 -0.1369 -1.8603 -1.3556
 3741TIP3    H232639   4.289   2.290  12.609 -1.7960  0.5647  0.7528
 3742TIP3   OH232640   2.499   3.345  13.713 -0.3901  0.2198 -0.9024
 3742TIP3    H132641   2.591   3.321  13.699 -0.4369  0.0741 -0.9589
 3742TIP3    H232642   2.502   3.439  13.735  0.0805 -0.4671  2.1666
 3743TIP3   OH232643   0.299   2.260   5.465 -0.2521 -0.1424  0.4358
 3743TIP3    H132644   0.378   2.305   5.495 -0.8648  1.6129 -0.5209
 3743TIP3    H232645   0.277   2.200   5.537  1.4557 -0.0299  1.0675
 3744TIP3   OH232646   5.464   4.760   4.477 -0.0503 -0.4555  0.1110
 3744TIP3    H132647   5.432   4.818   4.547 -0.4092 -0.3335 -0.1509
 3744TIP3    H232648   5.387   4.709   4.451 -0.6861  1.6143 -2.2729
 3745TIP3   OH232649   3.439   0.694   2.380 -0.1326 -0.1710  0.1556
 3745TIP3    H132650   3.365   0.633   2.379  1.0969 -1.6717 -1.5948
 3745TIP3    H232651   3.498   0.660   2.446 -0.4187  0.3242  0.6699
 3746TIP3   OH232652   1.796   2.360  17.149  0.5685  0.6728  0.0953
 3746TIP3    H132653   1.760   2.273  17.166 -0.5610  0.8880 -1.1458
 3746TIP3    H232654   1.774   2.411  17.227 -0.5402  0.3942 -0.0317
 3747TIP3   OH232655   4.270   1.710  16.835  0.0505 -1.0255  0.1337
 3747TIP3    H132656   4.345   1.748  16.789 -0.2336 -1.9537 -1.1156
 3747TIP3    H232657   4.195   1.728  16.779 -0.1420 -3.0541 -0.3104
 3748TIP3   OH232658   1.837   4.315   4.508  0.0088  0.2078  0.3452
 3748TIP3    H132659   1.891   4.388   4.479  2.9138 -1.2255  1.8619
 3748TIP3    H232660   1.810   4.337   4.597  0.1305 -0.1666  0.4778
 3749TIP3   OH232661   6.019   3.212  15.614  0.3234 -0.4060 -0.2942
 3749TIP3    H132662   5.972   3.294  15.632  1.4983  0.7965 -2.4239
 3749TIP3    H232663   5.966   3.170  15.546  0.8434 -0.3751 -0.7224
 3750TIP3   OH232664   0.607   3.241  14.187 -0.1143  0.2531 -0.2423
 3750TIP3    H132665   0.676   3.255  14.122  0.5493  2.0676  0.8117
 3750TIP3    H232666   0.626   3.304  14.256 -2.1796 -0.0099  0.6038
 3751TIP3   OH232667   1.918   4.817   0.070 -0.0721 -0.1047  0.0576
 3751TIP3    H132668   1.867   4.747   0.030  0.3438 -0.6789  0.5172
 3751TIP3    H232669   1.893   4.896   0.021  1.4240 -0.9920 -2.2197
 3752TIP3   OH232670   4.897   3.743  12.764 -0.2813 -0.4489  0.5225
 3752TIP3    H132671   4.809   3.775  12.743 -0.2387 -0.4110  0.4022
 3752TIP3    H232672   4.955   3.816  12.740 -0.0838 -1.0274 -0.7691
 3753TIP3   OH232673   3.083   5.224  17.216  0.2369  0.6496 -0.4393
 3753TIP3    H132674   3.157   5.179  17.175  0.2892 -1.2715  1.6410
 3753TIP3    H232675   3.006   5.176  17.184  0.1768  0.1783  0.3859
 3754TIP3   OH232676   5.680   4.433   3.607  0.1255 -0.0268 -0.1294
 3754TIP3    H132677   5.767   4.403   3.634 -0.1292 -1.8273 -1.2180
 3754TIP3    H232678   5.679   4.421   3.513 -1.5183 -0.5904 -0.0538
 3755TIP3   OH232679   1.231   0.242  16.567 -0.2420 -0.3201 -0.6790
 3755TIP3    H132680   1.186   0.192  16.499  1.4063 -0.7134 -1.5109
 3755TIP3    H232681   1.226   0.186  16.645  0.0251 -0.9827 -1.1336
 3756TIP3   OH232682   3.896   4.887   4.378  0.5221  0.2001 -0.0981
 3756TIP3    H132683   3.834   4.939   4.430 -0.5808 -0.0623 -1.1155
 3756TIP3    H232684   3.894   4.800   4.418 -0.6325 -0.1137 -0.7986
 3757TIP3   OH232685   3.941   3.367  10.718  0.0917 -0.5053  0.3542
 3757TIP3    H132686   3.874   3.309  10.752  0.7948 -2.2406 -1.1573
 3757TIP3    H232687   4.003   3.378  10.791  0.2074 -2.0509  0.5043
 3758TIP3   OH232688   3.836   0.163  14.798  0.3479  0.3544 -0.8039
 3758TIP3    H132689   3.860   0.244  14.844 -1.2410  0.8406 -0.8050
 3758TIP3    H232690   3.870   0.093  14.853 -2.4905  0.8863  1.7641
 3759TIP3   OH232691   1.215   5.686  11.744  0.0993 -0.2393  0.2600
 3759TIP3    H132692   1.177   5.674  11.657 -0.3669 -0.5500  0.5010
 3759TIP3    H232693   1.175   5.617  11.797  0.9355 -0.5059  0.5484
 3760TIP3   OH232694   0.713   1.403  13.644 -0.0229  0.1068 -0.2023
 3760TIP3    H132695   0.733   1.495  13.625  2.7390 -0.6852 -1.4447
 3760TIP3    H232696   0.653   1.377  13.574 -2.2838  1.4326  1.2002
 3761TIP3   OH232697   3.615   5.314  11.085  0.1546 -0.0840 -0.1474
 3761TIP3    H132698   3.534   5.269  11.109  0.4702  0.2243  1.5145
 3761TIP3    H232699   3.603   5.336  10.992 -0.5734 -2.3625 -0.6460
 3762TIP3   OH232700   6.478   5.513  11.585 -0.2771  0.2990  0.4216
 3762TIP3    H132701   6.489   5.422  11.612 -2.5100  0.1948  1.0744
 3762TIP3    H232702   6.397   5.514  11.535 -0.3023  1.9443  0.4580
 3763TIP3   OH232703   1.621   0.085  15.577  0.1860  0.3581 -0.1414
 3763TIP3    H132704   1.707   0.084  15.535  0.9967 -0.7018  1.5050
 3763TIP3    H232705   1.564   0.040  15.515  0.8315  0.9261 -1.1736
 3764TIP3   OH232706   4.954   2.507   3.206  0.2878  0.4641 -0.4767
 3764TIP3    H132707   5.047   2.525   3.201  0.2600  1.1242  1.1197
 3764TIP3    H232708   4.934   2.507   3.300 -1.1243 -0.6403 -0.7485
 3765TIP3   OH232709   4.232   6.646  13.610  0.1449 -0.0535  0.1118
 3765TIP3    H132710   4.295   6.715  13.588 -0.3740  0.6354  0.7733
 3765TIP3    H232711   4.273   6.599  13.682  1.2105 -1.4367 -1.3624
 3766TIP3   OH232712   5.265   2.957  11.533 -0.0147  0.1103 -0.0164
 3766TIP3    H132713   5.269   3.043  11.575 -0.7367  0.2043 -0.1409
 3766TIP3    H232714   5.301   2.971  11.445  1.2320 -0.0265  0.4579
 3767TIP3   OH232715   1.422   0.967   6.454 -0.4120 -0.0293  0.5327
 3767TIP3    H132716   1.478   1.034   6.416  0.6530 -1.7046 -0.8801
 3767TIP3    H232717   1.467   0.941   6.535  0.2701 -0.5600 -0.0159
 3768TIP3   OH232718   3.751   2.968   1.320 -0.3629  0.0121 -0.0708
 3768TIP3    H132719   3.666   3.011   1.325  0.0900  0.7470  1.6435
 3768TIP3    H232720   3.814   3.033   1.353  0.6525 -1.0556  0.1515
 3769TIP3   OH232721   6.308   3.910   2.278 -0.1051 -0.2356  0.1158
 3769TIP3    H132722   6.241   3.961   2.233 -0.8063 -0.2945  1.0834
 3769TIP3    H232723   6.391   3.951   2.251 -0.6394  1.2078  0.6120
 3770TIP3   OH232724   1.995   2.306  11.947 -0.0073 -0.4614 -0.1069
 3770TIP3    H132725   1.945   2.227  11.965 -0.8087 -0.3027 -1.5889
 3770TIP3    H232726   2.048   2.285  11.870  2.2343 -0.6141  1.4127
 3771TIP3   OH232727   2.121   0.298  12.138 -0.1335  0.2173  0.9218
 3771TIP3    H132728   2.161   0.368  12.086 -1.3419 -0.8699 -1.5730
 3771TIP3    H232729   2.171   0.220  12.116  0.0655 -0.0461  2.2931
 3772TIP3   OH232730   0.763   3.218   5.855  0.0733 -0.6022 -0.0613
 3772TIP3    H132731   0.721   3.276   5.918  1.0486  0.2063 -0.1433
 3772TIP3    H232732   0.829   3.171   5.906 -1.4378 -2.4589  0.2461
 3773TIP3   OH232733   0.889   4.584  16.455 -0.8902  0.1365 -0.3513
 3773TIP3    H132734   0.897   4.624  16.542  1.1989 -1.7374  0.3958
 3773TIP3    H232735   0.935   4.644  16.396  0.8781 -0.3487  0.4898
 3774TIP3   OH232736   4.628   1.680  11.152  0.3819 -0.0575  0.0348
 3774TIP3    H132737   4.649   1.767  11.184  0.2429 -0.5597  1.5083
 3774TIP3    H232738   4.567   1.695  11.080  0.9331  1.0893 -0.2030
 3775TIP3   OH232739   4.066   2.014   3.307 -0.4194  0.0685 -0.1619
 3775TIP3    H132740   4.111   2.098   3.316  2.0250 -1.1038 -1.1734
 3775TIP3    H232741   3.990   2.034   3.253  0.5219  1.5102 -0.9822
 3776TIP3   OH232742   2.543   2.160  14.088 -0.2693 -0.2059 -0.1607
 3776TIP3    H132743   2.592   2.158  14.005 -1.4929  4.9836 -1.2150
 3776TIP3    H232744   2.610   2.152  14.156  1.4378  1.1515 -1.6364
 3777TIP3   OH232745   0.578   1.099   2.449  0.1804 -0.3007 -0.3397
 3777TIP3    H132746   0.635   1.137   2.382  0.2410 -0.3633 -0.3231
 3777TIP3    H232747   0.576   1.006   2.430  0.3773 -0.3500 -0.1199
 3778TIP3   OH232748   2.360   0.835   4.068  0.5473  0.1519 -0.0848
 3778TIP3    H132749   2.422   0.764   4.085  0.0945  0.2439  2.0040
 3778TIP3    H232750   2.276   0.791   4.056  0.3614  0.2962  0.6857
 3779TIP3   OH232751   1.221   5.774   0.646  0.1336  0.2072 -0.6152
 3779TIP3    H132752   1.291   5.786   0.582  0.7816 -2.0796 -0.3789
 3779TIP3    H232753   1.256   5.813   0.726  0.7206  0.0163 -0.7731
 3780TIP3   OH232754   3.052   1.347   6.295 -0.5490 -0.0863  0.4996
 3780TIP3    H132755   2.966   1.305   6.291 -0.2648 -0.7371  0.9798
 3780TIP3    H232756   3.105   1.299   6.232 -0.1847 -0.5518  1.1499
 3781TIP3   OH232757   0.047   2.994  14.239 -0.4181 -0.1830  0.6885
 3781TIP3    H132758   0.090   2.910  14.259 -0.2455  0.1676  1.7992
 3781TIP3    H232759   0.114   3.060  14.258 -0.1337  0.1618 -1.3609
 3782TIP3   OH232760   0.650   0.033   0.370  0.1975 -0.0947  0.0990
 3782TIP3    H132761   0.674   0.114   0.415 -1.4990  0.2391  0.4553
 3782TIP3    H232762   0.633  -0.030   0.441  0.5467 -0.4835 -0.1556
 3783TIP3   OH232763   6.505   6.681  10.423 -0.6922  0.3742 -0.7965
 3783TIP3    H132764   6.463   6.767  10.432 -1.4891 -0.1639  0.7308
 3783TIP3    H232765   6.512   6.648  10.512  1.6849 -0.1864 -1.1717
 3784TIP3   OH232766   1.752   2.366  15.327 -0.3621 -0.8512 -0.0461
 3784TIP3    H132767   1.658   2.382  15.317 -0.4653 -0.8477  0.9387
 3784TIP3    H232768   1.793   2.449  15.299 -0.6412 -0.8742 -0.5349
 3785TIP3   OH232769   2.389   6.427  15.490 -0.1916  0.3933 -0.0525
 3785TIP3    H132770   2.474   6.453  15.455  0.7053  0.2570  1.9631
 3785TIP3    H232771   2.373   6.341  15.451  0.5345  0.4758 -0.5439
 3786TIP3   OH232772   2.304   0.609   6.254  0.5305 -0.0167  0.7389
 3786TIP3    H132773   2.249   0.664   6.309 -0.3477 -1.3312  1.2032
 3786TIP3    H232774   2.386   0.601   6.303  0.6427  0.8491  0.6840
 3787TIP3   OH232775   0.648   1.832   2.365  0.3598  0.3304 -0.6454
 3787TIP3    H132776   0.707   1.885   2.420  0.2406  0.1262 -0.3235
 3787TIP3    H232777   0.657   1.743   2.399  0.1668  0.2315 -0.8574
 3788TIP3   OH232778   0.636   2.016   6.620  0.2711  0.3849 -0.1779
 3788TIP3    H132779   0.590   1.955   6.562 -0.2958  0.7170 -0.0798
 3788TIP3    H232780   0.680   1.960   6.684  1.4168 -0.0185 -1.2990
 3789TIP3   OH232781   3.622   2.142   5.932 -1.1475  0.5539  0.4086
 3789TIP3    H132782   3.663   2.094   5.860 -0.7316  0.2645  0.8402
 3789TIP3    H232783   3.528   2.123   5.923 -1.0740  0.3522  0.0704
 3790TIP3   OH232784   3.374   5.721   5.941 -0.5057  0.2895  0.2883
 3790TIP3    H132785   3.402   5.637   5.903  3.4233  1.3492  0.5881
 3790TIP3    H232786   3.374   5.705   6.035  0.6909  0.7063  0.3704
 3791TIP3   OH232787   1.616   4.965  12.361  0.1055 -0.1674  0.2512
 3791TIP3    H132788   1.591   4.874  12.381  1.2657 -0.8054 -1.1517
 3791TIP3    H232789   1.711   4.964  12.357  0.2419  1.5470  2.1208
 3792TIP3   OH232790   5.314   2.624  15.640 -0.3576  0.5700 -0.0098
 3792TIP3    H132791   5.264   2.702  15.617  0.3472 -0.0385 -3.8977
 3792TIP3    H232792   5.404   2.646  15.617  0.2737 -0.4781  1.3670
 3793TIP3   OH232793   2.717   1.670  10.990 -0.0091 -0.0235  0.1348
 3793TIP3    H132794   2.790   1.633  11.039 -0.6293 -2.1611 -0.4723
 3793TIP3    H232795   2.757   1.733  10.931  1.0370  0.6957  1.5869
 3794TIP3   OH232796   1.775   1.845  13.640  0.0140 -0.6262 -0.1350
 3794TIP3    H132797   1.721   1.923  13.628  0.7406 -0.2703 -1.2000
 3794TIP3    H232798   1.720   1.773  13.608 -0.1636 -0.3847 -0.3719
 3795TIP3   OH232799   6.320   5.789  15.892  0.5187  0.1386  0.1660
 3795TIP3    H132800   6.235   5.783  15.849  0.4869  0.5726  0.1621
 3795TIP3    H232801   6.312   5.865  15.951  1.3915  1.1293 -0.9585
 3796TIP3   OH232802   4.428   1.861  13.033  0.2559  0.2985  0.2642
 3796TIP3    H132803   4.494   1.792  13.041  0.4031  0.2206 -1.4073
 3796TIP3    H232804   4.438   1.913  13.112  1.3031 -0.6003  0.7391
 3797TIP3   OH232805   1.284   4.309  12.203 -0.9293  0.5699 -0.1062
 3797TIP3    H132806   1.287   4.216  12.225 -3.4006  0.2279 -1.0574
 3797TIP3    H232807   1.347   4.350  12.263  1.3140 -1.8793 -0.7132
 3798TIP3   OH232808   3.595   0.703  14.787  0.6398 -0.2959 -0.1320
 3798TIP3    H132809   3.629   0.773  14.731 -0.8810  1.8864  1.6212
 3798TIP3    H232810   3.501   0.701  14.768  0.5106 -1.1614  0.5892
 3799TIP3   OH232811   3.317   4.584   2.500 -0.1154  0.3432  0.1139
 3799TIP3    H132812   3.290   4.549   2.585  1.0001 -1.2861 -0.1727
 3799TIP3    H232813   3.296   4.515   2.437 -2.4091  2.1613 -1.2023
 3800TIP3   OH232814   2.605   4.907  15.062  0.3285 -0.7011 -0.0226
 3800TIP3    H132815   2.668   4.912  15.134  0.9619 -1.6019 -0.5039
 3800TIP3    H232816   2.600   4.814  15.040 -1.7775 -0.7482  0.5307
 3801TIP3   OH232817   5.701   3.904  12.728 -0.3265  0.1579 -0.2255
 3801TIP3    H132818   5.697   3.994  12.758 -3.3109 -0.2606  0.8092
 3801TIP3    H232819   5.738   3.855  12.801  0.3288  0.3548 -0.4158
 3802TIP3   OH232820   1.897   1.608   3.325  0.3347  0.7787  0.0491
 3802TIP3    H132821   1.854   1.523   3.310 -0.4050  1.2707 -0.7050
 3802TIP3    H232822   1.917   1.640   3.237  1.6138  0.8808  0.3784
 3803TIP3   OH232823   4.790   0.098  12.162  0.0509 -0.2067  0.1339
 3803TIP3    H132824   4.749   0.070  12.080 -0.2610  0.6956 -0.0282
 3803TIP3    H232825   4.863   0.153  12.135 -0.0631  0.1108  0.4619
 3804TIP3   OH232826   5.985   2.787   0.081 -0.1403 -0.3114  0.0555
 3804TIP3    H132827   5.926   2.784   0.006  1.5235 -0.9236 -1.2566
 3804TIP3    H232828   6.070   2.812   0.044  0.3552  0.9747  1.9692
 3805TIP3   OH232829   5.201   5.901   6.022 -0.2124  0.1586 -0.0437
 3805TIP3    H132830   5.233   5.957   6.093 -1.5665 -1.2023  1.6728
 3805TIP3    H232831   5.174   5.963   5.953  0.8773  1.5051  0.7072
 3806TIP3   OH232832   3.569   5.128  10.780  0.1600 -0.4379  0.0446
 3806TIP3    H132833   3.573   5.223  10.788 -0.2112 -0.4514  0.4104
 3806TIP3    H232834   3.495   5.112  10.722 -0.5878 -0.5477  1.0121
 3807TIP3   OH232835   1.544   3.148  16.165  0.2422 -0.4909 -0.6511
 3807TIP3    H132836   1.596   3.179  16.091 -0.9682  1.9468 -0.5558
 3807TIP3    H232837   1.552   3.218  16.231  0.2585 -2.0168  1.0161
 3808TIP3   OH232838   2.114   0.792   2.373  0.8599 -0.3183  0.5789
 3808TIP3    H132839   2.183   0.828   2.428  0.4056  0.6546  0.5199
 3808TIP3    H232840   2.121   0.839   2.290 -0.2839  0.2461  0.7952
 3809TIP3   OH232841   6.277   0.675  16.870  0.0952  0.2674 -0.0838
 3809TIP3    H132842   6.305   0.680  16.779  1.6438  0.2527  0.3686
 3809TIP3    H232843   6.271   0.766  16.899  4.0120  0.2820  1.0405
 3810TIP3   OH232844   5.841   1.716   3.354  0.0920  0.4206 -0.4404
 3810TIP3    H132845   5.847   1.644   3.417 -4.6023 -0.1727 -0.4489
 3810TIP3    H232846   5.875   1.792   3.401  0.9408 -0.9231  1.1792
 3811TIP3   OH232847   3.318   0.624   3.342  0.0513  0.4516 -0.7043
 3811TIP3    H132848   3.239   0.571   3.331  1.5415 -1.5353 -2.1956
 3811TIP3    H232849   3.289   0.698   3.395 -2.1990 -1.6732  1.2215
 3812TIP3   OH232850   6.707   0.240  15.306 -0.1642  0.3323  0.2567
 3812TIP3    H132851   6.652   0.218  15.381 -2.1659  0.0566 -1.2664
 3812TIP3    H232852   6.794   0.207  15.330 -0.5806  0.9248  2.7586
 3813TIP3   OH232853   6.410   6.342   5.919 -0.2668 -0.1694 -0.0002
 3813TIP3    H132854   6.469   6.267   5.913 -0.1074 -0.2998  2.6026
 3813TIP3    H232855   6.420   6.373   6.009  0.9783  4.0592 -1.4721
 3814TIP3   OH232856   0.909   0.644  15.852  0.1272  0.2824 -0.1080
 3814TIP3    H132857   0.866   0.684  15.777 -0.7647  0.7596  0.6536
 3814TIP3    H232858   0.850   0.660  15.926 -0.7606 -3.3472  0.0271
 3815TIP3   OH232859   6.237   3.288  11.963  0.4430  0.4102 -0.3262
 3815TIP3    H132860   6.157   3.319  11.920  0.1472  2.3058  1.5536
 3815TIP3    H232861   6.293   3.365  11.969  1.5965 -0.4569  0.2224
 3816TIP3   OH232862   6.475   6.270   4.543  0.3930 -0.1165  0.1331
 3816TIP3    H132863   6.484   6.269   4.448 -0.8569  0.3741  0.0066
 3816TIP3    H232864   6.566   6.267   4.575  0.9026  1.2511 -1.0852
 3817TIP3   OH232865   1.169   6.683   2.008 -0.3701 -0.3492  0.3154
 3817TIP3    H132866   1.255   6.683   1.966 -0.4028 -0.8614  0.2354
 3817TIP3    H232867   1.154   6.774   2.034 -0.3550 -0.0188 -0.7947
 3818TIP3   OH232868   5.421   3.052   2.735  0.0023 -0.4073 -0.7021
 3818TIP3    H132869   5.472   3.129   2.760 -2.4795  0.7111  1.1218
 3818TIP3    H232870   5.408   3.004   2.817 -0.3707 -1.5841 -1.4394
 3819TIP3   OH232871   6.514   4.551   5.446 -0.0156 -0.4372  0.3407
 3819TIP3    H132872   6.542   4.620   5.506 -0.9544  0.6348 -0.4316
 3819TIP3    H232873   6.419   4.546   5.458 -0.3533  0.4273 -1.6928
 3820TIP3   OH232874   3.845   4.180   5.057  0.5497  0.0018 -0.3529
 3820TIP3    H132875   3.924   4.191   5.005  0.4337  0.7599 -0.3776
 3820TIP3    H232876   3.775   4.217   5.002 -0.0337 -1.8773 -0.9009
 3821TIP3   OH232877   6.741   6.351  15.505 -0.0615 -0.0216 -0.2470
 3821TIP3    H132878   6.672   6.316  15.562  0.8790  0.3043  1.1206
 3821TIP3    H232879   6.814   6.290  15.517  0.5956  0.7975 -0.1003
 3822TIP3   OH232880   1.451   3.813  15.568 -0.7448  0.6792 -0.0444
 3822TIP3    H132881   1.365   3.775  15.583 -0.9024  0.4242 -1.4993
 3822TIP3    H232882   1.478   3.847  15.653 -1.9794  0.1407  0.5680
 3823TIP3   OH232883   5.323   6.735  14.311 -0.5864  0.4586  0.3150
 3823TIP3    H132884   5.333   6.739  14.406 -0.7487  0.6346  0.3250
 3823TIP3    H232885   5.270   6.812  14.289 -1.2777 -0.0474  0.1834
 3824TIP3   OH232886   3.690   3.910   3.301 -0.4073  0.2871  0.3081
 3824TIP3    H132887   3.656   3.998   3.315 -0.7291 -0.0825  1.9624
 3824TIP3    H232888   3.617   3.862   3.261 -0.6086  0.4766  0.4462
 3825TIP3   OH232889   4.732   6.255  14.677 -0.0454 -0.0285 -0.3706
 3825TIP3    H132890   4.812   6.277  14.630  0.0862 -0.3334 -0.2845
 3825TIP3    H232891   4.734   6.160  14.686  0.3142  0.0913  0.9236
 3826TIP3   OH232892   3.216   6.159   2.791  0.2455  0.3016 -0.5114
 3826TIP3    H132893   3.187   6.077   2.751  0.1581  0.4149 -0.6840
 3826TIP3    H232894   3.311   6.156   2.787  0.3510 -1.0934  2.1173
 3827TIP3   OH232895   1.318   2.365  15.855  0.5527 -0.1331 -0.9013
 3827TIP3    H132896   1.328   2.323  15.941 -0.3647  1.2304 -0.1224
 3827TIP3    H232897   1.265   2.442  15.872 -1.1240 -0.7787 -2.9975
 3828TIP3   OH232898   2.002   3.641   3.665 -0.4097  0.1131 -0.6189
 3828TIP3    H132899   1.964   3.630   3.577 -3.5012  1.4535  0.4958
 3828TIP3    H232900   1.986   3.733   3.687  1.8542  0.2240  0.6999
 3829TIP3   OH232901   2.530   1.644  14.892  0.1734 -0.2561 -0.0939
 3829TIP3    H132902   2.556   1.572  14.950 -0.1497 -0.2580  0.0506
 3829TIP3    H232903   2.527   1.721  14.949 -1.6247 -0.5319  0.2356
 3830TIP3   OH232904   0.279   6.548   4.966  0.2796 -0.5410 -0.3262
 3830TIP3    H132905   0.374   6.559   4.975  0.3360  0.3785 -2.0096
 3830TIP3    H232906   0.244   6.571   5.052  1.3717  1.6052 -0.4474
 3831TIP3   OH232907   5.930   6.250  16.146  0.4841  0.2789 -0.1119
 3831TIP3    H132908   6.007   6.307  16.143 -0.3571  1.5784  1.8500
 3831TIP3    H232909   5.855   6.310  16.141 -0.4326 -0.9950 -2.3387
 3832TIP3   OH232910   2.836   2.799  12.160 -0.1583 -0.0848 -0.3843
 3832TIP3    H132911   2.820   2.872  12.101  2.3105 -0.6134 -1.8073
 3832TIP3    H232912   2.814   2.721  12.109 -0.0720 -0.4442  0.1246
 3833TIP3   OH232913   2.661   0.489   6.252  0.0826 -0.1149 -0.3910
 3833TIP3    H132914   2.689   0.556   6.190  0.9407  1.4634  1.6473
 3833TIP3    H232915   2.636   0.415   6.198  0.4987  1.3415 -2.6293
 3834TIP3   OH232916   3.942   1.754  16.837  0.0872  0.1193  0.4609
 3834TIP3    H132917   3.927   1.723  16.926 -0.8457  0.7732  0.5365
 3834TIP3    H232918   3.856   1.780  16.805  0.5449  0.7124 -0.3248
 3835TIP3   OH232919   1.961   0.429  14.969  0.4079 -0.1791 -0.3356
 3835TIP3    H132920   2.049   0.439  15.006  0.7851 -1.1059 -0.9709
 3835TIP3    H232921   1.964   0.479  14.887  0.1268  0.3488 -0.0310
 3836TIP3   OH232922   2.688   6.723   0.224  0.0776  1.3088 -0.5347
 3836TIP3    H132923   2.705   6.675   0.305 -1.1233 -0.1788 -1.1328
 3836TIP3    H232924   2.629   6.794   0.251  0.8480  1.7028  0.1351
 3837TIP3   OH232925   5.055   0.843   3.965  0.1233 -0.0189 -0.1832
 3837TIP3    H132926   4.995   0.894   3.911  1.2288  0.7044 -0.7377
 3837TIP3    H232927   5.139   0.888   3.956  0.6099 -0.6605  1.0824
 3838TIP3   OH232928   3.233   0.618  13.932 -0.2225  0.1166 -0.9150
 3838TIP3    H132929   3.309   0.663  13.968 -0.3861 -0.7913  0.6305
 3838TIP3    H232930   3.234   0.532  13.973 -2.8659  0.5797  0.2436
 3839TIP3   OH232931   3.793   3.702  11.529 -0.1786  0.3484 -0.5672
 3839TIP3    H132932   3.879   3.661  11.517  0.4091  1.1573  0.7461
 3839TIP3    H232933   3.730   3.631  11.516  0.7100 -0.3724 -0.9865
 3840TIP3   OH232934   5.542   5.495   5.980 -0.4722 -0.1269 -0.2532
 3840TIP3    H132935   5.535   5.549   5.901 -0.0632 -0.7916 -0.7544
 3840TIP3    H232936   5.530   5.557   6.052  1.0701  0.8337 -0.7905
 3841TIP3   OH232937   1.669   2.267  12.974  0.1584 -0.2072 -0.0979
 3841TIP3    H132938   1.585   2.312  12.961 -0.4237 -0.7802  1.5830
 3841TIP3    H232939   1.716   2.321  13.037  0.7126 -0.3292 -0.4039
 3842TIP3   OH232940   2.065   5.715  16.490  0.4886  0.2552  0.5534
 3842TIP3    H132941   2.060   5.657  16.413 -0.6278  1.5767 -0.3927
 3842TIP3    H232942   2.002   5.785  16.471 -0.7972 -0.0990  3.2783
 3843TIP3   OH232943   5.078   0.890   1.645  0.3466  0.5593 -0.2428
 3843TIP3    H132944   5.052   0.934   1.726  0.0936 -0.0350  0.0025
 3843TIP3    H232945   4.997   0.851   1.613  0.2723  1.5124 -1.2401
 3844TIP3   OH232946   6.302   2.923  15.947  0.3453 -0.2536  0.0619
 3844TIP3    H132947   6.322   2.916  15.854  0.9214  0.1900  0.1442
 3844TIP3    H232948   6.346   2.847  15.987  2.4389  1.0548  0.3224
 3845TIP3   OH232949   3.798   0.768  12.767 -0.0106 -0.2449 -0.6833
 3845TIP3    H132950   3.744   0.833  12.722  0.2478  0.1257 -0.4603
 3845TIP3    H232951   3.759   0.761  12.854 -0.3068 -0.7132 -0.8558
 3846TIP3   OH232952   0.620   6.782   3.500 -0.0208  0.3183 -0.2825
 3846TIP3    H132953   0.540   6.783   3.553 -0.0881  0.9803 -0.4012
 3846TIP3    H232954   0.690   6.806   3.562 -0.1198  1.2415 -0.5270
 3847TIP3   OH232955   1.959   2.506   3.879 -0.0240  0.2596 -0.5129
 3847TIP3    H132956   1.877   2.489   3.925 -0.3098  0.1509 -1.0562
 3847TIP3    H232957   1.994   2.420   3.860  0.6700  0.3072  0.5064
 3848TIP3   OH232958   0.489   3.877  12.930  0.0551 -0.3957  0.3552
 3848TIP3    H132959   0.529   3.812  12.873 -1.0706 -0.9188  0.1450
 3848TIP3    H232960   0.477   3.954  12.874  2.1333  0.2943  0.8181
 3849TIP3   OH232961   5.603   2.792  14.407  0.0929  0.0095  0.3704
 3849TIP3    H132962   5.535   2.844  14.365  0.3299  1.2559  1.4747
 3849TIP3    H232963   5.570   2.778  14.496  0.6846 -0.4992  0.5060
 3850TIP3   OH232964   1.494   5.004  15.169 -0.3713  0.5974 -0.6872
 3850TIP3    H132965   1.480   4.922  15.122 -0.2937  0.5538 -0.6349
 3850TIP3    H232966   1.413   5.018  15.218  0.9325 -1.3521  2.2200
 3851TIP3   OH232967   3.286   6.144  12.145 -0.5323 -0.0628 -0.2267
 3851TIP3    H132968   3.277   6.114  12.055 -1.0314  0.0510 -0.2171
 3851TIP3    H232969   3.296   6.239  12.138 -0.1949 -0.0947 -0.1862
 3852TIP3   OH232970   0.082   1.574   2.244  0.3383 -0.0914  0.0083
 3852TIP3    H132971   0.071   1.483   2.270  0.7518 -0.1188  0.0838
 3852TIP3    H232972   0.080   1.623   2.326 -0.8041  0.0645 -0.0943
 3853TIP3   OH232973   4.609   5.825  10.992 -0.3149 -0.1027 -0.1265
 3853TIP3    H132974   4.558   5.795  10.917  0.1336 -3.4484  0.8210
 3853TIP3    H232975   4.698   5.834  10.959 -0.2681 -0.7979 -0.1974
 3854TIP3   OH232976   3.300   1.419   3.966  0.2896  0.3684  0.5658
 3854TIP3    H132977   3.236   1.490   3.953 -0.3835 -0.5277 -1.2073
 3854TIP3    H232978   3.260   1.343   3.925  1.3669 -0.8683  1.7623
 3855TIP3   OH232979   6.319   1.924   4.247  0.0537  0.3947 -0.3368
 3855TIP3    H132980   6.335   1.903   4.155  1.0770 -0.6843  0.0675
 3855TIP3    H232981   6.323   2.020   4.251 -0.0981  0.4519 -1.4310
 3856TIP3   OH232982   3.925   0.975  15.729  0.1378  0.1131  0.2239
 3856TIP3    H132983   3.943   0.955  15.637  1.5471  0.9362  0.3036
 3856TIP3    H232984   3.896   1.066  15.728  1.2281  0.4658  0.7191
 3857TIP3   OH232985   6.092   2.955  14.597 -0.2991  0.1271  0.2811
 3857TIP3    H132986   6.176   2.957  14.644 -0.9759 -1.7003  1.6493
 3857TIP3    H232987   6.082   2.863  14.571 -0.4019  0.9116 -2.6556
 3858TIP3   OH232988   5.747   6.265  12.726 -0.4214 -0.3714 -0.0294
 3858TIP3    H132989   5.814   6.220  12.777 -0.0597 -0.6505 -0.7518
 3858TIP3    H232990   5.669   6.262  12.781  0.3874  0.7194  1.1938
 3859TIP3   OH232991   1.539   2.336  12.500  0.1001 -0.2048  0.1601
 3859TIP3    H132992   1.600   2.269  12.530 -2.1507 -1.4685  1.9520
 3859TIP3    H232993   1.521   2.312  12.409 -0.1910 -1.6434  0.5902
 3860TIP3   OH232994   0.417   4.183  11.725  0.0917 -0.7044 -0.2096
 3860TIP3    H132995   0.459   4.265  11.748 -0.7437 -0.5339  0.7661
 3860TIP3    H232996   0.357   4.205  11.654 -0.6804 -0.3122  0.5542
 3861TIP3   OH232997   0.756   6.540   3.086  0.5552  0.1696  0.2393
 3861TIP3    H132998   0.732   6.577   3.001  1.3519  0.7814  0.2830
 3861TIP3    H232999   0.722   6.603   3.150  0.2305 -0.1361  0.3734
 3862TIP3   OH233000   0.196   2.280   2.657 -0.0838  0.1595  0.0684
 3862TIP3    H133001   0.138   2.351   2.629  0.8911  2.0980  2.8366
 3862TIP3    H233002   0.156   2.245   2.736  0.4936 -1.1105 -0.1798
 3863TIP3   OH233003   0.816   2.462  15.695 -0.1095 -0.0341  0.1166
 3863TIP3    H133004   0.806   2.445  15.788 -2.1390  1.4381  0.2111
 3863TIP3    H233005   0.796   2.379  15.652  1.5466 -0.9126  0.9822
 3864TIP3   OH233006   5.468   5.184   0.836  0.3341  0.2234 -0.4463
 3864TIP3    H133007   5.417   5.263   0.815 -0.6640 -0.3266 -0.1460
 3864TIP3    H233008   5.433   5.117   0.777 -0.2455 -0.5115  0.7042
 3865TIP3   OH233009   3.934   3.014   6.629  0.6962 -0.0488 -0.0027
 3865TIP3    H133010   3.861   2.989   6.686 -0.9658 -1.3488 -2.5934
 3865TIP3    H233011   4.012   2.997   6.682 -0.7489 -2.2287  1.5539
 3866TIP3   OH233012   4.963   2.063   5.283  0.3386  0.2543 -0.4718
 3866TIP3    H133013   5.017   2.073   5.362  0.6500 -2.4794 -0.3078
 3866TIP3    H233014   5.019   2.095   5.212  0.9484  0.5034  0.1069
 3867TIP3   OH233015   5.463   0.406   5.375 -0.1941 -0.2316 -0.6186
 3867TIP3    H133016   5.521   0.349   5.425  0.6222  0.4354 -0.7988
 3867TIP3    H233017   5.375   0.381   5.403  0.2221 -0.4760  0.4857
 3868TIP3   OH233018   0.882   3.210   2.017 -0.1300  0.1818 -0.1946
 3868TIP3    H133019   0.885   3.273   2.089  0.8408  0.8764 -0.8322
 3868TIP3    H233020   0.804   3.156   2.035 -1.9796  2.6579 -0.5787
 3869TIP3   OH233021   6.544   4.868   1.263  0.0288  0.5096 -0.4219
 3869TIP3    H133022   6.564   4.821   1.182  2.5670 -0.8885  0.9482
 3869TIP3    H233023   6.466   4.824   1.298  1.0068 -1.1679 -0.3387
 3870TIP3   OH233024   5.068   5.662   1.239 -0.1471  0.3069  0.1995
 3870TIP3    H133025   5.092   5.606   1.165 -0.0181  2.9840 -1.8667
 3870TIP3    H233026   4.973   5.651   1.248  0.1166 -1.5070  0.9240
 3871TIP3   OH233027   3.012   2.296   0.422  0.3875 -0.0502 -0.5410
 3871TIP3    H133028   2.989   2.262   0.508 -0.4923 -0.2443 -0.8431
 3871TIP3    H233029   2.928   2.319   0.382  0.6421 -1.4753 -1.9659
 3872TIP3   OH233030   6.317   2.319  13.217 -0.2755 -0.4631 -0.7760
 3872TIP3    H133031   6.390   2.298  13.159  0.9674  1.4726  0.0460
 3872TIP3    H233032   6.259   2.374  13.164  0.8444  1.2796 -0.2036
 3873TIP3   OH233033   1.230   4.885  15.038  0.2779  0.1820 -0.0022
 3873TIP3    H133034   1.233   4.910  15.131  1.1167  0.9669 -0.2280
 3873TIP3    H233035   1.314   4.841  15.023 -1.1364 -2.6862  0.3549
 3874TIP3   OH233036   3.084   3.320   5.633 -0.0687 -0.3914  0.4778
 3874TIP3    H133037   3.111   3.407   5.660 -0.5270  0.2276 -1.0041
 3874TIP3    H233038   3.000   3.306   5.677 -1.0533  0.8089 -0.9238
 3875TIP3   OH233039   1.763   2.804   5.626 -0.4145 -0.2436 -0.0242
 3875TIP3    H133040   1.787   2.810   5.533 -0.3526 -2.4870 -0.1727
 3875TIP3    H233041   1.749   2.895   5.652 -1.3325  0.3848 -2.4695
 3876TIP3   OH233042   3.392   1.000   1.314 -0.4555  0.0328  0.1941
 3876TIP3    H133043   3.401   1.090   1.347 -1.6145  0.2631 -0.0663
 3876TIP3    H233044   3.459   0.950   1.360  1.0614  1.2876 -0.6148
 3877TIP3   OH233045   6.317   0.498   0.843 -0.8885 -0.2826  0.0882
 3877TIP3    H133046   6.350   0.468   0.758 -1.4567 -0.9851  0.1127
 3877TIP3    H233047   6.297   0.591   0.829  0.0982 -0.1100 -0.2174
 3878TIP3   OH233048   6.017   0.767   0.990 -0.4306  0.4209 -0.3564
 3878TIP3    H133049   6.097   0.746   1.039 -0.5679 -1.6428 -1.0060
 3878TIP3    H233050   5.981   0.844   1.035  2.4410  2.0357 -0.6645
 3879TIP3   OH233051   3.575   5.866  13.067 -0.6851 -0.4827  0.3131
 3879TIP3    H133052   3.487   5.836  13.043 -1.4326  1.5942  0.3395
 3879TIP3    H233053   3.626   5.856  12.987 -0.3857 -3.6460  0.8624
 3880TIP3   OH233054   3.169   1.323  12.670 -0.1928  0.4775  0.1244
 3880TIP3    H133055   3.195   1.403  12.624 -1.5241  1.0575  0.3552
 3880TIP3    H233056   3.209   1.331  12.757  2.8569 -0.9128 -1.0743
 3881TIP3   OH233057   5.298   1.147  14.847  0.0465 -0.4839 -0.0698
 3881TIP3    H133058   5.349   1.126  14.768 -0.8558  1.9096 -1.3533
 3881TIP3    H233059   5.322   1.238  14.867 -1.4663 -0.3176  1.0667
 3882TIP3   OH233060   0.855   1.766   3.296  0.0196  0.0535 -0.1677
 3882TIP3    H133061   0.898   1.849   3.319  0.8346 -0.4573  0.1501
 3882TIP3    H233062   0.860   1.762   3.201 -0.2343  0.4834 -0.2008
 3883TIP3   OH233063   6.108   4.343   4.959  0.2421  0.2872  0.8464
 3883TIP3    H133064   6.173   4.408   4.985  1.7889 -0.0776 -1.9175
 3883TIP3    H233065   6.029   4.394   4.940  0.6689  1.0720  1.1458
 3884TIP3   OH233066   4.927   1.796  16.702 -0.3996 -0.0065  0.0432
 3884TIP3    H133067   5.022   1.801  16.699 -0.3347  0.0927  1.7484
 3884TIP3    H233068   4.898   1.886  16.683 -0.2523 -0.4953 -2.7292
 3885TIP3   OH233069   1.249   1.416   2.361 -0.4758 -0.0369  0.6177
 3885TIP3    H133070   1.158   1.406   2.391 -0.3749 -0.6523  0.7251
 3885TIP3    H233071   1.258   1.510   2.345 -1.4008 -0.0808 -0.2461
 3886TIP3   OH233072   6.490   6.472   1.200  0.1065 -0.8827  0.3914
 3886TIP3    H133073   6.451   6.529   1.267 -0.7629  0.2466 -1.0403
 3886TIP3    H233074   6.543   6.410   1.250 -1.7056 -1.0282  2.2516
 3887TIP3   OH233075   5.632   6.634  14.747 -0.1856  0.4048 -0.3205
 3887TIP3    H133076   5.613   6.720  14.711 -0.3013  0.1571 -0.8632
 3887TIP3    H233077   5.610   6.641  14.839 -2.9293  0.1333 -0.9306
 3888TIP3   OH233078   0.890   3.345  13.003  0.1488 -0.2227 -0.2283
 3888TIP3    H133079   0.901   3.440  13.009  1.8765 -0.2786 -1.9222
 3888TIP3    H233080   0.802   3.334  12.967 -0.5985  0.6679  1.2448
 3889TIP3   OH233081   6.124   5.493   5.433  0.2247  0.1697 -0.2729
 3889TIP3    H133082   6.081   5.426   5.487  2.6732 -0.2095  1.2569
 3889TIP3    H233083   6.127   5.571   5.489  0.3784  0.5858 -0.8510
 3890TIP3   OH233084   1.130   2.861  11.712 -0.3506  0.4768  0.0230
 3890TIP3    H133085   1.204   2.801  11.704 -0.2022  0.4638  1.4840
 3890TIP3    H233086   1.053   2.805  11.710 -0.3118  0.4413 -0.8836
 3891TIP3   OH233087   0.293   5.182  13.577 -0.2532  0.0283  0.2224
 3891TIP3    H133088   0.312   5.122  13.505 -0.4771 -0.6668  0.7289
 3891TIP3    H233089   0.376   5.227  13.593 -0.1148 -0.0583 -0.2489
 3892TIP3   OH233090   3.058   2.098  11.178 -0.1287 -0.2103  0.0400
 3892TIP3    H133091   2.977   2.119  11.131 -0.6399  0.4570  1.1886
 3892TIP3    H233092   3.030   2.081  11.268  1.1322  1.3633  0.7691
 3893TIP3   OH233093   2.041   4.212   4.137 -0.0460 -0.1803  0.0471
 3893TIP3    H133094   2.037   4.256   4.052 -0.4345 -0.0787  0.1170
 3893TIP3    H233095   2.051   4.119   4.115  1.3366 -0.0094 -0.0959
 3894TIP3   OH233096   1.907   3.229   4.046  0.0424 -0.2764 -0.1810
 3894TIP3    H133097   1.919   3.321   4.024  1.2400  0.0935  1.9028
 3894TIP3    H233098   1.988   3.187   4.019 -0.4689 -0.7214 -1.0499
 3895TIP3   OH233099   3.993   4.356  16.047  0.3672 -0.0230  0.3239
 3895TIP3    H133100   4.024   4.414  16.117  0.4020  0.3439 -0.0004
 3895TIP3    H233101   4.019   4.399  15.966  1.4153 -1.0541  0.1002
 3896TIP3   OH233102   3.798   2.912  16.629  0.0960  0.2222 -0.7291
 3896TIP3    H133103   3.873   2.853  16.638 -0.1854  0.1651  1.3035
 3896TIP3    H233104   3.773   2.934  16.718 -1.4220  1.3975 -1.4188
 3897TIP3   OH233105   2.164   5.680   0.893 -0.0548  0.7207  0.1998
 3897TIP3    H133106   2.245   5.711   0.934  0.2726  0.5689 -0.3298
 3897TIP3    H233107   2.191   5.605   0.840 -0.0449  2.4546 -2.3328
 3898TIP3   OH233108   5.760   4.142  11.315  0.1436 -0.0440 -0.2448
 3898TIP3    H133109   5.798   4.063  11.277 -2.5499 -0.9049 -1.2728
 3898TIP3    H233110   5.733   4.194  11.239 -0.3149  0.7382  0.4405
 3899TIP3   OH233111   3.275   4.349  13.197  0.3324 -0.4574  0.3317
 3899TIP3    H133112   3.267   4.430  13.247  1.8709  0.4714 -0.8606
 3899TIP3    H233113   3.307   4.284  13.260 -0.4692 -0.0218  1.1915
 3900TIP3   OH233114   1.180   6.787   3.104 -0.1400 -0.4611  0.2180
 3900TIP3    H133115   1.267   6.779   3.065 -0.1013  2.1819 -0.3092
 3900TIP3    H233116   1.197   6.808   3.196 -0.2444 -1.0429  0.3756
 3901TIP3   OH233117   3.005   3.569  12.044 -0.3390  0.2058 -0.0927
 3901TIP3    H133118   3.087   3.570  12.092  0.1199 -0.9163 -0.8376
 3901TIP3    H233119   3.010   3.645  11.986 -0.6881  1.2769  1.2713
 3902TIP3   OH233120   1.128   0.461   0.214  0.3063 -0.0619 -0.3240
 3902TIP3    H133121   1.128   0.492   0.124  0.0855  1.0764  0.0535
 3902TIP3    H233122   1.220   0.452   0.238  0.3868  1.1605 -0.1588
 3903TIP3   OH233123   0.680   6.026  10.467 -0.5231  0.4030  0.6610
 3903TIP3    H133124   0.584   6.035  10.473 -0.4608 -0.2396  3.4947
 3903TIP3    H233125   0.699   5.948  10.519  1.4964  0.1458 -0.4436
 3904TIP3   OH233126   1.343   0.735  16.070  0.3317  0.1956 -0.0704
 3904TIP3    H133127   1.396   0.814  16.075  0.1058  0.3539 -0.2221
 3904TIP3    H233128   1.311   0.721  16.159  2.7637 -1.3468  0.6216
 3905TIP3   OH233129   5.688   5.440   2.668  0.3371 -0.0116 -0.1117
 3905TIP3    H133130   5.775   5.476   2.653  0.5803 -0.7836 -0.6061
 3905TIP3    H233131   5.690   5.355   2.623 -0.4576 -0.3082  0.4170
 3906TIP3   OH233132   3.859   3.853   0.827 -0.1823  0.1434 -0.1994
 3906TIP3    H133133   3.775   3.808   0.812 -0.9297  1.4922 -0.1807
 3906TIP3    H233134   3.837   3.923   0.890  0.5527  1.6751 -1.6024
 3907TIP3   OH233135   2.356   4.273   0.049 -0.7769 -0.2262  0.6437
 3907TIP3    H133136   2.410   4.272  -0.031 -0.8545  0.8754  0.5667
 3907TIP3    H233137   2.311   4.189   0.048  0.9281 -1.1726  0.7029
 3908TIP3   OH233138   0.575   3.879   3.947 -0.0827 -0.3557 -0.2128
 3908TIP3    H133139   0.486   3.844   3.954  0.4130 -1.4208  0.9069
 3908TIP3    H233140   0.582   3.941   4.020 -1.1046  2.4948 -2.4451
 3909TIP3   OH233141   5.254   3.574  14.101 -0.3247 -0.4499  0.3453
 3909TIP3    H133142   5.279   3.485  14.125 -2.0401 -0.6697  1.4394
 3909TIP3    H233143   5.229   3.616  14.183 -1.4385  0.4021 -0.3879
 3910TIP3   OH233144   5.696   1.799  10.685  0.0807 -0.3312  0.1468
 3910TIP3    H133145   5.693   1.882  10.733  0.6424 -0.4839  0.4429
 3910TIP3    H233146   5.766   1.749  10.727  1.7206  0.1848 -1.9195
 3911TIP3   OH233147   4.503   3.733  14.453  0.0629  0.1961 -0.0454
 3911TIP3    H133148   4.488   3.639  14.442  1.5262 -0.0938  0.3270
 3911TIP3    H233149   4.424   3.774  14.417 -0.5090 -1.1623 -0.3830
 3912TIP3   OH233150   3.739   3.697   3.647  0.3133 -0.3781 -0.4293
 3912TIP3    H133151   3.716   3.625   3.706 -1.3538 -0.0262 -0.6302
 3912TIP3    H233152   3.823   3.728   3.680  1.3709 -2.8253 -0.7311
 3913TIP3   OH233153   2.712   1.224   5.076  0.2046  0.0617 -0.2207
 3913TIP3    H133154   2.763   1.299   5.047  0.9121 -0.3078  0.0462
 3913TIP3    H233155   2.777   1.164   5.113 -0.2753 -0.9176 -0.9356
 3914TIP3   OH233156   2.214   4.032  13.056 -0.0007 -0.2900 -0.1813
 3914TIP3    H133157   2.199   4.125  13.070  1.4782 -0.4186  2.5516
 3914TIP3    H233158   2.310   4.023  13.057 -0.1472 -1.9225  0.1143
 3915TIP3   OH233159   4.756   4.017  12.247 -0.0874  0.3084 -0.0322
 3915TIP3    H133160   4.713   4.071  12.313 -0.0983 -0.0150  0.2272
 3915TIP3    H233161   4.686   3.960  12.213 -0.6553  2.1426 -2.0656
 3916TIP3   OH233162   2.670   5.598   6.323  0.8438 -0.1330  0.0017
 3916TIP3    H133163   2.661   5.670   6.261 -0.0330  0.1931  0.4953
 3916TIP3    H233164   2.654   5.638   6.409 -0.6715 -1.0943  0.1933
 3917TIP3   OH233165   3.233   1.382  14.044 -0.0070 -0.1414 -0.2678
 3917TIP3    H133166   3.192   1.296  14.055  1.6740 -1.3388 -2.8795
 3917TIP3    H233167   3.160   1.442  14.036 -1.2132 -1.3236  1.3756
 3918TIP3   OH233168   3.313   4.881   3.895 -0.5507 -0.1258  0.0342
 3918TIP3    H133169   3.382   4.837   3.844 -0.1965  0.2434  0.1925
 3918TIP3    H233170   3.332   4.857   3.985 -1.0501 -0.6012  0.0132
 3919TIP3   OH233171   4.803   5.852   5.116  0.3851 -0.5201 -0.1844
 3919TIP3    H133172   4.760   5.771   5.143  0.4599 -0.2793  0.6834
 3919TIP3    H233173   4.748   5.888   5.047  0.0409 -1.0088 -0.1629
 3920TIP3   OH233174   1.690   1.929   1.714 -0.6795 -0.1320  0.1556
 3920TIP3    H133175   1.773   1.893   1.684 -0.0426 -0.2403  1.9962
 3920TIP3    H233176   1.665   1.873   1.787 -0.9941  1.5695  1.3557
 3921TIP3   OH233177   3.091   1.710  11.802  0.0356 -0.0808 -0.0838
 3921TIP3    H133178   3.152   1.637  11.813  0.4255  0.5225  2.0293
 3921TIP3    H233179   3.064   1.732  11.891 -2.1008  0.6739 -0.8780
 3922TIP3   OH233180   5.723   1.393  16.971  0.0782  0.2451 -0.3507
 3922TIP3    H133181   5.727   1.389  16.875 -0.6198  1.3023 -0.4192
 3922TIP3    H233182   5.813   1.411  16.998  0.3038 -0.2006 -0.7887
 3923TIP3   OH233183   1.477   2.612  12.893  0.0627 -0.2420 -0.5625
 3923TIP3    H133184   1.402   2.671  12.893  0.4742  0.2864 -0.8797
 3923TIP3    H233185   1.494   2.594  12.985  0.5510  0.9254 -0.4156
 3924TIP3   OH233186   2.431   3.613  13.754  0.1792 -0.2378  0.1759
 3924TIP3    H133187   2.346   3.653  13.769  0.5542  0.3253  0.7919
 3924TIP3    H233188   2.493   3.686  13.753  0.3554 -0.3649 -2.7141
 3925TIP3   OH233189   1.077   2.273   4.435  0.8463 -0.5698 -0.5201
 3925TIP3    H133190   1.014   2.339   4.464  1.1917 -0.6794  0.5003
 3925TIP3    H233191   1.154   2.287   4.490  0.2743 -2.9564  0.9961
 3926TIP3   OH233192   5.608   4.714   2.254  0.3275  0.5547  0.4261
 3926TIP3    H133193   5.609   4.735   2.161 -3.1297  0.8173  0.3577
 3926TIP3    H233194   5.655   4.631   2.261  4.2432  2.5333 -0.8960
 3927TIP3   OH233195   3.237   1.279   6.532 -0.0121  0.4584 -0.3381
 3927TIP3    H133196   3.202   1.235   6.609  1.9931 -1.4647 -0.4648
 3927TIP3    H233197   3.160   1.311   6.485 -1.3896 -0.8598  0.9735
 3928TIP3   OH233198   5.019   4.031  15.890 -0.0832 -0.1624  0.1188
 3928TIP3    H133199   4.997   3.954  15.838  0.5981 -0.5159  0.3431
 3928TIP3    H233200   5.094   4.003  15.943  0.0945  0.6189  0.2817
 3929TIP3   OH233201   6.714   4.575   0.049  0.4269  0.2547 -0.0817
 3929TIP3    H133202   6.681   4.661   0.076  0.4178 -0.0794  1.0141
 3929TIP3    H233203   6.659   4.512   0.095  0.9422 -0.3323 -0.2476
 3930TIP3   OH233204   0.240   3.565  13.364  0.2626 -0.2146  0.3154
 3930TIP3    H133205   0.290   3.620  13.425  0.4755  1.7600 -1.5751
 3930TIP3    H233206   0.159   3.546  13.410 -0.5496  3.1532  0.3834
 3931TIP3   OH233207   4.157   0.425   4.196  0.1482 -0.2022  0.0787
 3931TIP3    H133208   4.073   0.464   4.220 -0.1286 -1.2141  0.7850
 3931TIP3    H233209   4.139   0.373   4.119 -0.1221 -1.3211  0.8852
 3932TIP3   OH233210   5.758   0.585   4.559 -0.1645  0.4701 -0.4058
 3932TIP3    H133211   5.751   0.490   4.570 -0.6566  0.7233  1.7022
 3932TIP3    H233212   5.850   0.604   4.574 -0.1741  0.3918 -0.2462
 3933TIP3   OH233213   0.001   0.197   5.842  0.1977  0.1602  0.0333
 3933TIP3    H133214   0.038   0.181   5.929  2.4081  0.1439 -0.8907
 3933TIP3    H233215  -0.019   0.110   5.808 -0.5954  0.1624  0.4639
 3934TIP3   OH233216   4.626   3.454  12.166 -0.3142  0.6979  0.3082
 3934TIP3    H133217   4.697   3.517  12.174 -1.5077  2.0580  0.2821
 3934TIP3    H233218   4.624   3.410  12.251  0.2357  1.0007  0.4799
 3935TIP3   OH233219   0.409   0.807   0.646  0.6649 -0.2502  0.5657
 3935TIP3    H133220   0.393   0.739   0.580 -2.4217  2.0065 -1.1620
 3935TIP3    H233221   0.351   0.784   0.718 -0.4121  0.5063 -0.0370
 3936TIP3   OH233222   1.092   0.714   1.951  0.3330 -0.0175 -0.0397
 3936TIP3    H133223   1.086   0.691   2.044 -0.9921  0.5907  0.0369
 3936TIP3    H233224   1.029   0.656   1.908 -0.2020  0.7944 -0.3489
 3937TIP3   OH233225   0.866   6.428   3.875  0.6393 -0.0564 -0.0435
 3937TIP3    H133226   0.918   6.435   3.795  0.0896 -0.0782 -0.4082
 3937TIP3    H233227   0.790   6.484   3.859  0.2116 -0.5622  0.2086
 3938TIP3   OH233228   4.533   0.897  15.927  0.8423  0.8116  0.6673
 3938TIP3    H133229   4.530   0.835  15.855  0.7622  0.6949  0.7706
 3938TIP3    H233230   4.575   0.850  15.999 -0.8880  0.2429  1.3450
 3939TIP3   OH233231   2.103   0.147   3.473  0.1046 -0.3040 -0.4990
 3939TIP3    H133232   2.074   0.071   3.523  0.8135 -0.5814 -0.5090
 3939TIP3    H233233   2.078   0.222   3.527 -1.5912 -0.4803 -0.9892
 3940TIP3   OH233234   0.868   2.019  17.074  0.1183 -0.1399 -0.9622
 3940TIP3    H133235   0.844   1.929  17.053 -0.5460 -0.2560  0.2695
 3940TIP3    H233236   0.945   2.010  17.131 -0.3949  0.0536 -0.2446
 3941TIP3   OH233237   0.811   5.059   1.020 -0.5392  0.0625  0.5093
 3941TIP3    H133238   0.817   5.082   0.927  0.4457 -1.5314  0.1606
 3941TIP3    H233239   0.849   5.133   1.066  1.1540 -0.1634 -0.5003
 3942TIP3   OH233240   2.038   2.519  16.807  0.0301  0.0948  0.1045
 3942TIP3    H133241   1.970   2.568  16.760 -2.3857 -1.7563  1.5358
 3942TIP3    H233242   2.100   2.585  16.837 -0.8103  1.7641 -1.7546
 3943TIP3   OH233243   5.107   5.457  16.938  0.0138 -0.0436  0.4598
 3943TIP3    H133244   5.085   5.547  16.960  1.0006  0.4223 -0.4387
 3943TIP3    H233245   5.157   5.425  17.014  1.6503  0.9065 -0.2058
 3944TIP3   OH233246   5.844   2.481  16.758 -0.1816  0.2149  0.0806
 3944TIP3    H133247   5.763   2.429  16.762  0.0637 -0.2629 -1.1202
 3944TIP3    H233248   5.815   2.569  16.735 -0.3670  0.0523 -0.3137
 3945TIP3   OH233249   1.025   0.714  15.471  0.3208  0.1115  0.1040
 3945TIP3    H133250   1.073   0.775  15.527 -0.7689  0.3328  0.8299
 3945TIP3    H233251   0.986   0.770  15.404  1.1572 -0.0784 -0.5347
 3946TIP3   OH233252   5.913   4.824  13.104  0.4380 -0.2286  0.2039
 3946TIP3    H133253   5.866   4.895  13.061  0.9627 -0.5809 -0.9698
 3946TIP3    H233254   5.998   4.862  13.127  0.3805 -0.2142  0.3939
 3947TIP3   OH233255   1.184   2.647   2.869  0.0657  0.3464 -0.4021
 3947TIP3    H133256   1.278   2.633   2.884 -0.2073 -0.0288  0.9694
 3947TIP3    H233257   1.141   2.593   2.934 -1.1145  1.0618 -0.5790
 3948TIP3   OH233258   0.207   2.866  14.807 -0.2172  0.2901 -0.1955
 3948TIP3    H133259   0.208   2.824  14.893  0.7553  2.5960  0.9826
 3948TIP3    H233260   0.115   2.866  14.781 -0.5642 -0.1628  1.0028
 3949TIP3   OH233261   5.588   1.661   1.422  0.4481  0.0825 -0.0610
 3949TIP3    H133262   5.552   1.601   1.357  3.3186 -1.8546  0.0648
 3949TIP3    H233263   5.631   1.729   1.371  1.3910 -0.6186 -0.2126
 3950TIP3   OH233264   3.722   1.362   0.077 -0.4356 -0.6547  0.3619
 3950TIP3    H133265   3.706   1.428   0.145 -0.6870 -1.4450  1.0737
 3950TIP3    H233266   3.811   1.380   0.047 -0.6087  0.2010  0.3364
 3951TIP3   OH233267   5.340   1.140  16.950 -0.4905 -0.4119 -0.1957
 3951TIP3    H133268   5.356   1.107  17.039 -1.4158 -0.9801 -0.2314
 3951TIP3    H233269   5.349   1.235  16.958 -0.0213 -0.5002  0.3905
 3952TIP3   OH233270   0.737   3.384   1.711 -0.1175  0.2008  0.1696
 3952TIP3    H133271   0.654   3.346   1.681 -0.4085  1.8249 -1.1723
 3952TIP3    H233272   0.764   3.328   1.784 -0.1774 -2.9826 -2.1157
 3953TIP3   OH233273   4.465   4.300   4.527  0.2449  0.0028 -0.5049
 3953TIP3    H133274   4.453   4.206   4.536  0.5179 -0.1788 -1.9710
 3953TIP3    H233275   4.489   4.330   4.615 -2.5531 -0.8540  0.5822
 3954TIP3   OH233276   0.403   5.777  14.918 -0.0584 -0.2180  0.3920
 3954TIP3    H133277   0.364   5.693  14.895  0.0304 -0.2317  0.2887
 3954TIP3    H233278   0.476   5.754  14.976 -0.4848 -0.1608  0.9533
 3955TIP3   OH233279   1.951   3.444  15.862 -0.3009 -0.6897  0.0839
 3955TIP3    H133280   2.044   3.447  15.838 -0.7024 -1.4102 -1.7010
 3955TIP3    H233281   1.912   3.519  15.817 -1.0016 -1.8151 -1.2295
 3956TIP3   OH233282   1.378   2.201  15.182 -0.0921 -0.0061 -0.3845
 3956TIP3    H133283   1.359   2.127  15.124 -0.7792 -0.3548  0.2689
 3956TIP3    H233284   1.293   2.223  15.221  0.2535  0.6030  0.0358
 3957TIP3   OH233285   6.596   6.160   0.986 -0.3819 -0.7598 -0.4146
 3957TIP3    H133286   6.615   6.254   0.991 -0.4741 -0.7175 -0.8515
 3957TIP3    H233287   6.508   6.155   0.949 -0.9247 -0.9772  0.9000
 3958TIP3   OH233288   6.222   5.936  12.735  0.0130 -0.2074 -0.3567
 3958TIP3    H133289   6.263   5.894  12.810  1.0426 -0.1464 -0.8724
 3958TIP3    H233290   6.141   5.887  12.721  0.6863 -1.3473 -0.2990
 3959TIP3   OH233291   3.178   1.923  13.053 -0.1397 -0.1634 -0.0212
 3959TIP3    H133292   3.243   1.932  12.983  2.4882 -0.1519  2.3801
 3959TIP3    H233293   3.122   2.001  13.043  1.8760  1.2684 -0.4043
 3960TIP3   OH233294   1.361   1.279  10.624 -0.5702  0.0670  0.7476
 3960TIP3    H133295   1.323   1.232  10.698 -1.5311 -1.6161 -0.7783
 3960TIP3    H233296   1.287   1.320  10.580  0.2964  3.6186  2.3751
 3961TIP3   OH233297   0.854   5.804  11.722  0.1326  0.3053 -0.5086
 3961TIP3    H133298   0.800   5.838  11.651 -0.1764 -0.2834 -0.5605
 3961TIP3    H233299   0.862   5.710  11.703  1.3405  0.4195 -0.6237
 3962TIP3   OH233300   2.852   0.271  13.033  0.3121 -0.3716  0.1468
 3962TIP3    H133301   2.852   0.347  13.091  1.8029  0.5912 -1.0813
 3962TIP3    H233302   2.818   0.303  12.950  0.5950 -1.1493 -0.2794
 3963TIP3   OH233303   2.793   5.427   4.278  0.2823 -0.3858 -0.4433
 3963TIP3    H133304   2.736   5.502   4.265 -1.7100 -1.6020  0.9322
 3963TIP3    H233305   2.773   5.368   4.205 -1.0664 -1.2851  0.6172
 3964TIP3   OH233306   5.074   1.504  11.787  0.0598 -0.1773  0.8703
 3964TIP3    H133307   5.076   1.530  11.879 -1.5396  1.2825  0.5036
 3964TIP3    H233308   5.051   1.584  11.739  1.7655 -0.6883 -0.8996
 3965TIP3   OH233309   4.801   6.570   1.522 -0.5242  0.1223 -0.5466
 3965TIP3    H133310   4.870   6.616   1.569 -1.2044 -1.4842  2.1084
 3965TIP3    H233311   4.847   6.509   1.465  0.2641 -0.3083  0.5504
 3966TIP3   OH233312   4.067   4.001  17.228  0.5796  0.2123  0.2849
 3966TIP3    H133313   4.147   4.027  17.182 -0.1551 -2.3358 -2.5554
 3966TIP3    H233314   4.092   3.921  17.274  0.1890  0.5574  1.1094
 3967TIP3   OH233315   2.120   3.532   5.885  0.2192 -0.5246 -0.3445
 3967TIP3    H133316   2.110   3.627   5.897  0.4418 -0.1813 -2.5283
 3967TIP3    H233317   2.032   3.501   5.862  0.2630 -0.7376 -0.2220
 3968TIP3   OH233318   2.190   6.688   0.568  0.3354  0.3615 -0.5153
 3968TIP3    H133319   2.151   6.600   0.571  1.1808 -0.0488 -1.5126
 3968TIP3    H233320   2.249   6.690   0.644  1.9003 -0.6934 -1.6715
 3969TIP3   OH233321   3.368   1.486   3.706 -0.2647 -0.6922 -0.0835
 3969TIP3    H133322   3.380   1.449   3.793  0.4261 -3.6260 -1.3584
 3969TIP3    H233323   3.450   1.467   3.660  0.0088  2.2645 -0.8990
 3970TIP3   OH233324   1.927   3.912  15.834  0.2161  0.1459 -0.5641
 3970TIP3    H133325   2.012   3.919  15.790  0.2567 -0.0407 -0.5151
 3970TIP3    H233326   1.901   3.821  15.822  1.5184 -0.6436  2.1747
 3971TIP3   OH233327   0.617   4.372   0.813  0.1684 -0.0268  0.2585
 3971TIP3    H133328   0.523   4.377   0.826  0.0211 -0.4854 -0.5657
 3971TIP3    H233329   0.649   4.317   0.884 -0.0212  1.0867  1.2231
 3972TIP3   OH233330   4.899   6.195  15.330 -0.0898  0.1885 -0.7710
 3972TIP3    H133331   4.849   6.239  15.398  0.7226  0.4928 -0.3614
 3972TIP3    H233332   4.919   6.109  15.366  1.6503  0.8961  0.0147
 3973TIP3   OH233333   5.855   0.062  16.585  0.1619 -0.4124  0.1826
 3973TIP3    H133334   5.826   0.111  16.509 -2.7959 -1.0108  0.8478
 3973TIP3    H233335   5.904   0.125  16.638  1.1261  0.3257 -1.5770
 3974TIP3   OH233336   1.276   5.177   2.342  0.0605  0.7159  0.1847
 3974TIP3    H133337   1.226   5.106   2.384  0.3584  0.6407  0.4137
 3974TIP3    H233338   1.253   5.170   2.249 -2.1065  2.1037  0.5874
 3975TIP3   OH233339   4.292   2.649  14.391  0.0331  0.0619  0.4479
 3975TIP3    H133340   4.326   2.564  14.417 -2.2314 -1.2865 -0.7834
 3975TIP3    H233341   4.284   2.698  14.473  0.5949 -1.1994  1.2748
 3976TIP3   OH233342   5.771   2.850   5.244  0.0932  0.4426 -0.2429
 3976TIP3    H133343   5.847   2.820   5.195 -0.6057 -2.0718  0.1364
 3976TIP3    H233344   5.759   2.785   5.313 -1.6146  1.5193  0.5314
 3977TIP3   OH233345   3.033   3.186  13.280  0.2283 -0.2531 -0.6384
 3977TIP3    H133346   2.994   3.124  13.218 -1.1489 -0.3952  0.3374
 3977TIP3    H233347   3.082   3.247  13.225 -1.5766  0.0600 -1.9521
 3978TIP3   OH233348   6.371   1.985  13.617  0.5439  0.4322 -0.5028
 3978TIP3    H133349   6.331   2.033  13.545 -0.6694 -1.5081 -1.1564
 3978TIP3    H233350   6.318   2.007  13.693  0.0243  0.1968 -0.7919
 3979TIP3   OH233351   1.294   5.434  14.167  0.4033 -0.3385 -0.5024
 3979TIP3    H133352   1.381   5.436  14.207 -0.5976 -0.6069  1.7644
 3979TIP3    H233353   1.259   5.522  14.184 -0.5746 -0.9115  0.4697
 3980TIP3   OH233354   1.913   1.354   0.393 -0.0190  0.2153 -0.2034
 3980TIP3    H133355   1.843   1.385   0.451 -1.4025 -0.7589 -1.3006
 3980TIP3    H233356   1.948   1.435   0.355 -2.8854  0.6035 -2.2263
 3981TIP3   OH233357   1.283   2.920  13.395  0.0644 -0.0531 -0.0345
 3981TIP3    H133358   1.271   2.923  13.490  1.2953 -1.8269  0.2008
 3981TIP3    H233359   1.197   2.894  13.361 -0.0219 -0.7362  0.6941
 3982TIP3   OH233360   3.831   3.610   3.942 -0.4829  0.5840 -0.4177
 3982TIP3    H133361   3.899   3.559   3.898 -0.1397  1.6300 -1.1105
 3982TIP3    H233362   3.866   3.623   4.031  0.5435  1.6860 -0.9636
 3983TIP3   OH233363   5.872   0.649  13.341 -0.1024  0.4387  0.1003
 3983TIP3    H133364   5.813   0.574  13.350 -0.0508  0.1864 -1.4489
 3983TIP3    H233365   5.948   0.614  13.294  0.5133  1.1603  0.5464
 3984TIP3   OH233366   2.794   6.469   1.733 -0.1708  0.2791 -0.2362
 3984TIP3    H133367   2.773   6.393   1.788  0.8062  0.4515  0.3793
 3984TIP3    H233368   2.871   6.442   1.683 -0.3133  0.5754 -0.6162
 3985TIP3   OH233369   2.780   2.346  16.107 -0.7536  0.2087 -0.4770
 3985TIP3    H133370   2.738   2.414  16.160 -1.6810 -1.6113  1.2207
 3985TIP3    H233371   2.707   2.303  16.062 -0.3152 -0.4926 -0.5190
 3986TIP3   OH233372   4.585   1.261  12.094 -0.1996  0.3969 -0.1162
 3986TIP3    H133373   4.560   1.176  12.059  0.8697 -0.3666  0.9854
 3986TIP3    H233374   4.518   1.281  12.159 -0.5863  0.5314 -0.5446
 3987TIP3   OH233375   0.072   6.057  13.278  0.1802 -0.3301  0.1867
 3987TIP3    H133376   0.048   5.967  13.257  2.1954 -1.2436  1.6794
 3987TIP3    H233377   0.044   6.070  13.368 -0.1637  0.5596 -0.0393
 3988TIP3   OH233378   5.524   2.407   1.611  0.2672  0.3889 -0.1603
 3988TIP3    H133379   5.572   2.351   1.550  1.1093  3.0923 -2.0714
 3988TIP3    H233380   5.535   2.365   1.696  1.7749 -1.7488 -1.3650
 3989TIP3   OH233381   2.827   3.000  13.154  0.0727 -0.4509 -0.2824
 3989TIP3    H133382   2.819   2.983  13.060  0.0088  2.1222 -0.7618
 3989TIP3    H233383   2.738   3.019  13.183  0.1384 -0.9412  0.2559
 3990TIP3   OH233384   5.917   6.274  13.849  0.2098  0.4670 -0.0332
 3990TIP3    H133385   6.004   6.311  13.837  0.1727  0.4251 -0.4599
 3990TIP3    H233386   5.931   6.192  13.895  0.4357  0.2612 -0.4635
 3991TIP3   OH233387   6.574   6.635   4.965 -0.8529  0.7881  0.5093
 3991TIP3    H133388   6.640   6.572   4.993  0.1122  0.8211 -1.5844
 3991TIP3    H233389   6.493   6.584   4.956 -0.2468 -0.0169 -0.4407
 3992TIP3   OH233390   1.377   3.129  13.658  0.6732 -0.3348  0.1820
 3992TIP3    H133391   1.417   3.167  13.736 -0.4652 -0.1497  0.6933
 3992TIP3    H233392   1.345   3.044  13.687  0.8507 -0.5517 -0.2612
 3993TIP3   OH233393   4.347   6.733   2.532  0.3875 -0.2156 -0.1572
 3993TIP3    H133394   4.383   6.818   2.556  0.3431 -0.7122  1.7470
 3993TIP3    H233395   4.333   6.739   2.437  0.1554  1.9625 -0.0145
 3994TIP3   OH233396   5.867   5.715   6.564 -0.0869  0.0706  0.3264
 3994TIP3    H133397   5.950   5.747   6.528  0.6228  0.8010  2.5245
 3994TIP3    H233398   5.881   5.621   6.578 -0.2039 -0.1241 -0.8197
 3995TIP3   OH233399   5.734   0.661  15.373  0.2399 -0.6069 -0.3512
 3995TIP3    H133400   5.748   0.716  15.450 -0.6190 -0.7344 -0.1006
 3995TIP3    H233401   5.822   0.636  15.345  0.5556 -0.6077  0.6307
 3996TIP3   OH233402   2.573   5.900   2.061 -0.1406 -0.6405  0.5702
 3996TIP3    H133403   2.564   5.805   2.055  1.1225 -0.9135  2.4499
 3996TIP3    H233404   2.529   5.922   2.143  1.5484  0.0844  1.3091
 3997TIP3   OH233405   0.243   5.631  13.594  0.9587 -0.1614 -0.2643
 3997TIP3    H133406   0.252   5.649  13.687 -0.5771 -0.2391 -0.0922
 3997TIP3    H233407   0.191   5.552  13.589  0.0607  0.4728 -1.2057
 3998TIP3   OH233408   5.373   4.789  11.649  0.2528 -0.0288  0.4302
 3998TIP3    H133409   5.437   4.751  11.588 -1.5745 -0.8200 -1.0641
 3998TIP3    H233410   5.328   4.713  11.686  1.2982  0.4552  2.7490
 3999TIP3   OH233411   2.599   1.844   2.012 -0.2247  0.2252  0.1539
 3999TIP3    H133412   2.620   1.861   1.921  0.2339 -1.8409 -0.1461
 3999TIP3    H233413   2.623   1.924   2.058  2.0509  0.3017 -1.1394
 4000TIP3   OH233414   6.076   3.744  11.888  0.0546 -0.1510 -0.3082
 4000TIP3    H133415   6.083   3.837  11.910 -0.4062  0.0432 -0.9551
 4000TIP3    H233416   6.010   3.741  11.818  0.4792 -0.9040 -0.6783
 4001TIP3   OH233417   5.397   0.694   1.146 -0.1179  0.4442 -0.0142
 4001TIP3    H133418   5.480   0.703   1.099  0.4394  0.4385  0.9499
 4001TIP3    H233419   5.330   0.707   1.079  0.6517 -0.4067 -0.9638
 4002TIP3   OH233420   0.706   1.205   0.929 -0.4872 -0.0972 -0.4766
 4002TIP3    H133421   0.641   1.248   0.872 -0.4300 -0.1847 -0.6069
 4002TIP3    H233422   0.722   1.269   0.999  0.4823  0.5703 -1.3119
 4003TIP3   OH233423   0.816   2.567  13.532  0.5371  0.4562  1.0101
 4003TIP3    H133424   0.847   2.509  13.462  3.1209  0.8881  1.7262
 4003TIP3    H233425   0.752   2.515  13.579  0.1218 -0.5011 -0.5723
 4004TIP3   OH233426   5.451   5.262  13.663  0.1120 -0.2937  0.4910
 4004TIP3    H133427   5.521   5.297  13.607  0.1965 -0.2817  0.6025
 4004TIP3    H233428   5.493   5.249  13.748 -0.6084  1.9601  1.2218
 4005TIP3   OH233429   1.584   1.620   5.210  0.0500 -0.2802  0.0239
 4005TIP3    H133430   1.568   1.640   5.302  0.8424  0.8380 -0.0677
 4005TIP3    H233431   1.584   1.705   5.166  2.6912 -0.5217 -0.5179
 4006TIP3   OH233432   1.675   2.663   5.133 -0.1317  0.0659 -0.2169
 4006TIP3    H133433   1.691   2.575   5.100  0.7241 -0.0701  0.5597
 4006TIP3    H233434   1.659   2.652   5.227 -1.0008  0.6286 -0.2907
 4007TIP3   OH233435   2.563   5.181   5.051 -0.1641 -0.5185 -0.4375
 4007TIP3    H133436   2.553   5.275   5.038  1.1534 -0.4623 -1.1547
 4007TIP3    H233437   2.497   5.158   5.116 -1.0157  0.7601 -0.8370
 4008TIP3   OH233438   6.175   1.923  15.824 -0.2452 -0.4251 -0.2649
 4008TIP3    H133439   6.184   1.960  15.735  1.8887 -1.1820 -0.3846
 4008TIP3    H233440   6.102   1.972  15.862 -0.9475  0.1844 -2.3044
 4009TIP3   OH233441   5.414   1.540   0.853 -0.3589  0.3845  0.0586
 4009TIP3    H133442   5.358   1.480   0.903  0.4447 -1.9401 -1.6861
 4009TIP3    H233443   5.353   1.586   0.795 -0.7597 -0.4069 -0.1616
 4010TIP3   OH233444   4.471   0.033   3.375 -0.2533 -0.2068  0.1657
 4010TIP3    H133445   4.378   0.011   3.366 -0.3381 -0.1105  0.7450
 4010TIP3    H233446   4.474   0.093   3.450  0.3732 -0.8847  0.6965
 4011TIP3   OH233447   1.981   3.355   2.934  0.0436 -0.1485 -0.4770
 4011TIP3    H133448   1.894   3.315   2.934  0.2010 -0.7524  3.2447
 4011TIP3    H233449   2.006   3.359   2.842 -2.8980 -2.2060 -1.4576
 4012TIP3   OH233450   5.296   1.233   5.354  0.0062 -0.1380 -0.3196
 4012TIP3    H133451   5.227   1.202   5.296 -0.1429 -1.1425  0.3838
 4012TIP3    H233452   5.346   1.155   5.376  0.1484  0.2524  0.7770
 4013TIP3   OH233453   0.334   1.255  14.269  0.3735 -0.0810 -0.3207
 4013TIP3    H133454   0.291   1.330  14.310 -3.6730 -0.8971 -2.8085
 4013TIP3    H233455   0.341   1.190  14.339  0.2035  1.1209  0.8307
 4014TIP3   OH233456   3.976   3.123   4.943 -0.1629  0.3095  0.8867
 4014TIP3    H133457   4.029   3.075   5.006  1.8767 -0.7491 -1.5359
 4014TIP3    H233458   4.022   3.207   4.933  0.4382 -0.1533 -0.3406
 4015TIP3   OH233459   5.490   4.413  10.298  0.0992 -0.1755  0.8227
 4015TIP3    H133460   5.509   4.326  10.264 -0.0015 -0.1928  0.8093
 4015TIP3    H233461   5.417   4.400  10.359  0.3737 -0.1667  1.1526
 4016TIP3   OH233462   4.588   2.079   1.409  0.2709 -0.5301 -0.7700
 4016TIP3    H133463   4.607   1.995   1.367  3.2600  1.2981 -3.3069
 4016TIP3    H233464   4.576   2.057   1.502  2.5629 -3.5805 -1.0901
 4017TIP3   OH233465   4.625   6.212   1.259 -0.4916  0.1616 -0.2782
 4017TIP3    H133466   4.655   6.192   1.170 -1.3135  1.0704 -0.7644
 4017TIP3    H233467   4.530   6.207   1.254 -0.5259 -0.1235  0.6378
 4018TIP3   OH233468   4.176   1.519   1.911  0.3079  0.5593  0.2331
 4018TIP3    H133469   4.089   1.479   1.904 -0.1360  1.3427  1.3072
 4018TIP3    H233470   4.193   1.526   2.005  1.0413  1.4725  0.0448
 4019TIP3   OH233471   5.477   0.532   0.896  0.1186 -0.0224  0.2610
 4019TIP3    H133472   5.391   0.538   0.854 -0.7796 -1.0427  1.9229
 4019TIP3    H233473   5.495   0.438   0.902  1.2333  0.1724  0.2004
 4020TIP3   OH233474   4.181   1.954   6.016  0.4218 -0.4015 -0.9898
 4020TIP3    H133475   4.129   1.916   6.086 -1.4475  0.3010 -1.9568
 4020TIP3    H233476   4.202   2.042   6.046  0.9959 -0.6611 -0.6289
 4021TIP3   OH233477   4.289   0.088  16.274  0.3812  0.5684  1.0916
 4021TIP3    H133478   4.295   0.174  16.315 -0.2556  1.0754  0.1481
 4021TIP3    H233479   4.225   0.100  16.204  0.8155 -0.4950  0.5039
 4022TIP3   OH233480   5.865   6.755  14.471 -0.1009 -0.3100  0.8949
 4022TIP3    H133481   5.823   6.693  14.412 -0.2180  1.6735 -1.1691
 4022TIP3    H233482   5.957   6.755  14.446 -0.1119  0.3782  0.8388
 4023TIP3   OH233483   2.241   6.720   6.471  0.2239 -0.2271 -0.0449
 4023TIP3    H133484   2.273   6.644   6.423  0.6784  0.7145 -1.2633
 4023TIP3    H233485   2.307   6.787   6.456 -0.3098  0.4869  0.7880
 4024TIP3   OH233486   1.422   3.667  10.982  0.4267 -0.5049  0.3167
 4024TIP3    H133487   1.463   3.716  10.911  1.3408 -1.1855  0.3675
 4024TIP3    H233488   1.349   3.622  10.940  0.0710  0.2435  0.1090
 4025TIP3   OH233489   6.394   6.513   3.817 -0.7566  0.8897 -0.1428
 4025TIP3    H133490   6.468   6.463   3.783 -0.0852  0.8981  1.2709
 4025TIP3    H233491   6.316   6.465   3.787 -0.1243 -1.8371  2.4179
 4026TIP3   OH233492   2.036   4.791  16.995 -0.0588  0.4237 -0.1304
 4026TIP3    H133493   2.046   4.736  16.917 -0.6919 -1.6735  1.2160
 4026TIP3    H233494   2.099   4.756  17.058 -0.0729  1.6184  0.5661
 4027TIP3   OH233495   5.707   6.659   2.303  0.7607 -0.0519 -0.1962
 4027TIP3    H133496   5.747   6.581   2.343  2.3375 -0.0693 -1.7548
 4027TIP3    H233497   5.774   6.726   2.311  1.0846 -0.0297 -2.6909
 4028TIP3   OH233498   2.784   4.093   3.904  0.0189 -0.2810  0.6188
 4028TIP3    H133499   2.735   4.011   3.900 -1.7933  0.8038  0.3703
 4028TIP3    H233500   2.832   4.096   3.821 -0.3032 -0.8490  0.4113
 4029TIP3   OH233501   3.997   1.007  10.552  0.2578  0.0553  0.6404
 4029TIP3    H133502   4.084   0.986  10.519  0.5891  1.7972  0.3531
 4029TIP3    H233503   3.963   0.924  10.586  1.4470 -0.9368 -0.5536
 4030TIP3   OH233504   3.375   5.447   3.179 -0.0589  0.3697  0.8683
 4030TIP3    H133505   3.344   5.420   3.092  0.9448  0.9609  0.3203
 4030TIP3    H233506   3.315   5.404   3.240 -0.6855 -0.1687 -0.1128
 4031TIP3   OH233507   3.393   3.433  15.970  0.2295 -0.1978  0.2726
 4031TIP3    H133508   3.422   3.502  16.030 -0.8119 -0.1052  0.6843
 4031TIP3    H233509   3.409   3.468  15.883  1.0806 -0.0347  0.4936
 4032TIP3   OH233510   4.798   5.033   4.115 -0.1763 -0.0825  0.1142
 4032TIP3    H133511   4.710   5.023   4.152 -0.8312  0.0319 -1.3804
 4032TIP3    H233512   4.800   5.122   4.082  0.3367 -0.2450 -0.2951
 4033TIP3   OH233513   3.571   4.026  15.460  0.0178  0.1513  0.1050
 4033TIP3    H133514   3.522   3.968  15.401  0.5245 -1.1166  0.9180
 4033TIP3    H233515   3.528   4.112  15.450 -1.6456 -0.6811 -0.0381
 4034TIP3   OH233516   4.418   2.505   1.365  0.5394  0.1921  0.1187
 4034TIP3    H133517   4.345   2.496   1.426  0.3333  1.8352  0.1550
 4034TIP3    H233518   4.422   2.599   1.347  1.2445 -0.1553 -1.6121
 4035TIP3   OH233519   3.061   0.832  15.837  0.2400  0.0776  0.3744
 4035TIP3    H133520   3.152   0.862  15.842 -0.3368  1.9905 -0.3501
 4035TIP3    H233521   3.048   0.785  15.919  2.3456 -1.5622 -0.1757
 4036TIP3   OH233522   4.563   3.313   6.678 -0.2852  0.2832 -0.2383
 4036TIP3    H133523   4.647   3.268   6.680 -0.5534 -0.1572  1.6341
 4036TIP3    H233524   4.553   3.339   6.586  1.9500  0.4804 -0.4658
 4037TIP3   OH233525   2.895   5.702   5.561 -0.2725  0.4828 -0.5145
 4037TIP3    H133526   2.930   5.723   5.474  0.9158 -0.1677 -0.2023
 4037TIP3    H233527   2.972   5.687   5.615 -1.0408 -2.0518 -0.0568
 4038TIP3   OH233528   5.408   5.429  12.889 -0.1677  0.0883 -0.1255
 4038TIP3    H133529   5.419   5.476  12.972  0.4669 -0.7972  0.2947
 4038TIP3    H233530   5.313   5.427  12.876 -0.2412  0.8289  0.2275
 4039TIP3   OH233531   6.493   3.603  13.895  0.2295  0.4685  0.6328
 4039TIP3    H133532   6.429   3.662  13.855 -0.2967  0.1313  0.9754
 4039TIP3    H233533   6.446   3.521  13.909  1.1032 -0.2068 -0.2976
 4040TIP3   OH233534   0.425   3.411  10.792 -0.0959  0.0487 -0.3879
 4040TIP3    H133535   0.446   3.485  10.848  0.1773 -0.1179 -0.2661
 4040TIP3    H233536   0.420   3.336  10.852 -4.3574  0.6121  0.0697
 4041TIP3   OH233537   3.431   1.420  15.989  1.3170  0.1993  0.0291
 4041TIP3    H133538   3.382   1.419  16.070  0.3872  1.6398 -0.5097
 4041TIP3    H233539   3.453   1.328  15.973 -0.2599 -0.3205  0.8328
 4042TIP3   OH233540   6.315   3.707  13.705  0.0175 -0.3155  0.0378
 4042TIP3    H133541   6.301   3.635  13.644  2.7742 -0.2009 -0.7736
 4042TIP3    H233542   6.369   3.769  13.658 -1.8031  2.0387  0.9595
 4043TIP3   OH233543   6.376   3.498   1.133 -0.2800  0.7892  0.2782
 4043TIP3    H133544   6.422   3.417   1.154 -1.3781 -0.2747 -1.3533
 4043TIP3    H233545   6.291   3.488   1.176 -1.2915  0.0461 -1.8677
 4044TIP3   OH233546   4.861   4.759  13.573  0.0885 -0.0946  0.3399
 4044TIP3    H133547   4.780   4.786  13.617 -0.9957  1.6328 -2.5706
 4044TIP3    H233548   4.909   4.841  13.560  1.8423 -0.9751  1.0716
 4045TIP3   OH233549   2.967   0.539  15.560 -0.4506 -0.1117 -0.0311
 4045TIP3    H133550   2.914   0.518  15.483 -0.9496  0.0848  0.2531
 4045TIP3    H233551   3.034   0.470  15.562  2.4139  2.4160 -3.2248
 4046TIP3   OH233552   5.730   0.411  15.265 -0.3379  0.8796 -0.3905
 4046TIP3    H133553   5.687   0.340  15.313 -2.5949  1.4411 -1.5344
 4046TIP3    H233554   5.701   0.491  15.309 -0.8575  1.2908 -1.4763
 4047TIP3   OH233555   4.466   0.584  12.427 -0.3496  0.2955 -0.2151
 4047TIP3    H133556   4.550   0.554  12.462 -0.3491 -0.0296 -0.4909
 4047TIP3    H233557   4.417   0.615  12.503  0.2762  1.1038 -0.1258
 4048TIP3   OH233558   2.392   5.441   4.530 -0.3268 -0.1334  0.3379
 4048TIP3    H133559   2.382   5.380   4.457  0.0274 -0.9540  0.9594
 4048TIP3    H233560   2.484   5.467   4.527 -0.4440  0.2623  0.1608
 4049TIP3   OH233561   4.791   6.471  16.523 -0.4236  0.7511 -0.1306
 4049TIP3    H133562   4.778   6.475  16.618  1.1368  2.2514  0.0347
 4049TIP3    H233563   4.858   6.537  16.505  0.4278 -0.6090 -2.0739
 4050TIP3   OH233564   1.221   2.766  12.906  0.6336 -0.0978  0.1934
 4050TIP3    H133565   1.216   2.826  12.832 -0.4371 -1.5359 -0.8996
 4050TIP3    H233566   1.134   2.727  12.912  1.0801 -0.9405  1.4146
 4051TIP3   OH233567   4.840   5.122   0.997  0.1709  0.2818 -0.2344
 4051TIP3    H133568   4.851   5.077   1.081 -2.3152 -0.6380 -0.3461
 4051TIP3    H233569   4.761   5.174   1.009  1.4505  2.4787 -1.0544
 4052TIP3   OH233570   5.309   2.908   3.424 -0.2372 -0.2804 -0.1734
 4052TIP3    H133571   5.353   2.924   3.508 -1.6287  0.8664  0.3657
 4052TIP3    H233572   5.375   2.866   3.370  1.5669  1.4631  0.6014
 4053TIP3   OH233573   6.025   1.165   4.200 -0.4528  0.2687  0.3454
 4053TIP3    H133574   6.075   1.101   4.252  0.5076  0.1845 -0.6547
 4053TIP3    H233575   5.995   1.229   4.265 -0.0138 -0.3027  1.1336
 4054TIP3   OH233576   4.349   5.441  12.036 -0.2845 -0.0665 -0.3391
 4054TIP3    H133577   4.334   5.361  12.086  0.1455 -0.0872 -0.2379
 4054TIP3    H233578   4.350   5.412  11.945  2.0722 -0.5424 -0.1855
 4055TIP3   OH233579   6.296   0.671   2.826  0.1089 -0.7875  0.5251
 4055TIP3    H133580   6.216   0.724   2.823  0.7402  0.2475  1.7497
 4055TIP3    H233581   6.339   0.696   2.908  2.0080 -0.8841 -0.4133
 4056TIP3   OH233582   2.540   1.018   0.335 -0.1865 -0.5168 -0.9213
 4056TIP3    H133583   2.470   0.988   0.278 -0.7427 -0.8060 -0.0943
 4056TIP3    H233584   2.602   1.062   0.276  0.6698 -3.2797 -2.1793
 4057TIP3   OH233585   5.017   4.981  14.131 -0.0310  0.0752 -0.2438
 4057TIP3    H133586   5.029   5.037  14.055  1.1329  0.6077  0.3290
 4057TIP3    H233587   4.960   5.032  14.190  0.5402  0.4063  0.0204
 4058TIP3   OH233588   5.093   2.952   5.642 -0.3935  0.3491  0.6290
 4058TIP3    H133589   5.109   3.033   5.593  0.6871  0.5069  1.2158
 4058TIP3    H233590   5.176   2.935   5.688 -1.8125  0.9700  3.5306
 4059TIP3   OH233591   0.212   0.728   3.028 -0.1158  0.1269 -0.0768
 4059TIP3    H133592   0.233   0.654   2.972 -1.9082 -0.2301 -0.3031
 4059TIP3    H233593   0.140   0.697   3.083 -1.1998  1.8390 -0.4920
 4060TIP3   OH233594   5.893   3.407   1.381 -0.8171  0.0690 -0.0955
 4060TIP3    H133595   5.914   3.411   1.475 -0.2710  0.2250 -0.2216
 4060TIP3    H233596   5.821   3.469   1.370 -0.7734  0.1705  0.1898
 4061TIP3   OH233597   1.984   5.021  10.855 -0.3630 -0.0681 -0.0775
 4061TIP3    H133598   2.044   5.074  10.802 -1.0367 -1.1919 -2.0301
 4061TIP3    H233599   2.024   4.935  10.858 -0.6223 -0.1666  0.7822
 4062TIP3   OH233600   2.564   0.572   3.569  0.8108 -0.1300 -0.4817
 4062TIP3    H133601   2.492   0.585   3.507 -0.0170 -1.3226  0.2068
 4062TIP3    H233602   2.615   0.501   3.531  0.3290 -0.8287  0.1765
 4063TIP3   OH233603   2.453   0.251  11.201 -0.2693 -0.3922 -0.1266
 4063TIP3    H133604   2.446   0.337  11.161  3.2162 -0.2447 -0.5548
 4063TIP3    H233605   2.384   0.249  11.267 -0.5535  2.6181 -0.2915
 4064TIP3   OH233606   5.735   4.765  13.545  1.0401  0.0200 -0.3888
 4064TIP3    H133607   5.781   4.723  13.473 -0.5604  0.3598 -1.6314
 4064TIP3    H233608   5.767   4.721  13.623  0.1610 -2.7950 -1.5738
 4065TIP3   OH233609   1.534   2.637   4.321  0.2147 -0.6149 -0.3937
 4065TIP3    H133610   1.495   2.561   4.364  0.5005 -0.5434  0.0025
 4065TIP3    H233611   1.515   2.625   4.228  0.7400 -1.4656 -0.3988
 4066TIP3   OH233612   1.723   2.434  15.858 -0.2152  0.1038 -0.8279
 4066TIP3    H133613   1.668   2.378  15.803 -1.3432  2.2403 -1.9404
 4066TIP3    H233614   1.739   2.512  15.805  0.9346  1.0555  0.8631
 4067TIP3   OH233615   2.879   4.553  14.245  0.3884 -0.1962 -0.4718
 4067TIP3    H133616   2.952   4.609  14.218  0.7027  0.0249  0.7840
 4067TIP3    H233617   2.801   4.605  14.226  0.7510  1.6258  2.6809
 4068TIP3   OH233618   5.131   2.064  16.935  0.3190  0.5381 -0.4795
 4068TIP3    H133619   5.047   2.074  16.891 -0.1344 -0.0231  0.2470
 4068TIP3    H233620   5.178   2.145  16.915 -0.2712  0.7240 -1.1393
 4069TIP3   OH233621   6.364   2.874  12.020 -0.3509 -0.0412 -0.4497
 4069TIP3    H133622   6.331   2.931  12.089  0.7021  1.6676 -1.3045
 4069TIP3    H233623   6.355   2.926  11.940  0.2977 -1.2157 -1.2959
 4070TIP3   OH233624   0.770   3.031  13.245 -0.6814  0.3843 -0.4121
 4070TIP3    H133625   0.851   3.060  13.204 -0.3504 -0.6433 -0.4926
 4070TIP3    H233626   0.798   2.974  13.316 -1.3921 -2.5795 -2.4213
 4071TIP3   OH233627   4.325   1.050  12.668  0.6627  0.6928  0.5913
 4071TIP3    H133628   4.237   1.035  12.634  1.1623  0.4639 -0.6117
 4071TIP3    H233629   4.362   0.962  12.678  0.8797  0.8041  0.7847
 4072TIP3   OH233630   5.966   1.508  12.640 -0.0225 -0.1947 -0.2043
 4072TIP3    H133631   6.030   1.577  12.658 -1.0477  0.7819 -0.2512
 4072TIP3    H233632   5.966   1.500  12.545 -1.5854  1.3859 -0.3614
 4073TIP3   OH233633   5.925   4.767  11.026  0.0811 -0.0118  0.7018
 4073TIP3    H133634   5.940   4.855  10.991  0.6791  0.8320  3.0326
 4073TIP3    H233635   6.013   4.729  11.035 -0.2243 -1.3288 -1.3916
 4074TIP3   OH233636   3.466   6.030  14.703 -0.5551  0.4687  0.1411
 4074TIP3    H133637   3.464   6.118  14.742 -1.4366  0.6441 -0.2857
 4074TIP3    H233638   3.375   6.001  14.705 -0.1468 -0.8291  1.1444
 4075TIP3   OH233639   2.768   1.948   3.563  0.0272  0.4850  0.0954
 4075TIP3    H133640   2.722   1.999   3.629 -1.4264  2.6981 -2.5274
 4075TIP3    H233641   2.711   1.873   3.546 -0.6489  1.0522 -0.1667
 4076TIP3   OH233642   6.379   2.417  12.377  0.2952 -0.0450 -0.6780
 4076TIP3    H133643   6.384   2.509  12.404 -0.4342 -0.2688  0.2866
 4076TIP3    H233644   6.324   2.418  12.299 -0.4465  0.2533 -0.1657
 4077TIP3   OH233645   3.035   1.517   3.937 -0.1774 -0.2423 -0.6153
 4077TIP3    H133646   2.990   1.564   3.867  0.9823  1.0961 -0.4859
 4077TIP3    H233647   2.969   1.506   4.005 -0.6923  0.4356 -1.0051
 4078TIP3   OH233648   1.875   1.187  14.077 -0.7234  0.0614 -0.3334
 4078TIP3    H133649   1.850   1.098  14.098  0.9740 -0.3042  0.2333
 4078TIP3    H233650   1.892   1.229  14.161  1.1356  0.0958 -0.6869
 4079TIP3   OH233651   3.223   5.112  14.078  0.3878  0.1888  0.0735
 4079TIP3    H133652   3.181   5.191  14.045  1.0252  0.5526  0.1236
 4079TIP3    H233653   3.154   5.046  14.079 -0.5070  1.1189  1.3697
 4080TIP3   OH233654   0.590   4.412  11.760 -0.2590  0.3812 -0.2530
 4080TIP3    H133655   0.565   4.438  11.672 -1.4764 -1.5310 -0.5127
 4080TIP3    H233656   0.683   4.391  11.754 -0.2954  0.4470 -1.0493
 4081TIP3   OH233657   4.890   2.096  16.718  0.2627  0.5513  0.2476
 4081TIP3    H133658   4.979   2.099  16.682 -0.4423  1.0009 -1.5436
 4081TIP3    H233659   4.844   2.166  16.672 -1.1068  0.0975  0.9088
 4082TIP3   OH233660   1.166   0.443  12.198  0.4982  0.2775 -0.2332
 4082TIP3    H133661   1.235   0.451  12.264 -1.2394  0.5030  1.6036
 4082TIP3    H233662   1.114   0.368  12.226  0.2710 -0.1767 -1.8540
 4083TIP3   OH233663   4.340   0.367  13.280  0.3457  0.4752  0.0336
 4083TIP3    H133664   4.393   0.426  13.227 -0.0944 -0.0204 -0.9801
 4083TIP3    H233665   4.251   0.402  13.274  0.2014  0.1050  0.0054
 4084TIP3   OH233666   0.657   5.096  12.819 -0.9313  0.1306  0.0248
 4084TIP3    H133667   0.677   5.089  12.725  1.5919  0.9720  0.4623
 4084TIP3    H233668   0.636   5.189  12.832  2.0130  0.7167  0.8631
 4085TIP3   OH233669   3.725   5.524   4.893  0.0322 -0.0665  0.7025
 4085TIP3    H133670   3.697   5.463   4.825  0.1360 -1.6858  2.0637
 4085TIP3    H233671   3.798   5.572   4.855  1.1111 -2.0547  0.1956
 4086TIP3   OH233672   2.208   4.596  12.299  0.3473  0.3127 -0.2123
 4086TIP3    H133673   2.250   4.682  12.301 -0.6739  0.8484 -1.2585
 4086TIP3    H233674   2.260   4.545  12.237  0.4781  0.4221 -0.1929
 4087TIP3   OH233675   0.747   5.455   6.491  0.0807 -0.6625 -0.3953
 4087TIP3    H133676   0.663   5.422   6.462 -0.2847  0.5797 -0.7899
 4087TIP3    H233677   0.735   5.550   6.497  0.9501 -0.6340  1.1925
 4088TIP3   OH233678   4.322   5.623  14.459 -0.2800  0.0980 -0.6132
 4088TIP3    H133679   4.270   5.598  14.536 -1.3741 -1.8689 -1.9576
 4088TIP3    H233680   4.268   5.686  14.413  0.2648  1.0788  0.0631
 4089TIP3   OH233681   1.765   2.806   0.554 -0.0920 -0.8154  0.1588
 4089TIP3    H133682   1.783   2.818   0.461  0.0292 -1.2668  0.1260
 4089TIP3    H233683   1.840   2.757   0.587  0.6017  0.6264  0.8008
 4090TIP3   OH233684   5.562   6.020   5.581 -0.0756 -0.0215 -0.1994
 4090TIP3    H133685   5.533   6.064   5.501  0.0208 -0.8604 -0.7029
 4090TIP3    H233686   5.526   6.073   5.652 -0.9282  0.2258 -0.8094
 4091TIP3   OH233687   3.034   1.155  13.618 -0.1869  0.3506 -0.1760
 4091TIP3    H133688   3.050   1.225  13.681 -0.6517 -0.7706  1.2243
 4091TIP3    H233689   3.110   1.156  13.561  0.0758  1.6194  0.1839
 4092TIP3   OH233690   2.820   1.656   1.296 -0.0509 -0.1688  0.1141
 4092TIP3    H133691   2.887   1.680   1.360  0.9153  0.7787 -1.2167
 4092TIP3    H233692   2.833   1.563   1.281  0.8091 -0.0349  0.0381
 4093TIP3   OH233693   0.964   0.026   4.463  0.1361  0.0648  0.3194
 4093TIP3    H133694   0.961  -0.057   4.416  0.6295  0.1201  0.1825
 4093TIP3    H233695   1.039   0.017   4.523 -0.1549  0.1982  0.7083
 4094TIP3   OH233696   6.277   0.473   4.121  0.4127  0.0609 -0.2754
 4094TIP3    H133697   6.212   0.472   4.191 -0.0742  3.1477 -0.5930
 4094TIP3    H233698   6.227   0.484   4.041  1.1592 -0.2459 -0.7907
 4095TIP3   OH233699   3.298   1.076   2.082  1.1024  0.0375  0.0165
 4095TIP3    H133700   3.358   1.016   2.128 -0.1498 -0.7426  0.6807
 4095TIP3    H233701   3.265   1.025   2.008  2.2814  0.9252 -1.1350
 4096TIP3   OH233702   0.216   1.076  13.376  0.7376 -0.5047 -0.1121
 4096TIP3    H133703   0.292   1.082  13.434 -0.3028  0.3099  1.1923
 4096TIP3    H233704   0.180   1.164  13.374 -1.8868 -1.4598  1.6561
 4097TIP3   OH233705   2.603   6.515  11.746  0.2491  0.0961 -0.1779
 4097TIP3    H133706   2.656   6.594  11.759  0.3516 -0.3890  2.7772
 4097TIP3    H233707   2.524   6.531  11.798 -1.2881 -0.3366 -2.3301
 4098TIP3   OH233708   1.422   5.092   5.773 -0.3770 -0.1784  0.1148
 4098TIP3    H133709   1.328   5.099   5.793 -0.2096  0.6034  0.6247
 4098TIP3    H233710   1.439   4.998   5.772 -0.9814 -0.3004  0.9019
 4099TIP3   OH233711   5.769   3.067  10.740 -0.4447 -0.0946 -0.1989
 4099TIP3    H133712   5.732   2.999  10.685  0.9755 -1.6162  0.6702
 4099TIP3    H233713   5.858   3.079  10.707 -0.1643  0.2179  0.6456
 4100TIP3   OH233714   2.797   4.983   2.580  0.0067 -0.2912 -0.4802
 4100TIP3    H133715   2.793   5.012   2.489 -0.8365 -0.1478 -0.4024
 4100TIP3    H233716   2.888   4.956   2.593  0.1644 -0.1716 -1.3195
 4101TIP3   OH233717   0.985   0.663   2.924 -0.2609 -0.2280  0.0837
 4101TIP3    H133718   1.045   0.733   2.951  0.2594 -0.1771 -1.1365
 4101TIP3    H233719   0.949   0.694   2.841 -0.0469 -1.3918 -0.4470
 4102TIP3   OH233720   2.937   0.194  16.830 -0.1398 -0.1221  0.3862
 4102TIP3    H133721   2.900   0.109  16.806 -0.0645 -0.2702  0.7903
 4102TIP3    H233722   2.903   0.254  16.764 -1.3624 -0.1970  0.9255
 4103TIP3   OH233723   2.676   1.311  12.305 -0.2942  0.1977 -0.0703
 4103TIP3    H133724   2.679   1.406  12.312  3.4982  0.2182 -1.1077
 4103TIP3    H233725   2.669   1.293  12.212  2.0717 -0.5304 -0.1389
 4104TIP3   OH233726   0.956   4.148  16.792 -0.9183  0.2632 -0.4431
 4104TIP3    H133727   0.892   4.118  16.856  0.1472 -0.0005  0.5193
 4104TIP3    H233728   0.924   4.115  16.708 -1.5257 -0.6991  0.1594
 4105TIP3   OH233729   5.838   3.491  15.379 -0.1419 -0.4320 -0.0089
 4105TIP3    H133730   5.781   3.416  15.395 -1.0874  0.6636  1.9774
 4105TIP3    H233731   5.898   3.461  15.310 -0.1145 -3.1937  1.1417
 4106TIP3   OH233732   1.228   3.166  10.935  0.9571 -0.1782 -0.2113
 4106TIP3    H133733   1.304   3.219  10.958  2.1285 -1.2868 -1.3916
 4106TIP3    H233734   1.168   3.227  10.891  0.5827  0.9706  1.8144
 4107TIP3   OH233735   5.110   0.011  16.949 -0.0084  0.5274  0.2030
 4107TIP3    H133736   5.063  -0.040  16.883 -0.5402  0.3004  0.7493
 4107TIP3    H233737   5.042   0.061  16.994  0.6645  2.9451 -1.3586
 4108TIP3   OH233738   3.513   6.710  11.412 -0.2293  0.1821  0.3660
 4108TIP3    H133739   3.568   6.650  11.362 -1.0866 -0.6037  0.3548
 4108TIP3    H233740   3.519   6.793  11.365 -0.2932 -0.3040 -0.5094
 4109TIP3   OH233741   2.709   2.999  12.030  0.1436  0.2064 -0.3711
 4109TIP3    H133742   2.690   3.075  11.974 -2.0602 -0.5689 -0.7216
 4109TIP3    H233743   2.646   3.006  12.101  1.9367  0.3437  1.2541
 4110TIP3   OH233744   5.668   0.156   3.081  0.8814 -0.0104  0.3557
 4110TIP3    H133745   5.593   0.140   3.138  1.0191 -0.9516  0.2782
 4110TIP3    H233746   5.744   0.134   3.134  0.9266 -2.6470 -0.7691
 4111TIP3   OH233747   5.919   1.374  13.214 -0.1066 -0.1875 -0.3446
 4111TIP3    H133748   5.955   1.304  13.270 -1.4406  0.5432  1.4749
 4111TIP3    H233749   5.827   1.350  13.203 -0.5699  1.2782  0.2883
 4112TIP3   OH233750   4.611   4.830  12.148  0.0881 -0.2947  0.1380
 4112TIP3    H133751   4.693   4.787  12.171  0.9522  0.8251 -0.7834
 4112TIP3    H233752   4.637   4.916  12.116 -1.4780  0.2254  0.2101
 4113TIP3   OH233753   2.701   6.492  15.037 -0.6475  0.3283 -0.2134
 4113TIP3    H133754   2.646   6.535  15.103  0.1374 -1.1263  1.4421
 4113TIP3    H233755   2.701   6.400  15.063 -1.0870 -0.4481 -2.8296
 4114TIP3   OH233756   4.919   6.505  15.310 -0.3050 -0.4607 -0.4433
 4114TIP3    H133757   4.915   6.485  15.217 -2.6143 -1.4062 -0.1836
 4114TIP3    H233758   4.875   6.589  15.319 -0.0224 -0.3347 -0.2055
 4115TIP3   OH233759   5.308   6.475   5.669  0.4248  0.0204 -0.4202
 4115TIP3    H133760   5.230   6.515   5.630  1.1723  2.0371  0.1014
 4115TIP3    H233761   5.358   6.549   5.703  0.8208 -1.5323  2.4869
 4116TIP3   OH233762   5.249   4.418  15.681  0.4119  1.2173 -0.9041
 4116TIP3    H133763   5.276   4.387  15.767  0.5955 -2.0036 -2.0697
 4116TIP3    H233764   5.153   4.420  15.685  0.4641  3.1211  0.0167
 4117TIP3   OH233765   6.533   6.605  12.774 -0.0349 -0.1280 -0.0534
 4117TIP3    H133766   6.486   6.537  12.823 -0.9058  0.6601  0.2133
 4117TIP3    H233767   6.473   6.629  12.704  0.1466  0.5871  0.0379
 4118TIP3   OH233768   6.765   5.391   0.127 -0.5739 -0.7573 -0.3607
 4118TIP3    H133769   6.849   5.346   0.125 -0.1989 -0.2078  1.5557
 4118TIP3    H233770   6.777   5.462   0.191 -2.6120 -0.9609  0.3046
 4119TIP3   OH233771   1.215   3.942  14.028 -0.3634 -0.7898 -0.1596
 4119TIP3    H133772   1.276   4.012  14.051 -0.3570 -0.7394 -0.3330
 4119TIP3    H233773   1.153   3.982  13.967 -2.1761 -0.1145  2.0809
 4120TIP3   OH233774   2.847   2.871  13.429 -0.5327 -0.7173  0.2374
 4120TIP3    H133775   2.871   2.898  13.341 -0.1421 -1.8904 -0.0234
 4120TIP3    H233776   2.788   2.939  13.460  1.3741  1.0652  0.0461
 4121TIP3   OH233777   5.060   2.643   2.787  0.0830  0.6753 -0.2954
 4121TIP3    H133778   5.022   2.719   2.830  0.1525  0.6193 -0.1351
 4121TIP3    H233779   5.143   2.675   2.751 -0.3578  0.9348 -1.1035
 4122TIP3   OH233780   3.894   1.142   3.010  0.0315 -0.4740  0.1496
 4122TIP3    H133781   3.828   1.089   3.055  1.3841 -0.5499  2.1357
 4122TIP3    H233782   3.881   1.231   3.044 -0.5419 -0.0296 -1.2038
 4123TIP3   OH233783   1.802   0.643   5.350  0.0555  0.4528 -0.1480
 4123TIP3    H133784   1.713   0.640   5.385  0.4717 -0.6429  0.8716
 4123TIP3    H233785   1.809   0.729   5.308 -1.3848  0.6551 -0.0007
 4124TIP3   OH233786   4.622   5.190   0.473  0.4745 -0.2869  0.3768
 4124TIP3    H133787   4.605   5.251   0.401  0.6497  0.2171  0.7637
 4124TIP3    H233788   4.564   5.116   0.455  0.9928 -0.4550 -0.6369
 4125TIP3   OH233789   1.829   1.786   2.672 -0.3884 -0.1034 -0.2282
 4125TIP3    H133790   1.769   1.856   2.698  1.9399  1.6155  0.6991
 4125TIP3    H233791   1.866   1.815   2.588  2.4913  1.1185  1.3649
 4126TIP3   OH233792   4.307   6.659   3.781  0.0429 -0.0120 -0.9566
 4126TIP3    H133793   4.375   6.617   3.835 -0.4078  0.5464  0.0561
 4126TIP3    H233794   4.313   6.752   3.803 -2.3863 -0.1907  0.6688
 4127TIP3   OH233795   1.417   4.169  15.529 -0.5244  0.9546 -0.6192
 4127TIP3    H133796   1.346   4.117  15.568  0.5108  0.5007  0.6737
 4127TIP3    H233797   1.442   4.120  15.451  0.1242 -0.2669  0.3377
 4128TIP3   OH233798   4.480   5.778   2.151  0.3844 -0.3259 -0.3364
 4128TIP3    H133799   4.477   5.828   2.233  0.5017 -1.1152  0.1494
 4128TIP3    H233800   4.415   5.709   2.163  0.9084 -0.8693 -0.6386
 4129TIP3   OH233801   1.362   5.247  12.543  0.5049  0.0403  0.7113
 4129TIP3    H133802   1.336   5.196  12.467  1.6145 -1.1456  1.1208
 4129TIP3    H233803   1.309   5.327  12.537 -0.1897 -0.5083 -0.7100
 4130TIP3   OH233804   1.715   0.284   3.070 -0.4479  0.0202 -0.1698
 4130TIP3    H133805   1.798   0.272   3.025 -0.0340 -0.8311  0.8132
 4130TIP3    H233806   1.739   0.322   3.155 -1.2894  2.4592 -0.9905
 4131TIP3   OH233807   5.553   4.248  15.939 -0.1847 -0.3854  0.8054
 4131TIP3    H133808   5.618   4.198  15.889 -0.1473  1.7836 -1.4253
 4131TIP3    H233809   5.604   4.317  15.982 -0.9579  1.3918 -1.0407
 4132TIP3   OH233810   4.982   5.946   0.978  0.3746 -0.1952  0.3751
 4132TIP3    H133811   4.907   5.906   1.023 -0.8142  2.1907  0.6320
 4132TIP3    H233812   4.991   5.896   0.897 -0.2882 -1.7274  1.2186
 4133TIP3   OH233813   2.029   3.857  17.044  0.4636 -0.0066  0.8294
 4133TIP3    H133814   2.008   3.867  17.136 -1.3081  1.0005  0.3457
 4133TIP3    H233815   2.070   3.939  17.019  1.1093 -0.3476  0.7572
 4134TIP3   OH233816   1.438   0.061   2.190 -0.3722  0.7310 -0.1623
 4134TIP3    H133817   1.381   0.135   2.171 -2.6958 -0.9360  0.1315
 4134TIP3    H233818   1.472   0.079   2.278 -3.2385  0.0868  1.1514
 4135TIP3   OH233819   5.989   5.554   2.888 -0.2969  0.2391  0.2531
 4135TIP3    H133820   5.992   5.576   2.795  1.0589  1.7542  0.6240
 4135TIP3    H233821   6.057   5.609   2.928 -0.8064 -0.4380  2.1223
 4136TIP3   OH233822   3.643   3.422   0.889  0.5095 -0.4424 -0.0697
 4136TIP3    H133823   3.721   3.400   0.940  1.9843  0.7870 -1.7357
 4136TIP3    H233824   3.598   3.338   0.877  1.8699 -1.2629  0.4175
 4137TIP3   OH233825   3.820   4.606   4.443 -0.1251  0.0747  0.6213
 4137TIP3    H133826   3.732   4.613   4.480 -0.3873 -1.0244  0.2145
 4137TIP3    H233827   3.873   4.569   4.514 -0.0986  0.2310  0.6849
 4138TIP3   OH233828   4.363   5.915  14.103 -0.6613 -0.3067 -0.3445
 4138TIP3    H133829   4.292   5.850  14.095 -0.4773 -0.7040  1.0671
 4138TIP3    H233830   4.387   5.935  14.013 -0.8463 -2.0833 -0.8219
 4139TIP3   OH233831   5.009   6.554   1.180  0.2011  0.5827  0.0508
 4139TIP3    H133832   5.026   6.572   1.088 -0.4915 -1.2988 -0.4560
 4139TIP3    H233833   4.920   6.586   1.195 -0.1572 -0.2698 -0.2534
 4140TIP3   OH233834   2.842   4.759  11.182  0.5865 -0.1406  0.1673
 4140TIP3    H133835   2.832   4.713  11.266  0.0414 -1.2615 -0.4985
 4140TIP3    H233836   2.814   4.695  11.116 -0.8788  1.3834 -0.7369
 4141TIP3   OH233837   3.531   5.306  11.859 -0.0960 -0.1876  0.2275
 4141TIP3    H133838   3.601   5.357  11.899 -0.3007  0.7922 -0.6417
 4141TIP3    H233839   3.569   5.274  11.777 -0.9148  1.0280 -0.6426
 4142TIP3   OH233840   5.214   1.624   1.795 -0.4087 -0.1743  0.1482
 4142TIP3    H133841   5.292   1.576   1.770 -0.8451 -1.1610  0.6428
 4142TIP3    H233842   5.196   1.683   1.722  1.4667  0.9185  0.5335
 4143TIP3   OH233843   6.384   1.471   6.568 -0.5083  0.2693  0.5353
 4143TIP3    H133844   6.406   1.562   6.548 -0.9081  0.5061  1.1590
 4143TIP3    H233845   6.293   1.462   6.539 -0.7154  0.2884  1.1814
 4144TIP3   OH233846   4.883   3.563   2.007  0.3502  0.6128  0.9603
 4144TIP3    H133847   4.829   3.560   1.928  0.0619 -0.9073  1.1988
 4144TIP3    H233848   4.939   3.640   1.995  0.7745  0.0334 -1.0250
 4145TIP3   OH233849   0.307   0.374  13.444 -0.2673  0.2220 -0.1440
 4145TIP3    H133850   0.310   0.470  13.436  0.0368  0.2591  0.4052
 4145TIP3    H233851   0.398   0.347  13.441 -0.1962  0.1459  2.0149
 4146TIP3   OH233852   0.201   0.093  10.927 -0.2128 -0.1447 -0.0658
 4146TIP3    H133853   0.175   0.010  10.887  0.3646 -0.0244 -0.7027
 4146TIP3    H233854   0.265   0.069  10.994 -0.0856 -0.2237 -0.2136
 4147TIP3   OH233855   4.717   4.196   4.478  0.2518 -0.0778  0.3211
 4147TIP3    H133856   4.638   4.226   4.433  0.9316  0.3203 -0.6038
 4147TIP3    H233857   4.783   4.262   4.457  0.8082 -0.3527  1.1902
 4148TIP3   OH233858   2.035   5.384   2.821  0.0610  0.3428 -0.2093
 4148TIP3    H133859   1.999   5.299   2.795  0.0564  0.0469  0.7226
 4148TIP3    H233860   1.970   5.421   2.880  0.1928  0.8709 -0.3894
 4149TIP3   OH233861   1.962   5.665  14.437 -0.5762 -0.3478  0.0928
 4149TIP3    H133862   2.002   5.752  14.428 -0.2956 -0.4320  0.4867
 4149TIP3    H233863   1.868   5.682  14.441 -0.6392 -0.2065 -1.6594
 4150TIP3   OH233864   3.189   6.201  12.738 -0.3706 -0.6242  0.2145
 4150TIP3    H133865   3.141   6.138  12.791 -0.5979 -1.6843 -1.2349
 4150TIP3    H233866   3.269   6.155  12.713  0.7682  0.6206  1.3984
 4151TIP3   OH233867   4.345   3.348  13.843  0.1843 -0.0252  0.2751
 4151TIP3    H133868   4.435   3.317  13.836  0.9304  2.2518 -0.6258
 4151TIP3    H233869   4.298   3.300  13.775  0.8669 -0.6788  0.2526
 4152TIP3   OH233870   6.228   5.895   0.943  0.0221 -0.3312 -0.0365
 4152TIP3    H133871   6.230   5.836   0.867  0.3505  0.2143 -0.4524
 4152TIP3    H233872   6.178   5.846   1.009 -3.5640  0.6876 -1.8548
 4153TIP3   OH233873   4.056   4.611   3.510  0.2082  0.0774  0.3269
 4153TIP3    H133874   4.041   4.705   3.523  0.3013 -0.0111  1.1158
 4153TIP3    H233875   3.975   4.579   3.470 -0.3817  0.2367  1.3699
 4154TIP3   OH233876   5.063   4.512   3.787 -0.3854  0.5903  0.4830
 4154TIP3    H133877   5.011   4.579   3.741 -0.9962  0.7062  1.3314
 4154TIP3    H233878   5.038   4.430   3.745 -1.3625  0.6291  0.9709
 4155TIP3   OH233879   1.492   0.313  15.657  0.4050  0.2326 -0.2317
 4155TIP3    H133880   1.537   0.230  15.642 -3.0779 -1.4829 -1.6079
 4155TIP3    H233881   1.544   0.377  15.608  2.1892 -1.3932 -0.5430
 4156TIP3   OH233882   1.472   5.625   0.728 -0.0416  0.2013 -0.1403
 4156TIP3    H133883   1.510   5.688   0.789  2.0123  0.4514 -1.6407
 4156TIP3    H233884   1.465   5.544   0.779  3.5777 -0.1582 -0.1241
 4157TIP3   OH233885   4.860   2.638  15.582  0.3974  0.4656 -0.4231
 4157TIP3    H133886   4.862   2.725  15.621  0.5917  0.8449 -1.2653
 4157TIP3    H233887   4.780   2.598  15.616  0.4540  0.8730  0.1810
 4158TIP3   OH233888   6.025   6.423   6.476 -0.3687  0.0462  0.1959
 4158TIP3    H133889   6.012   6.503   6.425  0.2616 -0.6884 -1.1334
 4158TIP3    H233890   5.969   6.435   6.553 -2.1612  0.6987 -1.1668
 4159TIP3   OH233891   6.058   4.788   4.566 -0.5026  0.7533 -0.2259
 4159TIP3    H133892   5.966   4.774   4.542 -1.0725 -0.6255  2.5132
 4159TIP3    H233893   6.054   4.824   4.655  1.6493 -3.1552  1.5620
 4160TIP3   OH233894   1.536   6.209  13.919  0.8514  0.1722 -0.2549
 4160TIP3    H133895   1.594   6.264  13.972  0.2516 -0.1416  0.7399
 4160TIP3    H233896   1.595   6.149  13.874  1.2776 -0.4401  1.1005
 4161TIP3   OH233897   3.453   5.893   1.333 -0.1580 -0.4284 -0.0402
 4161TIP3    H133898   3.419   5.902   1.422  0.9143 -1.5457  0.4909
 4161TIP3    H233899   3.493   5.807   1.331 -3.4037 -1.9731 -2.7347
 4162TIP3   OH233900   3.324   6.438  15.588 -0.1072 -0.5295  0.7098
 4162TIP3    H133901   3.249   6.432  15.648 -2.1879  1.1533 -1.6415
 4162TIP3    H233902   3.392   6.481  15.640 -1.2281 -0.7360  2.4137
 4163TIP3   OH233903   4.027   3.630   1.699  0.2451 -0.7466  0.7008
 4163TIP3    H133904   4.038   3.597   1.610  0.5980 -1.1297  0.8836
 4163TIP3    H233905   3.934   3.615   1.718  0.3235 -1.3141  0.6509
 4164TIP3   OH233906   0.775   4.057   2.245  0.2051 -0.3598 -0.1061
 4164TIP3    H133907   0.788   4.004   2.324  2.4833  0.6244  0.2152
 4164TIP3    H233908   0.765   4.146   2.277 -2.3063 -0.3722 -0.7440
 4165TIP3   OH233909   4.239   2.905  16.073  0.1186 -0.1383 -0.1656
 4165TIP3    H133910   4.202   2.842  16.011 -0.4315  0.5165 -0.4972
 4165TIP3    H233911   4.230   2.861  16.158  0.6549 -0.9301 -0.5106
 4166TIP3   OH233912   0.946   2.219   1.910 -0.3322 -0.3044 -0.5231
 4166TIP3    H133913   0.986   2.305   1.918 -0.3663 -0.3551  0.1501
 4166TIP3    H233914   0.985   2.182   1.830 -1.1054  0.7498 -1.4026
 4167TIP3   OH233915   2.604   5.669   3.438  0.1667 -0.0845 -0.5174
 4167TIP3    H133916   2.599   5.746   3.382 -0.6758  0.4231  0.2359
 4167TIP3    H233917   2.652   5.604   3.386  0.7063  0.8746 -1.2296
 4168TIP3   OH233918   1.579   2.338  14.991 -0.2184 -0.2330 -0.2651
 4168TIP3    H133919   1.565   2.322  15.084 -0.2590 -1.1154 -0.4202
 4168TIP3    H233920   1.650   2.278  14.966  0.5311  0.7509 -0.5668
 4169TIP3   OH233921   3.888   2.670  10.809 -0.8328  0.3279 -0.4446
 4169TIP3    H133922   3.837   2.624  10.742 -0.8824  1.0491 -0.9136
 4169TIP3    H233923   3.935   2.601  10.855  0.5161 -0.0558 -2.3168
 4170TIP3   OH233924   6.022   3.897  14.617  0.4206 -0.0384  0.0482
 4170TIP3    H133925   6.015   3.981  14.663 -0.2773 -0.2748  0.3864
 4170TIP3    H233926   6.079   3.844  14.673 -3.1661 -1.5001  2.4582
 4171TIP3   OH233927   4.115   4.669  14.049  0.2992  0.9071  0.2577
 4171TIP3    H133928   4.183   4.676  14.116  0.3539  1.5240  0.1477
 4171TIP3    H233929   4.079   4.757  14.044  0.1434  0.8056 -0.3633
 4172TIP3   OH233930   6.346   5.599  16.661 -0.0174 -0.3930 -0.4321
 4172TIP3    H133931   6.408   5.580  16.732 -1.3478  1.3111  1.2579
 4172TIP3    H233932   6.263   5.562  16.691 -1.9670  5.0338  1.6216
 4173TIP3   OH233933   3.787   4.158  14.985  0.6624  0.4259 -0.3153
 4173TIP3    H133934   3.749   4.080  15.024 -1.9339  1.5965 -0.3829
 4173TIP3    H233935   3.831   4.202  15.057 -0.4925  0.4320  0.4016
 4174TIP3   OH233936   4.269   6.541   2.747 -0.3945 -0.5377 -0.1407
 4174TIP3    H133937   4.246   6.557   2.838 -0.6976 -1.4803 -0.0468
 4174TIP3    H233938   4.287   6.628   2.711 -3.9408  0.2171 -0.1828
 4175TIP3   OH233939   0.916   6.710  15.865 -0.1376 -0.1234 -0.1179
 4175TIP3    H133940   0.998   6.663  15.854 -1.0602 -2.0110  0.9121
 4175TIP3    H233941   0.934   6.798  15.831  2.5101 -0.2810  0.7871
 4176TIP3   OH233942   4.671   6.732  11.975  0.2691 -0.4374  0.0780
 4176TIP3    H133943   4.665   6.681  11.894  0.3494  0.0896 -0.2632
 4176TIP3    H233944   4.582   6.731  12.010  0.4415 -1.4982  0.5023
 4177TIP3   OH233945   4.463   2.345   5.586 -0.3661 -0.5442 -0.1023
 4177TIP3    H133946   4.433   2.355   5.496  0.7071  0.2541 -0.3839
 4177TIP3    H233947   4.537   2.285   5.580 -0.8049 -1.1379  0.3595
 4178TIP3   OH233948   6.727   6.135   4.228 -0.0020  0.1620  0.0060
 4178TIP3    H133949   6.750   6.045   4.204  0.8363  0.4047 -0.0928
 4178TIP3    H233950   6.789   6.159   4.297  0.1354  0.8555 -0.3522
 4179TIP3   OH233951   3.528   1.248  16.587  0.6972  0.4991 -0.2134
 4179TIP3    H133952   3.455   1.305  16.563  0.8913  1.0468  0.4726
 4179TIP3    H233953   3.527   1.178  16.521 -0.8152  0.1733  0.1266
 4180TIP3   OH233954   1.542   0.042  14.655  0.1684 -0.5248  0.2510
 4180TIP3    H133955   1.511  -0.014  14.585  1.6698  0.0347 -0.8874
 4180TIP3    H233956   1.532   0.131  14.621  0.1974 -0.2142  1.0407
 4181TIP3   OH233957   2.630   5.590   4.507 -0.4826  0.1975  0.1445
 4181TIP3    H133958   2.707   5.646   4.516  0.9538 -1.7381  0.3300
 4181TIP3    H233959   2.637   5.554   4.419  0.8784 -2.8437  1.4207
 4182TIP3   OH233960   5.783   5.528  15.261 -0.6012 -0.2890 -0.1941
 4182TIP3    H133961   5.700   5.552  15.301 -0.8639 -0.1450 -0.8304
 4182TIP3    H233962   5.837   5.498  15.334 -0.6234  1.2173  0.4547
 4183TIP3   OH233963   4.121   3.967   0.423  0.3500 -0.2342 -0.0132
 4183TIP3    H133964   4.097   3.955   0.331 -0.7465  0.9586  0.1052
 4183TIP3    H233965   4.039   3.950   0.471  0.5573  0.6096  0.6417
 4184TIP3   OH233966   3.375   5.120   0.181 -0.5394  0.2413  0.4896
 4184TIP3    H133967   3.383   5.200   0.231  0.8402 -1.3545  2.9466
 4184TIP3    H233968   3.442   5.128   0.112 -0.2111  1.0733  0.9014
 4185TIP3   OH233969   2.589   1.553  13.453  0.0814  0.1312 -0.0195
 4185TIP3    H133970   2.567   1.582  13.541  0.4080 -2.7140  1.0473
 4185TIP3    H233971   2.684   1.540  13.455  0.0373 -0.3248 -0.6742
 4186TIP3   OH233972   0.307   2.704   1.263  0.4747  0.1876 -0.2778
 4186TIP3    H133973   0.287   2.650   1.186 -2.1017  1.4134 -0.5262
 4186TIP3    H233974   0.278   2.792   1.238 -0.1062  0.6527  1.9851
 4187TIP3   OH233975   1.988   6.278   2.543 -0.2280  0.1021 -0.1968
 4187TIP3    H133976   2.081   6.256   2.555 -0.3774 -1.0163 -1.0018
 4187TIP3    H233977   1.953   6.205   2.493 -1.0414  1.6226 -1.8617
 4188TIP3   OH233978   3.055   0.645  12.912 -0.0857  0.1373 -0.0715
 4188TIP3    H133979   3.054   0.739  12.933  0.3013 -0.0137  0.6472
 4188TIP3    H233980   3.117   0.637  12.840  0.3488  0.3561  0.2756
 4189TIP3   OH233981   3.847   2.410   4.327  0.2100 -0.1498  0.2455
 4189TIP3    H133982   3.902   2.359   4.268 -0.0021 -0.9610  0.7395
 4189TIP3    H233983   3.909   2.452   4.386  0.3154 -1.1133  0.8419
 4190TIP3   OH233984   4.783   0.371   3.823 -0.2627  0.1049  0.0708
 4190TIP3    H133985   4.826   0.389   3.739 -2.1953 -1.6750 -1.3524
 4190TIP3    H233986   4.690   0.379   3.805 -0.6649  1.1688  2.4527
 4191TIP3   OH233987   0.344   2.381  11.314 -0.0531 -0.1141  0.2049
 4191TIP3    H133988   0.326   2.474  11.298 -0.4131 -0.2333 -0.0959
 4191TIP3    H233989   0.402   2.355  11.243  0.3837 -0.0197  0.5237
 4192TIP3   OH233990   0.214   3.187  14.331 -0.0057 -0.5897  0.6381
 4192TIP3    H133991   0.288   3.211  14.387  0.4885 -2.1388  0.6753
 4192TIP3    H233992   0.243   3.210  14.243 -0.4486  1.0590  0.9094
 4193TIP3   OH233993   6.080   0.915   2.211 -0.1854 -0.6110  0.7011
 4193TIP3    H133994   6.021   0.974   2.164 -0.2803 -0.2871  1.2175
 4193TIP3    H233995   6.165   0.928   2.169 -0.1162  0.2128  1.0905
 4194TIP3   OH233996   0.886   0.265  12.536 -0.0586 -0.7287 -0.1193
 4194TIP3    H133997   0.820   0.251  12.604 -0.5998  1.0197 -0.2494
 4194TIP3    H233998   0.967   0.230  12.573 -0.4399 -0.1963  1.2570
 4195TIP3   OH233999   4.831   1.361   6.375 -0.4513  0.6226 -0.1513
 4195TIP3    H134000   4.760   1.311   6.335 -0.9120  0.7615  0.4929
 4195TIP3    H234001   4.821   1.450   6.341  0.3775  0.2857 -1.3096
 4196TIP3   OH234002   4.912   2.070   4.388 -0.5324  0.6629  0.1073
 4196TIP3    H134003   4.923   1.976   4.394 -1.0119  0.5052 -1.3264
 4196TIP3    H234004   4.853   2.083   4.314 -0.1129  2.1080  0.0060
 4197TIP3   OH234005   6.660   4.996  11.780  0.1713  0.4755 -0.1620
 4197TIP3    H134006   6.675   4.933  11.850 -0.8852  0.4424  0.0441
 4197TIP3    H234007   6.748   5.021  11.751  0.6096  0.6619  1.3154
 4198TIP3   OH234008   1.399   6.379  15.598  0.1604  0.2348 -0.1876
 4198TIP3    H134009   1.340   6.418  15.534 -0.8743  0.5575  0.9420
 4198TIP3    H234010   1.356   6.393  15.683  1.8928  0.5882  0.6740
 4199TIP3   OH234011   6.520   4.169  13.231 -0.0100 -0.1377  0.0494
 4199TIP3    H134012   6.447   4.179  13.169  1.3335 -0.0165 -1.5459
 4199TIP3    H234013   6.495   4.093  13.284 -1.2281 -0.2028 -0.5888
 4200TIP3   OH234014   1.472   2.873   5.395  0.5056  0.3507  0.4839
 4200TIP3    H134015   1.522   2.920   5.328 -0.4274  1.0737  0.2776
 4200TIP3    H234016   1.489   2.920   5.476  0.9353  0.0021  0.6006
 4201TIP3   OH234017   2.624   3.469  10.624 -0.0270  0.3171  0.5766
 4201TIP3    H134018   2.614   3.381  10.661  1.7256 -0.6480 -1.1433
 4201TIP3    H234019   2.553   3.476  10.561  0.9988 -0.6746 -0.7263
 4202TIP3   OH234020   6.745   0.533   2.863 -0.0287  0.2551 -0.0601
 4202TIP3    H134021   6.655   0.501   2.859 -0.1224  0.6665 -1.6688
 4202TIP3    H234022   6.799   0.455   2.856 -0.2691  0.0177  0.7846
 4203TIP3   OH234023   5.500   6.646  13.692 -0.1915  0.5624  0.2986
 4203TIP3    H134024   5.448   6.572  13.662  1.9677 -0.4099 -1.1584
 4203TIP3    H234025   5.563   6.609  13.754  0.7553  1.1676 -0.2678
 4204TIP3   OH234026   2.652   1.120  11.926  0.2760 -0.4898  0.4470
 4204TIP3    H134027   2.638   1.209  11.957  0.0206 -0.8372  1.3554
 4204TIP3    H234028   2.691   1.130  11.839  2.2000  0.5186  1.4083
 4205TIP3   OH234029   5.947   3.875  14.936 -0.3353  0.5722  0.3121
 4205TIP3    H134030   5.988   3.789  14.950 -2.1051 -0.0293  2.0818
 4205TIP3    H234031   5.978   3.928  15.008 -0.6386  0.8898  0.2096
 4206TIP3   OH234032   3.706   3.771   2.650 -0.2315  0.5452 -0.4943
 4206TIP3    H134033   3.691   3.778   2.556  0.2065 -0.3879 -0.6383
 4206TIP3    H234034   3.661   3.847   2.687  0.7706  1.6787 -1.5852
 4207TIP3   OH234035   1.606   3.493   6.107  0.4500 -0.6336 -0.6803
 4207TIP3    H134036   1.559   3.411   6.097  2.0122 -2.0547  2.9099
 4207TIP3    H234037   1.561   3.540   6.177  2.1385 -0.3847  0.2712
 4208TIP3   OH234038   0.851   5.133  11.199  0.3972 -0.0108 -0.2194
 4208TIP3    H134039   0.806   5.213  11.173 -0.2923 -0.1553  0.5207
 4208TIP3    H234040   0.785   5.064  11.190  0.4971 -0.2403  0.7748
 4209TIP3   OH234041   2.295   5.318  15.951 -0.5388 -0.4818  0.3272
 4209TIP3    H134042   2.362   5.332  15.884  0.3036 -0.1886  1.2160
 4209TIP3    H234043   2.338   5.262  16.016 -0.6425  0.9766  1.6629
 4210TIP3   OH234044   1.429   6.010   5.890 -0.1043 -0.1964  0.2902
 4210TIP3    H134045   1.443   5.917   5.873  0.0070 -0.1377  0.0649
 4210TIP3    H234046   1.385   6.012   5.975  0.8586 -0.4112  0.8068
 4211TIP3   OH234047   6.223   4.853  14.881  0.2475 -0.1937  0.0278
 4211TIP3    H134048   6.214   4.775  14.936 -0.1025  0.3223  0.7144
 4211TIP3    H234049   6.139   4.859  14.835 -0.1347  0.3823  0.7885
 4212TIP3   OH234050   5.076   1.759   0.026  0.1287 -0.1763  0.4041
 4212TIP3    H134051   5.126   1.681  -0.000 -0.2753 -0.0199 -0.8746
 4212TIP3    H234052   5.115   1.831  -0.024  0.1133  0.3464  1.1340
 4213TIP3   OH234053   2.840   5.465  14.935  0.4114  0.2946 -0.1832
 4213TIP3    H134054   2.800   5.490  15.018  0.9920  1.6296 -0.3009
 4213TIP3    H234055   2.935   5.474  14.950  0.4314  3.7594 -1.9618
 4214TIP3   OH234056   4.007   1.081   4.011 -0.3471  0.1266  0.5815
 4214TIP3    H134057   4.094   1.118   3.999 -0.4261 -0.5617 -2.6082
 4214TIP3    H234058   3.949   1.157   4.017  0.0417  0.5863 -1.2102
 4215TIP3   OH234059   5.653   2.375  15.389 -0.9206 -0.0799  0.1173
 4215TIP3    H134060   5.581   2.319  15.419 -0.8416 -0.0557  0.3533
 4215TIP3    H234061   5.657   2.445  15.454  0.3433 -0.9409  0.9828
 4216TIP3   OH234062   4.953   1.335   4.669  0.1688 -0.2322 -0.1931
 4216TIP3    H134063   4.978   1.252   4.630  0.2412 -0.8062  1.0741
 4216TIP3    H234064   5.028   1.393   4.653  0.7670 -0.8661  0.3098
 4217TIP3   OH234065   0.564   4.678   2.105  0.0696  0.0876  0.3919
 4217TIP3    H134066   0.573   4.590   2.068  1.1774  0.6994 -0.8187
 4217TIP3    H234067   0.470   4.697   2.098  0.0223 -0.4535 -0.6189
 4218TIP3   OH234068   1.738   6.427  13.699  0.5829  0.2487  0.3317
 4218TIP3    H134069   1.678   6.432  13.625  0.6591 -0.3795  0.2256
 4218TIP3    H234070   1.806   6.492  13.680 -0.4510  1.4861  0.8113
 4219TIP3   OH234071   3.959   6.567   3.318 -0.3726  0.2527  0.1698
 4219TIP3    H134072   3.938   6.653   3.281 -1.3660  0.1777  0.5261
 4219TIP3    H234073   4.016   6.526   3.253  0.4167  1.3332  0.1838
 4220TIP3   OH234074   3.396   0.118   0.196 -0.2266  0.7599 -0.0646
 4220TIP3    H134075   3.468   0.058   0.214  0.0953  0.7390 -1.4045
 4220TIP3    H234076   3.410   0.190   0.258 -1.3067 -1.0554  2.3910
 4221TIP3   OH234077   1.696   1.347   3.150  0.3766 -0.0927 -0.0455
 4221TIP3    H134078   1.642   1.269   3.161  0.2614  0.0412  0.3602
 4221TIP3    H234079   1.786   1.314   3.158  0.3644 -0.3326 -0.8337
 4222TIP3   OH234080   2.724   6.485  14.550 -0.1725  0.6460 -0.7658
 4222TIP3    H134081   2.750   6.577  14.556 -0.1024  0.5851 -0.1284
 4222TIP3    H234082   2.769   6.442  14.623 -0.5718  0.1893 -0.7834
 4223TIP3   OH234083   5.987   1.017  12.505  0.0916  0.6623  0.0328
 4223TIP3    H134084   5.963   1.099  12.547  0.7144  0.4166  0.8792
 4223TIP3    H234085   5.904   0.979  12.477 -0.2242  1.4145 -0.0631
 4224TIP3   OH234086   4.683   6.156  11.804  0.4167 -0.2868 -0.0829
 4224TIP3    H134087   4.775   6.179  11.813  0.4428 -0.2694 -0.3800
 4224TIP3    H234088   4.676   6.068  11.841  0.9260 -1.0574 -1.7764
 4225TIP3   OH234089   5.655   0.251  12.846  0.2525  0.1608  0.3193
 4225TIP3    H134090   5.726   0.195  12.878  0.6791  2.4959  3.7250
 4225TIP3    H234091   5.696   0.337  12.835 -1.5752  1.0370  0.2649
 4226TIP3   OH234092   0.072   0.388  15.663  0.0424  0.3756  0.5180
 4226TIP3    H134093   0.045   0.379  15.754  2.1349 -0.2542  1.1003
 4226TIP3    H234094   0.007   0.447  15.624 -2.1355 -1.1016  1.8319
 4227TIP3   OH234095   3.330   6.521  16.381  0.2103 -0.4326 -0.6693
 4227TIP3    H134096   3.356   6.517  16.473  1.0139  0.1244 -0.8653
 4227TIP3    H234097   3.364   6.441  16.342  0.2298 -0.4704 -0.5731
 4228TIP3   OH234098   0.881   0.684   0.624 -0.0078 -0.0000 -0.2134
 4228TIP3    H134099   0.908   0.625   0.554  2.6622 -0.4319  1.1425
 4228TIP3    H234100   0.786   0.669   0.633  0.1060 -1.8857 -1.8783
 4229TIP3   OH234101   3.952   6.220  15.392  0.2521 -0.2593 -0.0456
 4229TIP3    H134102   3.989   6.227  15.480 -0.2743  0.0159  0.1556
 4229TIP3    H234103   3.944   6.126  15.377  1.6266 -0.3460 -0.3482
 4230TIP3   OH234104   2.905   3.675  15.451 -0.4596  0.2291 -0.1536
 4230TIP3    H134105   2.956   3.620  15.392 -0.2805  0.0304  0.1824
 4230TIP3    H234106   2.894   3.758  15.404 -0.3119  0.0755 -0.4593
 4231TIP3   OH234107   4.074   3.164   2.293 -0.3686 -0.0828 -0.2230
 4231TIP3    H134108   3.990   3.147   2.249  1.2799 -0.3349 -3.4564
 4231TIP3    H234109   4.095   3.255   2.270  1.1230 -0.6163 -1.0512
 4232TIP3   OH234110   6.585   4.892  15.144  0.0559 -0.2528 -0.1852
 4232TIP3    H134111   6.498   4.921  15.174 -0.1294 -2.9072  2.0199
 4232TIP3    H234112   6.631   4.973  15.123 -1.3033  1.5214  3.3055
 4233TIP3   OH234113   5.458   2.737   5.926  0.0932 -0.0406 -0.1668
 4233TIP3    H134114   5.403   2.752   6.003 -0.1249 -2.8546  0.2812
 4233TIP3    H234115   5.536   2.693   5.961  0.8990  0.4329 -1.3246
 4234TIP3   OH234116   4.782   1.892  12.004  0.1292 -0.3732  0.5100
 4234TIP3    H134117   4.760   1.822  12.065  0.2568 -0.2313  0.7195
 4234TIP3    H234118   4.714   1.959  12.019 -0.2909 -0.6690 -0.0481
 4235TIP3   OH234119   5.822   1.929  13.922 -0.3392  0.2711 -0.0145
 4235TIP3    H134120   5.778   1.931  13.837  2.1185 -1.3905 -1.3983
 4235TIP3    H234121   5.806   1.841  13.954  2.7613 -0.7361 -1.0444
 4236TIP3   OH234122   1.356   5.777   6.004  0.2612  0.2012  0.4089
 4236TIP3    H134123   1.442   5.752   6.040  0.5463  0.6433  0.0347
 4236TIP3    H234124   1.293   5.738   6.065  0.7192 -0.5067  0.4354
 4237TIP3   OH234125   2.431   2.174  12.994 -0.7097  0.8663  0.2441
 4237TIP3    H134126   2.434   2.130  12.909 -1.6072  0.2198  0.5393
 4237TIP3    H234127   2.499   2.131  13.046  1.1016  2.5054 -0.7213
 4238TIP3   OH234128   5.703   1.150   3.279  0.1164 -0.0624  0.0526
 4238TIP3    H134129   5.668   1.218   3.336  1.8358  1.5576 -0.7703
 4238TIP3    H234130   5.626   1.114   3.235 -0.6956  2.6354 -0.8761
 4239TIP3   OH234131   0.349   0.761   3.519 -0.2314  0.9667 -1.1334
 4239TIP3    H134132   0.349   0.669   3.496  2.0235  1.0742 -1.7140
 4239TIP3    H234133   0.438   0.779   3.548 -1.3888  2.2962  1.8176
 4240TIP3   OH234134   6.451   2.432   0.077  0.0332 -0.4685 -0.6788
 4240TIP3    H134135   6.413   2.446   0.163  1.1246 -1.0604 -0.0956
 4240TIP3    H234136   6.508   2.356   0.088 -0.4206 -1.0406 -2.1085
 4241TIP3   OH234137   4.036   2.344  14.485 -0.1384  0.2424  0.7648
 4241TIP3    H134138   3.944   2.332  14.459 -0.4172  0.2238  1.7478
 4241TIP3    H234139   4.086   2.298  14.417 -0.9711 -2.1002  1.6886
 4242TIP3   OH234140   5.636   6.725  16.180  0.1645  0.3432 -0.4446
 4242TIP3    H134141   5.626   6.635  16.150  0.0916  0.5182 -0.9584
 4242TIP3    H234142   5.587   6.777  16.116 -1.9240  0.5207  1.2534
 4243TIP3   OH234143   4.772   2.250   3.369 -0.1078 -0.2293 -0.3817
 4243TIP3    H134144   4.698   2.260   3.308 -0.6772 -2.6126 -0.1320
 4243TIP3    H234145   4.767   2.327   3.425 -1.5479  0.3565 -1.2744
 4244TIP3   OH234146   4.843   3.046   1.135 -0.6686 -0.0790 -0.2247
 4244TIP3    H134147   4.779   3.115   1.156 -2.1746 -1.7679  0.9293
 4244TIP3    H234148   4.908   3.051   1.206 -0.6489  0.3225 -0.2733
 4245TIP3   OH234149   5.129   4.784  13.705 -0.5132 -0.4776 -0.3203
 4245TIP3    H134150   5.035   4.776  13.689 -1.0832 -0.1174  2.5678
 4245TIP3    H234151   5.141   4.876  13.728  0.4393 -0.6650 -0.0737
 4246TIP3   OH234152   6.629   2.377  10.566  0.8411  0.4879  0.0460
 4246TIP3    H134153   6.719   2.346  10.570  0.2225 -1.4096 -0.0921
 4246TIP3    H234154   6.582   2.322  10.628 -0.5082  0.4578 -0.9734
 4247TIP3   OH234155   6.716   5.196   0.679 -0.5464  0.1505 -0.6236
 4247TIP3    H134156   6.798   5.165   0.716 -0.5517 -0.1677 -0.8815
 4247TIP3    H234157   6.717   5.291   0.695 -0.5265  0.0242  0.1492
 4248TIP3   OH234158   2.328   2.855   3.863  0.3143 -0.4070  0.4615
 4248TIP3    H134159   2.385   2.900   3.926 -2.0587  2.7921  0.4765
 4248TIP3    H234160   2.254   2.824   3.916  0.7690 -2.2585  0.0387
 4249TIP3   OH234161   3.137   2.199  16.376  0.2863  0.1481 -0.2087
 4249TIP3    H134162   3.110   2.262  16.309  0.1976 -0.1134 -0.4195
 4249TIP3    H234163   3.130   2.248  16.458  0.8254  0.6030 -0.4308
 4250TIP3   OH234164   3.363   6.323   0.938 -1.0451  0.3698  0.1956
 4250TIP3    H134165   3.362   6.273   0.856 -0.3483 -1.0807  1.0713
 4250TIP3    H234166   3.422   6.396   0.920 -0.9723  0.1139 -0.6256
 4251TIP3   OH234167   6.620   4.609   1.967 -0.1130 -0.1329  0.5982
 4251TIP3    H134168   6.550   4.562   1.923  0.6884 -1.3362  0.6083
 4251TIP3    H234169   6.578   4.648   2.044 -0.8110 -0.6910  0.4999
 4252TIP3   OH234170   5.262   3.338  15.006 -0.0327  1.3962  0.0670
 4252TIP3    H134171   5.236   3.350  15.097 -2.5950  0.6811 -0.5424
 4252TIP3    H234172   5.204   3.270  14.973 -0.0494  2.5867 -2.4807
 4253TIP3   OH234173   6.162   0.374  16.560  0.4118 -0.1602  0.2520
 4253TIP3    H134174   6.128   0.342  16.644 -0.8445 -0.0058 -0.2011
 4253TIP3    H234175   6.091   0.361  16.498  1.1312  0.2808 -0.6765
 4254TIP3   OH234176   4.687   6.153   2.544 -0.4522 -0.3396 -0.6512
 4254TIP3    H134177   4.652   6.079   2.593 -0.4530  0.6812  0.8999
 4254TIP3    H234178   4.641   6.229   2.578  1.2963  0.6849 -0.5113
 4255TIP3   OH234179   2.549   1.629   0.030  0.3582  0.2076 -0.5015
 4255TIP3    H134180   2.638   1.594   0.027  0.1617 -0.4899  1.5028
 4255TIP3    H234181   2.533   1.648   0.122 -2.2610 -1.4736 -0.5546
 4256TIP3   OH234182   2.297   4.923   1.996  0.2640  0.6159  0.7766
 4256TIP3    H134183   2.212   4.946   1.959 -0.3613  0.0535  1.8236
 4256TIP3    H234184   2.328   4.850   1.942 -0.2911  0.2995  0.8803
 4257TIP3   OH234185   2.966   2.273   4.287 -0.0213 -0.2960  0.0973
 4257TIP3    H134186   2.902   2.321   4.234 -1.2325 -1.3950  0.5466
 4257TIP3    H234187   2.915   2.205   4.331  1.5056 -1.3708  0.2474
 4258TIP3   OH234188   4.125   4.355  16.596  0.5988  0.0561  0.2216
 4258TIP3    H134189   4.043   4.405  16.601  0.2260 -0.5942  0.7312
 4258TIP3    H234190   4.192   4.421  16.579  0.2698  0.8992  2.0634
 4259TIP3   OH234191   0.174   0.460  12.481 -1.3452 -0.1347 -0.4985
 4259TIP3    H134192   0.206   0.458  12.391  0.5313  0.5151  0.1258
 4259TIP3    H234193   0.080   0.477  12.472 -1.4891 -1.7305 -2.3698
 4260TIP3   OH234194   0.689   2.260  12.723  0.4123 -0.6867  0.4771
 4260TIP3    H134195   0.722   2.254  12.813  0.1874  1.0636  0.6897
 4260TIP3    H234196   0.767   2.249  12.668  0.8713  0.3065  0.9261
 4261TIP3   OH234197   3.033   0.491   4.067  0.2961  0.3304 -0.2281
 4261TIP3    H134198   3.101   0.555   4.047  0.6606 -0.0268 -0.1310
 4261TIP3    H234199   3.072   0.406   4.044 -0.2424  0.1570 -0.5099
 4262TIP3   OH234200   5.054   1.214  15.954  0.5286  0.6378 -0.5355
 4262TIP3    H134201   4.988   1.256  15.900 -0.0455 -0.2990 -0.5771
 4262TIP3    H234202   5.129   1.273  15.952 -0.5535  2.0608  0.0825
 4263TIP3   OH234203   5.781   4.835   2.578  0.0552  0.4989 -0.2344
 4263TIP3    H134204   5.772   4.895   2.652 -1.4574  1.1896 -0.9518
 4263TIP3    H234205   5.700   4.845   2.529  0.5142 -0.8717 -1.3185
 4264TIP3   OH234206   2.162   4.166   3.722 -0.5824 -0.2835 -0.1654
 4264TIP3    H134207   2.229   4.227   3.692 -0.2842 -1.3582 -1.7441
 4264TIP3    H234208   2.189   4.081   3.686 -1.3340 -1.2291  1.4384
 4265TIP3   OH234209   2.275   2.133  11.002  0.8010 -0.3746  0.0760
 4265TIP3    H134210   2.340   2.140  10.932  1.5215  0.1795  0.7986
 4265TIP3    H234211   2.242   2.043  10.995  1.3461 -0.5281 -0.5540
 4266TIP3   OH234212   1.855   3.947   3.326  0.3927  0.4100  0.5068
 4266TIP3    H134213   1.914   3.983   3.392  1.2267 -1.0094  0.5586
 4266TIP3    H234214   1.849   3.854   3.348 -1.1049  0.3677 -0.0762
 4267TIP3   OH234215   5.765   5.199   0.521  0.2521 -0.1637  0.6297
 4267TIP3    H134216   5.736   5.281   0.562  0.8064 -0.1147  0.9310
 4267TIP3    H234217   5.763   5.135   0.592 -1.2520 -0.6640  0.1300
 4268TIP3   OH234218   5.156   5.030  14.752  0.0645  0.4537  0.0591
 4268TIP3    H134219   5.114   5.111  14.722  0.1695  1.2900  2.1069
 4268TIP3    H234220   5.096   4.995  14.819  0.1972 -0.9891 -0.5462
 4269TIP3   OH234221   2.406   2.851  12.342 -0.3309 -0.0613 -0.1680
 4269TIP3    H134222   2.452   2.903  12.276 -0.4457  0.1592 -0.0760
 4269TIP3    H234223   2.440   2.763  12.331  0.5643  0.2171  0.2998
 4270TIP3   OH234224   5.340   2.512  14.330 -0.7196 -0.2389  1.0465
 4270TIP3    H134225   5.286   2.461  14.269  0.3630 -0.0952 -0.0629
 4270TIP3    H234226   5.327   2.603  14.301  2.9841 -0.4595 -1.6716
 4271TIP3   OH234227   3.905   3.884   6.618 -0.2052 -0.1897 -0.1579
 4271TIP3    H134228   3.839   3.926   6.673  0.5392  0.8037 -0.0004
 4271TIP3    H234229   3.879   3.792   6.615 -1.0708  0.0194  0.6661
 4272TIP3   OH234230   4.456   2.115  12.856  0.1298  0.6071  0.3941
 4272TIP3    H134231   4.433   2.041  12.911  0.6183 -0.6793 -1.1062
 4272TIP3    H234232   4.509   2.172  12.912  1.4231 -1.1341  0.9754
 4273TIP3   OH234233   6.456   1.346  13.044  0.0913 -0.1997 -0.4798
 4273TIP3    H134234   6.411   1.269  13.007 -1.1073 -0.5598  1.6624
 4273TIP3    H234235   6.549   1.323  13.041 -0.1524 -1.1688 -1.1310
 4274TIP3   OH234236   3.126   3.525  13.414  0.6267 -0.1829  0.3244
 4274TIP3    H134237   3.208   3.481  13.390  0.2137 -1.9218  1.9815
 4274TIP3    H234238   3.077   3.458  13.462 -2.1443  0.5773 -1.3992
 4275TIP3   OH234239   1.625   4.829  11.492  0.2226 -0.0639  0.2275
 4275TIP3    H134240   1.658   4.829  11.582  2.0949  0.1210 -0.4229
 4275TIP3    H234241   1.699   4.797  11.440 -0.5063  0.7761 -1.3481
 4276TIP3   OH234242   0.283   3.963   4.614 -0.3325 -0.6203  0.0543
 4276TIP3    H134243   0.373   3.951   4.642 -0.3648 -1.3139 -0.1249
 4276TIP3    H234244   0.241   3.878   4.630 -1.3122  0.1114  1.4631
 4277TIP3   OH234245   6.472   5.762   1.709 -0.0650  0.0626 -0.0986
 4277TIP3    H134246   6.429   5.839   1.744  0.0308 -0.1089  0.4043
 4277TIP3    H234247   6.469   5.698   1.780  0.2747 -0.2320 -0.3448
 4278TIP3   OH234248   1.265   1.250  13.267  0.5222  0.5466  0.3894
 4278TIP3    H134249   1.315   1.318  13.312 -0.1357  1.7893 -0.7209
 4278TIP3    H234250   1.184   1.294  13.241  0.3421 -0.5135 -0.8475
 4279TIP3   OH234251   4.101   2.511  11.642  0.1881  0.3992  0.1177
 4279TIP3    H134252   4.085   2.603  11.663  0.1056  0.0611  1.5886
 4279TIP3    H234253   4.134   2.513  11.552 -1.2981  1.7208 -0.4302
 4280TIP3   OH234254   4.018   4.519  14.434 -0.3141  0.3794 -0.1906
 4280TIP3    H134255   3.972   4.499  14.353 -0.3717  1.6756 -0.4889
 4280TIP3    H234256   4.099   4.467  14.429 -1.3341 -1.2334 -0.0535
 4281TIP3   OH234257   2.187   5.208   1.510  0.2310 -0.2031  0.1925
 4281TIP3    H134258   2.160   5.138   1.569 -0.7992 -0.6531 -0.7966
 4281TIP3    H234259   2.259   5.171   1.459 -0.2697 -0.5386 -0.2837
 4282TIP3   OH234260   0.153   2.053  15.523 -0.3706  0.3369  0.3233
 4282TIP3    H134261   0.148   1.962  15.551  2.3581  0.7788  2.5254
 4282TIP3    H234262   0.184   2.049  15.433  1.9999 -0.9367  1.1289
 4283TIP3   OH234263   4.961   0.161  17.137  0.0392 -0.1259 -0.0426
 4283TIP3    H134264   5.006   0.135  17.218  0.0459  1.1383  0.3706
 4283TIP3    H234265   4.916   0.243  17.160  0.4467  0.5073 -1.4623
 4284TIP3   OH234266   6.302   1.000  15.856 -0.0454  0.3071  0.0031
 4284TIP3    H134267   6.208   0.998  15.844 -0.2052 -0.8125  1.3048
 4284TIP3    H234268   6.315   1.009  15.950  1.1072 -2.7591  0.2205
 4285TIP3   OH234269   1.010   5.695  12.432 -0.5605  0.3499  0.4225
 4285TIP3    H134270   1.036   5.752  12.504 -0.2382  0.4483  0.2289
 4285TIP3    H234271   0.918   5.674  12.450 -0.2057 -0.4171  1.3726
 4286TIP3   OH234272   6.450   5.683  12.612 -0.1095 -0.3474  0.5383
 4286TIP3    H134273   6.431   5.741  12.538 -0.1117  0.1383  0.9116
 4286TIP3    H234274   6.410   5.599  12.588 -0.5982 -0.0311  0.2376
 4287TIP3   OH234275   3.502   4.430   3.156 -0.2908  0.2024  0.4402
 4287TIP3    H134276   3.440   4.487   3.112 -0.7916 -1.6407 -1.2924
 4287TIP3    H234277   3.582   4.482   3.163 -0.9100  1.3071 -0.5866
 4288TIP3   OH234278   0.281   2.014   5.166 -0.0498  0.5033 -0.2285
 4288TIP3    H134279   0.362   2.011   5.115 -1.0021 -1.0761 -1.7126
 4288TIP3    H234280   0.302   1.968   5.247  0.0410 -1.6473 -1.4184
 4289TIP3   OH234281   3.120   5.678  12.923  0.2713  0.2139  0.1632
 4289TIP3    H134282   3.150   5.605  12.977  1.0174  0.5233  0.1679
 4289TIP3    H234283   3.200   5.723  12.896 -0.1126  0.1737 -1.0399
 4290TIP3   OH234284   6.638   3.568  13.648  0.0239 -0.5607 -0.4767
 4290TIP3    H134285   6.585   3.491  13.669  1.3043 -1.6977 -1.3201
 4290TIP3    H234286   6.615   3.632  13.715  1.1582 -2.7134  2.0772
 4291TIP3   OH234287   3.497   4.974  15.665 -0.2548 -0.2065 -0.1720
 4291TIP3    H134288   3.439   4.898  15.664 -0.6343  0.0784 -0.2076
 4291TIP3    H234289   3.456   5.035  15.727  0.6184 -0.4692  0.6760
 4292TIP3   OH234290   4.743   1.277   3.249 -0.9174  0.4368 -0.1508
 4292TIP3    H134291   4.728   1.370   3.266  0.7426  0.8851 -0.9628
 4292TIP3    H234292   4.763   1.273   3.155 -0.3305 -0.6357  0.0137
 4293TIP3   OH234293   3.843   6.507   2.490 -0.3205  0.4368  1.1832
 4293TIP3    H134294   3.873   6.589   2.529  1.5193  0.6958 -0.6802
 4293TIP3    H234295   3.923   6.461   2.466 -1.3707 -1.0846  0.5177
 4294TIP3   OH234296   4.381   1.949  15.836  0.1375 -0.1224  0.0675
 4294TIP3    H134297   4.377   1.876  15.775  0.7108  0.3376 -0.5244
 4294TIP3    H234298   4.289   1.969  15.854 -0.1767  1.6343 -2.9735
 4295TIP3   OH234299   3.279   3.477   3.318 -0.0367 -0.0246  0.2947
 4295TIP3    H134300   3.248   3.500   3.406 -1.0575  1.1425 -0.3480
 4295TIP3    H234301   3.338   3.548   3.294 -0.1978 -0.0476 -0.1810
 4296TIP3   OH234302   0.205   0.189   2.251  0.1265 -0.4725  0.3740
 4296TIP3    H134303   0.135   0.207   2.314  0.2190  1.0383  0.0725
 4296TIP3    H234304   0.190   0.252   2.180  0.1036 -2.0602 -1.0609
 4297TIP3   OH234305   3.975   5.047  16.439 -0.0704  0.1046 -0.0944
 4297TIP3    H134306   4.020   5.130  16.426  1.6610 -0.8010  0.0780
 4297TIP3    H234307   3.991   5.025  16.530 -0.9690 -0.1895  0.0027
 4298TIP3   OH234308   0.461   1.470   5.801  0.1426 -0.2291 -0.4690
 4298TIP3    H134309   0.470   1.452   5.707 -0.0337 -0.1434 -0.5040
 4298TIP3    H234310   0.549   1.461   5.836  0.3251  0.3847 -0.7566
 4299TIP3   OH234311   2.785   6.738  15.113 -0.8268 -0.0475 -0.0928
 4299TIP3    H134312   2.781   6.658  15.061 -1.1554  0.4017 -0.7678
 4299TIP3    H234313   2.840   6.715  15.188 -2.5076 -1.4607  0.7424
 4300TIP3   OH234314   1.556   0.339  10.929  0.5784  0.0786  0.2705
 4300TIP3    H134315   1.559   0.428  10.964  0.5968  0.2034 -0.0518
 4300TIP3    H234316   1.495   0.293  10.987  0.5511  0.3048  0.4241
 4301TIP3   OH234317   0.970   3.865  12.826  0.4064 -0.3040 -0.2744
 4301TIP3    H134318   0.985   3.940  12.884  1.9817 -0.2288 -0.7789
 4301TIP3    H234319   1.051   3.815  12.830  0.1714 -0.8068 -1.6848
 4302TIP3   OH234320   3.151   5.216  15.457 -0.3256 -0.0438  0.2410
 4302TIP3    H134321   3.148   5.144  15.520  1.2206 -1.1072 -0.8580
 4302TIP3    H234322   3.138   5.174  15.372  3.3095  0.5289 -0.7017
 4303TIP3   OH234323   5.558   6.749  11.149  0.0500  0.9296 -0.3669
 4303TIP3    H134324   5.561   6.711  11.237  0.7185  0.2933 -0.6537
 4303TIP3    H234325   5.649   6.767  11.127 -0.0766  0.7339 -1.0755
 4304TIP3   OH234326   0.424   1.390  12.985 -0.2501 -0.1131 -0.0931
 4304TIP3    H134327   0.483   1.460  12.956  0.2717 -0.5210 -0.0292
 4304TIP3    H234328   0.347   1.398  12.928 -0.4429  0.8735  0.2970
 4305TIP3   OH234329   4.568   6.579  14.054  0.3460  0.3943 -0.0643
 4305TIP3    H134330   4.621   6.503  14.028 -1.5335 -0.7574 -0.6634
 4305TIP3    H234331   4.609   6.610  14.135  0.7632 -1.6829  0.5736
 4306TIP3   OH234332   6.397   2.443   2.507  0.6141 -0.1933  0.5432
 4306TIP3    H134333   6.310   2.475   2.482  0.4835 -0.3472  0.7897
 4306TIP3    H234334   6.446   2.521   2.531  0.4566 -0.1296  0.6609
 4307TIP3   OH234335   6.302   4.527  15.714  0.1362 -0.1500  0.2565
 4307TIP3    H134336   6.231   4.472  15.747 -0.8599  1.0427  0.1571
 4307TIP3    H234337   6.365   4.532  15.787 -0.4865 -0.2006  0.8005
 4308TIP3   OH234338   2.569   2.592  10.684 -0.5581 -0.7071  0.2435
 4308TIP3    H134339   2.495   2.632  10.640 -0.5283 -0.7130  0.1897
 4308TIP3    H234340   2.605   2.662  10.740 -1.9916 -1.3348  2.0059
 4309TIP3   OH234341   0.991   5.165  15.985  0.0248 -0.3628  0.3257
 4309TIP3    H134342   1.074   5.176  15.938  0.0181  0.3711  0.4797
 4309TIP3    H234343   1.009   5.195  16.074 -0.9289  1.7920 -0.1592
 4310TIP3   OH234344   6.321   3.699   5.192 -0.2897  0.2336 -0.3016
 4310TIP3    H134345   6.375   3.678   5.268  1.4999 -2.2285 -2.1877
 4310TIP3    H234346   6.251   3.633   5.192 -1.1622  1.1427  0.0326
 4311TIP3   OH234347   2.789   5.756  14.327  0.1577  0.4421 -0.0132
 4311TIP3    H134348   2.864   5.739  14.269  0.0566 -1.1981  0.3194
 4311TIP3    H234349   2.826   5.752  14.415  0.0258  1.4712  0.0901
 4312TIP3   OH234350   1.870   2.558  11.918  0.0297  0.2281 -0.1940
 4312TIP3    H134351   1.928   2.616  11.967  1.6653  0.1488 -1.9798
 4312TIP3    H234352   1.899   2.470  11.941  0.5681  0.1867 -1.0373
 4313TIP3   OH234353   2.026   5.788   4.448  0.1721  0.3738 -0.4365
 4313TIP3    H134354   1.967   5.715   4.429 -0.7241  0.6996  1.0074
 4313TIP3    H234355   1.996   5.858   4.389 -0.9428  0.5548  0.3204
 4314TIP3   OH234356   4.303   2.988   4.271 -0.4521 -0.2039  0.1487
 4314TIP3    H134357   4.238   3.030   4.327 -0.7533  0.2586 -0.5526
 4314TIP3    H234358   4.277   3.011   4.182 -0.1639 -1.2186 -0.1997
 4315TIP3   OH234359   6.312   2.204  12.873 -0.1051 -0.3171  0.0770
 4315TIP3    H134360   6.222   2.233  12.887  0.1097  0.0090  0.8443
 4315TIP3    H234361   6.331   2.226  12.782 -0.6611 -0.0030  0.0368
 4316TIP3   OH234362   5.944   1.169   2.758  0.0192  0.4645 -0.1475
 4316TIP3    H134363   5.891   1.238   2.799  0.9687  2.6349 -2.4531
 4316TIP3    H234364   5.895   1.142   2.681  1.1628  0.9103 -1.0578
 4317TIP3   OH234365   6.419   5.222   1.030 -0.1638  0.7565 -0.0410
 4317TIP3    H134366   6.415   5.305   0.982  1.0704  1.3988  0.9618
 4317TIP3    H234367   6.330   5.209   1.062 -0.6754  1.0255 -1.3002
 4318TIP3   OH234368   2.763   4.815  13.409  0.4827  1.0930  0.2407
 4318TIP3    H134369   2.703   4.757  13.361  0.1747  0.5225  1.3155
 4318TIP3    H234370   2.711   4.894  13.424 -0.4283  0.1601  2.1999
 4319TIP3   OH234371   1.096   5.022  16.522  0.0687  0.5601  0.1400
 4319TIP3    H134372   1.027   5.050  16.582 -0.0496 -0.3490  0.4435
 4319TIP3    H234373   1.074   4.930  16.503  0.4002  0.6859 -0.8760
 4320TIP3   OH234374   1.724   1.181   4.981  0.4461  0.8811  0.0053
 4320TIP3    H134375   1.774   1.139   5.051  0.9154  0.8936 -0.3184
 4320TIP3    H234376   1.711   1.271   5.011  2.6439  1.5502 -0.9363
 4321TIP3   OH234377   2.389   0.504  11.114  0.3669 -0.0657  0.1162
 4321TIP3    H134378   2.295   0.490  11.107  0.7520 -1.7421 -2.2801
 4321TIP3    H234379   2.401   0.598  11.102 -0.8799 -0.0389 -0.9292
 4322TIP3   OH234380   1.020   2.446  10.537  0.0134  0.0583  0.0348
 4322TIP3    H134381   1.018   2.526  10.590 -0.3298  0.0657  0.0119
 4322TIP3    H234382   0.970   2.468  10.458  0.0106 -0.1438 -0.0213
 4323TIP3   OH234383   1.340   4.224   3.860 -0.1167 -0.5654  0.0498
 4323TIP3    H134384   1.403   4.250   3.927 -0.1007  1.2210 -0.6360
 4323TIP3    H234385   1.383   4.154   3.812  1.1606  0.3031 -0.0987
 4324TIP3   OH234386   5.217   0.827  15.788  0.8115 -0.0740  0.6542
 4324TIP3    H134387   5.205   0.914  15.749  0.8712 -0.1766  0.4061
 4324TIP3    H234388   5.150   0.823  15.857 -1.8888 -1.3064 -1.8938
 4325TIP3   OH234389   3.159   1.454   0.251  0.0891 -0.5923  0.5613
 4325TIP3    H134390   3.156   1.394   0.176 -1.7952 -1.5365  1.3638
 4325TIP3    H234391   3.194   1.535   0.215 -0.0864 -1.2634 -1.1905
 4326TIP3   OH234392   5.814   4.147  14.286 -0.3609 -0.0328  0.0509
 4326TIP3    H134393   5.893   4.093  14.287 -0.7488 -0.5796  1.3730
 4326TIP3    H234394   5.839   4.227  14.333 -0.9471 -0.7218  1.5577
 4327TIP3   OH234395   1.762   6.054   2.840 -0.5950  0.3443  0.5214
 4327TIP3    H134396   1.805   5.970   2.822 -2.4696 -0.7595  1.1047
 4327TIP3    H234397   1.768   6.065   2.935 -0.8126  0.6199  0.5041
 4328TIP3   OH234398   4.124   5.476   0.847  0.7835 -0.1493 -0.1201
 4328TIP3    H134399   4.196   5.424   0.811  0.2377 -2.3892  1.9271
 4328TIP3    H234400   4.165   5.533   0.912  0.9873 -0.0013 -0.3790
 4329TIP3   OH234401   4.824   5.882  13.674  0.1387  0.3268  0.3108
 4329TIP3    H134402   4.899   5.897  13.617  0.9065  2.0178  1.7132
 4329TIP3    H234403   4.862   5.853  13.756 -0.7260  1.0675  0.9911
 4330TIP3   OH234404   2.901   4.641  12.354 -0.0418 -0.0188 -0.0549
 4330TIP3    H134405   2.957   4.715  12.378 -1.4120  1.1141 -0.2666
 4330TIP3    H234406   2.944   4.602  12.278  0.4862  0.8114 -0.1876
 4331TIP3   OH234407   0.504   5.669  17.222  0.4292 -0.2813  0.0072
 4331TIP3    H134408   0.480   5.742  17.165 -0.4015  0.3902  1.2014
 4331TIP3    H234409   0.467   5.692  17.308  0.7043 -1.8059  0.5447
 4332TIP3   OH234410   1.511   5.707   2.315 -0.1036 -0.0521 -0.3007
 4332TIP3    H134411   1.475   5.622   2.288  1.0292 -0.5862 -0.1457
 4332TIP3    H234412   1.445   5.743   2.374  0.0242 -1.4461  0.7265
 4333TIP3   OH234413   4.791   3.153   2.148 -0.1351  0.3137 -0.2840
 4333TIP3    H134414   4.782   3.071   2.098 -1.1243  0.7635 -0.8678
 4333TIP3    H234415   4.854   3.132   2.217  2.2714  0.0324 -2.4904
 4334TIP3   OH234416   0.836   0.959  15.179 -0.2361 -0.2558  0.5477
 4334TIP3    H134417   0.841   1.039  15.127  0.3420 -0.1092  0.8150
 4334TIP3    H234418   0.821   0.990  15.269  0.5639 -0.4118  0.7416
 4335TIP3   OH234419   1.892   3.394   0.334  0.2297 -0.0798 -0.0437
 4335TIP3    H134420   1.848   3.478   0.319  1.1364  0.7353  1.7089
 4335TIP3    H234421   1.823   3.337   0.368 -0.3994 -0.0813 -1.2752
 4336TIP3   OH234422   4.614   2.079  13.790 -0.1961  0.2849  0.1677
 4336TIP3    H134423   4.602   2.058  13.882 -1.5712 -0.8336 -0.2553
 4336TIP3    H234424   4.594   1.998  13.744 -0.3972  1.0797 -1.1775
 4337TIP3   OH234425   2.520   5.641  16.004 -0.5350 -0.6976 -0.6271
 4337TIP3    H134426   2.435   5.671  15.971 -0.4291  1.6254  1.1130
 4337TIP3    H234427   2.582   5.661  15.934 -0.9269  0.5775 -0.6177
 4338TIP3   OH234428   6.273   3.902  12.941  0.2239 -0.3628 -0.3582
 4338TIP3    H134429   6.331   3.884  13.015 -0.0092 -1.3064 -0.4045
 4338TIP3    H234430   6.188   3.922  12.981  0.2102 -0.4253 -0.3569
 4339TIP3   OH234431   0.634   6.082  12.971 -0.2919  0.1054 -0.2970
 4339TIP3    H134432   0.561   6.029  13.004  0.4660  0.2017  1.5999
 4339TIP3    H234433   0.598   6.170  12.964 -0.9610 -0.2558 -1.4290
 4340TIP3   OH234434   5.261   2.307  15.108 -0.2460 -0.0439  0.5111
 4340TIP3    H134435   5.174   2.343  15.093 -1.1470 -2.5778 -0.7375
 4340TIP3    H234436   5.318   2.355  15.048 -1.2005  0.0875 -0.3096
 4341TIP3   OH234437   0.563   6.269   3.925 -0.1400  0.8157 -0.2297
 4341TIP3    H134438   0.544   6.250   4.017  0.4395 -1.0071 -0.4533
 4341TIP3    H234439   0.499   6.217   3.876  1.0469 -0.0825 -0.8733
 4342TIP3   OH234440   3.919   4.654   5.907 -0.1976  0.2757 -0.1185
 4342TIP3    H134441   3.946   4.746   5.908  1.2632 -0.1335 -0.0072
 4342TIP3    H234442   3.856   4.648   5.835 -0.2095  1.3403 -0.2033
 4343TIP3   OH234443   6.496   4.130   3.481 -0.1048 -0.1024 -0.1638
 4343TIP3    H134444   6.553   4.118   3.404  0.1994 -2.1938  0.3450
 4343TIP3    H234445   6.539   4.199   3.532  1.4856 -0.9667 -0.2795
 4344TIP3   OH234446   3.501   3.223  13.816 -0.4277  0.6503 -0.2942
 4344TIP3    H134447   3.465   3.289  13.875 -3.1344  0.4419 -1.6300
 4344TIP3    H234448   3.437   3.152  13.818  2.5396 -2.0894  1.2887
 4345TIP3   OH234449   5.614   2.764  15.337 -0.1196  0.1160 -0.3947
 4345TIP3    H134450   5.536   2.717  15.308  1.2030 -1.7817 -0.9471
 4345TIP3    H234451   5.633   2.730  15.424  0.9347 -0.4885 -0.8578
 4346TIP3   OH234452   0.705   5.228   5.063 -0.5465  0.0979 -0.1707
 4346TIP3    H134453   0.780   5.174   5.087 -0.6732 -0.0914 -0.1931
 4346TIP3    H234454   0.688   5.281   5.141 -0.9458 -0.5042  0.1606
 4347TIP3   OH234455   1.879   5.300   0.880 -0.7223  0.7704  0.0084
 4347TIP3    H134456   1.940   5.283   0.808 -0.4275  0.2645  0.3717
 4347TIP3    H234457   1.895   5.391   0.903 -0.9894  1.0090 -0.7221
 4348TIP3   OH234458   1.947   5.937  15.684 -0.4147 -0.4323  0.0418
 4348TIP3    H134459   1.939   5.867  15.620 -1.5164  0.6720 -1.0536
 4348TIP3    H234460   2.022   5.988  15.653 -1.0026  0.1524 -0.4288
 4349TIP3   OH234461   4.591   1.015  14.325 -0.1391 -0.3791  0.1023
 4349TIP3    H134462   4.661   1.059  14.373 -0.8477 -0.3606  1.1354
 4349TIP3    H234463   4.598   1.049  14.236 -0.5385  1.6785  0.8367
 4350TIP3   OH234464   1.714   3.189  11.642 -0.6404  0.1162  0.0307
 4350TIP3    H134465   1.781   3.193  11.711  0.9682  0.7407 -1.5311
 4350TIP3    H234466   1.734   3.108  11.595 -1.2283  0.1008 -0.1860
 4351TIP3   OH234467   1.067   0.683   2.221  0.5162  0.1699  0.2661
 4351TIP3    H134468   1.106   0.642   2.298  3.0614 -1.7765 -2.0052
 4351TIP3    H234469   1.044   0.771   2.251  4.1093  0.4688  2.4790
 4352TIP3   OH234470   0.208   4.253  15.649 -0.1479 -0.3708  0.2957
 4352TIP3    H134471   0.145   4.270  15.579 -1.2179 -1.3695  0.9989
 4352TIP3    H234472   0.197   4.160  15.669  0.2788 -0.1406  1.6574
 4353TIP3   OH234473   0.497   4.088   0.911 -0.0233  0.2113  0.0293
 4353TIP3    H134474   0.462   4.050   0.992  1.9065 -1.0942  0.2745
 4353TIP3    H234475   0.501   4.015   0.850  0.5824  0.7375 -0.5657
 4354TIP3   OH234476   2.678   0.726  12.340  0.0582 -0.0167 -0.0906
 4354TIP3    H134477   2.746   0.770  12.289 -0.5086 -1.7120 -2.4328
 4354TIP3    H234478   2.720   0.703  12.422  1.7649  0.6497 -0.7555
 4355TIP3   OH234479   0.849   5.235   2.291 -0.7728  0.5539 -0.0639
 4355TIP3    H134480   0.849   5.246   2.196  1.3960 -1.2767 -0.3379
 4355TIP3    H234481   0.923   5.288   2.321  1.2066 -2.2125  0.0876
 4356TIP3   OH234482   3.537   4.679  12.241 -0.0005  0.5005 -0.2152
 4356TIP3    H134483   3.473   4.723  12.185  2.1206  2.6015 -1.0594
 4356TIP3    H234484   3.575   4.611  12.186  1.3603  1.9068 -1.0523
 4357TIP3   OH234485   2.023   4.291   1.209 -0.3560 -0.2661 -0.8527
 4357TIP3    H134486   1.997   4.374   1.249  0.3269 -1.3307  1.9333
 4357TIP3    H234487   2.090   4.315   1.145  0.5399  1.2677  0.6096
 4358TIP3   OH234488   6.606   2.573   3.189 -0.4447 -0.2685 -0.1410
 4358TIP3    H134489   6.633   2.544   3.276  0.6372 -0.3371 -0.4869
 4358TIP3    H234490   6.555   2.652   3.204  1.9957  1.2540  0.3987
 4359TIP3   OH234491   5.291   5.892  15.119 -0.1587 -0.7244 -0.4137
 4359TIP3    H134492   5.339   5.971  15.142 -1.0746  0.3609 -2.1054
 4359TIP3    H234493   5.322   5.869  15.031 -2.3146 -0.2958 -1.3187
 4360TIP3   OH234494   1.231   3.258   5.327  0.0475 -0.0995  0.4621
 4360TIP3    H134495   1.323   3.242   5.349  0.2074 -0.0460 -0.1499
 4360TIP3    H234496   1.209   3.187   5.266 -0.4027 -0.2874  0.8484
 4361TIP3   OH234497   0.063   1.061   2.655  0.7250  0.3188  0.4336
 4361TIP3    H134498  -0.011   1.008   2.625  1.5014 -0.5920  0.0969
 4361TIP3    H234499   0.065   1.048   2.750  0.2147  0.6560  0.4911
 4362TIP3   OH234500   4.331   1.071  16.701  0.0303  0.1168  0.0080
 4362TIP3    H134501   4.259   1.022  16.661  0.1182  0.2737 -0.3399
 4362TIP3    H234502   4.402   1.067  16.637 -0.2051  1.3206 -0.3418
 4363TIP3   OH234503   3.648   0.550  10.786 -0.0762  0.0503  0.1707
 4363TIP3    H134504   3.566   0.501  10.788  0.2217 -0.4081  2.0035
 4363TIP3    H234505   3.652   0.587  10.698 -1.1122 -1.8466 -0.6906
 4364TIP3   OH234506   3.672   0.860   3.852 -0.2400 -0.1797 -0.1751
 4364TIP3    H134507   3.661   0.826   3.941 -0.5836 -1.8769 -0.8522
 4364TIP3    H234508   3.766   0.871   3.843 -0.1036 -1.0803  0.0294
 4365TIP3   OH234509   4.429   6.545   1.290  0.2926  0.1843 -0.3438
 4365TIP3    H134510   4.370   6.566   1.218 -0.4503  1.3285  0.5733
 4365TIP3    H234511   4.375   6.498   1.353  0.9316 -0.7959 -0.5135
 4366TIP3   OH234512   2.526   2.083  16.799 -0.2341 -0.1996 -0.0970
 4366TIP3    H134513   2.482   2.040  16.726  0.2523  0.1685 -0.6152
 4366TIP3    H234514   2.458   2.096  16.865 -1.1798  1.5056 -1.3904
 4367TIP3   OH234515   1.996   5.865  13.094 -0.3474 -0.5336 -0.3699
 4367TIP3    H134516   1.902   5.853  13.106 -0.1954 -1.4324 -0.0695
 4367TIP3    H234517   2.028   5.779  13.065  0.3747 -0.2237 -0.4999
 4368TIP3   OH234518   1.091   3.214  12.030  0.0141  0.7998 -0.0453
 4368TIP3    H134519   1.104   3.151  11.959  0.9004  0.7343  0.1715
 4368TIP3    H234520   0.998   3.207  12.051  0.0617 -0.2825 -0.1677
 4369TIP3   OH234521   1.084   2.654  13.721  0.2198  0.0787  0.3666
 4369TIP3    H134522   1.004   2.622  13.679  1.1214 -1.6940 -0.0467
 4369TIP3    H234523   1.054   2.694  13.803 -0.8977 -2.3168  1.1676
 4370TIP3   OH234524   4.423   3.513   1.516 -0.1281  0.4052  0.6100
 4370TIP3    H134525   4.338   3.494   1.478  1.2070  0.7861 -2.7273
 4370TIP3    H234526   4.405   3.577   1.586 -2.2840  2.5835 -1.8543
 4371TIP3   OH234527   5.922   3.964   0.848  0.2074  0.5203 -0.5781
 4371TIP3    H134528   5.849   3.955   0.909  0.7413 -2.0033 -0.2477
 4371TIP3    H234529   5.881   3.982   0.764 -0.8117 -0.7549 -0.3746
 4372TIP3   OH234530   4.817   5.250  13.501  0.7235 -0.4475  0.1191
 4372TIP3    H134531   4.847   5.275  13.589 -1.1212 -1.5588  1.1014
 4372TIP3    H234532   4.721   5.248  13.508  0.6058 -1.8946 -1.5391
 4373TIP3   OH234533   2.678   1.338  16.992  0.5043 -0.3426  0.2729
 4373TIP3    H134534   2.767   1.349  17.026  0.5774  0.2480 -0.0948
 4373TIP3    H234535   2.624   1.320  17.069  0.9762 -0.8911  0.4746
 4374TIP3   OH234536   3.269   4.112   5.282 -0.2704 -0.4647  0.5048
 4374TIP3    H134537   3.250   4.206   5.271  0.4638 -0.3828 -0.1592
 4374TIP3    H234538   3.364   4.109   5.296 -0.3099 -1.1021  0.6247
 4375TIP3   OH234539   2.693   5.095   1.565 -0.2368  0.1562  0.3675
 4375TIP3    H134540   2.606   5.055   1.561  0.1185 -0.4909 -1.0839
 4375TIP3    H234541   2.732   5.057   1.644 -1.2263  0.3684  0.9705
 4376TIP3   OH234542   2.391   1.940  14.046  0.1309 -0.0258 -0.0961
 4376TIP3    H134543   2.437   2.024  14.053 -0.1768  0.2148 -0.8721
 4376TIP3    H234544   2.418   1.891  14.123 -1.3552  1.6033  1.4992
 4377TIP3   OH234545   4.815   0.177   1.463 -0.4198 -0.2404  0.4499
 4377TIP3    H134546   4.844   0.237   1.394 -1.0917 -1.9379 -1.3549
 4377TIP3    H234547   4.755   0.230   1.516  1.4114  1.5783  0.7823
 4378TIP3   OH234548   2.297   3.992  13.718  0.2663 -0.8932 -0.2345
 4378TIP3    H134549   2.280   3.986  13.812 -0.4091  0.5156 -0.2478
 4378TIP3    H234550   2.218   4.033  13.682  0.8540 -0.6709 -1.2862
 4379TIP3   OH234551   5.526   2.498   0.091  0.7161  0.6088  0.0351
 4379TIP3    H134552   5.438   2.530   0.072 -0.6874 -2.5043  0.8852
 4379TIP3    H234553   5.544   2.436   0.020  1.4029 -0.2412  0.9455
 4380TIP3   OH234554   6.078   4.738  15.855 -0.5518  0.0995 -0.7173
 4380TIP3    H134555   6.075   4.643  15.861 -3.1773  0.1021 -1.2965
 4380TIP3    H234556   6.168   4.758  15.831  0.7594 -2.0405  2.1960
 4381TIP3   OH234557   5.149   0.676  16.483  0.1052 -0.1809  0.2149
 4381TIP3    H134558   5.065   0.631  16.497  0.6706 -0.6899  2.1605
 4381TIP3    H234559   5.141   0.757  16.533 -0.3590  1.2319 -2.0957
 4382TIP3   OH234560   1.040   4.154   0.732  0.1569  0.1943  0.6017
 4382TIP3    H134561   1.038   4.105   0.814  0.3277  2.6399  2.1180
 4382TIP3    H234562   1.120   4.207   0.736 -0.2769  1.0002 -0.7426
 4383TIP3   OH234563   0.587   2.604   2.109 -0.3847 -0.0415  0.0986
 4383TIP3    H134564   0.638   2.684   2.095 -0.6248 -0.0984 -1.1536
 4383TIP3    H234565   0.652   2.535   2.111 -0.0294  0.3117  2.6244
 4384TIP3   OH234566   3.143   2.870  13.902  0.0759  0.1940 -0.2543
 4384TIP3    H134567   3.077   2.931  13.867  0.2944  0.8360  0.4392
 4384TIP3    H234568   3.144   2.888  13.996 -1.3714 -2.3755  0.2897
 4385TIP3   OH234569   2.182   4.997   3.379  0.1481 -0.5214 -0.3764
 4385TIP3    H134570   2.207   4.906   3.361 -0.9933 -0.9974  0.3438
 4385TIP3    H234571   2.093   4.990   3.414 -0.5820  1.0381 -1.9080
 4386TIP3   OH234572   4.742   4.677   4.666 -0.1162 -0.1987  0.1940
 4386TIP3    H134573   4.760   4.731   4.589 -0.2994 -1.3875 -0.7049
 4386TIP3    H234574   4.662   4.714   4.703  0.0451  0.4708 -0.1163
 4387TIP3   OH234575   5.786   6.514   3.485  0.0619 -0.2670  0.2112
 4387TIP3    H134576   5.805   6.424   3.512 -2.3551 -1.1008 -0.7442
 4387TIP3    H234577   5.692   6.515   3.470 -0.3993  3.1664  2.7981
 4388TIP3   OH234578   0.960   1.645   2.630 -0.0644  0.1245  0.5327
 4388TIP3    H134579   0.906   1.578   2.673  2.1508 -1.9024  0.3001
 4388TIP3    H234580   0.973   1.612   2.541 -2.1406  2.8257 -0.8178
 4389TIP3   OH234581   0.112   4.998  13.139 -1.1323  0.6178  0.1461
 4389TIP3    H134582   0.133   4.934  13.072 -0.9536  1.0853 -0.2455
 4389TIP3    H234583   0.019   4.984  13.158 -0.7092 -0.8485  1.2275
 4390TIP3   OH234584   3.755   2.358   3.139 -0.3857 -0.5028 -0.1659
 4390TIP3    H134585   3.691   2.390   3.075 -0.7219 -2.6514 -0.9293
 4390TIP3    H234586   3.706   2.354   3.222 -1.1946 -1.8991 -0.6968
 4391TIP3   OH234587   4.869   2.549  12.737 -0.2696 -0.5976  0.0008
 4391TIP3    H134588   4.832   2.555  12.649  0.3377  0.4863 -0.1944
 4391TIP3    H234589   4.955   2.509  12.724 -0.3117 -0.7281  0.1354
 4392TIP3   OH234590   6.780   6.473  16.940  0.6819 -0.0346  0.4786
 4392TIP3    H134591   6.716   6.413  16.902  1.6357 -0.2199 -0.9150
 4392TIP3    H234592   6.803   6.434  17.024  0.7150 -1.2356 -0.0686
 4393TIP3   OH234593   1.546   3.880  17.151  0.0484 -0.2616 -0.1395
 4393TIP3    H134594   1.635   3.915  17.141  0.4741 -1.6561 -1.4626
 4393TIP3    H234595   1.489   3.956  17.143  1.2164  1.0074  3.1071
 4394TIP3   OH234596   2.154   3.237   5.087  0.4702  0.3668 -0.0910
 4394TIP3    H134597   2.200   3.269   5.165 -2.3583  1.1822  1.3299
 4394TIP3    H234598   2.175   3.300   5.019  2.9531 -0.3309 -0.0100
 4395TIP3   OH234599   3.163   0.208   1.151  0.5962  0.2313 -0.3948
 4395TIP3    H134600   3.209   0.277   1.198 -1.0702  1.4944 -0.5735
 4395TIP3    H234601   3.173   0.130   1.207  0.2975  1.2415  1.0912
 4396TIP3   OH234602   4.955   0.038  14.014 -0.4472  0.6128 -0.2251
 4396TIP3    H134603   4.997   0.123  13.997 -4.2668  2.4711 -1.0158
 4396TIP3    H234604   4.981  -0.016  13.940  1.1912  1.4035 -0.2604
 4397TIP3   OH234605   1.316   0.171  10.764 -0.3239  0.0431  0.7590
 4397TIP3    H134606   1.293   0.261  10.785  0.0467  0.2580  0.2558
 4397TIP3    H234607   1.399   0.177  10.718 -1.5907 -0.3027 -1.6617
 4398TIP3   OH234608   0.644   3.421   6.014 -0.3406  0.2630 -0.0130
 4398TIP3    H134609   0.661   3.513   6.034 -0.0597  0.2832 -0.3320
 4398TIP3    H234610   0.666   3.374   6.095  1.5161  0.2657 -0.5060
 4399TIP3   OH234611   1.514   5.934  14.267  0.6979  0.2037  0.3857
 4399TIP3    H134612   1.549   5.856  14.225  1.2043 -0.5432  2.1791
 4399TIP3    H234613   1.502   5.996  14.195 -0.8945 -1.9215 -1.2491
 4400TIP3   OH234614   6.576   5.210  16.374 -0.2087 -0.1808  0.0353
 4400TIP3    H134615   6.510   5.248  16.317  0.1872  0.0031 -0.3007
 4400TIP3    H234616   6.526   5.154  16.434 -0.5161 -1.3772 -1.2916
 4401TIP3   OH234617   5.437   6.671  12.275 -0.0701 -0.3826  0.0352
 4401TIP3    H134618   5.355   6.659  12.227 -0.1650 -0.4104  0.2043
 4401TIP3    H234619   5.414   6.653  12.366  0.4565 -1.8934 -0.1190
 4402TIP3   OH234620   4.030   1.369  16.762 -0.2401 -0.1487 -0.1568
 4402TIP3    H134621   3.973   1.295  16.780 -1.0638  0.2525 -1.0710
 4402TIP3    H234622   4.045   1.409  16.848 -1.1523 -0.3882  0.1158
 4403TIP3   OH234623   0.688   4.486  15.020  0.1289 -0.2449 -0.3282
 4403TIP3    H134624   0.727   4.556  14.968 -0.5547 -0.5364 -1.2510
 4403TIP3    H234625   0.596   4.511  15.028 -0.0277 -0.8205 -0.3125
 4404TIP3   OH234626   1.920   1.904  13.870 -0.3911  0.1799  0.2278
 4404TIP3    H134627   1.997   1.958  13.890  0.7612 -1.5909  0.6846
 4404TIP3    H234628   1.924   1.892  13.775 -0.0069 -0.0455  0.2702
 4405TIP3   OH234629   1.746   5.607  13.226 -0.2245 -0.1100 -0.4072
 4405TIP3    H134630   1.712   5.556  13.300  1.6018 -0.3339  0.3140
 4405TIP3    H234631   1.817   5.553  13.190  0.2072  0.8866 -1.0811
 4406TIP3   OH234632   6.060   1.145  13.814 -0.4036 -0.0960  0.4790
 4406TIP3    H134633   6.034   1.231  13.782 -1.6493 -0.2989  0.9024
 4406TIP3    H234634   6.142   1.160  13.861 -0.9341  0.9749  1.0696
 4407TIP3   OH234635   1.747   0.658   3.427 -0.2319  0.1978  0.3930
 4407TIP3    H134636   1.652   0.659   3.423 -0.1881  0.6829 -0.5484
 4407TIP3    H234637   1.774   0.743   3.393  0.5692 -0.2134 -0.0207
 4408TIP3   OH234638   2.938   1.930  15.674 -0.4327  0.6596  0.2647
 4408TIP3    H134639   3.026   1.962  15.654  0.4595 -1.4892  0.6540
 4408TIP3    H234640   2.918   1.967  15.760  0.6275  0.0868  0.7654
 4409TIP3   OH234641   0.436   4.561  15.953  0.2619 -0.0963  0.1040
 4409TIP3    H134642   0.492   4.517  16.017  2.7267  1.3110 -1.0368
 4409TIP3    H234643   0.451   4.514  15.871 -1.2924 -0.5586  0.0622
 4410TIP3   OH234644   0.521   5.012   3.598  0.3451  0.3087  0.2092
 4410TIP3    H134645   0.457   4.940   3.600  1.0427 -0.3139  0.5019
 4410TIP3    H234646   0.606   4.968   3.590  0.9402  0.9985  2.3266
 4411TIP3   OH234647   1.014   3.503   4.044  0.5242 -0.2403  0.0427
 4411TIP3    H134648   1.037   3.574   3.983  0.9530 -1.1017 -0.8099
 4411TIP3    H234649   1.031   3.423   3.994 -1.1364 -0.9284  0.5758
 4412TIP3   OH234650   2.860   1.253   5.916  0.0997  0.5612  0.2159
 4412TIP3    H134651   2.770   1.278   5.936  0.4760  0.1313  2.5641
 4412TIP3    H234652   2.852   1.201   5.835 -1.8177  0.1033  0.6536
 4413TIP3   OH234653   5.819   0.012   5.903  0.1308  0.4059 -0.1826
 4413TIP3    H134654   5.810  -0.064   5.847 -0.6447  0.4475 -0.1121
 4413TIP3    H234655   5.865  -0.021   5.981 -1.5664 -0.3226  0.5247
 4414TIP3   OH234656   3.906   2.325   1.308  0.2220  0.3837  0.2879
 4414TIP3    H134657   3.993   2.289   1.295 -0.7274 -1.2167 -1.8927
 4414TIP3    H234658   3.888   2.311   1.401  1.7710 -0.4042  0.4926
 4415TIP3   OH234659   3.262   3.870  10.840  0.0582 -0.2245 -0.0516
 4415TIP3    H134660   3.345   3.828  10.864  0.0544 -0.7950 -0.9897
 4415TIP3    H234661   3.196   3.803  10.857  0.0414 -0.5845 -1.4742
 4416TIP3   OH234662   1.451   4.922   2.547 -0.2107 -0.6467  0.1060
 4416TIP3    H134663   1.394   4.854   2.512 -1.9326  0.9301 -0.2210
 4416TIP3    H234664   1.462   4.900   2.640 -1.0191 -1.1759  0.0745
 4417TIP3   OH234665   2.956   2.461  15.220 -0.6117 -0.1631  0.2203
 4417TIP3    H134666   3.027   2.461  15.285 -1.0181  0.1257  0.6676
 4417TIP3    H234667   2.937   2.369  15.206  0.1705 -0.2556 -0.2496
 4418TIP3   OH234668   3.824   1.233   5.950  0.3510 -0.4842 -0.5078
 4418TIP3    H134669   3.778   1.191   5.877 -0.4898 -0.5452  0.0492
 4418TIP3    H234670   3.913   1.199   5.945 -0.4799 -2.9779  0.3828
 4419TIP3   OH234671   1.921   1.833   4.662 -0.0358 -0.0692 -0.1808
 4419TIP3    H134672   1.926   1.759   4.601 -0.0404  0.1381 -0.4331
 4419TIP3    H234673   1.932   1.910   4.607  1.3239  0.0586  0.2509
 4420TIP3   OH234674   5.849   6.486   1.114  0.0103 -0.1728  0.5445
 4420TIP3    H134675   5.880   6.400   1.085  2.4872  0.2262  1.8978
 4420TIP3    H234676   5.900   6.549   1.062 -1.5722  0.4983 -0.2244
 4421TIP3   OH234677   2.551   0.471   2.360 -0.0073 -0.4735  0.5928
 4421TIP3    H134678   2.644   0.488   2.351  0.0031  0.2685  1.9922
 4421TIP3    H234679   2.541   0.379   2.335  0.9383 -0.2782 -0.5163
 4422TIP3   OH234680   4.013   6.193  16.578 -0.5686 -0.7384 -0.4593
 4422TIP3    H134681   3.942   6.133  16.556 -0.7046 -0.3410 -1.1031
 4422TIP3    H234682   4.034   6.238  16.496  1.1318 -1.5990 -0.5103
 4423TIP3   OH234683   6.740   5.127   1.614  0.0814 -0.5939 -0.0954
 4423TIP3    H134684   6.658   5.080   1.597  1.3109 -2.8145 -0.0545
 4423TIP3    H234685   6.808   5.069   1.579  1.6888  0.8606  0.5827
 4424TIP3   OH234686   5.079   5.862  11.129  0.3384 -0.0098  0.3191
 4424TIP3    H134687   5.134   5.810  11.187  0.2889  0.1852  0.5409
 4424TIP3    H234688   5.122   5.948  11.125  0.1054  0.1145  0.4194
 4425TIP3   OH234689   6.215   0.541  15.403  0.4508  0.2190 -0.1737
 4425TIP3    H134690   6.231   0.583  15.487 -1.7843  1.4335 -0.3208
 4425TIP3    H234691   6.128   0.570  15.377 -0.3828 -2.9625 -1.2253
 4426TIP3   OH234692   2.138   1.316  10.865 -0.3963 -0.2483 -0.1445
 4426TIP3    H134693   2.218   1.305  10.814 -0.7486  0.0246 -0.7672
 4426TIP3    H234694   2.105   1.402  10.839 -0.3682  0.0640  0.8448
 4427TIP3   OH234695   4.968   0.206   3.912  0.1759 -1.0548  0.3117
 4427TIP3    H134696   4.958   0.199   4.007 -1.0283 -2.5919  0.0863
 4427TIP3    H234697   4.896   0.264   3.884 -0.6386 -2.1499  0.1217
 4428TIP3   OH234698   0.570   6.450  12.306  0.1227 -0.1707  0.3695
 4428TIP3    H134699   0.583   6.356  12.320  1.1826 -0.1354 -0.3348
 4428TIP3    H234700   0.628   6.493  12.369  1.1600 -0.0051 -0.6766
 4429TIP3   OH234701   4.121   0.188  16.090  0.3216 -0.1857 -0.3522
 4429TIP3    H134702   4.177   0.215  16.017  0.0156 -0.5273 -0.7151
 4429TIP3    H234703   4.052   0.135  16.050 -0.6475  0.7755 -0.0024
 4430TIP3   OH234704   4.813   2.843  11.895  0.4347  0.5278  0.2285
 4430TIP3    H134705   4.815   2.767  11.955  0.9961  0.3386 -0.0323
 4430TIP3    H234706   4.724   2.877  11.904  0.2092 -0.0963  0.4345
 4431TIP3   OH234707   3.851   1.501   3.395 -0.2126  0.0393  0.0538
 4431TIP3    H134708   3.776   1.532   3.445 -0.9864 -0.4593 -0.7760
 4431TIP3    H234709   3.812   1.447   3.325  0.7680  1.7385 -1.8374
 4432TIP3   OH234710   2.463   0.560  16.009 -0.8132 -0.3799 -0.4138
 4432TIP3    H134711   2.411   0.521  16.079 -1.0410 -0.4514 -0.6208
 4432TIP3    H234712   2.401   0.613  15.959 -0.2162  1.4214  0.7168
 4433TIP3   OH234713   2.234   6.130  17.049 -0.3896  0.0342 -0.0483
 4433TIP3    H134714   2.289   6.076  16.992  1.6395 -0.3836  2.2234
 4433TIP3    H234715   2.145   6.102  17.031  0.2163 -0.2908 -2.7844
 4434TIP3   OH234716   5.409   5.087  12.822  0.1157  0.0201  0.2557
 4434TIP3    H134717   5.470   5.158  12.799 -0.3626 -0.3763 -2.4601
 4434TIP3    H234718   5.339   5.095  12.757 -0.2713 -2.5300  0.3302
 4435TIP3   OH234719   6.507   4.844  15.514  0.1556  0.4140 -0.3155
 4435TIP3    H134720   6.416   4.820  15.528  0.5629 -1.2302 -0.2439
 4435TIP3    H234721   6.505   4.915  15.451 -1.1828  0.5945 -0.0747
 4436TIP3   OH234722   2.043   5.485  11.930  0.4011  0.1122  0.1554
 4436TIP3    H134723   1.996   5.420  11.878 -2.5059  2.4312 -0.2528
 4436TIP3    H234724   2.096   5.533  11.866 -0.5391  0.7239 -0.1774
 4437TIP3   OH234725   3.033   0.502  11.200 -0.0933  0.0639 -0.2555
 4437TIP3    H134726   3.014   0.572  11.138 -1.2498 -0.9156 -1.0230
 4437TIP3    H234727   2.969   0.434  11.180 -0.7150 -0.1352  2.2388
 4438TIP3   OH234728   3.122   4.966  13.407  0.2808 -0.3052  0.0932
 4438TIP3    H134729   3.064   4.948  13.482  0.7516 -1.6253  0.1518
 4438TIP3    H234730   3.099   4.900  13.342  0.9908 -0.1687 -0.3022
 4439TIP3   OH234731   4.192   0.984   2.598 -0.2439 -0.1732 -0.3355
 4439TIP3    H134732   4.178   0.970   2.505 -2.3443 -0.2678 -0.0171
 4439TIP3    H234733   4.105   1.003   2.633  0.8194  1.9606  1.2530
 4440TIP3   OH234734   2.010   1.043  16.742 -0.0690  0.1299 -0.2198
 4440TIP3    H134735   2.070   1.072  16.810 -0.4600  1.3282 -0.3884
 4440TIP3    H234736   1.983   1.123  16.696 -0.4675 -0.5682 -1.2367
 4441TIP3   OH234737   4.497   1.607   2.931  0.7017  0.0090 -0.2604
 4441TIP3    H134738   4.530   1.682   2.979  0.4871  0.0738 -0.2119
 4441TIP3    H234739   4.434   1.645   2.869 -1.0090 -0.3517  1.2148
 4442TIP3   OH234740   3.317   3.419  14.748  0.0251 -0.1211 -0.3617
 4442TIP3    H134741   3.408   3.450  14.747  0.0384 -0.1529  0.0486
 4442TIP3    H234742   3.265   3.498  14.734 -0.1056  0.6496  3.9437
 4443TIP3   OH234743   4.635   3.226   0.366 -0.2228  0.1643 -0.5925
 4443TIP3    H134744   4.673   3.191   0.446  0.1045 -1.7051 -1.5275
 4443TIP3    H234745   4.552   3.266   0.394 -0.6578 -1.4458  0.5321
 4444TIP3   OH234746   0.844   1.293   2.489  0.2359 -0.2293 -0.3529
 4444TIP3    H134747   0.789   1.269   2.414 -0.6983 -0.4165  0.3805
 4444TIP3    H234748   0.782   1.303   2.562  1.2447 -1.0467  0.6337
 4445TIP3   OH234749   0.146   4.721  12.190  0.3516 -0.2825  0.2814
 4445TIP3    H134750   0.226   4.702  12.140 -0.5134 -0.8854 -0.8847
 4445TIP3    H234751   0.084   4.752  12.125  0.1177  1.6908  1.4372
 4446TIP3   OH234752   1.304   6.560  16.919  0.1921  0.1863 -0.1274
 4446TIP3    H134753   1.343   6.556  17.006  0.3090 -1.5945 -0.2335
 4446TIP3    H234754   1.378   6.567  16.859  0.1595  0.5532 -0.1248
 4447TIP3   OH234755   3.318   1.781   3.760  0.0058 -0.0322 -0.5215
 4447TIP3    H134756   3.405   1.818   3.776 -0.0291  0.4381 -1.4233
 4447TIP3    H234757   3.335   1.688   3.743  0.1169 -0.4042  1.4520
 4448TIP3   OH234758   1.136   3.246  12.314 -0.3809  0.2755  0.3483
 4448TIP3    H134759   1.043   3.227  12.316 -0.2819 -0.3160 -0.6175
 4448TIP3    H234760   1.155   3.270  12.223  0.9339 -2.3797 -0.1209
 4449TIP3   OH234761   6.460   0.177   3.175  0.1881 -0.0153  0.4040
 4449TIP3    H134762   6.442   0.108   3.239 -1.8621  2.3961  2.5464
 4449TIP3    H234763   6.374   0.202   3.141  1.0203  0.5898 -1.3335
 4450TIP3   OH234764   3.346   4.473  15.215  0.0652  0.1101 -0.4457
 4450TIP3    H134765   3.404   4.397  15.206  1.2555  0.8705  0.6742
 4450TIP3    H234766   3.279   4.460  15.147  0.5015 -1.7039 -0.5663
 4451TIP3   OH234767   0.770   5.007  14.006  0.1740  0.1635 -0.1350
 4451TIP3    H134768   0.828   5.080  14.030  0.0018  0.5019 -0.7550
 4451TIP3    H234769   0.686   5.048  13.988  0.4200 -0.0229 -1.8010
 4452TIP3   OH234770   0.390   5.705   2.050 -0.3001 -0.3601 -0.1836
 4452TIP3    H134771   0.303   5.689   2.087 -0.3167 -2.2624 -0.9698
 4452TIP3    H234772   0.450   5.684   2.121 -0.4782  1.8761  0.6682
 4453TIP3   OH234773   2.550   5.637   5.234  0.0370 -0.5778 -0.1739
 4453TIP3    H134774   2.611   5.697   5.276  0.6952 -0.2839 -1.5114
 4453TIP3    H234775   2.500   5.598   5.306  1.3645 -0.3392  0.8902
 4454TIP3   OH234776   6.243   0.792   3.651 -0.4075 -0.5276  0.1537
 4454TIP3    H134777   6.224   0.822   3.562 -0.5548  0.8302  0.6375
 4454TIP3    H234778   6.332   0.756   3.646  0.2110  1.0412 -0.1711
 4455TIP3   OH234779   5.936   0.436  14.760  0.2715  0.0023  0.3050
 4455TIP3    H134780   6.029   0.442  14.740  0.1894 -0.6943 -0.3015
 4455TIP3    H234781   5.895   0.504  14.706  0.3695 -0.0625  0.1478
 4456TIP3   OH234782   0.553   5.994  16.587 -0.3303  0.0761 -0.0052
 4456TIP3    H134783   0.536   5.900  16.589 -2.0989  0.4025  1.3337
 4456TIP3    H234784   0.470   6.033  16.557 -0.5533  1.3822  2.1977
 4457TIP3   OH234785   5.931   0.568   2.646  0.1318 -0.0529  0.0269
 4457TIP3    H134786   5.996   0.533   2.706  0.4769  0.7786  0.1407
 4457TIP3    H234787   5.851   0.573   2.698  0.5508  1.1411  0.5698
 4458TIP3   OH234788   6.291   0.017  17.123 -0.2891  0.4315  0.0831
 4458TIP3    H134789   6.355  -0.043  17.161 -0.5361  0.8022  1.1051
 4458TIP3    H234790   6.264  -0.025  17.041  0.6824 -0.1000  0.0301
 4459TIP3   OH234791   3.828   1.884   4.527  0.0928  0.2343  0.6966
 4459TIP3    H134792   3.919   1.900   4.551 -0.1234 -0.2900  1.8756
 4459TIP3    H234793   3.832   1.859   4.435  1.1376  0.2103  0.7405
 4460TIP3   OH234794   0.797   1.094   0.571  0.1880 -0.4926 -0.0829
 4460TIP3    H134795   0.724   1.095   0.508  1.2513 -1.1233 -1.3400
 4460TIP3    H234796   0.757   1.063   0.653 -1.4506  1.4386 -0.1015
 4461TIP3   OH234797   1.748   2.588   6.056 -0.1785  0.6087  0.1874
 4461TIP3    H134798   1.786   2.501   6.049  1.2465  1.3902 -2.2219
 4461TIP3    H234799   1.653   2.573   6.049  0.0604 -0.7481 -0.3220
 4462TIP3   OH234800   4.152   1.639  11.679  0.3504 -0.2919  0.7661
 4462TIP3    H134801   4.109   1.562  11.643  0.3482  0.0134  0.0959
 4462TIP3    H234802   4.132   1.709  11.616  1.3587 -0.0261  0.7302
 4463TIP3   OH234803   3.404   0.343   6.249  0.3626 -0.1632 -0.0910
 4463TIP3    H134804   3.324   0.393   6.263 -0.0567 -1.0689  0.8807
 4463TIP3    H234805   3.455   0.395   6.188 -0.2378  1.2413  0.5886
 4464TIP3   OH234806   1.488   2.049  15.398 -0.1091 -0.4635  0.2791
 4464TIP3    H134807   1.507   1.963  15.361  2.8650  0.3098 -0.1494
 4464TIP3    H234808   1.476   2.106  15.321 -0.1180 -0.1099  0.5411
 4465TIP3   OH234809   2.922   3.997   0.162  0.6639 -0.8315  0.2794
 4465TIP3    H134810   2.923   4.087   0.195 -0.7039 -0.8417  0.3726
 4465TIP3    H234811   2.852   3.955   0.211  1.7283 -2.1362  0.7011
 4466TIP3   OH234812   3.861   2.240   0.611  0.7941 -0.0985  0.1288
 4466TIP3    H134813   3.783   2.222   0.664  0.7021  0.2194  0.1014
 4466TIP3    H234814   3.854   2.179   0.537  0.2676  0.3309 -0.1781
 4467TIP3   OH234815   0.857   2.421  14.009 -0.0328  0.3617  0.2830
 4467TIP3    H134816   0.793   2.467  13.955 -0.5319 -0.3894  0.2190
 4467TIP3    H234817   0.807   2.350  14.050  0.8648 -0.5324 -0.1590
 4468TIP3   OH234818   4.444   6.190  12.070 -0.2545 -0.0888 -0.0312
 4468TIP3    H134819   4.422   6.159  12.158 -0.0469 -0.3621 -0.0749
 4468TIP3    H234820   4.531   6.230  12.080 -1.1692  1.8594  0.3464
 4469TIP3   OH234821   0.687   0.671  13.929  0.2815  0.2237  0.2703
 4469TIP3    H134822   0.678   0.626  13.845  1.9366  3.0806 -1.5229
 4469TIP3    H234823   0.633   0.750  13.920  3.9683  2.8831  0.0567
 4470TIP3   OH234824   2.589   4.082  12.456 -0.6281 -0.0754  0.4712
 4470TIP3    H134825   2.496   4.070  12.434 -0.5019 -0.4098  0.1060
 4470TIP3    H234826   2.608   4.172  12.431 -0.1380 -0.8464 -2.1104
 4471TIP3   OH234827   3.945   5.579   2.976  0.0504 -0.1187 -0.5386
 4471TIP3    H134828   3.912   5.617   3.057 -0.2264 -1.4754 -0.0072
 4471TIP3    H234829   3.891   5.618   2.907 -1.5514 -1.0638  0.1705
 4472TIP3   OH234830   5.412   2.966   2.015 -0.0586  0.1570 -0.1531
 4472TIP3    H134831   5.324   2.949   1.980 -0.4062 -0.5053  1.0183
 4472TIP3    H234832   5.444   2.880   2.041  1.3301  0.2703 -1.4556
 4473TIP3   OH234833   1.226   1.623   5.362  0.2144 -0.1619 -0.2751
 4473TIP3    H134834   1.161   1.684   5.397  1.6460 -0.0526  2.3366
 4473TIP3    H234835   1.288   1.679   5.316  0.9784  0.2760  1.2564
 4474TIP3   OH234836   4.444   4.067   5.453  0.6005  0.5955 -0.0068
 4474TIP3    H134837   4.517   4.128   5.455  1.3094 -0.2486  0.1117
 4474TIP3    H234838   4.421   4.053   5.545 -1.2040  2.5947 -0.0919
 4475TIP3   OH234839   2.300   4.710  16.082 -0.1805  0.5398 -0.1890
 4475TIP3    H134840   2.217   4.686  16.041 -0.3851  0.9699 -0.0287
 4475TIP3    H234841   2.361   4.640  16.056 -0.5979  0.2103 -0.2836
 4476TIP3   OH234842   6.608   3.089   1.546 -0.2134  0.0369  0.0360
 4476TIP3    H134843   6.564   3.043   1.617  1.7684  1.3613  2.1748
 4476TIP3    H234844   6.694   3.048   1.541 -0.3746 -0.1519 -1.7493
 4477TIP3   OH234845   1.722   1.389  16.431  0.0271  0.5724  0.3388
 4477TIP3    H134846   1.703   1.384  16.338  2.2499 -1.8907 -0.0128
 4477TIP3    H234847   1.790   1.456  16.438  1.5951 -0.9654 -0.1001
 4478TIP3   OH234848   0.192   3.959   0.377 -0.2805 -0.0710 -0.4757
 4478TIP3    H134849   0.221   3.956   0.468  1.0188 -0.2389 -0.8885
 4478TIP3    H234850   0.127   4.029   0.375 -0.9341 -0.6155  0.7431
 4479TIP3   OH234851   2.424   0.821  14.387 -0.0521  0.0533  0.0410
 4479TIP3    H134852   2.357   0.886  14.365  0.0061  0.4938  1.1365
 4479TIP3    H234853   2.493   0.836  14.322  0.3761  1.7215  0.8419
 4480TIP3   OH234854   4.951   1.972   0.190  0.1255  0.1175 -0.5737
 4480TIP3    H134855   4.881   1.976   0.125 -1.1494 -1.4618  0.6572
 4480TIP3    H234856   5.015   1.910   0.154  0.8347  1.4395 -1.6243
 4481TIP3   OH234857   3.789   6.697   4.428  0.6251  0.1184  0.1930
 4481TIP3    H134858   3.716   6.652   4.471  0.0032  0.2383 -0.7124
 4481TIP3    H234859   3.780   6.673   4.335  0.5725  1.6917 -0.2244
 4482TIP3   OH234860   3.836   2.783   2.289  0.1491  0.6077 -0.1632
 4482TIP3    H134861   3.919   2.817   2.323  0.3252 -0.7247  0.7994
 4482TIP3    H234862   3.790   2.752   2.367 -1.3755  1.5627 -0.6631
 4483TIP3   OH234863   0.431   0.095  12.575  0.2375 -0.1649  0.2443
 4483TIP3    H134864   0.400   0.104  12.485 -0.2706  0.0172  0.4360
 4483TIP3    H234865   0.362   0.135  12.628  0.5088 -0.3241  0.7187
 4484TIP3   OH234866   5.121   4.653  14.925  0.4352  0.1413  0.1180
 4484TIP3    H134867   5.123   4.557  14.933  0.3092 -0.1058 -2.2700
 4484TIP3    H234868   5.212   4.680  14.937  0.5703 -0.3435  0.1943
 4485TIP3   OH234869   1.157   6.165  16.370  0.2373  0.1272  0.0526
 4485TIP3    H134870   1.072   6.189  16.333 -0.1485 -0.1941  0.7217
 4485TIP3    H234871   1.209   6.136  16.295  0.0271  1.0937 -0.4739
 4486TIP3   OH234872   1.817   1.065   3.683  0.8059 -0.1945  0.9129
 4486TIP3    H134873   1.790   0.973   3.692 -1.1030  0.0396 -1.8442
 4486TIP3    H234874   1.868   1.067   3.602  1.6152  1.0612  1.4307
 4487TIP3   OH234875   0.052   4.606  14.099 -0.0437 -0.2735  0.3232
 4487TIP3    H134876   0.124   4.569  14.048  0.1547  1.9313 -1.0188
 4487TIP3    H234877   0.089   4.615  14.187  0.6623 -1.0078  0.1163
 4488TIP3   OH234878   1.537   2.397  16.245 -0.2791 -0.1028 -0.1158
 4488TIP3    H134879   1.632   2.411  16.250 -0.1863 -0.4646 -0.8071
 4488TIP3    H234880   1.521   2.326  16.307 -0.3489  1.1097  1.2766
 4489TIP3   OH234881   5.736   2.973  11.337  0.1834  0.2677 -0.0621
 4489TIP3    H134882   5.828   2.950  11.324 -0.4839 -1.7056 -1.5303
 4489TIP3    H234883   5.714   3.030  11.263 -0.0149 -0.0147 -0.2226
 4490TIP3   OH234884   5.019   3.587   5.808 -0.0169  0.4653 -0.8481
 4490TIP3    H134885   5.002   3.540   5.890 -0.7367 -0.2106 -1.3730
 4490TIP3    H234886   5.073   3.528   5.757  2.3782  1.8289  0.0353
 4491TIP3   OH234887   6.497   6.025  16.502  0.0935 -0.5751 -0.2208
 4491TIP3    H134888   6.437   5.965  16.546  0.9357 -0.6247  0.8797
 4491TIP3    H234889   6.464   6.031  16.412 -2.2231  0.2648  0.6468
 4492TIP3   OH234890   1.940   6.673   3.791 -0.4088 -0.3518 -0.1680
 4492TIP3    H134891   1.973   6.745   3.844 -0.5461 -0.1499 -0.3576
 4492TIP3    H234892   1.853   6.702   3.762  1.1489  1.1366 -3.5788
 4493TIP3   OH234893   2.423   0.225   2.740  0.3079  0.0712  0.2216
 4493TIP3    H134894   2.466   0.269   2.813 -1.4232  0.9111  0.7506
 4493TIP3    H234895   2.343   0.275   2.725  1.3059  0.7919 -3.1750
 4494TIP3   OH234896   6.392   3.169   1.372  0.1856  0.1315  0.1142
 4494TIP3    H134897   6.456   3.187   1.304  1.9115  1.3277  1.9953
 4494TIP3    H234898   6.432   3.100   1.425 -1.0854 -0.7135 -0.0117
 4495TIP3   OH234899   5.118   2.733   2.466  1.0742 -1.0334 -0.1705
 4495TIP3    H134900   5.028   2.715   2.440  0.3928  0.7810  0.8632
 4495TIP3    H234901   5.159   2.768   2.387 -0.4593  2.6490  0.5693
 4496TIP3   OH234902   2.220   5.104   2.904  0.5559 -0.2599 -0.3313
 4496TIP3    H134903   2.244   5.016   2.933  0.6268  0.0719  0.6464
 4496TIP3    H234904   2.129   5.096   2.876 -0.1215 -0.2214  1.7216
 4497TIP3   OH234905   6.429   4.354  10.598  0.3022  0.6056 -0.0363
 4497TIP3    H134906   6.411   4.314  10.513 -0.7243  1.7749 -0.3937
 4497TIP3    H234907   6.507   4.408  10.583 -0.5307  1.6951 -0.5522
 4498TIP3   OH234908   1.517   1.609  13.706 -0.5205 -0.5516 -0.2983
 4498TIP3    H134909   1.577   1.641  13.773 -1.1781  1.0096 -0.4329
 4498TIP3    H234910   1.430   1.636  13.737 -0.7680  0.7597 -2.0777
 4499TIP3   OH234911   5.255   3.306   0.145  0.9299 -0.3071 -0.2072
 4499TIP3    H134912   5.258   3.231   0.087  1.2271 -1.2729  1.0323
 4499TIP3    H234913   5.186   3.362   0.109 -0.3430 -1.8884 -0.2724
 4500TIP3   OH234914   2.230   2.646  16.943  0.0869  0.2079  0.0136
 4500TIP3    H134915   2.291   2.575  16.924 -0.2160  0.2870 -1.2746
 4500TIP3    H234916   2.284   2.725  16.941  0.0137  0.2376 -0.7299
 4501TIP3   OH234917   1.935   4.260   0.019 -0.0873  0.2296 -0.4796
 4501TIP3    H134918   1.941   4.183   0.075 -0.8120  1.5179  1.4119
 4501TIP3    H234919   1.999   4.322   0.055 -0.3908  0.9853 -1.2078
 4502TIP3   OH234920   1.292   5.476  17.176 -0.5585 -0.4611  0.2460
 4502TIP3    H134921   1.333   5.463  17.261  0.2074  0.2399 -0.0095
 4502TIP3    H234922   1.365   5.490  17.116 -1.1641  0.7667 -0.2233
 4503TIP3   OH234923   0.071   5.776  11.385  0.0495 -0.0154 -0.0007
 4503TIP3    H134924   0.140   5.836  11.359 -0.0181  0.3709  0.6891
 4503TIP3    H234925   0.036   5.813  11.466 -1.3516  0.1025 -0.6480
 4504TIP3   OH234926   1.986   2.254  12.562  0.0350  0.3431 -0.3395
 4504TIP3    H134927   1.958   2.262  12.653 -1.7049  0.3560 -0.8478
 4504TIP3    H234928   1.980   2.342  12.526 -1.5014 -0.0230 -1.0536
 4505TIP3   OH234929   1.061   5.556  12.808  0.0190  0.0148 -0.1085
 4505TIP3    H134930   0.995   5.625  12.815 -1.2362 -1.2639  0.9196
 4505TIP3    H234931   1.064   5.517  12.895 -1.1253 -2.8690 -1.3037
 4506TIP3   OH234932   4.775   1.239  13.257 -0.0669 -0.8899 -0.3264
 4506TIP3    H134933   4.697   1.266  13.209  0.7635  2.2182 -0.0643
 4506TIP3    H234934   4.741   1.192  13.333 -1.7671  0.9740  0.1333
 4507TIP3   OH234935   1.589   1.746   4.569 -0.1024 -0.2507 -0.6098
 4507TIP3    H134936   1.552   1.784   4.489 -2.5057  0.0842  0.6078
 4507TIP3    H234937   1.589   1.652   4.553  0.2471 -0.1304 -1.3381
 4508TIP3   OH234938   2.575   0.121   3.722  0.0279 -0.2707  0.1659
 4508TIP3    H134939   2.576   0.033   3.758  2.8752 -0.2304  0.3153
 4508TIP3    H234940   2.484   0.151   3.732 -0.6822 -2.7013  1.2248
 4509TIP3   OH234941   5.863   6.326   0.185  0.1709 -0.1275 -0.1148
 4509TIP3    H134942   5.793   6.385   0.156  1.7986  1.6884 -0.4652
 4509TIP3    H234943   5.878   6.349   0.276  0.5389 -0.2935 -0.1325
 4510TIP3   OH234944   2.698   2.623  12.008  0.1687  0.2137  0.0013
 4510TIP3    H134945   2.684   2.563  12.081 -2.4541  1.3457  0.4584
 4510TIP3    H234946   2.624   2.683  12.011  1.4061  1.9069 -2.0049
 4511TIP3   OH234947   2.759   6.436   5.600 -0.0973 -0.3039 -0.7674
 4511TIP3    H134948   2.715   6.381   5.536  0.5502 -0.4058 -1.1202
 4511TIP3    H234949   2.787   6.376   5.669 -2.8678  0.1026  0.7879
 4512TIP3   OH234950   0.650   0.662   1.336  0.1454 -0.0926 -0.2285
 4512TIP3    H134951   0.648   0.631   1.245 -0.5345 -0.6405 -0.0244
 4512TIP3    H234952   0.611   0.591   1.387 -1.6514  1.1835  0.2141
 4513TIP3   OH234953   6.239   5.663  14.348 -0.3849  0.2750 -0.4758
 4513TIP3    H134954   6.242   5.571  14.320 -1.1765  0.2971 -0.6528
 4513TIP3    H234955   6.273   5.661  14.438  0.6241 -0.0309 -0.8533
 4514TIP3   OH234956   0.399   2.103   0.835  0.7613 -0.6380 -0.0549
 4514TIP3    H134957   0.384   2.085   0.742  2.1384 -1.7067 -0.0921
 4514TIP3    H234958   0.486   2.067   0.852  2.0516  2.7405  0.8163
 4515TIP3   OH234959   1.854   4.006  14.526  0.1090  0.5104 -0.1981
 4515TIP3    H134960   1.933   3.991  14.475 -0.6098  0.5338 -1.3453
 4515TIP3    H234961   1.854   4.100  14.543 -0.3141  0.7072 -1.2767
 4516TIP3   OH234962   0.344   1.013   2.166  0.3114  0.5938 -0.3473
 4516TIP3    H134963   0.384   1.078   2.109  0.0400 -0.2784 -1.5363
 4516TIP3    H234964   0.257   0.998   2.130 -0.0582  0.4035  0.5923
 4517TIP3   OH234965   5.977   5.583   1.923  0.4522 -0.4319  0.1248
 4517TIP3    H134966   5.989   5.674   1.895  0.5284 -0.4209  0.1928
 4517TIP3    H234967   6.044   5.569   1.989 -1.7680  0.5822  2.7170
 4518TIP3   OH234968   5.006   0.901   0.119 -0.0796  0.1294  0.0320
 4518TIP3    H134969   5.048   0.982   0.092 -0.7506  0.5255  0.1771
 4518TIP3    H234970   4.944   0.881   0.049  0.3759 -0.4809 -0.2045
 4519TIP3   OH234971   1.292   4.522  17.033  0.6709 -1.0570  0.5965
 4519TIP3    H134972   1.243   4.539  16.953 -0.8459 -0.2966  1.6715
 4519TIP3    H234973   1.333   4.437  17.018 -0.0318 -1.1742 -0.7700
 4520TIP3   OH234974   2.343   1.559   2.562  0.5603 -0.3611  0.2896
 4520TIP3    H134975   2.267   1.566   2.619 -0.5247  0.5366 -1.2213
 4520TIP3    H234976   2.317   1.604   2.482  3.1166  1.0476  0.1927
 4521TIP3   OH234977   2.290   2.300  15.058 -0.2670  0.0268  0.3384
 4521TIP3    H134978   2.251   2.223  15.099 -0.8603  0.0062 -0.2495
 4521TIP3    H234979   2.285   2.369  15.125  1.8807 -0.8928  1.4940
 4522TIP3   OH234980   5.468   1.184  13.071 -0.2078  0.1715  0.2243
 4522TIP3    H134981   5.464   1.106  13.015  0.3567 -1.3667  2.2290
 4522TIP3    H234982   5.379   1.194  13.104 -0.3376  0.5222 -0.2379
 4523TIP3   OH234983   0.687   3.290   2.676  0.4585 -0.4323  0.2656
 4523TIP3    H134984   0.682   3.202   2.713 -1.5617 -0.4211  0.0921
 4523TIP3    H234985   0.613   3.336   2.715  0.6654  0.7675 -0.7401
 4524TIP3   OH234986   6.588   6.296  16.422 -0.0351  0.0754  0.7072
 4524TIP3    H134987   6.677   6.329  16.426 -1.0344  2.7079  2.9920
 4524TIP3    H234988   6.575   6.249  16.504 -1.3356  1.3973  1.2879
 4525TIP3   OH234989   3.426   3.327   3.561 -0.6744 -0.4089 -0.5554
 4525TIP3    H134990   3.367   3.256   3.584 -0.7964  0.2289  1.1985
 4525TIP3    H234991   3.472   3.297   3.482 -1.2059 -2.1243 -0.2183
 4526TIP3   OH234992   5.740   4.849   0.501  0.3011 -0.4449  0.1419
 4526TIP3    H134993   5.690   4.832   0.421  1.5447 -1.8311 -0.3534
 4526TIP3    H234994   5.675   4.883   0.563 -0.8287 -0.1596 -1.1804
 4527TIP3   OH234995   4.253   0.055   0.239  0.3582  0.1503 -0.3999
 4527TIP3    H134996   4.216   0.065   0.326 -1.0913  0.1433 -1.0060
 4527TIP3    H234997   4.348   0.060   0.252  0.0956  1.8275  0.9448
 4528TIP3   OH234998   6.053   1.153  10.946  0.6932  0.1796  0.7252
 4528TIP3    H134999   6.047   1.195  11.032 -1.7584 -0.7622  1.0748
 4528TIP3    H235000   6.054   1.225  10.884  2.0093  0.8581  1.5147
 4529TIP3   OH235001   2.002   0.412   4.508 -0.4113 -0.4863 -0.6626
 4529TIP3    H135002   2.019   0.439   4.418 -0.4553 -1.2273 -0.8990
 4529TIP3    H235003   2.004   0.316   4.505 -1.2044 -0.5248 -0.0249
 4530TIP3   OH235004   1.214   4.449   1.773  0.7584  0.3843 -0.1726
 4530TIP3    H135005   1.195   4.462   1.866 -1.0415 -0.0628 -0.4537
 4530TIP3    H235006   1.307   4.470   1.765  1.1787 -0.4825  1.9016
 4531TIP3   OH235007   0.088   1.375  12.568 -0.4113  0.0263 -0.2116
 4531TIP3    H135008   0.023   1.444  12.577 -0.5186  0.0091 -0.8106
 4531TIP3    H235009   0.066   1.312  12.636 -1.0599 -0.0088 -0.4517
 4532TIP3   OH235010   6.785   5.663   6.015 -0.5282  0.0124 -0.0996
 4532TIP3    H135011   6.876   5.635   6.001 -0.2376 -0.0164  1.8017
 4532TIP3    H235012   6.791   5.737   6.075 -1.7909 -0.1527  0.2471
 4533TIP3   OH235013   4.409   1.756   5.563 -0.0687  0.3062 -0.1719
 4533TIP3    H135014   4.385   1.813   5.636 -0.6198  1.3959 -1.1748
 4533TIP3    H235015   4.487   1.797   5.525 -0.7090  0.6294 -1.1525
 4534TIP3   OH235016   0.530   6.765  13.038  0.0052  0.1767 -0.0879
 4534TIP3    H135017   0.604   6.705  13.025 -0.1518  0.4185 -2.3015
 4534TIP3    H235018   0.572   6.849  13.060  0.2301 -0.6087  2.7172
 4535TIP3   OH235019   1.605   0.024  12.692  0.1129  0.5124  0.1402
 4535TIP3    H135020   1.634   0.009  12.782 -0.5851  1.0426  0.4583
 4535TIP3    H235021   1.676   0.075  12.652  0.3357  0.4411  0.4420
 4536TIP3   OH235022   0.140   0.353  17.118 -0.3457 -0.0023 -0.4294
 4536TIP3    H135023   0.065   0.341  17.060 -0.5985  0.8218 -0.2756
 4536TIP3    H235024   0.211   0.380  17.060 -0.4010  0.0807 -0.4602
 4537TIP3   OH235025   1.083   5.931   2.086 -0.4282 -0.1615  0.1089
 4537TIP3    H135026   1.091   5.975   2.171 -1.0613 -1.4115  0.8464
 4537TIP3    H235027   1.168   5.889   2.072  0.3052  1.6081 -0.7844
 4538TIP3   OH235028   5.405   3.629   2.728 -0.8634  0.0863  0.0919
 4538TIP3    H135029   5.419   3.628   2.822 -1.7210 -0.5046  0.2185
 4538TIP3    H235030   5.366   3.715   2.711  1.0342  0.9576  0.0003
 4539TIP3   OH235031   2.524   3.446   2.571 -0.0926 -0.0229 -0.3602
 4539TIP3    H135032   2.548   3.449   2.663  0.4937 -0.9794 -0.4718
 4539TIP3    H235033   2.579   3.376   2.534 -1.2728 -0.5462 -1.1522
 4540TIP3   OH235034   6.578   6.560  14.762  0.3713 -0.1405  0.3580
 4540TIP3    H135035   6.492   6.519  14.775  1.6546 -2.9624  0.1781
 4540TIP3    H235036   6.637   6.511  14.819  2.0701  1.1051 -0.2955
 4541TIP3   OH235037   1.968   4.485  14.489 -0.0035  0.5034 -0.1243
 4541TIP3    H135038   1.975   4.560  14.549  0.9370 -1.0070  1.6978
 4541TIP3    H235039   1.881   4.495  14.449  0.0395  2.4623  0.2132
 4542TIP3   OH235040   0.879   5.144   1.432  0.1399  0.8869  0.3732
 4542TIP3    H135041   0.953   5.090   1.404 -1.4087 -2.1316  1.8260
 4542TIP3    H235042   0.808   5.120   1.372 -0.7222  0.9265  1.3716
 4543TIP3   OH235043   6.169   1.188  11.791 -0.3571  0.1677 -0.1214
 4543TIP3    H135044   6.137   1.201  11.881 -0.3544  0.0258 -0.0997
 4543TIP3    H235045   6.129   1.259  11.742  2.2804  2.2220  0.6248
 4544TIP3   OH235046   2.292   3.166  13.695  0.1035  0.0510 -0.5825
 4544TIP3    H135047   2.351   3.231  13.733  0.6273 -0.9529  0.3305
 4544TIP3    H235048   2.280   3.101  13.764 -2.5963  0.5661 -0.5071
 4545TIP3   OH235049   6.717   4.469   0.540  0.8237 -0.4595  0.4247
 4545TIP3    H135050   6.723   4.461   0.635  0.5924 -0.9102  0.4025
 4545TIP3    H235051   6.768   4.547   0.519 -0.9290  0.9153  1.1432
 4546TIP3   OH235052   5.502   4.635   2.756 -0.7063 -0.3850  0.3864
 4546TIP3    H135053   5.484   4.728   2.772 -0.6903 -0.2818 -0.1767
 4546TIP3    H235054   5.494   4.594   2.842  2.0386  0.5747  1.1660
 4547TIP3   OH235055   5.371   3.491   4.118  0.4125  0.5380  0.0513
 4547TIP3    H135056   5.334   3.579   4.110  0.1473  0.3176 -1.1424
 4547TIP3    H235057   5.377   3.458   4.029  0.8557 -0.5227  0.4566
 4548TIP3   OH235058   2.852   4.054  11.423 -0.3419  0.3795  0.7184
 4548TIP3    H135059   2.854   3.958  11.425 -3.4352  0.2779  0.9897
 4548TIP3    H235060   2.942   4.080  11.439  0.5341 -2.4913  0.7192
 4549TIP3   OH235061   0.138   1.463   3.097  0.4405  0.2846  0.2431
 4549TIP3    H135062   0.185   1.418   3.167  3.6601  2.5585 -0.3490
 4549TIP3    H235063   0.100   1.540   3.139  2.6968  1.8615 -0.4694
 4550TIP3   OH235064   3.995   5.291   3.983 -0.0227 -0.2383 -0.5482
 4550TIP3    H135065   4.067   5.349   3.960 -0.1490 -0.2621 -1.0047
 4550TIP3    H235066   3.929   5.306   3.916 -0.2536 -0.5584 -0.3976
 4551TIP3   OH235067   0.787   2.449  12.009 -0.2753  0.0742 -0.2171
 4551TIP3    H135068   0.842   2.522  12.038 -0.4060  1.0438 -2.2974
 4551TIP3    H235069   0.697   2.478  12.026 -0.3079  0.2166 -0.6245
 4552TIP3   OH235070   3.386   2.599  11.255 -0.3549 -0.5015 -0.6440
 4552TIP3    H135071   3.383   2.588  11.160 -0.7333 -1.3209 -0.5408
 4552TIP3    H235072   3.307   2.555  11.287  0.6834 -1.8021  0.2006
 4553TIP3   OH235073   4.860   0.622  12.194  0.5397 -0.0514 -0.3713
 4553TIP3    H135074   4.874   0.570  12.273  2.0197  0.3217 -0.3731
 4553TIP3    H235075   4.779   0.587  12.156 -0.7771  0.5253  1.8841
 4554TIP3   OH235076   2.064   2.842   5.532 -0.7665 -0.3421 -0.1240
 4554TIP3    H135077   2.038   2.806   5.447 -0.2984 -1.1566  0.0744
 4554TIP3    H235078   1.982   2.848   5.582 -0.5485 -3.2717  0.6414
 4555TIP3   OH235079   3.139   0.192   4.065  0.6954  0.3081 -0.3450
 4555TIP3    H135080   3.184   0.177   4.148 -1.2080 -1.4012  0.4402
 4555TIP3    H235081   3.139   0.107   4.022 -0.1913  0.6929 -1.1186
 4556TIP3   OH235082   6.719   6.219  10.628  0.3117  0.2228 -0.2311
 4556TIP3    H135083   6.793   6.279  10.615 -0.4264  1.1975 -0.0146
 4556TIP3    H235084   6.662   6.266  10.689 -0.1232 -0.8511  0.1940
 4557TIP3   OH235085   2.399   0.960   5.719  0.9206 -0.9734 -0.1011
 4557TIP3    H135086   2.485   0.991   5.690  0.2968  0.9970  0.1143
 4557TIP3    H235087   2.374   0.895   5.654  1.7487 -0.2129 -1.1861
 4558TIP3   OH235088   0.404   5.068   4.029 -0.0662  0.2749 -0.6298
 4558TIP3    H135089   0.485   5.041   4.073  0.9768  2.4147 -1.1139
 4558TIP3    H235090   0.435   5.114   3.950 -1.8268 -0.8624 -2.0254
 4559TIP3   OH235091   0.605   1.300  12.371 -0.7062 -0.0663 -0.7359
 4559TIP3    H135092   0.689   1.344  12.360 -0.5640 -0.0884  0.2147
 4559TIP3    H235093   0.591   1.300  12.466 -1.1028 -1.3236 -0.7983
 4560TIP3   OH235094   1.628   5.792   4.073  0.2451 -0.3517  0.1884
 4560TIP3    H135095   1.634   5.798   4.169  1.3373 -0.5122  0.1326
 4560TIP3    H235096   1.573   5.715   4.057 -1.3385  0.6422  0.7040
 4561TIP3   OH235097   0.640   3.599  15.070 -0.2699 -0.5900  0.2258
 4561TIP3    H135098   0.687   3.683  15.079  1.0725 -1.1847 -1.0042
 4561TIP3    H235099   0.548   3.622  15.080  0.1805  0.7960  1.4790
 4562TIP3   OH235100   0.146   4.574   1.011  0.7280  0.2404 -0.0009
 4562TIP3    H135101   0.236   4.582   1.043  1.3475  1.1105 -1.9049
 4562TIP3    H235102   0.118   4.664   0.995 -0.4234 -0.0381  0.4004
 4563TIP3   OH235103   3.364   2.324   3.361  0.2284  0.2271  0.7414
 4563TIP3    H135104   3.357   2.367   3.276  0.1066 -1.4935 -0.1234
 4563TIP3    H235105   3.451   2.284   3.362  0.7525  1.3391  1.9666
 4564TIP3   OH235106   0.506   0.882   1.805  0.6681 -0.8539  0.7115
 4564TIP3    H135107   0.559   0.918   1.734  1.3925 -0.7649  1.2920
 4564TIP3    H235108   0.499   0.953   1.868  0.4885 -1.1122  0.9841
 4565TIP3   OH235109   3.400   4.423   0.163 -0.2139 -0.4021 -0.2742
 4565TIP3    H135110   3.340   4.425   0.089 -1.9076 -2.2525  0.9995
 4565TIP3    H235111   3.364   4.355   0.221  1.5714  0.3890  1.8064
 4566TIP3   OH235112   1.845   0.144  11.235  0.4210  0.3185  0.1429
 4566TIP3    H135113   1.809   0.095  11.161  0.7697 -2.6873  1.8719
 4566TIP3    H235114   1.936   0.160  11.212  0.9167 -1.8623  0.4798
 4567TIP3   OH235115   6.291   5.652  13.166  0.8062  0.6425 -0.2583
 4567TIP3    H135116   6.386   5.666  13.160  0.7926  0.5492 -0.7241
 4567TIP3    H235117   6.265   5.626  13.078  0.7341 -1.6823  0.4227
 4568TIP3   OH235118   3.124   3.407  15.688  0.2996  0.8801 -0.0053
 4568TIP3    H135119   3.146   3.403  15.595  0.6918 -1.0768  0.1568
 4568TIP3    H235120   3.139   3.319  15.720 -1.6618  1.0595  1.5124
 4569TIP3   OH235121   3.614   6.091   1.247 -0.3087  0.1290 -0.1101
 4569TIP3    H135122   3.688   6.048   1.203 -0.3780  0.1092 -0.2078
 4569TIP3    H235123   3.571   6.021   1.296  1.9231  0.8219  2.9878
 4570TIP3   OH235124   0.773   1.865   6.089 -0.0270  0.0244  0.4787
 4570TIP3    H135125   0.815   1.899   6.167  0.6488 -2.7085  1.3454
 4570TIP3    H235126   0.693   1.823   6.121 -0.2601 -0.2279 -0.4126
 4571TIP3   OH235127   2.018   1.846   1.003  0.1831 -0.1068  0.1017
 4571TIP3    H135128   1.926   1.848   0.977  0.4579 -0.0991 -0.9054
 4571TIP3    H235129   2.023   1.902   1.080 -0.5815  0.2507 -0.1072
 4572TIP3   OH235130   0.054   5.781   0.941 -0.0759 -0.1444 -0.2064
 4572TIP3    H135131   0.061   5.686   0.955 -2.1473 -0.4351 -1.0396
 4572TIP3    H235132   0.064   5.792   0.847 -0.4023  0.4315 -0.1725
 4573TIP3   OH235133   2.392   6.474  11.423  0.0133 -0.3146 -0.3646
 4573TIP3    H135134   2.359   6.522  11.347 -1.5954  0.8821  1.0477
 4573TIP3    H235135   2.486   6.490  11.423 -0.2424  1.3012 -0.9821
 4574TIP3   OH235136   5.244   4.549  13.074 -0.0547  0.4034  0.7643
 4574TIP3    H135137   5.320   4.601  13.099  1.0346 -0.2731 -1.0458
 4574TIP3    H235138   5.223   4.497  13.152  1.8578 -0.0034  1.0229
 4575TIP3   OH235139   1.109   0.547  17.141 -0.0025 -0.1444 -0.3758
 4575TIP3    H135140   1.058   0.609  17.089 -2.2076 -0.8895  0.8414
 4575TIP3    H235141   1.174   0.512  17.080  0.5631  2.5184 -1.3594
 4576TIP3   OH235142   2.508   0.483  10.804  0.3593 -0.0489 -0.3532
 4576TIP3    H135143   2.513   0.403  10.857  3.6405 -0.6646 -1.5030
 4576TIP3    H235144   2.566   0.544  10.848 -1.3360  1.4223 -0.0801
 4577TIP3   OH235145   0.879   5.349  13.144 -0.4942  0.4525  0.4024
 4577TIP3    H135146   0.870   5.435  13.185 -1.5528 -0.4573  2.1121
 4577TIP3    H235147   0.845   5.287  13.209  2.1435 -1.4734  0.0094
 4578TIP3   OH235148   2.252   3.629  11.174  0.3612 -0.3115  0.1782
 4578TIP3    H135149   2.298   3.708  11.201  0.8493 -0.1848 -1.0075
 4578TIP3    H235150   2.311   3.557  11.196  0.4098 -0.2644  0.2009
 4579TIP3   OH235151   1.338   1.706  13.888 -0.1672  0.2793  0.5654
 4579TIP3    H135152   1.366   1.795  13.913 -0.3160  0.4967 -0.0411
 4579TIP3    H235153   1.259   1.692  13.939 -2.5769  2.1669 -2.4537
 4580TIP3   OH235154   3.285   4.129  11.620  0.4153  0.6072 -0.0349
 4580TIP3    H135155   3.329   4.107  11.702 -0.6184 -1.8796 -0.1368
 4580TIP3    H235156   3.335   4.083  11.553  1.5884  3.0601 -0.9308
 4581TIP3   OH235157   6.589   4.526   4.073  0.4417 -0.6009 -0.2225
 4581TIP3    H135158   6.584   4.449   4.129  0.2466 -1.7757 -1.8122
 4581TIP3    H235159   6.498   4.554   4.062  0.5607  0.2263  0.8378
 4582TIP3   OH235160   6.091   0.497   5.630 -0.0085 -0.5451 -0.6283
 4582TIP3    H135161   6.120   0.475   5.541  0.0311  0.7327 -0.9462
 4582TIP3    H235162   6.157   0.558   5.663  0.0811 -1.1732  0.3563
 4583TIP3   OH235163   4.799   3.238   5.690  0.1447 -0.1367 -0.3628
 4583TIP3    H135164   4.880   3.189   5.704  0.7244 -0.0390 -3.0015
 4583TIP3    H235165   4.730   3.172   5.698  0.7281 -0.8575 -1.1754
 4584TIP3   OH235166   3.904   0.996  13.246  0.2067 -0.1660 -0.2781
 4584TIP3    H135167   3.884   1.000  13.339 -0.2677  1.5383 -0.4452
 4584TIP3    H235168   3.990   1.037  13.237  0.7346 -1.2860 -0.4667
 4585TIP3   OH235169   0.611   5.705   4.962  0.0445 -0.2236 -0.0187
 4585TIP3    H135170   0.641   5.715   5.052  2.0744  0.1515 -0.7158
 4585TIP3    H235171   0.534   5.648   4.968  2.0126 -2.7952  1.6577
 4586TIP3   OH235172   3.568   1.786   2.133 -0.2290 -0.5900 -0.0350
 4586TIP3    H135173   3.595   1.714   2.190  0.8793  0.2502  0.5390
 4586TIP3    H235174   3.647   1.839   2.124 -0.3975 -0.6880 -2.3452
 4587TIP3   OH235175   2.537   0.612   4.139  0.4248  0.8485  0.1480
 4587TIP3    H135176   2.474   0.603   4.067 -1.6649 -1.4057  2.1237
 4587TIP3    H235177   2.615   0.566   4.109 -0.0858  0.7427 -1.0410
 4588TIP3   OH235178   3.173   5.660  13.976 -0.1670 -0.5770 -0.0041
 4588TIP3    H135179   3.215   5.746  13.967 -0.6474 -0.3692 -0.3115
 4588TIP3    H235180   3.209   5.607  13.905 -1.2747 -0.0468 -0.9780
 4589TIP3   OH235181   5.286   4.324   3.371  0.2369 -0.0836  0.4572
 4589TIP3    H135182   5.281   4.306   3.277 -1.4096  0.9119  0.3269
 4589TIP3    H235183   5.226   4.398   3.384  2.1411  1.2245  1.9422
 4590TIP3   OH235184   4.286   1.325   2.681 -0.0673  0.1921  0.7596
 4590TIP3    H135185   4.229   1.276   2.740 -1.4792 -2.5995 -2.6883
 4590TIP3    H235186   4.365   1.271   2.673 -1.2571 -1.2608 -2.3523
 4591TIP3   OH235187   5.377   4.296  10.933  0.1831 -0.5348 -0.1517
 4591TIP3    H135188   5.403   4.229  10.870 -0.3059 -1.0189  0.1567
 4591TIP3    H235189   5.287   4.317  10.909 -0.4470 -1.6474  1.1648
 4592TIP3   OH235190   6.719   1.167   3.967 -0.3803  0.1664  0.0286
 4592TIP3    H135191   6.728   1.247   3.916 -1.3185  0.5203  0.4073
 4592TIP3    H235192   6.734   1.096   3.905  2.1015  0.6565  0.0418
 4593TIP3   OH235193   5.353   5.474  14.408  0.3120 -0.5617  0.0771
 4593TIP3    H135194   5.380   5.395  14.361  0.8881 -1.2654  1.5521
 4593TIP3    H235195   5.404   5.471  14.489  1.1359  1.8905 -0.3368
 4594TIP3   OH235196   0.543   6.111   0.243 -0.0023  0.1577 -0.3684
 4594TIP3    H135197   0.560   6.116   0.149  1.1363 -0.4884 -0.2079
 4594TIP3    H235198   0.563   6.199   0.275 -0.7263  0.4765 -0.7783
 4595TIP3   OH235199   5.945   4.298  17.157 -0.0753 -0.4851 -0.0914
 4595TIP3    H135200   5.985   4.342  17.082 -1.2806 -1.4545 -1.3283
 4595TIP3    H235201   6.019   4.259  17.204  0.7337  0.5623 -0.4685
 4596TIP3   OH235202   2.620   5.545   0.507 -0.6136  0.4759  0.2620
 4596TIP3    H135203   2.585   5.490   0.578  0.3033 -0.3008  0.1149
 4596TIP3    H235204   2.683   5.489   0.462 -1.5260  0.7994 -1.4630
 4597TIP3   OH235205   4.891   5.390   5.896 -0.5171 -0.7610  0.3780
 4597TIP3    H135206   4.882   5.485   5.891 -2.6980 -0.8035  2.2893
 4597TIP3    H235207   4.824   5.357   5.836  1.5588 -1.1154 -1.7896
 4598TIP3   OH235208   4.743   4.572   2.595 -0.3856  0.3670 -0.1175
 4598TIP3    H135209   4.729   4.489   2.550  1.7683 -0.7796  1.2127
 4598TIP3    H235210   4.750   4.548   2.688  1.3804  1.8480  0.1759
 4599TIP3   OH235211   0.364   1.143   1.049  0.0412  0.0289 -0.2579
 4599TIP3    H135212   0.277   1.180   1.037 -0.2976 -0.9762 -0.9511
 4599TIP3    H235213   0.418   1.188   0.984 -0.2794 -0.3976 -0.8198
 4600TIP3   OH235214   5.191   2.536  12.812  0.4611  0.0171 -0.0760
 4600TIP3    H135215   5.174   2.505  12.723 -2.5552 -0.2965  0.5551
 4600TIP3    H235216   5.133   2.610  12.823  1.1429  0.3321  1.5065
 4601TIP3   OH235217   4.243   1.930  10.764 -0.0369 -0.4425  0.2438
 4601TIP3    H135218   4.166   1.985  10.762  1.3238  1.5711  1.1190
 4601TIP3    H235219   4.210   1.843  10.787 -2.6514 -0.9140 -4.7508
 4602TIP3   OH235220   3.023   3.168   2.532 -0.5735  0.0237 -0.2054
 4602TIP3    H135221   3.061   3.172   2.444  3.8733  0.1210  1.5698
 4602TIP3    H235222   3.046   3.251   2.573 -0.7265 -0.8516  1.7375
 4603TIP3   OH235223   4.137   0.545   0.584 -0.2752  0.5111 -0.4050
 4603TIP3    H135224   4.098   0.504   0.661  0.4216 -0.7160 -0.6873
 4603TIP3    H235225   4.188   0.618   0.619  1.9043 -1.4069  0.5618
 4604TIP3   OH235226   6.110   3.307  16.662 -0.0364 -0.3208 -0.0930
 4604TIP3    H135227   6.153   3.239  16.715 -1.1332 -0.9409  0.0250
 4604TIP3    H235228   6.148   3.389  16.693  0.9710 -0.8385  0.0902
 4605TIP3   OH235229   3.278   4.879   1.172 -0.0450  0.0937 -0.4765
 4605TIP3    H135230   3.304   4.802   1.122 -0.7708  0.8802 -2.0942
 4605TIP3    H235231   3.183   4.884   1.160 -0.3821 -0.2117  1.7311
 4606TIP3   OH235232   1.482   4.773  15.040  0.3040 -0.0537  0.2004
 4606TIP3    H135233   1.519   4.741  15.122 -0.4060  0.1112  0.5948
 4606TIP3    H235234   1.527   4.724  14.972 -0.3245 -1.4496  0.7745
 4607TIP3   OH235235   0.005   2.232  14.209 -0.5440  0.1072  0.6973
 4607TIP3    H135236   0.029   2.179  14.285 -0.1382 -1.5786 -0.5757
 4607TIP3    H235237  -0.003   2.169  14.137  1.7144  1.9601 -1.2731
 4608TIP3   OH235238   4.472   3.640   5.342 -0.0642 -0.0020 -0.1176
 4608TIP3    H135239   4.432   3.555   5.325 -2.7183  0.9081  1.3389
 4608TIP3    H235240   4.398   3.699   5.354  1.7452  2.5162 -1.0028
 4609TIP3   OH235241   0.123   3.759  16.778  0.2962 -0.5080  0.3184
 4609TIP3    H135242   0.163   3.693  16.836 -1.3550 -0.9054  1.0201
 4609TIP3    H235243   0.039   3.722  16.754 -0.5887  1.2766  0.5780
 4610TIP3   OH235244   4.164   1.688  15.189  0.2149 -0.9985  0.0872
 4610TIP3    H135245   4.159   1.751  15.118  0.6896 -2.0635 -0.9099
 4610TIP3    H235246   4.094   1.624  15.170  0.8396 -1.7116  0.1527
 4611TIP3   OH235247   2.763   2.392   4.123  0.0591  0.0403 -0.5360
 4611TIP3    H135248   2.677   2.394   4.165  0.1202 -1.7514 -0.2870
 4611TIP3    H235249   2.789   2.484   4.119 -0.7894  0.4200  1.6019
 4612TIP3   OH235250   6.166   3.502  15.003  0.1741 -0.2205  0.0367
 4612TIP3    H135251   6.251   3.506  14.959 -0.6732 -1.0122 -1.7177
 4612TIP3    H235252   6.188   3.497  15.096  1.9909  2.2404 -0.2039
 4613TIP3   OH235253   2.046   5.841   6.023 -0.5535  0.1647 -0.3181
 4613TIP3    H135254   2.093   5.846   6.106  1.4418  2.2866 -1.4930
 4613TIP3    H235255   2.087   5.768   5.977 -1.5223 -0.8809  0.4437
 4614TIP3   OH235256   5.852   0.103   0.013  0.6635  0.0022  0.4558
 4614TIP3    H135257   5.837   0.171   0.079 -0.6527 -1.3311  1.5732
 4614TIP3    H235258   5.852   0.021   0.062 -0.1612 -1.0096 -1.1821
 4615TIP3   OH235259   6.590   2.336   3.051 -0.2104  0.4740  0.7698
 4615TIP3    H135260   6.643   2.389   2.991 -0.2113  0.8998  1.1494
 4615TIP3    H235261   6.573   2.393   3.126  0.5037 -0.3328  1.5616
 4616TIP3   OH235262   3.842   5.482  11.120 -0.5702  0.5627 -0.2393
 4616TIP3    H135263   3.756   5.440  11.111 -0.3681  0.0306  0.2634
 4616TIP3    H235264   3.862   5.514  11.032  0.7439 -3.3119 -1.4639
 4617TIP3   OH235265   4.376   4.867  17.106  0.3551 -0.5080 -0.5424
 4617TIP3    H135266   4.458   4.914  17.096  0.8918 -1.2082  0.4912
 4617TIP3    H235267   4.400   4.774  17.098 -0.0622 -0.8057  1.3374
 4618TIP3   OH235268   3.948   6.257  15.818  0.1362 -0.1850 -0.0053
 4618TIP3    H135269   3.870   6.228  15.771 -0.2918  2.1001 -0.7555
 4618TIP3    H235270   4.015   6.193  15.795 -0.9019 -0.8513 -1.2114
 4619TIP3   OH235271   0.477   2.885  15.011 -0.5543 -0.8032 -0.4998
 4619TIP3    H135272   0.544   2.841  14.958  0.1148 -1.0730  0.5497
 4619TIP3    H235273   0.505   2.977  15.013 -1.2225 -0.5687 -1.5789
 4620TIP3   OH235274   5.188   5.455   4.243 -0.6166  0.1762  0.3957
 4620TIP3    H135275   5.165   5.541   4.207  0.2410  1.0202  1.8133
 4620TIP3    H235276   5.104   5.411   4.254 -0.8734 -0.4830 -3.4533
 4621TIP3   OH235277   2.254   6.267   4.918 -0.0609  0.0495  0.2467
 4621TIP3    H135278   2.310   6.193   4.946 -1.1041 -0.6001  0.6412
 4621TIP3    H235279   2.296   6.300   4.839  2.9900  1.9195  2.5084
 4622TIP3   OH235280   5.003   4.398  17.077  0.3476  0.2366  0.6952
 4622TIP3    H135281   4.933   4.413  17.014  0.7545  0.3022  0.2529
 4622TIP3    H235282   4.960   4.358  17.152 -0.2016  0.5093  0.5278
 4623TIP3   OH235283   4.282   6.063   2.710 -0.2114 -0.7072  0.2198
 4623TIP3    H135284   4.275   6.052   2.805  0.0591  3.2255  0.7912
 4623TIP3    H235285   4.194   6.088   2.682 -0.1577 -1.3089 -0.4987
 4624TIP3   OH235286   6.573   4.120   2.710  0.2972  0.2896  0.1332
 4624TIP3    H135287   6.573   4.085   2.799 -0.4859  0.6684  0.2802
 4624TIP3    H235288   6.504   4.071   2.665  1.8655 -1.1434 -0.7576
 4625TIP3   OH235289   3.156   2.578   6.247  0.1876 -0.0256 -0.4265
 4625TIP3    H135290   3.145   2.553   6.339 -0.4545 -0.0380 -0.5030
 4625TIP3    H235291   3.235   2.633   6.246  1.7007 -2.1200 -0.2589
 4626TIP3   OH235292   4.016   2.966   2.567 -0.4223  0.4246 -0.3988
 4626TIP3    H135293   4.030   2.950   2.473 -0.3715 -1.0654 -0.1480
 4626TIP3    H235294   4.101   2.995   2.599  0.2793 -1.6437 -0.3079
 4627TIP3   OH235295   3.422   0.619  12.716 -0.2795  0.3014 -0.0751
 4627TIP3    H135296   3.433   0.607  12.622  0.2574  1.9397 -0.2316
 4627TIP3    H235297   3.357   0.688  12.724 -0.9284 -0.4022  0.7692
 4628TIP3   OH235298   5.939   0.277  12.947 -0.1042 -0.0420  0.1754
 4628TIP3    H135299   5.942   0.192  12.902  0.0110 -0.8917  1.7717
 4628TIP3    H235300   6.016   0.324  12.914 -1.7725  0.6189 -2.9562
 4629TIP3   OH235301   5.833   0.161  14.815 -0.1611 -0.3511  0.1464
 4629TIP3    H135302   5.903   0.114  14.860 -0.3886 -0.8064  0.0319
 4629TIP3    H235303   5.859   0.253  14.819 -0.4523 -0.3152  1.6998
 4630TIP3   OH235304   5.040   1.410   1.442 -0.0906  0.0733  0.4699
 4630TIP3    H135305   5.098   1.461   1.386  1.5463 -0.0077  2.0676
 4630TIP3    H235306   5.014   1.335   1.388  1.2348  0.1266 -0.2554
 4631TIP3   OH235307   1.172   4.228  13.083  0.1144 -0.1793  0.3841
 4631TIP3    H135308   1.164   4.278  13.164 -0.1821 -1.4002  1.1173
 4631TIP3    H235309   1.213   4.288  13.021  0.2459  0.7907  1.4097
 4632TIP3   OH235310   3.923   1.296   2.021  0.4430 -0.6418  0.0244
 4632TIP3    H135311   3.859   1.236   2.060  0.1919 -0.0232  0.5714
 4632TIP3    H235312   3.878   1.333   1.945  0.9338 -1.8512 -0.8730
 4633TIP3   OH235313   5.490   0.026  16.632  0.0791 -0.1702  0.5054
 4633TIP3    H135314   5.441   0.053  16.710 -0.3266 -0.0624  0.2168
 4633TIP3    H235315   5.561   0.091  16.625  0.5357 -0.5881  1.1776
 4634TIP3   OH235316   6.736   0.608   0.076  0.2076 -0.1113  0.1037
 4634TIP3    H135317   6.689   0.662   0.012  0.5874  1.6902  1.3275
 4634TIP3    H235318   6.714   0.518   0.051 -2.0732  0.6376 -0.7231
 4635TIP3   OH235319   3.869   4.772   6.275  0.1450 -0.5712  0.1219
 4635TIP3    H135320   3.838   4.831   6.344 -2.1047 -0.8017 -0.6448
 4635TIP3    H235321   3.791   4.754   6.222  1.5351 -1.5228 -1.6528
 4636TIP3   OH235322   5.638   0.828   2.450 -0.2616  0.2476 -0.6749
 4636TIP3    H135323   5.715   0.771   2.444  0.2898  0.9995 -0.7986
 4636TIP3    H235324   5.636   0.875   2.367  0.2664  1.6567  0.0956
 4637TIP3   OH235325   0.827   1.155  13.483 -0.8685  0.0923  0.2681
 4637TIP3    H135326   0.742   1.181  13.448 -0.7645  0.0325 -0.0311
 4637TIP3    H235327   0.870   1.237  13.507 -0.7658  0.1607 -0.1497
 4638TIP3   OH235328   2.805   5.411   1.040  0.1168  0.3313 -0.2909
 4638TIP3    H135329   2.856   5.331   1.034  1.3451  1.0594  0.1612
 4638TIP3    H235330   2.815   5.439   1.132 -1.5371  0.1962 -0.0643
 4639TIP3   OH235331   5.515   2.091   4.046  0.2037  0.1130  0.4672
 4639TIP3    H135332   5.444   2.155   4.053  0.6934  0.7315 -0.1323
 4639TIP3    H235333   5.502   2.032   4.120 -1.0182  0.1333  0.2752
 4640TIP3   OH235334   3.821   0.867  12.489 -0.1539  0.0171 -0.0649
 4640TIP3    H135335   3.791   0.956  12.510 -2.3412 -0.6107 -0.3966
 4640TIP3    H235336   3.879   0.878  12.414  1.8043  1.4453  1.5948
 4641TIP3   OH235337   0.458   6.583   3.362  0.2993  0.5766  0.1439
 4641TIP3    H135338   0.509   6.660   3.383  1.2074  0.0687 -0.1891
 4641TIP3    H235339   0.522   6.512   3.355 -0.3142  0.1364 -1.2938
 4642TIP3   OH235340   1.380   2.713  17.049 -0.1301  0.2365 -0.1627
 4642TIP3    H135341   1.358   2.620  17.052 -0.7690  0.4183  1.3672
 4642TIP3    H235342   1.429   2.724  16.967  2.7660 -2.0623  1.1811
 4643TIP3   OH235343   4.875   5.097  12.684 -0.2236 -0.2836  0.3037
 4643TIP3    H135344   4.815   5.043  12.633  0.7206 -2.2848  1.2416
 4643TIP3    H235345   4.866   5.066  12.774 -0.2331  1.6721  1.0124
 4644TIP3   OH235346   2.068   4.511  11.205  1.4348 -0.1446 -0.3902
 4644TIP3    H135347   2.160   4.486  11.195  1.2718 -0.6614 -0.5837
 4644TIP3    H235348   2.024   4.431  11.234  0.8286 -0.2106 -1.4804
 4645TIP3   OH235349   5.398   4.792  13.141 -0.4558  0.1143  0.2676
 4645TIP3    H135350   5.491   4.809  13.153 -0.7700  0.8704  1.6623
 4645TIP3    H235351   5.361   4.878  13.120 -0.8799 -0.1417 -0.0361
 4646TIP3   OH235352   3.063   1.920  14.659 -0.2321  0.3448 -0.5571
 4646TIP3    H135353   2.991   1.876  14.704 -0.7210 -0.2377 -1.8981
 4646TIP3    H235354   3.140   1.866  14.681 -0.2929  0.6350  0.3910
 4647TIP3   OH235355   0.341   1.765   1.858 -0.4200  0.0243  0.8756
 4647TIP3    H135356   0.331   1.687   1.803  0.0968 -0.2461  1.1655
 4647TIP3    H235357   0.375   1.732   1.941  0.9980  0.7069  0.5666
 4648TIP3   OH235358   4.223   2.066  14.044 -0.0390 -0.6779  0.4790
 4648TIP3    H135359   4.147   2.075  13.987 -1.0467 -0.8201  1.7808
 4648TIP3    H235360   4.230   1.972  14.061  0.4405 -0.6682  0.3567
 4649TIP3   OH235361   1.854   5.593   0.946  0.1663  0.3208 -0.3110
 4649TIP3    H135362   1.868   5.623   0.857  2.2416  0.0587 -0.1060
 4649TIP3    H235363   1.821   5.670   0.993 -0.7819  0.4961 -1.2675
 4650TIP3   OH235364   0.469   0.830   4.738 -0.4215 -0.4497  0.6192
 4650TIP3    H135365   0.563   0.825   4.754 -0.2079  0.9093 -0.1045
 4650TIP3    H235366   0.430   0.768   4.799  1.0772 -2.3481 -0.3163
 4651TIP3   OH235367   1.051   3.395   4.498  0.2499 -0.2080 -0.2536
 4651TIP3    H135368   0.980   3.419   4.438  0.6303 -1.4741 -1.2314
 4651TIP3    H235369   1.007   3.348   4.570 -0.1456  0.8598  0.2036
 4652TIP3   OH235370   6.348   4.530   1.855 -0.4482  0.5329  0.4865
 4652TIP3    H135371   6.368   4.441   1.827  1.0039  1.0400 -0.1424
 4652TIP3    H235372   6.275   4.520   1.916 -0.3658 -1.0717  0.3483
 4653TIP3   OH235373   1.509   5.870  16.488  0.3452  0.1712  0.2881
 4653TIP3    H135374   1.508   5.794  16.545 -2.4479 -1.0302 -1.2519
 4653TIP3    H235375   1.465   5.939  16.537  2.0227  0.5421  1.3086
 4654TIP3   OH235376   1.442   0.159   3.137  0.5019 -0.0827  0.3016
 4654TIP3    H135377   1.522   0.210   3.124 -0.7254  1.2341 -2.5082
 4654TIP3    H235378   1.378   0.222   3.170 -0.5077 -0.1383 -1.4453
 4655TIP3   OH235379   5.480   2.459  15.864  0.7735 -0.5864  0.1866
 4655TIP3    H135380   5.394   2.463  15.822  0.7628 -1.1344  0.1605
 4655TIP3    H235381   5.535   2.515  15.809  0.1033  0.8882  0.9968
 4656TIP3   OH235382   2.094   1.662   5.599 -0.1455  0.5818 -0.3688
 4656TIP3    H135383   2.053   1.722   5.661  0.0924  2.5452 -2.0300
 4656TIP3    H235384   2.176   1.705   5.575  1.2378 -1.6171  0.2664
 4657TIP3   OH235385   5.223   0.893  12.222  0.0709  0.0488  0.2140
 4657TIP3    H135386   5.269   0.910  12.304 -0.9132 -0.0742  0.7968
 4657TIP3    H235387   5.170   0.971  12.207  1.3864  0.7035 -1.0842
 4658TIP3   OH235388   4.463   0.355  16.146  0.2249  0.5950 -0.8414
 4658TIP3    H135389   4.532   0.384  16.088 -0.2308  0.5725 -1.3968
 4658TIP3    H235390   4.405   0.431  16.154  1.3372  1.2779  1.1890
 4659TIP3   OH235391   3.424   4.073   3.954  0.4306  0.3874 -0.2075
 4659TIP3    H135392   3.442   4.047   3.863 -0.1729 -3.1520  0.6167
 4659TIP3    H235393   3.329   4.083   3.958  0.2845 -1.1574  0.4298
 4660TIP3   OH235394   0.454   1.399   4.103  0.1501  0.1342  0.0328
 4660TIP3    H135395   0.525   1.358   4.153  0.2366 -1.0472 -1.0334
 4660TIP3    H235396   0.386   1.332   4.098  0.0238  0.3324 -1.1733
 4661TIP3   OH235397   1.748   6.248  14.521  0.0484 -0.2012 -0.6759
 4661TIP3    H135398   1.717   6.159  14.539 -0.3025 -0.0406 -0.4978
 4661TIP3    H235399   1.682   6.305  14.558  0.5532  0.1446 -0.2956
 4662TIP3   OH235400   4.900   0.933  14.161 -0.1732  1.2103  0.1816
 4662TIP3    H135401   4.866   0.853  14.122 -0.4785  1.3623  0.1342
 4662TIP3    H235402   4.960   0.968  14.095  0.6259  0.5703  0.5582
 4663TIP3   OH235403   4.896   2.350  14.927 -0.3897  0.3947  0.0453
 4663TIP3    H135404   4.883   2.256  14.942  1.0404  0.2835  0.6666
 4663TIP3    H235405   4.945   2.380  15.004  0.0250  1.4452 -0.6152
 4664TIP3   OH235406   4.782   5.005   2.248  0.0306 -0.2455  0.4539
 4664TIP3    H135407   4.745   4.955   2.321  0.5860 -0.7690  0.3784
 4664TIP3    H235408   4.714   5.069   2.227  0.8633  1.5687  3.0719
 4665TIP3   OH235409   0.682   0.019   0.921  0.1990  0.1253  0.2790
 4665TIP3    H135410   0.777   0.012   0.923  0.2560  0.6925 -0.0635
 4665TIP3    H235411   0.651  -0.070   0.904  0.6323 -0.2206  1.3085
 4666TIP3   OH235412   4.222   4.593  13.115 -0.3104 -0.8213  0.0435
 4666TIP3    H135413   4.225   4.630  13.027  0.7836 -1.1852 -0.0834
 4666TIP3    H235414   4.291   4.526  13.115 -0.9867 -1.5300  0.8602
 4667TIP3   OH235415   3.251   4.692  12.768 -0.0730  0.3372 -0.4966
 4667TIP3    H135416   3.320   4.652  12.822 -0.4142  0.5196  0.0724
 4667TIP3    H235417   3.238   4.629  12.696  1.0391  0.5436 -0.8841
 4668TIP3   OH235418   2.838   6.653  16.255  0.2592  0.0952  0.1475
 4668TIP3    H135419   2.860   6.561  16.272  1.0633  0.0132 -1.2693
 4668TIP3    H235420   2.749   6.663  16.287  0.1303 -1.2067  0.2185
 4669TIP3   OH235421   2.370   1.794  16.548  0.1737  0.4156 -0.2909
 4669TIP3    H135422   2.318   1.824  16.623 -1.2577  0.3784 -1.2412
 4669TIP3    H235423   2.316   1.816  16.472  1.2549 -0.2596 -1.2593
 4670TIP3   OH235424   5.618   4.204  15.476  0.3697  0.4729 -0.8393
 4670TIP3    H135425   5.665   4.214  15.559  0.0330  0.6265 -0.6693
 4670TIP3    H235426   5.583   4.115  15.480 -1.6553  1.2949  0.2176
 4671TIP3   OH235427   6.461   1.574   5.114  0.2920 -0.1444 -0.0805
 4671TIP3    H135428   6.487   1.559   5.205 -3.4345 -0.6611  0.9687
 4671TIP3    H235429   6.496   1.499   5.066  1.6915 -0.2132  1.0206
 4672TIP3   OH235430   1.476   1.033  14.954 -0.3749 -0.3474  0.9199
 4672TIP3    H135431   1.479   0.943  14.922 -1.5399 -0.1124  0.0657
 4672TIP3    H235432   1.459   1.085  14.875  1.4948  0.7380  1.2227
 4673TIP3   OH235433   0.693   6.601   6.603 -0.1476 -0.1067 -0.5613
 4673TIP3    H135434   0.743   6.616   6.523  0.6724  0.9189  0.1261
 4673TIP3    H235435   0.708   6.679   6.656  0.4332 -1.3595  1.1811
 4674TIP3   OH235436   0.392   3.283   6.056  0.1428  0.4185  0.3789
 4674TIP3    H135437   0.467   3.341   6.070  0.8250  0.0543 -1.5924
 4674TIP3    H235438   0.421   3.223   5.987 -1.1691 -1.1767  1.1953
 4675TIP3   OH235439   1.723   2.228   2.472  0.2272 -0.1281 -0.4698
 4675TIP3    H135440   1.680   2.143   2.456 -0.4306  0.4457 -1.7989
 4675TIP3    H235441   1.664   2.292   2.433  0.1104  1.0744  1.5934
 4676TIP3   OH235442   2.380   0.276  14.829 -0.5411 -0.3280 -0.1066
 4676TIP3    H135443   2.351   0.224  14.755  0.2933 -0.7332 -0.1550
 4676TIP3    H235444   2.350   0.365  14.810  0.5342 -0.2423 -1.3945
 4677TIP3   OH235445   5.377   3.636   5.306 -0.4841 -0.8945 -0.0932
 4677TIP3    H135446   5.466   3.668   5.318 -1.0780  0.6538  0.2497
 4677TIP3    H235447   5.387   3.553   5.259  1.0669 -0.2378 -0.9158
 4678TIP3   OH235448   1.415   1.036  12.240  0.0814  0.2907 -0.2040
 4678TIP3    H135449   1.354   0.962  12.244  0.4951  0.0577  2.2255
 4678TIP3    H235450   1.493   1.000  12.197 -0.7317  0.0627 -1.5144
 4679TIP3   OH235451   1.379   0.712   1.204  0.2193 -0.2214 -0.7719
 4679TIP3    H135452   1.410   0.662   1.129  0.0689  0.0733 -1.0348
 4679TIP3    H235453   1.318   0.654   1.249  0.3413 -0.4127 -0.8526
 4680TIP3   OH235454   2.398   1.050  13.354  0.3581 -0.1551 -1.0748
 4680TIP3    H135455   2.317   1.002  13.342  0.8718 -1.0638 -0.9477
 4680TIP3    H235456   2.410   1.056  13.448  0.4820 -0.0983 -1.0935
 4681TIP3   OH235457   6.420   2.820   3.389  0.6407  0.3464 -0.4027
 4681TIP3    H135458   6.431   2.910   3.419  0.0978  0.3524 -0.2236
 4681TIP3    H235459   6.385   2.773   3.464  0.5829  0.0646 -0.6037
 4682TIP3   OH235460   5.019   2.734  12.878  0.4456  0.0757 -0.1157
 4682TIP3    H135461   5.081   2.805  12.863 -0.8958  1.3185  0.1624
 4682TIP3    H235462   4.968   2.730  12.798  0.1272 -0.1919  0.1031
 4683TIP3   OH235463   0.097   4.849   2.775 -0.0793  0.2962 -0.1620
 4683TIP3    H135464   0.097   4.800   2.693  0.0603  0.1128 -0.0516
 4683TIP3    H235465   0.005   4.864   2.794 -0.1532 -0.5544  0.1794
 4684TIP3   OH235466   1.318   0.245  13.189  0.3235  0.0097 -0.0754
 4684TIP3    H135467   1.397   0.298  13.180  0.6707 -0.4921 -0.0152
 4684TIP3    H235468   1.330   0.174  13.125 -0.1150 -0.0187 -0.1231
 4685TIP3   OH235469   2.820   3.925  15.349  0.8099  0.5834 -0.2542
 4685TIP3    H135470   2.761   3.982  15.400  1.7073  0.9281  0.4050
 4685TIP3    H235471   2.761   3.875  15.293  0.0179  2.5245 -1.2230
 4686TIP3   OH235472   5.456   2.634  13.264 -0.0881  0.0653  0.2036
 4686TIP3    H135473   5.509   2.632  13.185 -0.5029  0.8026 -0.1040
 4686TIP3    H235474   5.450   2.727  13.286 -1.2757 -0.0066  0.2138
 4687TIP3   OH235475   0.310   2.795  12.884 -0.4354  0.1315 -0.4063
 4687TIP3    H135476   0.290   2.721  12.942 -1.0597  0.5293 -0.1159
 4687TIP3    H235477   0.367   2.757  12.817  2.8243  0.3324  2.1287
 4688TIP3   OH235478   0.737   1.843  14.074 -1.1029  0.1839 -0.1328
 4688TIP3    H135479   0.772   1.778  14.135 -1.4632  0.7966  0.7382
 4688TIP3    H235480   0.678   1.897  14.127 -2.3726 -0.0360 -1.2956
 4689TIP3   OH235481   3.587   2.941  10.692 -0.1859  0.4019 -0.0614
 4689TIP3    H135482   3.530   3.003  10.736 -0.4185  1.6765 -2.0874
 4689TIP3    H235483   3.533   2.863  10.679 -1.9168  2.0534 -3.1127
 4690TIP3   OH235484   6.767   6.590  12.927  0.0178  0.3992 -0.0220
 4690TIP3    H135485   6.707   6.588  12.852  0.5061 -1.9632 -0.3697
 4690TIP3    H235486   6.854   6.579  12.889  0.1280 -2.6582  1.0001
 4691TIP3   OH235487   6.418   5.999  15.237 -0.1105 -0.5077  0.6432
 4691TIP3    H135488   6.503   6.037  15.212  0.6537 -1.2317  2.0571
 4691TIP3    H235489   6.435   5.905  15.243 -1.0313 -0.6589  0.9267
 4692TIP3   OH235490   1.727   6.622   1.715 -0.6044 -0.8758 -0.0193
 4692TIP3    H135491   1.783   6.579   1.779 -0.1325  1.0423  0.9156
 4692TIP3    H235492   1.758   6.590   1.630  0.4639 -1.5047  0.5921
 4693TIP3   OH235493   2.340   6.261  13.607 -0.3611 -0.2963  0.3746
 4693TIP3    H135494   2.402   6.319  13.563 -0.7546 -0.3710 -0.2860
 4693TIP3    H235495   2.279   6.234  13.538 -0.0056 -1.7334  0.6157
 4694TIP3   OH235496   0.697   6.590  15.685 -0.1460 -0.0508 -0.2238
 4694TIP3    H135497   0.736   6.664  15.732 -0.8437 -1.3199  2.4321
 4694TIP3    H235498   0.741   6.590  15.600  1.3395  2.1518  0.4995
 4695TIP3   OH235499   1.325   0.556   5.769  0.1486  0.5136 -0.2741
 4695TIP3    H135500   1.395   0.606   5.810 -0.0264 -0.2096  0.9423
 4695TIP3    H235501   1.360   0.467   5.763 -0.7958  0.0469  0.7453
 4696TIP3   OH235502   2.659   5.902  14.622 -0.5342  0.6348 -0.3101
 4696TIP3    H135503   2.612   5.890  14.539 -0.5881  0.0188 -0.1932
 4696TIP3    H235504   2.590   5.913  14.687 -0.5088  0.2442 -0.2161
 4697TIP3   OH235505   3.144   4.361  16.383 -0.4013  0.0894  0.4569
 4697TIP3    H135506   3.114   4.270  16.384 -1.0846  0.3209  1.7307
 4697TIP3    H235507   3.080   4.407  16.329 -0.2016 -0.1242  0.0307
 4698TIP3   OH235508   3.868   1.292  13.349 -0.5379 -0.3629  0.6393
 4698TIP3    H135509   3.810   1.239  13.294 -0.6266  0.5379 -0.1682
 4698TIP3    H235510   3.879   1.242  13.429  2.0106 -3.1382 -1.3500
 4699TIP3   OH235511   1.733   2.711  12.836 -0.1834 -0.0656  0.2786
 4699TIP3    H135512   1.726   2.793  12.885  0.7748  2.1673 -3.1479
 4699TIP3    H235513   1.647   2.669  12.848 -0.6421  1.3539  2.1916
 4700TIP3   OH235514   4.547   6.777  14.952 -0.1797 -0.4020 -0.1055
 4700TIP3    H135515   4.505   6.786  14.866 -0.6503  1.7810  0.3221
 4700TIP3    H235516   4.486   6.723  15.002 -1.3818  0.7959 -0.2316
 4701TIP3   OH235517   1.723   0.953   3.384  0.0231  0.5711  0.0180
 4701TIP3    H135518   1.789   0.974   3.318  0.1054  0.7764  0.1675
 4701TIP3    H235519   1.653   1.017   3.370  0.8634  1.8024  1.3430
 4702TIP3   OH235520   1.928   5.085  13.892 -0.1334  0.3011  0.7594
 4702TIP3    H135521   1.923   5.177  13.865 -1.4241 -0.5681 -2.1576
 4702TIP3    H235522   2.022   5.065  13.893  0.0351  0.6674 -2.3299
 4703TIP3   OH235523   3.857   1.000  11.597  0.1702 -0.6352 -0.3912
 4703TIP3    H135524   3.853   1.006  11.692  2.3699 -1.1597 -0.2283
 4703TIP3    H235525   3.814   1.079  11.566 -1.9044 -1.1902  0.9936
 4704TIP3   OH235526   5.006   1.958   0.987 -0.0994 -0.0066  0.4429
 4704TIP3    H135527   4.986   1.949   0.894 -1.0016  0.4231  0.5908
 4704TIP3    H235528   5.081   2.018   0.990  1.0509 -1.3835 -0.0964
 4705TIP3   OH235529   3.633   4.299   3.787  0.0619  0.1552 -0.2507
 4705TIP3    H135530   3.574   4.363   3.827 -0.2488 -0.4255  0.2209
 4705TIP3    H235531   3.699   4.282   3.854  0.1585  0.0002 -0.3855
 4706TIP3   OH235532   4.497   6.417   4.262  0.0430 -0.7532  0.2685
 4706TIP3    H135533   4.471   6.371   4.342  0.0842 -0.4046  0.4833
 4706TIP3    H235534   4.417   6.419   4.209 -0.4230  0.4508  0.9933
 4707TIP3   OH235535   2.531   4.809  16.542  0.4722 -0.5838  0.1278
 4707TIP3    H135536   2.549   4.782  16.632  0.3185  0.4299  0.4675
 4707TIP3    H235537   2.593   4.879  16.524  0.4901 -0.7679 -0.5509
 4708TIP3   OH235538   0.770   6.555  14.286  0.3881 -0.2771 -0.2689
 4708TIP3    H135539   0.806   6.475  14.247 -0.9063 -1.1304  0.2557
 4708TIP3    H235540   0.784   6.622  14.220  4.5965 -0.1371  0.6061
 4709TIP3   OH235541   6.308   1.694   0.350 -0.2231 -0.0436  0.2825
 4709TIP3    H135542   6.309   1.752   0.274 -0.5832 -1.0402 -0.5009
 4709TIP3    H235543   6.307   1.753   0.426  2.2372  0.9583 -0.4347
 4710TIP3   OH235544   0.562   6.337  15.278 -0.0473  0.0725  0.1251
 4710TIP3    H135545   0.606   6.374  15.201 -0.5858  1.6749  0.5734
 4710TIP3    H235546   0.631   6.294  15.327  0.1347 -1.8139 -1.7543
 4711TIP3   OH235547   0.516   6.499  10.862  0.5858  0.4272 -0.2334
 4711TIP3    H135548   0.530   6.536  10.775 -0.8501  0.1850 -0.5715
 4711TIP3    H235549   0.552   6.565  10.922  2.0075  0.3861 -1.0061
 4712TIP3   OH235550   2.159   1.338   3.450 -0.0902 -0.5141  0.0231
 4712TIP3    H135551   2.124   1.285   3.521  1.3022 -0.2805  0.8815
 4712TIP3    H235552   2.238   1.378   3.485 -0.7310  1.5926 -0.8317
 4713TIP3   OH235553   5.591   5.125   1.959  0.3426  0.4775 -0.1935
 4713TIP3    H135554   5.548   5.062   1.902 -1.6493  1.6133 -0.0176
 4713TIP3    H235555   5.536   5.127   2.038  1.2441  1.2680  0.4310
 4714TIP3   OH235556   1.617   1.550   1.588 -0.3423 -0.1664 -0.4494
 4714TIP3    H135557   1.698   1.512   1.553 -0.0977 -0.3692  0.3084
 4714TIP3    H235558   1.606   1.631   1.540  1.6940  1.1193  1.1583
 4715TIP3   OH235559   5.504   0.192   0.248  0.0894  0.0362  0.4500
 4715TIP3    H135560   5.517   0.162   0.338  0.4251  0.1402  0.4354
 4715TIP3    H235561   5.520   0.287   0.252 -0.0894  0.0728  0.3196
 4716TIP3   OH235562   5.683   2.629   5.433 -0.2190 -0.6363  0.2635
 4716TIP3    H135563   5.703   2.562   5.498  1.2753 -0.6052 -0.1464
 4716TIP3    H235564   5.600   2.600   5.394 -1.0354 -0.7449  2.0218
 4717TIP3   OH235565   3.476   3.683   1.262 -0.2022 -0.2671  0.1039
 4717TIP3    H135566   3.459   3.775   1.240  0.2425  0.2633  1.9073
 4717TIP3    H235567   3.448   3.635   1.185 -2.5308  1.2136 -0.0369
 4718TIP3   OH235568   1.410   1.806  13.196 -0.6377 -0.1134  0.3840
 4718TIP3    H135569   1.485   1.758  13.233 -0.7258  0.2268  1.0118
 4718TIP3    H235570   1.428   1.898  13.216 -0.7910  0.0510 -0.2471
 4719TIP3   OH235571   1.470   0.657   2.766 -0.6515 -0.5954 -0.2825
 4719TIP3    H135572   1.384   0.623   2.739 -0.6255  0.6582 -2.0200
 4719TIP3    H235573   1.518   0.579   2.792 -2.0651 -1.4078 -0.0305
 4720TIP3   OH235574   1.227   0.911  11.596  0.4975  0.2645 -0.1733
 4720TIP3    H135575   1.198   0.870  11.514  0.1713  1.8257 -0.8692
 4720TIP3    H235576   1.158   0.892  11.659 -0.5831  1.3445 -1.0033
 4721TIP3   OH235577   0.724   3.486  11.817 -0.3061 -0.2858 -0.2849
 4721TIP3    H135578   0.790   3.517  11.879 -0.3929  1.4365 -1.0168
 4721TIP3    H235579   0.650   3.460  11.872  0.7495 -1.7018  0.5064
 4722TIP3   OH235580   5.380   2.273   5.058  0.0350  0.4656  0.2262
 4722TIP3    H135581   5.329   2.349   5.086  0.8346  1.2043 -0.2909
 4722TIP3    H235582   5.318   2.219   5.009 -0.3629  1.1425 -0.0263
 4723TIP3   OH235583   1.568   2.040   3.267  0.9842  0.4999 -0.1946
 4723TIP3    H135584   1.639   2.100   3.290  1.1665  0.2557 -0.1147
 4723TIP3    H235585   1.591   1.959   3.312 -0.2824  0.9595  1.3285
 4724TIP3   OH235586   0.891   2.875  12.664  0.1909 -0.6210 -0.3431
 4724TIP3    H135587   0.985   2.891  12.662  0.1368 -0.4315 -1.6075
 4724TIP3    H235588   0.857   2.943  12.723  0.6084  0.6055 -1.4917
 4725TIP3   OH235589   1.374   3.215  14.570  0.4871 -0.1296  0.6085
 4725TIP3    H135590   1.300   3.154  14.564  1.7652 -1.7338  0.8925
 4725TIP3    H235591   1.378   3.238  14.663  1.0572 -0.9478  0.7889
 4726TIP3   OH235592   0.159   0.893   5.649 -0.0920 -0.0157 -0.0029
 4726TIP3    H135593   0.081   0.864   5.696  0.2677 -0.1491  0.5121
 4726TIP3    H235594   0.206   0.948   5.712 -0.0783  0.5576 -0.5145
 4727TIP3   OH235595   2.263   1.780  14.973  0.3314  0.1926 -0.2591
 4727TIP3    H135596   2.336   1.830  15.011 -0.3807  0.8540  0.2563
 4727TIP3    H235597   2.212   1.845  14.925 -1.7649  0.3802  2.1311
 4728TIP3   OH235598   3.288   5.932  15.814 -0.4268 -0.3253  0.7185
 4728TIP3    H135599   3.261   5.997  15.749  0.8601 -0.6485 -0.1807
 4728TIP3    H235600   3.211   5.917  15.868 -0.8656  1.6276  0.6617
 4729TIP3   OH235601   3.573   3.007  15.273  0.2325 -0.0765 -0.2148
 4729TIP3    H135602   3.644   3.071  15.271  0.8324 -0.6490  1.5621
 4729TIP3    H235603   3.593   2.951  15.348 -1.1066 -1.3982 -0.8096
 4730TIP3   OH235604   4.253   1.653  13.832  0.0638 -0.1883  0.0459
 4730TIP3    H135605   4.195   1.686  13.764  0.9844  0.3367 -0.4969
 4730TIP3    H235606   4.250   1.558  13.822 -0.5893 -0.1611 -0.0549
 4731TIP3   OH235607   6.238   0.303  14.122 -0.0352 -0.6366 -0.0204
 4731TIP3    H135608   6.333   0.303  14.109 -0.1112 -1.3582 -0.6028
 4731TIP3    H235609   6.227   0.308  14.217  0.5763  0.1942  0.0066
 4732TIP3   OH235610   6.121   1.571   3.227  0.2344  0.5362 -0.9217
 4732TIP3    H135611   6.206   1.565   3.269  0.4279  0.7491 -1.2754
 4732TIP3    H235612   6.065   1.616   3.291 -0.4469 -2.3004  0.5454
 4733TIP3   OH235613   2.674   2.670  16.259  0.1295  0.1788 -0.6742
 4733TIP3    H135614   2.607   2.735  16.281  1.8573  2.2307 -1.2875
 4733TIP3    H235615   2.688   2.682  16.165 -0.2537 -1.8043 -0.9963
 4734TIP3   OH235616   6.161   4.922   0.758  0.1783 -0.4632 -0.1292
 4734TIP3    H135617   6.085   4.894   0.709 -1.2689  0.0054  1.7819
 4734TIP3    H235618   6.185   5.007   0.721 -1.6151  0.4407  0.7011
 4735TIP3   OH235619   4.582   2.613  10.703  0.2968 -0.5127  0.2694
 4735TIP3    H135620   4.501   2.599  10.654  1.5628  2.5027 -2.8995
 4735TIP3    H235621   4.560   2.681  10.767  0.0592 -0.4518  0.1224
 4736TIP3   OH235622   4.333   1.270   2.274 -1.0892  0.3377 -0.2345
 4736TIP3    H135623   4.319   1.176   2.263 -1.1635  0.2534  0.5776
 4736TIP3    H235624   4.428   1.278   2.287 -1.3898  0.0994  2.3461
 4737TIP3   OH235625   2.672   2.320   4.870 -0.5308 -0.3614 -0.3382
 4737TIP3    H135626   2.700   2.390   4.810  0.7481 -1.2274 -0.7753
 4737TIP3    H235627   2.613   2.363   4.931  1.1763  1.3667  0.1346
 4738TIP3   OH235628   1.896   5.491  11.480  0.0621 -0.5771 -0.0475
 4738TIP3    H135629   1.866   5.400  11.476  0.6250 -0.8485  1.3648
 4738TIP3    H235630   1.829   5.537  11.529  0.7967 -0.6879  1.0776
 4739TIP3   OH235631   0.602   0.731  15.338  0.3986 -0.4045 -0.2315
 4739TIP3    H135632   0.550   0.690  15.408  0.1969 -0.3275 -0.3350
 4739TIP3    H235633   0.636   0.657  15.287  1.0674 -0.4838  0.3170
 4740TIP3   OH235634   3.935   2.120  15.260  0.5136  0.0340  0.2457
 4740TIP3    H135635   3.926   2.027  15.276  1.2512  0.2373  1.9886
 4740TIP3    H235636   3.880   2.137  15.184  0.6842 -1.8788 -0.3249
 4741TIP3   OH235637   0.642   0.567  13.691 -0.4349  0.4165  0.2330
 4741TIP3    H135638   0.568   0.628  13.693  0.5129  1.6285 -0.6195
 4741TIP3    H235639   0.603   0.483  13.669 -1.4904  1.1488 -0.7426
 4742TIP3   OH235640   1.846   2.049  16.402 -0.1799  0.0867  0.2144
 4742TIP3    H135641   1.883   1.966  16.371 -0.3095 -0.1445  0.6792
 4742TIP3    H235642   1.884   2.115  16.344 -2.0310 -0.5496 -1.8216
 4743TIP3   OH235643   0.540   5.946   0.836 -0.2400 -0.2354  0.0463
 4743TIP3    H135644   0.561   5.931   0.744  0.2637 -2.5512  0.5215
 4743TIP3    H235645   0.621   5.923   0.883 -0.7491  0.1687  1.1295
 4744TIP3   OH235646   3.559   6.061   5.593  0.0859  0.3951 -0.1757
 4744TIP3    H135647   3.504   6.065   5.514 -0.4155 -1.8533  0.0214
 4744TIP3    H235648   3.496   6.051   5.664  0.7036 -1.7713  0.0953
 4745TIP3   OH235649   6.372   6.362   4.050  0.2339  0.0580 -0.0461
 4745TIP3    H135650   6.419   6.421   3.991 -0.0896  0.8207  0.4607
 4745TIP3    H235651   6.329   6.300   3.991  1.2239 -0.1741 -0.5484
 4746TIP3   OH235652   3.716   0.581   3.656 -0.1178 -0.0585 -0.0059
 4746TIP3    H135653   3.664   0.602   3.734 -0.9276  2.1759 -1.0872
 4746TIP3    H235654   3.657   0.599   3.582  1.4483  0.3858 -1.1904
 4747TIP3   OH235655   5.380   4.841  16.198  0.3573 -0.8158 -0.0213
 4747TIP3    H135656   5.410   4.926  16.232  0.5344 -0.6477 -0.5952
 4747TIP3    H235657   5.428   4.830  16.116 -1.5131 -0.3178 -1.1981
 4748TIP3   OH235658   4.333   2.158   6.186  0.0689 -0.4861  0.0498
 4748TIP3    H135659   4.425   2.131   6.181  0.1483 -0.4262  1.0954
 4748TIP3    H235660   4.306   2.136   6.275 -0.6599  0.3804  0.0504
 4749TIP3   OH235661   6.436   6.343   5.540  0.2474  0.4445  0.0529
 4749TIP3    H135662   6.530   6.361   5.536  0.1639  0.7514 -0.5410
 4749TIP3    H235663   6.401   6.413   5.595  0.2343  0.8626 -0.4834
 4750TIP3   OH235664   2.906   0.253  11.626  0.1112 -0.1073  0.4165
 4750TIP3    H135665   2.818   0.260  11.664  0.1534 -0.7060  0.6264
 4750TIP3    H235666   2.908   0.166  11.586  0.6391 -0.1291  0.4876
 4751TIP3   OH235667   5.411   1.691  14.217 -0.3520 -0.3160  0.1146
 4751TIP3    H135668   5.382   1.773  14.256 -0.0491  0.1233 -0.5799
 4751TIP3    H235669   5.435   1.714  14.127 -1.6067 -1.4235 -0.5196
 4752TIP3   OH235670   1.154   2.685  16.465 -0.5420  0.3320  0.3077
 4752TIP3    H135671   1.199   2.703  16.382  0.9270 -0.1340  1.0065
 4752TIP3    H235672   1.216   2.710  16.533 -0.8504 -1.4846  1.2861
 4753TIP3   OH235673   1.850   3.157  16.260  0.0576  0.0547  0.0669
 4753TIP3    H135674   1.759   3.132  16.244 -0.0685  0.8596 -0.4962
 4753TIP3    H235675   1.862   3.239  16.211  0.6397  0.7759  1.3856
 4754TIP3   OH235676   2.693   2.253   1.701 -0.1493  0.1869  0.4031
 4754TIP3    H135677   2.741   2.333   1.724  0.4001  0.2363 -0.8835
 4754TIP3    H235678   2.624   2.282   1.642 -0.6399 -0.1359  0.8205
 4755TIP3   OH235679   4.560   1.410   4.247 -0.3829  0.2531 -0.9759
 4755TIP3    H135680   4.601   1.343   4.301 -1.7026  0.7512  0.7134
 4755TIP3    H235681   4.572   1.380   4.157  1.7308 -0.6782 -0.4165
 4756TIP3   OH235682   5.879   4.614   2.045 -0.4103  0.2739 -0.1254
 4756TIP3    H135683   5.807   4.677   2.037 -2.0073 -1.5117 -0.1939
 4756TIP3    H235684   5.859   4.564   2.124  0.4816 -0.5733 -0.4244
 4757TIP3   OH235685   6.252   3.357   2.443 -0.2074 -0.4355 -0.1202
 4757TIP3    H135686   6.347   3.364   2.436 -0.2159 -0.9178 -0.7133
 4757TIP3    H235687   6.238   3.301   2.520 -0.0207 -0.1691  0.1102
 4758TIP3   OH235688   2.153   3.180  12.960  0.1724  0.4231  0.3378
 4758TIP3    H135689   2.236   3.134  12.977 -0.8547 -0.6741  2.5921
 4758TIP3    H235690   2.091   3.111  12.939 -0.5963  1.0737  0.4420
 4759TIP3   OH235691   4.386   2.119   4.931 -1.1335 -0.0498 -0.2023
 4759TIP3    H135692   4.383   2.127   4.835 -0.1979 -0.4021 -0.2672
 4759TIP3    H235693   4.330   2.043   4.949 -0.3374 -0.7483 -0.5855
 4760TIP3   OH235694   0.781   0.554  14.564 -0.2004 -0.1752  0.2977
 4760TIP3    H135695   0.707   0.568  14.505  1.1058  0.7624 -1.1704
 4760TIP3    H235696   0.741   0.529  14.647 -2.1258 -0.5310 -0.6948
 4761TIP3   OH235697   2.143   2.333  12.160  0.0113  0.6175  0.3732
 4761TIP3    H135698   2.075   2.340  12.092 -0.4032 -1.3674  0.5472
 4761TIP3    H235699   2.103   2.373  12.237  0.9694  4.0949 -0.8458
 4762TIP3   OH235700   3.893   4.607  12.771 -0.3785  0.3671 -0.2625
 4762TIP3    H135701   3.851   4.547  12.832  0.8139  0.5503  0.7588
 4762TIP3    H235702   3.848   4.691  12.786  0.9558  0.8127  1.5490
 4763TIP3   OH235703   2.640   6.453   0.082  0.0052 -0.0367 -0.0355
 4763TIP3    H135704   2.650   6.362   0.110  2.3510 -0.2830 -1.5086
 4763TIP3    H235705   2.695   6.503   0.141  0.8438  0.0813 -0.9040
 4764TIP3   OH235706   3.956   5.646  13.137  0.0859  0.4386 -0.0175
 4764TIP3    H135707   4.027   5.710  13.143  0.4945 -0.0926  0.8436
 4764TIP3    H235708   3.954   5.603  13.222 -3.8440  3.1263  1.3406
 4765TIP3   OH235709   5.440   4.929  10.986  0.5412  0.0274 -0.2916
 4765TIP3    H135710   5.393   4.979  10.919  0.7508  0.2506 -0.2761
 4765TIP3    H235711   5.530   4.925  10.954  0.0347 -2.5046 -1.5368
 4766TIP3   OH235712   0.446   4.572   2.741  0.5431 -0.1518 -0.3188
 4766TIP3    H135713   0.487   4.655   2.767 -0.0990 -0.1810  0.8479
 4766TIP3    H235714   0.502   4.538   2.672  1.6412  0.5407  0.2100
 4767TIP3   OH235715   0.311   6.458   2.705 -0.0638  0.4407  0.2850
 4767TIP3    H135716   0.357   6.503   2.776 -0.7658 -1.0007  1.6843
 4767TIP3    H235717   0.377   6.403   2.664  0.6403  2.1789 -1.0076
 4768TIP3   OH235718   3.815   5.097   0.314  0.2915  0.4030  0.3116
 4768TIP3    H135719   3.873   5.133   0.382  1.2914 -0.0250 -0.3084
 4768TIP3    H235720   3.729   5.092   0.357  0.9695 -0.1520  1.6597
 4769TIP3   OH235721   4.361   4.999   5.084 -0.3819 -0.6337 -0.4793
 4769TIP3    H135722   4.455   5.019   5.079 -0.5760  0.2344 -0.6992
 4769TIP3    H235723   4.330   5.009   4.994 -0.8727 -0.0183 -0.2400
 4770TIP3   OH235724   0.641   6.591   4.599  0.7164  0.1586 -0.5458
 4770TIP3    H135725   0.735   6.589   4.586  0.5989 -0.3552 -1.3857
 4770TIP3    H235726   0.611   6.662   4.543  0.8007  1.5360  1.1266
 4771TIP3   OH235727   1.464   4.259  10.827 -0.1278 -0.2254 -0.1840
 4771TIP3    H135728   1.517   4.181  10.843 -0.0151 -0.0143  0.4574
 4771TIP3    H235729   1.474   4.275  10.733  1.1130 -0.0662 -0.0349
 4772TIP3   OH235730   2.973   4.741   4.203  0.4112 -0.4714 -0.0525
 4772TIP3    H135731   2.989   4.825   4.158 -0.8935  0.4323  1.1352
 4772TIP3    H235732   3.056   4.694   4.196  0.9434  0.6239 -1.3625
 4773TIP3   OH235733   6.227   0.160  16.351  0.5674  0.7347 -0.0959
 4773TIP3    H135734   6.156   0.220  16.377 -0.4883 -0.1621 -0.9057
 4773TIP3    H235735   6.183   0.080  16.323  2.0277 -1.1445  2.6908
 4774TIP3   OH235736   6.318   6.228   1.210  0.1183 -0.3525  0.1495
 4774TIP3    H135737   6.380   6.251   1.140  1.8431 -2.0192  1.0865
 4774TIP3    H235738   6.348   6.278   1.286 -0.5258 -0.1172  0.2507
 4775TIP3   OH235739   0.003   2.147   3.057  0.1873  0.1886  0.1100
 4775TIP3    H135740  -0.068   2.209   3.044  0.2071  0.2172  0.1410
 4775TIP3    H235741   0.069   2.195   3.107 -0.9605 -0.6644  2.5390
 4776TIP3   OH235742   2.817   6.296   1.944 -0.1328 -0.2857  0.2384
 4776TIP3    H135743   2.769   6.216   1.924  0.0312 -0.7665  1.7122
 4776TIP3    H235744   2.828   6.295   2.039  1.3725  0.6278  0.0965
 4777TIP3   OH235745   0.409   4.622  16.433  0.7539  0.5084  0.0381
 4777TIP3    H135746   0.422   4.578  16.518  0.9565  1.5202  0.5417
 4777TIP3    H235747   0.498   4.645  16.405  0.4219  3.8790  1.5611
 4778TIP3   OH235748   6.178   3.044  12.994  0.3630 -0.1771 -0.0930
 4778TIP3    H135749   6.131   2.995  12.926 -0.2415  0.8281 -0.4256
 4778TIP3    H235750   6.251   2.988  13.018  1.0215 -0.2426 -2.1182
 4779TIP3   OH235751   4.409   6.244   4.453 -0.1960  0.4866 -0.1311
 4779TIP3    H135752   4.440   6.257   4.543 -1.2097 -0.2882  0.3369
 4779TIP3    H235753   4.341   6.177   4.460  1.1606 -1.1357 -1.7542
 4780TIP3   OH235754   5.497   5.118  16.653 -0.1478  0.3655 -0.2272
 4780TIP3    H135755   5.459   5.193  16.699 -0.0743  0.1034  0.2638
 4780TIP3    H235756   5.433   5.048  16.664 -0.3254  0.4292 -0.8925
 4781TIP3   OH235757   1.944   4.958  14.414 -0.2081 -0.1822  0.3488
 4781TIP3    H135758   1.921   5.039  14.369  1.4137 -0.3560 -0.8737
 4781TIP3    H235759   1.999   4.986  14.487 -2.2802  0.0494  1.8385
 4782TIP3   OH235760   6.110   5.884  15.344 -0.0510 -0.0488 -0.1626
 4782TIP3    H135761   6.196   5.915  15.315  0.2326 -1.0587 -0.4041
 4782TIP3    H235762   6.050   5.953  15.317  0.6368  0.5085 -0.2863
 4783TIP3   OH235763   1.943   6.421  12.365  0.2274  0.0316 -0.0911
 4783TIP3    H135764   1.910   6.369  12.438  3.7391 -1.9076  0.2526
 4783TIP3    H235765   1.964   6.506  12.404  1.1405 -0.6636  0.9762
 4784TIP3   OH235766   0.373   2.508  13.663 -0.1571 -0.9879 -0.3355
 4784TIP3    H135767   0.345   2.494  13.573 -2.7395 -0.0129  0.2514
 4784TIP3    H235768   0.321   2.445  13.714 -1.0595  0.6029  0.7694
 4785TIP3   OH235769   2.707   3.152   4.951 -0.0837 -0.5772 -0.1092
 4785TIP3    H135770   2.698   3.244   4.975  0.1884 -0.7582  0.7134
 4785TIP3    H235771   2.792   3.147   4.907  0.0454 -0.4925  0.1308
 4786TIP3   OH235772   4.761   5.378  11.684  0.2544 -0.2669  0.5596
 4786TIP3    H135773   4.674   5.362  11.721  0.0545 -0.8305 -0.1535
 4786TIP3    H235774   4.818   5.315  11.727 -0.0862 -1.3158 -0.4909
 4787TIP3   OH235775   2.246   2.374   1.425  0.0760  0.5788 -0.6470
 4787TIP3    H135776   2.233   2.454   1.476  2.8849 -0.4613  1.8534
 4787TIP3    H235777   2.188   2.310   1.464  1.1274  0.1949  0.3150
 4788TIP3   OH235778   4.968   1.923  15.501 -0.5504 -0.1720  0.4285
 4788TIP3    H135779   5.043   1.893  15.553 -0.6081 -0.3789  0.3905
 4788TIP3    H235780   4.945   1.849  15.445  0.6554  0.6591 -1.2095
 4789TIP3   OH235781   3.994   0.674   5.675 -0.2297  0.2174 -0.6080
 4789TIP3    H135782   3.978   0.598   5.619 -0.4104 -0.6254  0.5845
 4789TIP3    H235783   3.908   0.698   5.709 -0.2290  1.1898 -1.2699
 4790TIP3   OH235784   1.917   5.531   0.580 -0.5098 -0.2930  0.4250
 4790TIP3    H135785   1.967   5.459   0.616 -1.1547 -0.5762  0.7528
 4790TIP3    H235786   1.892   5.501   0.492 -0.4694 -0.3209  0.4231
 4791TIP3   OH235787   2.016   0.286   5.692  0.2589  0.2357  0.0830
 4791TIP3    H135788   2.017   0.280   5.788  0.6266  0.2171  0.0813
 4791TIP3    H235789   2.001   0.378   5.673  3.3544  0.8215  0.1908
 4792TIP3   OH235790   5.097   5.839   5.159  0.0439  0.0008  0.6355
 4792TIP3    H135791   5.157   5.852   5.086 -0.4242 -0.3933  0.1726
 4792TIP3    H235792   5.014   5.875   5.127 -0.1520 -0.1446  0.9846
 4793TIP3   OH235793   0.865   0.152  11.636 -0.7416  0.7459 -0.0656
 4793TIP3    H135794   0.792   0.156  11.573 -1.6952 -0.9328  0.8909
 4793TIP3    H235795   0.929   0.214  11.602 -2.8245  2.6140 -0.6718
 4794TIP3   OH235796   0.972   3.839   5.591 -0.4215  0.0502  0.0560
 4794TIP3    H135797   0.985   3.752   5.629 -1.2993  0.4498  1.3158
 4794TIP3    H235798   0.895   3.829   5.534 -0.8093  0.0915  0.5600
 4795TIP3   OH235799   1.906   5.192  14.268  0.1314  0.7748  0.5167
 4795TIP3    H135800   1.954   5.273  14.286 -0.4322  1.6150 -1.6446
 4795TIP3    H235801   1.859   5.209  14.187  0.1111 -1.7756 -0.0648
 4796TIP3   OH235802   0.053   2.429  16.853 -0.3972 -0.6879  0.2883
 4796TIP3    H135803  -0.027   2.476  16.874  0.4348  0.7259  0.4112
 4796TIP3    H235804   0.052   2.352  16.910 -1.1685 -0.1502  1.0144
 4797TIP3   OH235805   3.394   4.782   1.404  0.2232  0.1427  0.2207
 4797TIP3    H135806   3.357   4.837   1.334  0.4143 -0.5709 -0.4455
 4797TIP3    H235807   3.318   4.749   1.451  0.0650  0.0887 -0.0679
 4798TIP3   OH235808   0.942   3.912  13.417 -0.5651 -0.3585  0.3126
 4798TIP3    H135809   0.909   3.822  13.416 -2.2707  0.2574 -1.4334
 4798TIP3    H235810   1.035   3.903  13.439 -0.6103 -2.5916 -0.3141
 4799TIP3   OH235811   4.514   2.517  14.181 -0.5067 -0.0365  0.5569
 4799TIP3    H135812   4.556   2.570  14.114 -1.4247 -1.1435 -0.9054
 4799TIP3    H235813   4.421   2.539  14.175 -0.3834  1.2264  2.7203
 4800TIP3   OH235814   2.867   2.611   1.350 -0.1616 -0.3501  0.2429
 4800TIP3    H135815   2.906   2.548   1.289 -1.5761 -0.2502 -0.7731
 4800TIP3    H235816   2.848   2.560   1.429 -0.2972 -0.9493 -0.1756
 4801TIP3   OH235817   4.643   3.092  11.887  0.1765  0.3607 -0.0751
 4801TIP3    H135818   4.548   3.092  11.898  0.1607  0.1667 -0.2184
 4801TIP3    H235819   4.658   3.115  11.796  0.2820  0.7952  0.0479
 4802TIP3   OH235820   0.347   4.680   1.356 -0.5094  0.0545 -0.5567
 4802TIP3    H135821   0.254   4.695   1.338 -0.3307  0.0679 -1.4668
 4802TIP3    H235822   0.358   4.585   1.350 -1.0305 -0.2314  2.3123
 4803TIP3   OH235823   0.790   4.058  15.259 -0.2484  0.0214  0.0770
 4803TIP3    H135824   0.774   4.087  15.349  0.1440 -1.3903  0.6180
 4803TIP3    H235825   0.842   4.128  15.220  0.6495  0.0608  1.3315
 4804TIP3   OH235826   0.116   2.728  11.721  0.4696 -0.2814  0.0774
 4804TIP3    H135827   0.144   2.819  11.704 -0.5121  0.4972  2.4457
 4804TIP3    H235828   0.028   2.736  11.758  0.8767 -2.1096  1.5133
 4805TIP3   OH235829   6.349   1.529  11.338  0.2053  0.3285  0.0312
 4805TIP3    H135830   6.351   1.474  11.260  1.8666  0.3481  0.0494
 4805TIP3    H235831   6.321   1.471  11.408 -0.5447  0.1280 -0.4355
 4806TIP3   OH235832   1.300   1.765  11.478 -0.1524 -0.3371  0.1536
 4806TIP3    H135833   1.242   1.789  11.406 -0.3215  0.5402  0.5848
 4806TIP3    H235834   1.356   1.696  11.442 -0.6974 -0.3778 -0.6073
 4807TIP3   OH235835   0.238   6.102  11.816  0.1970  0.3608  0.4576
 4807TIP3    H135836   0.277   6.176  11.769 -1.1475  0.9311  0.2051
 4807TIP3    H235837   0.294   6.028  11.795  0.2287  0.8302 -1.1818
 4808TIP3   OH235838   1.657   0.111  16.745  0.1258  0.4344 -1.3928
 4808TIP3    H135839   1.566   0.106  16.773 -0.2123 -1.0938 -2.6975
 4808TIP3    H235840   1.659   0.183  16.681 -0.5287 -0.6472 -2.6503
 4809TIP3   OH235841   0.650   0.044  12.180  0.4633  0.1308  0.1640
 4809TIP3    H135842   0.676  -0.048  12.176 -0.5094 -0.1861  0.7753
 4809TIP3    H235843   0.684   0.074  12.264 -1.4513 -0.4054  1.1705
 4810TIP3   OH235844   5.449   1.497   5.086 -0.0110  0.7493  0.2455
 4810TIP3    H135845   5.521   1.517   5.026  1.1254  1.0460  1.6865
 4810TIP3    H235846   5.380   1.461   5.030  1.3881  0.1378 -1.0925
 4811TIP3   OH235847   5.042   0.501   1.625 -0.3583 -0.1097  0.5284
 4811TIP3    H135848   5.000   0.553   1.556  0.5937  3.3395  2.4343
 4811TIP3    H235849   4.973   0.484   1.688 -0.3647 -0.0703  0.5319
 4812TIP3   OH235850   0.740   4.111   1.820 -0.2213  0.2132  0.0501
 4812TIP3    H135851   0.728   4.057   1.742 -0.3141 -1.3949  1.1421
 4812TIP3    H235852   0.835   4.114   1.833 -0.1813  0.8827 -0.3985
 4813TIP3   OH235853   0.571   2.575   6.294 -0.0895  0.1467  0.4592
 4813TIP3    H135854   0.649   2.522   6.282  0.2000  0.6442  0.1310
 4813TIP3    H235855   0.555   2.575   6.389 -0.9905 -1.8087  0.3289
 4814TIP3   OH235856   5.788   5.958  13.795  0.2224  0.6075  0.0049
 4814TIP3    H135857   5.826   6.004  13.870 -0.2082 -1.5093  1.5804
 4814TIP3    H235858   5.791   5.866  13.820  0.7147 -0.2086 -2.9108
 4815TIP3   OH235859   5.605   2.766   6.473 -1.0785 -0.2966  0.1064
 4815TIP3    H135860   5.640   2.700   6.413  0.4051 -0.0005  0.6370
 4815TIP3    H235861   5.524   2.727   6.506 -1.4409 -0.8432 -1.3916
 4816TIP3   OH235862   0.152   0.305  13.995  0.2102  1.0297  0.2555
 4816TIP3    H135863   0.176   0.298  13.902 -0.7374  0.6048  0.0325
 4816TIP3    H235864   0.111   0.221  14.015  1.6492  0.5957  1.4493
 4817TIP3   OH235865   0.295   3.717  13.569 -0.0867  0.1529 -0.4686
 4817TIP3    H135866   0.240   3.660  13.624 -0.0277  0.4152 -0.1370
 4817TIP3    H235867   0.376   3.728  13.620 -0.2580  0.8674 -0.3492
 4818TIP3   OH235868   0.650   4.796   3.007  0.0220 -0.0423  0.7086
 4818TIP3    H135869   0.700   4.718   2.983 -1.2727 -1.0182  1.1484
 4818TIP3    H235870   0.621   4.832   2.923  1.1639  0.3294  0.4710
 4819TIP3   OH235871   2.224   4.936  15.214  0.1007  0.0523 -0.1064
 4819TIP3    H135872   2.293   4.965  15.153 -0.4990  0.2172 -0.7057
 4819TIP3    H235873   2.195   5.017  15.257 -0.5238  0.1317 -0.6854
 4820TIP3   OH235874   5.406   1.907   3.071  0.9021 -0.1887 -0.5108
 4820TIP3    H135875   5.437   1.997   3.081  1.3595 -0.3877 -0.1173
 4820TIP3    H235876   5.456   1.858   3.136 -0.7885 -0.3835  0.6625
 4821TIP3   OH235877   4.743   4.140  12.578 -0.3407  0.1258 -0.0935
 4821TIP3    H135878   4.772   4.128  12.668 -0.8247  0.9577  0.1767
 4821TIP3    H235879   4.649   4.159  12.585  0.1343  2.8629 -0.5631
 4822TIP3   OH235880   6.773   6.569  12.605 -0.0729 -0.1542 -0.2711
 4822TIP3    H135881   6.811   6.610  12.527  1.7138 -0.6931  0.3030
 4822TIP3    H235882   6.706   6.631  12.634 -0.5515  0.2073 -2.0311
 4823TIP3   OH235883   1.575   1.823   1.976 -0.5265  0.1850  0.3632
 4823TIP3    H135884   1.608   1.909   2.004  0.0779 -0.3676  1.3528
 4823TIP3    H235885   1.509   1.800   2.041  1.2787 -1.3511  1.6975
 4824TIP3   OH235886   4.937   2.903  13.804 -0.3381 -0.1092  0.0655
 4824TIP3    H135887   4.997   2.896  13.729  0.8429 -0.7538  1.0638
 4824TIP3    H235888   4.994   2.917  13.879 -1.4831 -0.2178  0.9624
 4825TIP3   OH235889   3.919   3.318  14.409  0.3088 -0.3168 -0.1096
 4825TIP3    H135890   3.838   3.350  14.368 -1.0201 -3.1222  0.1974
 4825TIP3    H235891   3.986   3.332  14.343 -0.8711 -0.0492 -1.2802
 4826TIP3   OH235892   5.907   0.315  13.426 -0.3785  0.1928 -0.2056
 4826TIP3    H135893   6.003   0.318  13.425 -0.3250 -1.1736  0.2143
 4826TIP3    H235894   5.881   0.338  13.337  0.3756 -0.6093 -0.6334
 4827TIP3   OH235895   2.853   0.240   4.094  0.0122  0.4001 -0.6447
 4827TIP3    H135896   2.948   0.252   4.106 -0.0366  1.2164 -1.0360
 4827TIP3    H235897   2.815   0.324   4.120 -0.7411 -0.4094  0.9421
 4828TIP3   OH235898   2.382   2.387  11.307  0.1977 -0.0382  0.2025
 4828TIP3    H135899   2.361   2.411  11.397 -1.1993 -1.2858  0.2242
 4828TIP3    H235900   2.464   2.337  11.314 -0.4061 -0.9349  0.8885
 4829TIP3   OH235901   4.516   5.378  17.130  0.0603  0.3007 -0.0216
 4829TIP3    H135902   4.536   5.305  17.072  0.4770  0.1005  0.3739
 4829TIP3    H235903   4.475   5.339  17.207 -0.3191  0.5472 -0.0948
 4830TIP3   OH235904   5.873   3.636   5.444  0.4297 -0.1274 -0.2051
 4830TIP3    H135905   5.857   3.725   5.476  0.3429  0.2866 -1.3722
 4830TIP3    H235906   5.797   3.586   5.475  0.7322  0.0728  0.8977
 4831TIP3   OH235907   1.981   6.050  12.783  0.1940  0.4248 -1.2008
 4831TIP3    H135908   1.955   6.109  12.712  1.1826  1.8521 -0.4202
 4831TIP3    H235909   1.969   6.102  12.863  1.2774 -0.3614 -0.5091
 4832TIP3   OH235910   4.642   1.174  10.882  0.3803  0.7010  0.2003
 4832TIP3    H135911   4.681   1.249  10.927 -0.5566  1.2532  0.0892
 4832TIP3    H235912   4.549   1.194  10.877  0.3699  0.3155 -1.3524
 4833TIP3   OH235913   2.053   2.856   1.320  0.0806 -0.3858 -0.1053
 4833TIP3    H135914   2.107   2.933   1.301 -1.4393  1.0584  1.2134
 4833TIP3    H235915   2.009   2.837   1.238  1.9867 -1.0955 -0.9786
 4834TIP3   OH235916   3.275   2.559  16.791  0.2349 -0.0656  0.2816
 4834TIP3    H135917   3.321   2.641  16.810 -2.9339  1.5123  1.5644
 4834TIP3    H235918   3.243   2.529  16.876 -0.8339 -1.2748 -0.5228
 4835TIP3   OH235919   4.876   0.318   4.712 -0.3550  0.4004  0.1681
 4835TIP3    H135920   4.868   0.413   4.721 -0.6287  0.3216  0.7772
 4835TIP3    H235921   4.789   0.285   4.736  0.1069 -0.0883  1.2024
 4836TIP3   OH235922   0.525   3.428   2.453 -0.3134 -0.0870  0.3267
 4836TIP3    H135923   0.554   3.339   2.433  2.3985  0.9622 -0.6010
 4836TIP3    H235924   0.521   3.431   2.549 -0.5658 -1.2479  0.3603
 4837TIP3   OH235925   5.959   4.562   3.217 -0.2498 -0.5432 -0.1125
 4837TIP3    H135926   5.914   4.646   3.224 -0.6541 -0.5424 -2.4047
 4837TIP3    H235927   6.042   4.576   3.263 -1.1640  0.4705  1.2568
 4838TIP3   OH235928   1.622   5.744   4.381 -0.2837 -0.0916 -0.7213
 4838TIP3    H135929   1.616   5.652   4.353  1.4160 -0.1410 -0.9745
 4838TIP3    H235930   1.710   5.752   4.417 -0.3859  1.4755 -0.8115
 4839TIP3   OH235931   4.778   4.262   1.702  0.2419 -0.2154  0.0634
 4839TIP3    H135932   4.730   4.345   1.698 -0.0015 -0.3505  0.2133
 4839TIP3    H235933   4.810   4.259   1.792 -0.3616 -0.6357  0.2624
 4840TIP3   OH235934   6.751   3.965   1.440 -0.0661  0.3748  0.0271
 4840TIP3    H135935   6.779   4.034   1.379 -1.5032  1.5179  0.6156
 4840TIP3    H235936   6.757   4.006   1.526  1.1166 -0.9482  0.5828
 4841TIP3   OH235937   5.321   6.411  12.059 -0.2015  0.1131 -0.5598
 4841TIP3    H135938   5.340   6.357  12.136 -0.6482 -1.8181 -1.7771
 4841TIP3    H235939   5.407   6.434  12.023 -0.0070  0.4671  0.1121
 4842TIP3   OH235940   3.503   0.209   5.212  0.3668 -0.6773 -0.1435
 4842TIP3    H135941   3.487   0.172   5.298  0.9761 -0.9883 -0.1619
 4842TIP3    H235942   3.541   0.137   5.161 -0.1995 -0.5644 -0.7385
 4843TIP3   OH235943   3.392   5.796  10.427 -0.2761 -0.0171  0.4486
 4843TIP3    H135944   3.476   5.830  10.397 -0.3526 -0.2039  0.0235
 4843TIP3    H235945   3.362   5.738  10.357 -1.1854  0.7485  0.1828
 4844TIP3   OH235946   4.607   6.381   0.251  0.1930  0.1672 -0.5291
 4844TIP3    H135947   4.525   6.342   0.221  0.1122  0.3386 -0.5299
 4844TIP3    H235948   4.611   6.465   0.207 -0.2450  0.7056  0.4476
 4845TIP3   OH235949   2.018   0.884  16.515 -0.6691 -0.2603 -0.7149
 4845TIP3    H135950   2.049   0.869  16.605  0.2024  1.1974 -0.7525
 4845TIP3    H235951   1.955   0.955  16.523 -0.8867 -0.3939 -1.2112
 4846TIP3   OH235952   6.543   3.798  15.856 -0.0922  0.2048  0.1383
 4846TIP3    H135953   6.538   3.854  15.933 -0.7320 -3.0261  2.5488
 4846TIP3    H235954   6.473   3.734  15.869 -1.5432  0.7467 -4.1483
 4847TIP3   OH235955   2.813   2.554   0.552 -0.6252 -0.3464 -0.2786
 4847TIP3    H135956   2.750   2.627   0.557  0.1838  0.3615 -0.3083
 4847TIP3    H235957   2.897   2.594   0.574 -0.2521 -1.3863  0.1866
 4848TIP3   OH235958   1.023   0.390  15.718 -0.4053  0.6436 -0.3316
 4848TIP3    H135959   1.074   0.466  15.745  1.3143 -0.3135 -0.8600
 4848TIP3    H235960   0.932   0.418  15.730  0.1549  3.1806 -1.6093
 4849TIP3   OH235961   4.271   1.315  16.563  0.2807 -0.6437 -0.0490
 4849TIP3    H135962   4.229   1.305  16.648  0.4337  0.5813  0.1781
 4849TIP3    H235963   4.224   1.254  16.506  1.5085 -3.0009  1.3623
 4850TIP3   OH235964   4.735   0.668   5.183 -0.1200  0.4574  0.3093
 4850TIP3    H135965   4.736   0.648   5.089  0.9180  0.5424  0.3008
 4850TIP3    H235966   4.654   0.627   5.215 -0.0157 -0.3583 -0.4535
 4851TIP3   OH235967   1.112   5.698   1.508 -0.3237  0.0249 -0.4844
 4851TIP3    H135968   1.089   5.610   1.537 -2.8379  0.6169 -0.4995
 4851TIP3    H235969   1.029   5.747   1.513  1.2801  2.7064  0.6674
 4852TIP3   OH235970   1.849   5.916   3.554 -0.1799 -0.0055 -0.1220
 4852TIP3    H135971   1.784   5.985   3.540  0.4988  0.8952  1.0880
 4852TIP3    H235972   1.858   5.874   3.469 -0.8025  1.2148 -0.8001
 4853TIP3   OH235973   4.339   4.088  11.525 -0.4491  0.4290 -0.5841
 4853TIP3    H135974   4.250   4.089  11.561  0.0883 -0.6183  0.8366
 4853TIP3    H235975   4.356   4.179  11.501 -0.5870  1.3605  2.5428
 4854TIP3   OH235976   2.696   2.701  15.986  0.4174  0.1033 -0.3702
 4854TIP3    H135977   2.701   2.728  15.894  2.4304 -1.2512 -0.6767
 4854TIP3    H235978   2.787   2.692  16.013 -0.1287  1.6116  2.1280
 4855TIP3   OH235979   3.182   4.196  12.108 -0.0448  0.1459  0.2406
 4855TIP3    H135980   3.271   4.226  12.086 -0.0308  0.7061  1.0441
 4855TIP3    H235981   3.124   4.262  12.070 -0.1609 -0.6682 -1.0233
 4856TIP3   OH235982   2.672   5.073   3.568  0.4079  0.3355  0.3717
 4856TIP3    H135983   2.701   4.982   3.560  0.4468  0.5010 -1.7110
 4856TIP3    H235984   2.577   5.068   3.561  0.4285  0.4821 -0.0151
 4857TIP3   OH235985   5.609   1.140   1.435  0.0749 -0.2703 -0.6441
 4857TIP3    H135986   5.656   1.117   1.354  0.9873  0.3382 -0.3063
 4857TIP3    H235987   5.635   1.073   1.498 -0.0657 -0.3330 -0.6527
 4858TIP3   OH235988   6.551   6.045  15.824  0.1393 -0.1169 -0.1014
 4858TIP3    H135989   6.599   5.972  15.786 -1.6423 -0.6522 -1.4243
 4858TIP3    H235990   6.607   6.078  15.894  2.4793 -0.5962 -1.7077
 4859TIP3   OH235991   4.903   1.502   1.667 -0.2976 -0.2710  0.3301
 4859TIP3    H135992   4.966   1.437   1.635 -0.2943  0.4120 -1.0698
 4859TIP3    H235993   4.947   1.586   1.655 -0.7560  0.0698  1.0586
 4860TIP3   OH235994   4.197   3.839  14.920  0.0637  0.6348  0.2218
 4860TIP3    H135995   4.219   3.891  14.998  1.5959  0.9915 -0.4209
 4860TIP3    H235996   4.130   3.778  14.950  0.6711  0.7324  1.8442
 4861TIP3   OH235997   1.678   3.921   4.736 -0.7052  0.1210  0.0892
 4861TIP3    H135998   1.586   3.895   4.732 -0.4263 -0.6542 -1.6890
 4861TIP3    H235999   1.716   3.864   4.803 -1.3555 -0.0364  0.3299
 4862TIP3   OH236000   2.068   2.385   0.322 -0.2210 -0.8922  0.1061
 4862TIP3    H136001   2.003   2.319   0.301 -3.4034  2.5330 -1.2998
 4862TIP3    H236002   2.137   2.373   0.256 -1.4008 -1.9103 -0.9562
 4863TIP3   OH236003   6.482   1.825  11.764  0.2278 -0.6967  0.5926
 4863TIP3    H136004   6.480   1.777  11.681  0.2795 -1.3087  0.9444
 4863TIP3    H236005   6.486   1.917  11.738  0.4195 -0.8924 -0.0871
 4864TIP3   OH236006   0.867   6.634   3.653  0.3976 -0.0701 -0.2052
 4864TIP3    H136007   0.890   6.662   3.564 -0.1098  1.3028  0.0938
 4864TIP3    H236008   0.909   6.699   3.710  0.5559 -0.8345  0.5608
 4865TIP3   OH236009   6.624   3.752   0.724  0.4772  0.1643  0.1826
 4865TIP3    H136010   6.555   3.810   0.757  1.1366  1.6698 -1.0248
 4865TIP3    H236011   6.637   3.779   0.633  2.4749 -0.2659  0.3180
 4866TIP3   OH236012   1.717   2.876   4.667 -0.3406  0.1289  0.0579
 4866TIP3    H136013   1.651   2.844   4.606 -1.7193 -0.1637  1.6705
 4866TIP3    H236014   1.712   2.971   4.661 -1.1717  0.1098  0.4507
 4867TIP3   OH236015   6.593   6.716   4.583  0.4937 -0.4423 -0.1829
 4867TIP3    H136016   6.641   6.771   4.645 -0.8193 -0.7432  1.1095
 4867TIP3    H236017   6.655   6.646   4.562  1.1491 -0.0378  0.3537
 4868TIP3   OH236018   5.001   2.695  15.353  0.0962  0.4531 -0.3068
 4868TIP3    H136019   4.939   2.702  15.425  0.3522  1.1662 -0.1563
 4868TIP3    H236020   5.081   2.663  15.393  0.0284  0.1683 -0.3949
 4869TIP3   OH236021   4.795   3.152   0.603 -0.6809 -0.3520  0.4879
 4869TIP3    H136022   4.725   3.213   0.631 -0.7964 -0.5401  0.6099
 4869TIP3    H236023   4.861   3.159   0.672  0.3372  1.3178 -0.6143
 4870TIP3   OH236024   0.798   3.878   0.882 -0.1584  0.2269 -0.5848
 4870TIP3    H136025   0.793   3.923   0.798  3.0426 -0.2166 -1.0786
 4870TIP3    H236026   0.875   3.821   0.874 -0.7889 -1.0735  2.0492
 4871TIP3   OH236027   2.629   3.004   2.457 -0.2445 -0.3838  0.1319
 4871TIP3    H136028   2.670   2.918   2.456  0.3553 -0.1655  2.6339
 4871TIP3    H236029   2.676   3.054   2.390 -1.1749 -2.2224 -1.9351
 4872TIP3   OH236030   5.721   5.866  14.138  0.0290  0.7103 -0.5142
 4872TIP3    H136031   5.630   5.848  14.115  0.3452 -0.0376 -1.2452
 4872TIP3    H236032   5.746   5.939  14.081  0.0772  0.4823 -0.7886
 4873TIP3   OH236033   2.609   4.551  10.789 -0.0672 -0.2586 -0.1907
 4873TIP3    H136034   2.662   4.628  10.807  0.6029 -0.3414 -1.6864
 4873TIP3    H236035   2.673   4.481  10.774 -0.6846 -1.4585  2.5160
 4874TIP3   OH236036   0.602   3.781   0.473  0.8610 -0.0855  0.4155
 4874TIP3    H136037   0.698   3.793   0.472  0.9011 -0.4731  0.0046
 4874TIP3    H236038   0.570   3.848   0.413  0.9196 -0.4315  0.0030
 4875TIP3   OH236039   2.081   6.559  15.720  0.2287 -0.0964 -0.1543
 4875TIP3    H136040   2.131   6.586  15.796  2.5738  1.1029 -2.0478
 4875TIP3    H236041   1.994   6.598  15.732  0.8872  0.8867  1.3895
 4876TIP3   OH236042   5.490   0.644   0.049 -0.2686  0.1440 -0.2671
 4876TIP3    H136043   5.575   0.604   0.031 -0.9760 -2.1466  1.2245
 4876TIP3    H236044   5.512   0.731   0.085  1.3721  0.2464 -1.4707
 4877TIP3   OH236045   5.307   2.724  16.786  0.2677  0.5045 -0.2752
 4877TIP3    H136046   5.309   2.667  16.863 -0.5767  0.9808  0.1061
 4877TIP3    H236047   5.372   2.792  16.804  1.7311 -0.6737 -1.0066
 4878TIP3   OH236048   2.037   2.669  12.110  0.7180  0.4255 -0.0264
 4878TIP3    H136049   2.051   2.764  12.113  0.9992  0.3925 -0.2605
 4878TIP3    H236050   1.969   2.652  12.176  1.6112  0.6121  0.9531
 4879TIP3   OH236051   4.640   4.079   2.445  0.4105 -0.1527  0.3560
 4879TIP3    H136052   4.553   4.047   2.469  0.2237  0.5558  0.6196
 4879TIP3    H236053   4.661   4.031   2.364  0.5883 -1.7424  1.3158
 4880TIP3   OH236054   4.661   5.441  11.419  0.9829 -0.5796  0.2833
 4880TIP3    H136055   4.720   5.505  11.380 -0.6698  1.2786  0.7776
 4880TIP3    H236056   4.705   5.414  11.500  1.3427  0.4598  0.4375
 4881TIP3   OH236057   6.296   4.398   2.607  0.0100 -0.2581 -0.7131
 4881TIP3    H136058   6.268   4.320   2.655 -1.0618  0.3952 -0.2686
 4881TIP3    H236059   6.274   4.379   2.516 -0.0341 -0.5719 -0.6386
 4882TIP3   OH236060   0.692   6.143  15.408  0.4039  0.4417 -0.0350
 4882TIP3    H136061   0.704   6.088  15.486  0.3013 -0.1473 -0.4288
 4882TIP3    H236062   0.770   6.199  15.406 -0.2612  1.4182  1.2560
 4883TIP3   OH236063   5.210   1.184  15.449 -0.2487  0.1846  0.0054
 4883TIP3    H136064   5.248   1.171  15.362  1.8685  3.5508  0.3701
 4883TIP3    H236065   5.153   1.260  15.439 -1.5479 -0.6121  1.1585
 4884TIP3   OH236066   2.419   6.417   4.754 -0.4420 -0.4234 -0.2113
 4884TIP3    H136067   2.467   6.357   4.696 -1.2074  0.1252 -1.4367
 4884TIP3    H236068   2.443   6.504   4.723  0.0259 -0.0981  1.0425
 4885TIP3   OH236069   2.871   5.794  14.735  0.1899 -0.4201 -0.2221
 4885TIP3    H136070   2.858   5.825  14.825 -0.3575 -0.4246 -0.2979
 4885TIP3    H236071   2.805   5.841  14.684  0.4378 -0.4914 -0.6072
 4886TIP3   OH236072   4.753   0.630   0.155  0.1328 -0.4280  0.2293
 4886TIP3    H136073   4.842   0.603   0.133  0.4097  2.7114 -2.8389
 4886TIP3    H236074   4.762   0.677   0.238  1.5481  0.8780 -0.6424
 4887TIP3   OH236075   1.512   5.179  17.185  0.3396  0.3527 -0.7367
 4887TIP3    H136076   1.570   5.226  17.125 -0.0879  1.4530 -0.2917
 4887TIP3    H236077   1.554   5.094  17.198  2.3368  1.4758  0.3086
 4888TIP3   OH236078   5.397   4.186  16.159 -0.0126 -0.0144  0.3546
 4888TIP3    H136079   5.420   4.276  16.180  0.3842 -0.2171  0.7843
 4888TIP3    H236080   5.470   4.155  16.104 -0.5332  0.1800 -0.4499
 4889TIP3   OH236081   3.582   5.301   3.672 -0.2841  0.0781  0.6307
 4889TIP3    H136082   3.493   5.335   3.686 -0.2186  0.9824 -1.0161
 4889TIP3    H236083   3.634   5.379   3.651  0.2920 -0.7615 -1.1609
 4890TIP3   OH236084   1.261   6.387   3.960  0.3105 -0.8437 -0.1518
 4890TIP3    H136085   1.189   6.419   3.905  1.5656 -0.1173 -1.4083
 4890TIP3    H236086   1.221   6.373   4.046 -1.3490 -0.5441 -0.8556
 4891TIP3   OH236087   5.391   0.085  15.205 -0.2683  0.3123  0.6966
 4891TIP3    H136088   5.475   0.049  15.177  0.2518  1.0083  1.3398
 4891TIP3    H236089   5.330   0.011  15.199  0.4599 -0.2880  0.5875
 4892TIP3   OH236090   4.335   5.351  14.093 -0.3138 -0.6630  0.3479
 4892TIP3    H136091   4.382   5.402  14.158  1.5615 -0.0868 -1.3939
 4892TIP3    H236092   4.257   5.403  14.074  0.6437  0.6693 -0.0480
 4893TIP3   OH236093   5.539   5.617   5.719 -0.0442  0.2661 -0.0671
 4893TIP3    H136094   5.533   5.522   5.724 -2.6849  0.4147  0.5665
 4893TIP3    H236095   5.550   5.636   5.626  0.5698 -0.6605 -0.1814
 4894TIP3   OH236096   3.858   0.381   1.714  0.2458 -0.3000  0.1311
 4894TIP3    H136097   3.914   0.353   1.787 -0.3385 -0.4079  0.5490
 4894TIP3    H236098   3.843   0.301   1.664  1.0035 -0.1392 -0.3559
 4895TIP3   OH236099   0.000   2.007  16.146 -0.9975 -0.4420  1.0599
 4895TIP3    H136100  -0.035   1.953  16.075  0.7720  1.7530 -1.6153
 4895TIP3    H236101   0.087   1.971  16.162 -0.0896  1.0882 -0.2468
 4896TIP3   OH236102   5.603   3.021   5.810  0.3430 -0.0859 -0.5013
 4896TIP3    H136103   5.647   2.965   5.746  2.1342  0.0301  0.5959
 4896TIP3    H236104   5.633   3.110   5.790  0.2103  0.0574 -0.0837
 4897TIP3   OH236105   6.473   0.808  14.181 -0.5768 -0.4806 -0.8324
 4897TIP3    H136106   6.466   0.854  14.097  0.0766  0.9352 -0.1284
 4897TIP3    H236107   6.412   0.853  14.239 -0.5246 -1.0097 -0.3673
 4898TIP3   OH236108   2.617   3.698   2.495  0.1219 -0.6021  0.1831
 4898TIP3    H136109   2.571   3.615   2.489  0.8601 -1.0056  0.0098
 4898TIP3    H236110   2.616   3.733   2.406 -0.8536 -0.0569  0.4023
 4899TIP3   OH236111   3.331   6.355  16.591  0.6706 -0.6555 -0.2177
 4899TIP3    H136112   3.418   6.315  16.594 -0.4006 -3.0620  0.6808
 4899TIP3    H236113   3.284   6.302  16.526 -0.4264 -0.0697  0.0911
 4900TIP3   OH236114   6.097   6.072   4.547 -0.4896 -0.1598 -0.4327
 4900TIP3    H136115   6.082   5.997   4.605 -1.5209  3.0494  3.6612
 4900TIP3    H236116   6.035   6.059   4.474 -3.4829 -1.3317  2.1943
 4901TIP3   OH236117   4.265   1.236   5.509  0.5768  0.5669 -0.4789
 4901TIP3    H136118   4.260   1.149   5.470 -0.0138 -0.3292  1.5067
 4901TIP3    H236119   4.307   1.291   5.443  2.3069 -1.5710 -1.1741
 4902TIP3   OH236120   4.959   2.003  14.638 -0.2163 -0.8633  0.4212
 4902TIP3    H136121   4.987   2.001  14.547 -0.8766 -1.1035  0.2198
 4902TIP3    H236122   4.905   2.082  14.645  0.7364 -0.2396  0.8809
 4903TIP3   OH236123   0.704   1.105  14.844  0.1728  0.3122  0.2510
 4903TIP3    H136124   0.716   1.163  14.919 -0.7694 -0.9862  1.4197
 4903TIP3    H236125   0.643   1.152  14.787 -1.5368 -0.0396  1.7666
 4904TIP3   OH236126   5.003   3.731  16.376 -0.1060  0.2644 -0.2213
 4904TIP3    H136127   4.909   3.728  16.396 -0.2120  1.6563 -0.4482
 4904TIP3    H236128   5.015   3.816  16.333  1.4237  0.4857  0.6408
 4905TIP3   OH236129   3.673   3.356  11.130 -0.0994  0.0934 -0.7556
 4905TIP3    H136130   3.756   3.393  11.160 -0.3313  0.3369 -0.4008
 4905TIP3    H236131   3.618   3.433  11.114 -0.8845 -0.1254  0.8554
 4906TIP3   OH236132   0.603   5.035   4.523  0.3490  0.9245 -0.1248
 4906TIP3    H136133   0.550   5.107   4.558 -1.2248  0.0619 -0.7159
 4906TIP3    H236134   0.595   5.043   4.428  0.5574  0.2392 -0.2025
 4907TIP3   OH236135   6.205   3.794   3.409 -0.0011  0.4810 -0.1563
 4907TIP3    H136136   6.125   3.751   3.380  1.1289 -2.2330  0.6426
 4907TIP3    H236137   6.209   3.776   3.503  2.1263 -0.4219 -0.3910
 4908TIP3   OH236138   3.843   2.928   1.684  0.2601  0.0952  0.5454
 4908TIP3    H136139   3.872   2.960   1.770  1.6155 -0.6938  0.3908
 4908TIP3    H236140   3.912   2.953   1.624 -1.1351  1.4983 -0.5151
 4909TIP3   OH236141   1.404   2.787  16.362  0.3394  0.2217  0.0495
 4909TIP3    H136142   1.394   2.878  16.391 -1.7667  0.2839 -0.8362
 4909TIP3    H236143   1.446   2.793  16.276 -0.3584  0.3886 -0.2794
 4910TIP3   OH236144   0.278   3.516   5.336 -0.2730 -0.1562  0.3878
 4910TIP3    H136145   0.216   3.507   5.408  1.1322  1.2452  1.7909
 4910TIP3    H236146   0.352   3.459   5.360  1.2045  2.0460  1.1946
 4911TIP3   OH236147   0.831   4.159  12.005  0.0832 -0.1464  0.1588
 4911TIP3    H136148   0.809   4.089  12.066 -0.2878 -0.7002 -0.5989
 4911TIP3    H236149   0.833   4.239  12.058  0.0081 -0.6593  0.9263
 4912TIP3   OH236150   1.061   1.495   4.805  0.1896  0.1102 -0.0272
 4912TIP3    H136151   1.034   1.408   4.834 -0.6592  0.5245  0.4384
 4912TIP3    H236152   1.098   1.537   4.882  2.1711 -0.4434 -0.6609
 4913TIP3   OH236153   3.482   4.197  12.285  0.2692 -0.3730 -0.2377
 4913TIP3    H136154   3.447   4.167  12.369 -2.4658 -2.5753 -2.0881
 4913TIP3    H236155   3.444   4.284  12.273 -0.2733 -0.5383  0.2439
 4914TIP3   OH236156   2.300   2.049  15.811 -0.4564 -0.0888 -0.3804
 4914TIP3    H136157   2.225   2.105  15.789 -0.1413  0.6658  0.4632
 4914TIP3    H236158   2.360   2.059  15.737  0.0627  1.4994  0.2440
 4915TIP3   OH236159   0.625   6.392   0.447 -0.5689  0.0332 -0.2750
 4915TIP3    H136160   0.586   6.380   0.533  1.2301 -1.9067  0.2901
 4915TIP3    H236161   0.663   6.480   0.451  1.5249 -0.9286  1.7368
 4916TIP3   OH236162   3.906   5.182   2.520  0.0767 -0.2101 -0.8181
 4916TIP3    H136163   3.844   5.164   2.450  0.0327 -1.0519 -0.5636
 4916TIP3    H236164   3.851   5.198   2.597  0.1689 -0.9738 -0.5882
 4917TIP3   OH236165   1.620   1.548  10.789 -0.2559  0.1182 -0.0335
 4917TIP3    H136166   1.698   1.583  10.831 -1.0827  0.6557  1.1024
 4917TIP3    H236167   1.547   1.587  10.838 -1.2186 -1.4169 -0.2002
 4918TIP3   OH236168   4.041   2.184   2.949  0.0617  0.1306 -0.2577
 4918TIP3    H136169   4.051   2.279   2.951  1.7231 -0.0564  1.2066
 4918TIP3    H236170   3.958   2.170   2.902  0.7314  2.2060 -2.1434
 4919TIP3   OH236171   4.877   4.944   3.876 -0.2722 -0.3351 -0.2672
 4919TIP3    H136172   4.881   4.964   3.970 -0.0882 -0.3734 -0.2683
 4919TIP3    H236173   4.795   4.986   3.847 -0.0525  0.1442 -0.2036
 4920TIP3   OH236174   0.589   5.708   0.379  0.1844 -0.3970 -0.1529
 4920TIP3    H136175   0.528   5.781   0.374 -1.0174 -1.1556  2.4067
 4920TIP3    H236176   0.667   5.738   0.333 -0.2464  2.5455  0.9549
 4921TIP3   OH236177   4.708   4.309  15.187  0.1059  0.2239 -0.5963
 4921TIP3    H136178   4.753   4.292  15.270 -1.7677  0.8492  0.5866
 4921TIP3    H236179   4.742   4.394  15.158  0.7707 -0.0024 -0.4896
 4922TIP3   OH236180   3.425   0.491   4.786  0.0551 -0.2530 -0.2600
 4922TIP3    H136181   3.463   0.552   4.723  0.2903 -1.2297 -1.0778
 4922TIP3    H236182   3.334   0.480   4.757  0.2635 -0.9831 -0.6490
 4923TIP3   OH236183   4.266   4.770   0.382 -0.3893  0.0658 -0.0692
 4923TIP3    H136184   4.238   4.781   0.291 -2.0061  1.1543  0.5401
 4923TIP3    H236185   4.205   4.707   0.419 -1.1853  1.3643  0.8769
 4924TIP3   OH236186   1.715   5.115   1.000 -0.4720  0.0479  0.1232
 4924TIP3    H136187   1.676   5.063   0.930 -0.2397  0.9151 -0.6544
 4924TIP3    H236188   1.774   5.176   0.956  0.6128 -0.2210  1.1712
 4925TIP3   OH236189   2.155   6.038  15.266 -0.2867  0.5060 -0.1394
 4925TIP3    H136190   2.137   5.992  15.348  0.5607  0.6069  0.1107
 4925TIP3    H236191   2.165   5.969  15.201 -0.3575  0.3997 -0.0374
 4926TIP3   OH236192   4.712   0.081  17.084  0.8206 -0.5791 -0.7099
 4926TIP3    H136193   4.701   0.139  17.009 -0.8412  2.5490  1.7790
 4926TIP3    H236194   4.796   0.106  17.122 -0.3861  1.1225  0.9920
 4927TIP3   OH236195   3.678   5.874  10.363  0.3743  0.3750  0.3518
 4927TIP3    H136196   3.713   5.904  10.447 -0.4371  1.8407  0.1936
 4927TIP3    H236197   3.723   5.792  10.346  1.1856  0.4988  1.8076
 4928TIP3   OH236198   2.177   1.822  11.749  0.1296  0.1009  0.0856
 4928TIP3    H136199   2.203   1.775  11.670 -0.3292  0.9494 -0.5748
 4928TIP3    H236200   2.105   1.770  11.785  0.0327 -0.0430 -0.3115
 4929TIP3   OH236201   3.107   0.280   5.458  0.4181  0.1814 -0.3226
 4929TIP3    H136202   3.042   0.329   5.407  0.5254 -1.0413 -1.6552
 4929TIP3    H236203   3.096   0.312   5.547 -0.2072  1.8934 -0.9998
 4930TIP3   OH236204   6.704   3.120   4.042 -0.6350 -0.2271 -0.1804
 4930TIP3    H136205   6.739   3.186   4.102 -0.0772 -2.8224  2.4857
 4930TIP3    H236206   6.776   3.101   3.982  1.1111 -2.2433  2.4300
 4931TIP3   OH236207   1.188   1.549   6.591 -0.3658 -0.9841  0.0087
 4931TIP3    H136208   1.264   1.497   6.616 -0.1583  0.8682  3.6417
 4931TIP3    H236209   1.117   1.516   6.647 -0.2304  2.4663  2.3979
 4932TIP3   OH236210   5.807   3.651   1.154 -0.4044  0.0442 -0.2054
 4932TIP3    H136211   5.792   3.745   1.168 -0.3354 -0.3698  2.9897
 4932TIP3    H236212   5.890   3.647   1.108 -0.4586  1.5532 -0.4673
 4933TIP3   OH236213   3.962   0.854   4.241 -0.8568 -0.0606  0.0162
 4933TIP3    H136214   3.867   0.856   4.256 -0.9446 -0.4318 -0.4727
 4933TIP3    H236215   3.979   0.931   4.186 -0.5942  1.0734  1.6544
 4934TIP3   OH236216   4.763   0.280   2.665  0.0260  0.0782  0.4134
 4934TIP3    H136217   4.697   0.338   2.626  0.0601  0.5607  1.0751
 4934TIP3    H236218   4.835   0.280   2.601 -0.2350  0.2634  0.1173
 4935TIP3   OH236219   3.676   6.556  16.216  0.2881  0.2850  0.1023
 4935TIP3    H136220   3.626   6.477  16.235  1.8478 -0.1103  2.8350
 4935TIP3    H236221   3.673   6.606  16.297  1.1284  2.0283 -0.9191
 4936TIP3   OH236222   5.434   3.777   3.606 -0.9228 -0.1112  0.4430
 4936TIP3    H136223   5.389   3.767   3.689 -2.1825 -0.8027 -0.2974
 4936TIP3    H236224   5.364   3.793   3.543 -0.0351 -0.1343 -0.5677
 4937TIP3   OH236225   4.207   3.984  15.181 -0.3799 -0.2416 -0.2183
 4937TIP3    H136226   4.258   4.051  15.226 -2.3801  0.7851  0.5577
 4937TIP3    H236227   4.128   3.974  15.234 -0.2315 -3.0713 -0.4283
 4938TIP3   OH236228   3.382   6.485   4.777  0.2752  0.3776  0.1349
 4938TIP3    H136229   3.317   6.553   4.796 -0.0327 -0.0403  0.6097
 4938TIP3    H236230   3.380   6.476   4.682  0.2640  0.9787  0.0761
 4939TIP3   OH236231   1.054   0.421  12.741 -0.7475 -1.0132 -0.1954
 4939TIP3    H136232   1.129   0.456  12.789 -1.3473 -0.3135  0.2223
 4939TIP3    H236233   0.980   0.475  12.767 -1.0677 -0.5556 -1.9638
 4940TIP3   OH236234   2.058   4.923   1.779  0.3090  0.4197  0.0915
 4940TIP3    H136235   2.110   4.900   1.703  0.4754 -0.3082  0.4228
 4940TIP3    H236236   1.979   4.871   1.771  0.3354  0.3278  0.4268
 4941TIP3   OH236237   2.995   4.755   0.157  0.2526  0.4218  0.1709
 4941TIP3    H136238   2.954   4.709   0.230 -2.6889 -1.5150 -2.5713
 4941TIP3    H236239   2.995   4.847   0.184 -1.6319 -0.1423  2.2462
 4942TIP3   OH236240   5.900   0.827  11.515  0.1371  0.2482  0.0959
 4942TIP3    H136241   5.924   0.739  11.489 -0.0479  0.5458 -1.1044
 4942TIP3    H236242   5.843   0.815  11.591  0.5282 -0.6401  0.2528
 4943TIP3   OH236243   1.022   2.809  11.359 -0.2736  0.1113 -1.0621
 4943TIP3    H136244   0.970   2.741  11.402  0.5454 -0.8211 -1.5487
 4943TIP3    H236245   0.991   2.809  11.268 -0.4840  0.6012 -0.9935
 4944TIP3   OH236246   4.852   3.624   1.025 -0.2997 -0.5242  0.2876
 4944TIP3    H136247   4.817   3.711   1.005 -1.4226 -1.1503 -0.5110
 4944TIP3    H236248   4.791   3.587   1.089 -1.2244 -1.6674 -1.2098
 4945TIP3   OH236249   6.505   2.771   1.514 -0.5507 -0.1758 -0.1400
 4945TIP3    H136250   6.565   2.779   1.440  0.6391  0.0042  0.8122
 4945TIP3    H236251   6.563   2.768   1.591 -1.8486  3.3683  1.0673
 4946TIP3   OH236252   5.230   4.367  12.841  0.1348 -0.1666  0.1561
 4946TIP3    H136253   5.174   4.418  12.900  1.0843  1.7999 -0.6099
 4946TIP3    H236254   5.169   4.314  12.790 -0.9170  0.6289  0.5748
 4947TIP3   OH236255   3.423   3.523   1.041 -0.0611 -0.0285  0.2196
 4947TIP3    H136256   3.495   3.493   0.985 -0.2421 -1.6878  0.8263
 4947TIP3    H236257   3.345   3.485   1.001 -0.3838  0.2041  0.6231
 4948TIP3   OH236258   1.613   1.220   0.280  0.3901 -0.1229  0.9171
 4948TIP3    H136259   1.602   1.311   0.306 -0.3817 -0.3422  1.3762
 4948TIP3    H236260   1.628   1.173   0.363  3.1225 -0.0925  0.4894
 4949TIP3   OH236261   4.741   2.256   0.467 -0.5091  0.2395 -0.3820
 4949TIP3    H136262   4.665   2.296   0.510 -1.1039 -0.6402 -0.5845
 4949TIP3    H236263   4.705   2.220   0.385 -0.1954 -1.4882  0.2121
 4950TIP3   OH236264   3.339   1.039   4.471 -0.2746  0.4774 -0.3379
 4950TIP3    H136265   3.301   1.102   4.410 -0.0661  0.6155 -0.3257
 4950TIP3    H236266   3.425   1.019   4.434 -0.8649 -0.8083 -1.0491
 4951TIP3   OH236267   2.006   5.342  10.758  0.0181  0.1608 -0.4448
 4951TIP3    H136268   1.927   5.289  10.744  1.1456 -1.2812 -1.4018
 4951TIP3    H236269   2.077   5.290  10.723  1.5568  1.0239  1.3156
 4952TIP3   OH236270   2.543   2.409  16.317 -0.1622 -0.3058  0.3233
 4952TIP3    H136271   2.448   2.409  16.317 -0.1886 -1.8289  1.2607
 4952TIP3    H236272   2.568   2.501  16.325 -1.5542  0.0589  0.4794
 4953TIP3   OH236273   0.494   3.007  14.149 -0.1173  0.0039  0.5575
 4953TIP3    H136274   0.543   3.087  14.167 -2.3455  1.3043  0.9736
 4953TIP3    H236275   0.456   3.021  14.062  2.0768 -1.9575 -0.7728
 4954TIP3   OH236276   4.237   4.017   3.451  0.4552 -0.4443  0.1281
 4954TIP3    H136277   4.230   3.987   3.541  0.8052 -1.9083 -0.3123
 4954TIP3    H236278   4.160   3.980   3.407  0.5015 -0.0788 -0.2676
 4955TIP3   OH236279   6.651   0.059   4.322  0.1499 -0.8924  0.1984
 4955TIP3    H136280   6.638   0.047   4.416 -0.3089 -0.5943  0.1799
 4955TIP3    H236281   6.606  -0.016   4.282 -0.0823 -0.7580  0.2016
 4956TIP3   OH236282   4.256   0.291   5.163 -0.9563  0.5169 -0.4575
 4956TIP3    H136283   4.185   0.276   5.100 -0.0514  1.8537 -1.8303
 4956TIP3    H236284   4.213   0.338   5.235 -1.8240 -0.2461 -0.4602
 4957TIP3   OH236285   3.965   3.261   3.210  0.2298  0.3700 -0.2858
 4957TIP3    H136286   3.987   3.219   3.127 -0.3335  0.6423 -0.5728
 4957TIP3    H236287   3.908   3.334   3.186 -1.6484 -0.7820  0.5018
 4958TIP3   OH236288   1.957   6.286   3.773 -0.6098 -0.3793  0.0826
 4958TIP3    H136289   1.975   6.203   3.817  1.3194  0.3541  0.7620
 4958TIP3    H236290   2.020   6.289   3.701 -3.2394 -1.2234 -2.3328
 4959TIP3   OH236291   6.745   3.704   0.226 -0.0682 -0.5613  0.0831
 4959TIP3    H136292   6.780   3.737   0.309  0.2821 -0.4405 -0.1128
 4959TIP3    H236293   6.757   3.610   0.230  0.8151 -0.4663 -0.2301
 4960TIP3   OH236294   5.616   2.976   0.023  0.6415 -0.5968  0.5335
 4960TIP3    H136295   5.694   3.023   0.053  0.6343 -0.3732  0.1978
 4960TIP3    H236296   5.630   2.886   0.053  1.0308 -0.5581  0.4741
 4961TIP3   OH236297   1.750   4.637  17.182 -0.3917 -0.0710 -0.2881
 4961TIP3    H136298   1.671   4.604  17.225  1.5734 -3.3153  0.8924
 4961TIP3    H236299   1.781   4.564  17.128  2.6790  0.6286  0.4585
 4962TIP3   OH236300   3.832   2.942   5.245 -0.0871  0.4372  0.0676
 4962TIP3    H136301   3.911   2.982   5.207  0.7974 -1.3594 -0.0478
 4962TIP3    H236302   3.759   2.986   5.200  0.9076 -1.2512 -3.3899
 4963TIP3   OH236303   4.956   5.654   3.202  0.4529 -0.9672 -0.6377
 4963TIP3    H136304   4.969   5.614   3.288 -0.7402  1.8058  0.9156
 4963TIP3    H236305   5.044   5.683   3.176  0.7140 -1.1735 -0.0062
 4964TIP3   OH236306   2.045   5.285  11.742  0.2248 -0.7491  0.3279
 4964TIP3    H136307   1.953   5.290  11.716 -0.0929 -0.5413  1.4550
 4964TIP3    H236308   2.090   5.249  11.665 -0.5536  0.5813 -0.7642
 4965TIP3   OH236309   1.984   2.277  11.305 -0.3337  0.2060 -0.3349
 4965TIP3    H136310   2.048   2.305  11.240  1.4684 -1.9095  0.4437
 4965TIP3    H236311   2.017   2.192  11.336 -2.5145 -0.0399  1.4714
 4966TIP3   OH236312   3.071   5.881  15.977 -0.4530  0.2173 -0.1699
 4966TIP3    H136313   3.015   5.935  16.034  1.2020 -0.4998  2.1727
 4966TIP3    H236314   3.073   5.796  16.019  0.7465 -0.3582 -1.3740
 4967TIP3   OH236315   4.240   0.284   2.153 -0.2085 -0.4138 -0.3028
 4967TIP3    H136316   4.225   0.232   2.232 -1.6358 -0.0642 -0.3417
 4967TIP3    H236317   4.230   0.374   2.182 -1.8913 -0.3314 -1.1299
 4968TIP3   OH236318   6.198   6.055  10.442  0.2595  0.1397 -0.2946
 4968TIP3    H136319   6.292   6.057  10.460 -0.0386 -0.6314  1.4958
 4968TIP3    H236320   6.172   6.147  10.438  0.5844  0.3810  2.1597
 4969TIP3   OH236321   4.969   4.289   1.982 -0.0451  0.1261  0.2716
 4969TIP3    H136322   4.893   4.284   2.040  0.4599  2.6719  1.2480
 4969TIP3    H236323   4.948   4.358   1.920  2.2405  2.3992  1.8744
 4970TIP3   OH236324   2.465   0.262  12.169 -0.2634 -0.2547 -0.4208
 4970TIP3    H136325   2.494   0.277  12.258 -0.4013  0.7226 -0.5304
 4970TIP3    H236326   2.420   0.344  12.144 -2.2918 -1.3718 -0.5539
 4971TIP3   OH236327   2.125   4.171  16.414 -0.2785 -0.2010  0.5668
 4971TIP3    H136328   2.143   4.264  16.430  0.1953 -0.6632  3.0039
 4971TIP3    H236329   2.042   4.155  16.459 -1.2750 -0.5635 -1.3710
 4972TIP3   OH236330   2.029   4.480  15.455 -0.4453  0.2630  0.1391
 4972TIP3    H136331   2.078   4.513  15.530 -1.2504  0.3283  0.6499
 4972TIP3    H236332   1.995   4.560  15.413 -2.0322  0.1341  1.1232
 4973TIP3   OH236333   5.160   1.404   4.127  0.0267 -0.5324 -0.3881
 4973TIP3    H136334   5.166   1.354   4.208  1.0915 -1.4976 -1.0464
 4973TIP3    H236335   5.242   1.454   4.123 -0.5085  0.3576 -0.3243
 4974TIP3   OH236336   2.816   1.750   3.971 -0.5231 -0.2414  0.1851
 4974TIP3    H136337   2.742   1.739   3.911 -0.0495  0.7854 -0.5947
 4974TIP3    H236338   2.889   1.772   3.914  0.1773 -0.3389  1.0513
 4975TIP3   OH236339   3.919   3.187  12.410 -0.0409 -0.0919  0.4410
 4975TIP3    H136340   3.924   3.097  12.444  1.2764 -0.1092  0.2171
 4975TIP3    H236341   4.008   3.205  12.378 -0.2303  1.3934  0.7587
 4976TIP3   OH236342   1.813   3.984  17.193  0.2939  0.2431  0.3504
 4976TIP3    H136343   1.771   3.912  17.241 -0.7775  1.3887  1.1629
 4976TIP3    H236344   1.748   4.055  17.195  1.1838  1.1073 -0.7653
 4977TIP3   OH236345   5.238   5.927   1.099  0.4808  0.1735  0.5780
 4977TIP3    H136346   5.192   5.921   1.183  1.6598  1.2080  1.3128
 4977TIP3    H236347   5.169   5.922   1.033 -0.4842 -0.3761  1.6152
 4978TIP3   OH236348   4.626   0.953   6.078  0.0943  0.1023  0.4194
 4978TIP3    H136349   4.603   0.943   6.171 -2.4837  0.9132 -0.1174
 4978TIP3    H236350   4.569   0.892   6.032  1.0318  0.0565 -0.7106
 4979TIP3   OH236351   4.502   2.681  16.933  0.0784  0.4408 -0.5067
 4979TIP3    H136352   4.493   2.592  16.966  0.1339  0.1952 -1.1509
 4979TIP3    H236353   4.413   2.708  16.912  0.1478  0.2711 -1.0107
 4980TIP3   OH236354   3.429   3.660  15.481 -0.6366 -0.2940  0.3937
 4980TIP3    H136355   3.473   3.717  15.418 -0.5805  0.6778  1.2873
 4980TIP3    H236356   3.413   3.579  15.434 -2.4446  1.1270 -1.5199
 4981TIP3   OH236357   2.600   6.106   1.872  0.4935  0.4464  0.0080
 4981TIP3    H136358   2.580   6.062   1.790 -2.0038 -0.2958  0.9768
 4981TIP3    H236359   2.541   6.067   1.936 -0.0466  3.4368  1.4447
 4982TIP3   OH236360   3.557   0.843   2.581 -0.1615  0.5483 -0.1094
 4982TIP3    H136361   3.608   0.844   2.501 -1.9151 -1.1350 -1.2945
 4982TIP3    H236362   3.616   0.807   2.647  1.0061  1.1278 -0.8191
 4983TIP3   OH236363   3.615   4.614   1.152 -0.1986  0.1994 -0.0706
 4983TIP3    H136364   3.656   4.697   1.128  1.0165 -0.2065  0.5802
 4983TIP3    H236365   3.553   4.638   1.222  1.6205  0.2730  1.5539
 4984TIP3   OH236366   5.631   4.575  12.321 -0.8552 -0.0437  0.0319
 4984TIP3    H136367   5.720   4.563  12.356 -0.6320  0.3326 -0.4037
 4984TIP3    H236368   5.617   4.670  12.324 -0.0492  0.1903 -2.8189
 4985TIP3   OH236369   5.757   5.954  14.422  0.1794  0.1660  0.1414
 4985TIP3    H136370   5.730   5.914  14.339  0.6463 -2.0312  1.0149
 4985TIP3    H236371   5.844   5.990  14.404 -1.3944  3.4145 -1.4573
 4986TIP3   OH236372   3.890   2.332  14.726 -0.2979 -0.2104  0.2820
 4986TIP3    H136373   3.834   2.409  14.734  1.2156  0.8458  0.8714
 4986TIP3    H236374   3.934   2.343  14.642 -2.5197 -2.1337 -1.2303
 4987TIP3   OH236375   4.576   6.338  14.298  0.0624 -0.0017  0.4612
 4987TIP3    H136376   4.559   6.304  14.386 -0.8626 -0.8742 -0.0442
 4987TIP3    H236377   4.490   6.338  14.255  0.4309  0.8452 -0.2998
 4988TIP3   OH236378   3.933   2.848  15.650 -0.7279 -0.4153 -0.1783
 4988TIP3    H136379   3.903   2.757  15.655  0.2928 -0.7467  0.0515
 4988TIP3    H236380   3.950   2.862  15.557 -0.1744 -0.6967 -0.1211
 4989TIP3   OH236381   5.560   3.726  14.953  0.4749  0.3193  0.1215
 4989TIP3    H136382   5.507   3.674  14.892  0.6948 -0.6747  0.7650
 4989TIP3    H236383   5.638   3.749  14.902  0.2375  0.2789 -0.2702
 4990TIP3   OH236384   2.056   4.902  16.181 -0.0710  0.9819  0.4790
 4990TIP3    H136385   2.125   4.958  16.146  2.1908 -2.2028 -0.3831
 4990TIP3    H236386   2.037   4.841  16.110  0.4900 -1.9392  2.7619
 4991TIP3   OH236387   0.853   5.370   4.760  0.3487  0.2888  0.2836
 4991TIP3    H136388   0.901   5.418   4.828  1.2258 -0.7000  0.3855
 4991TIP3    H236389   0.768   5.414   4.755  0.9246  1.4774  0.7746
 4992TIP3   OH236390   4.525   5.424   1.987  0.0490 -0.6676 -0.2654
 4992TIP3    H136391   4.452   5.405   1.929  0.9250 -0.7970 -1.3484
 4992TIP3    H236392   4.503   5.508   2.027 -0.0619 -0.0369 -1.6201
 4993TIP3   OH236393   3.810   2.681   5.356  0.5236  0.0025  0.3142
 4993TIP3    H136394   3.835   2.618   5.288  0.3478 -1.2161  1.3752
 4993TIP3    H236395   3.804   2.765   5.309  0.5898 -0.7862 -1.1388
 4994TIP3   OH236396   4.535   2.412   0.994  0.4576 -0.5626  0.2044
 4994TIP3    H136397   4.535   2.367   1.078 -0.1742 -1.1846 -0.1248
 4994TIP3    H236398   4.474   2.362   0.940 -0.0520  0.5438 -0.2440
 4995TIP3   OH236399   3.022   3.623   0.603 -0.0167 -0.3625 -0.6403
 4995TIP3    H136400   3.047   3.612   0.512 -0.2095  3.3711 -1.2203
 4995TIP3    H236401   2.933   3.659   0.600  0.4819  1.0764  0.9517
 4996TIP3   OH236402   2.068   1.854   4.284 -0.1083  0.3496 -0.0712
 4996TIP3    H136403   2.045   1.877   4.374 -0.6831  2.2943 -0.6820
 4996TIP3    H236404   2.159   1.826   4.288  0.3534  1.9367  0.8841
 4997TIP3   OH236405   1.379   1.318   2.883  0.2104 -0.0695 -0.5454
 4997TIP3    H136406   1.374   1.229   2.919 -0.5893  0.3076  0.2956
 4997TIP3    H236407   1.296   1.358   2.909  0.2271  0.6594 -1.6257
 4998TIP3   OH236408   0.761   5.849   0.993 -0.2458  0.5133 -0.0292
 4998TIP3    H136409   0.815   5.812   0.923  0.4976 -1.0599  1.3671
 4998TIP3    H236410   0.702   5.778   1.018  0.9199  0.3683  2.3902
 4999TIP3   OH236411   3.833   1.805  14.472 -0.5802 -0.7064  0.3581
 4999TIP3    H136412   3.918   1.773  14.500  0.0967 -0.4604 -1.3901
 4999TIP3    H236413   3.797   1.735  14.418 -1.3086 -0.6262  0.7244
 5000TIP3   OH236414   4.673   0.809  13.210  0.0633  0.2922 -0.6499
 5000TIP3    H136415   4.753   0.762  13.234 -0.6198  0.3482  1.8087
 5000TIP3    H236416   4.664   0.878  13.276 -0.6755  1.9046 -2.3752
 5001TIP3   OH236417   1.876   0.357  12.053  0.7793 -0.7244  0.7197
 5001TIP3    H136418   1.922   0.440  12.043  2.0899 -1.5904 -0.5023
 5001TIP3    H236419   1.945   0.291  12.063 -0.2268 -1.7733  0.9052
 5002TIP3   OH236420   0.156   3.067  13.154 -0.1343 -0.4129  0.1079
 5002TIP3    H136421   0.088   3.001  13.142  0.4092 -0.8384 -0.6751
 5002TIP3    H236422   0.158   3.115  13.071  0.8525 -0.7230 -0.0565
 5003TIP3   OH236423   5.545   2.905   0.461  0.8275  0.8000  0.2918
 5003TIP3    H136424   5.631   2.930   0.427  0.7017  0.4224 -0.3308
 5003TIP3    H236425   5.483   2.953   0.405  0.6472  1.7445  1.2952
 5004TIP3   OH236426   6.298   5.920  13.504 -0.1215  0.1468  0.3553
 5004TIP3    H136427   6.363   5.989  13.496  0.7760 -0.6392  0.7075
 5004TIP3    H236428   6.272   5.922  13.596  0.2818 -0.3048  0.4827
 5005TIP3   OH236429   0.289   0.114   5.941 -0.4182  0.0546  0.0133
 5005TIP3    H136430   0.214   0.057   5.956  0.1908 -0.5591  0.7283
 5005TIP3    H236431   0.365   0.058   5.957  0.1902  0.7513 -0.4288
 5006TIP3   OH236432   1.645   1.975  14.189  0.2720  0.0422  0.6151
 5006TIP3    H136433   1.633   1.882  14.170  1.3269 -0.1096  0.6709
 5006TIP3    H236434   1.655   2.016  14.103 -0.2285  0.1099  0.5892
 5007TIP3   OH236435   5.098   0.421   2.042 -0.2927 -0.9580  0.2041
 5007TIP3    H136436   5.159   0.429   2.115  0.9879  1.4358 -1.0510
 5007TIP3    H236437   5.012   0.440   2.080  0.4702  1.1642  0.9265
 5008TIP3   OH236438   1.632   6.247   1.982 -0.0281  0.0554 -0.0067
 5008TIP3    H136439   1.674   6.286   2.059 -1.7230 -2.5028  2.3179
 5008TIP3    H236440   1.565   6.310   1.957 -0.4448  0.2739  1.5775
 5009TIP3   OH236441   5.544   0.859  11.508  0.2536 -0.8779 -0.4645
 5009TIP3    H136442   5.555   0.949  11.478  0.7777 -1.1690 -1.1458
 5009TIP3    H236443   5.462   0.830  11.468  0.9787 -1.2858 -1.6921
 5010TIP3   OH236444   4.444   4.064   1.857 -0.0195 -0.1530  0.2528
 5010TIP3    H136445   4.420   4.010   1.782  0.5467 -0.0111 -0.0297
 5010TIP3    H236446   4.524   4.024   1.892 -1.5993 -1.6725  2.2517
 5011TIP3   OH236447   5.564   6.559  16.582 -0.1570 -0.2520  0.2993
 5011TIP3    H136448   5.537   6.650  16.597  0.9047  0.2224 -0.5967
 5011TIP3    H236449   5.655   6.566  16.553 -0.4994 -1.5054 -1.0895
 5012TIP3   OH236450   2.044   1.154  11.098  0.3088  0.3933 -0.0830
 5012TIP3    H136451   2.003   1.219  11.156 -0.5344 -0.1595 -0.0494
 5012TIP3    H236452   2.044   1.196  11.012  0.1576  0.6052  0.0183
 5013TIP3   OH236453   1.799   5.163   3.088  0.2315  0.1414 -0.0777
 5013TIP3    H136454   1.829   5.172   2.998  2.3009  1.7892  0.7063
 5013TIP3    H236455   1.878   5.142   3.137 -0.5040  1.2291  1.6185
 5014TIP3   OH236456   3.777   2.964   0.419  0.0653  0.2942  0.7020
 5014TIP3    H136457   3.730   2.885   0.448  2.7299 -1.1764  1.1860
 5014TIP3    H236458   3.810   3.003   0.500 -0.9713  1.7849  0.4335
 5015TIP3   OH236459   5.822   3.712   6.235 -0.4634 -0.1734  0.2962
 5015TIP3    H136460   5.761   3.716   6.161  0.2038 -1.4924 -0.3584
 5015TIP3    H236461   5.838   3.618   6.247  0.5829  0.1091  1.1500
 5016TIP3   OH236462   0.589   6.397   5.071  1.1815  0.3417  0.1220
 5016TIP3    H136463   0.629   6.372   4.988 -0.6678  1.1347 -1.0211
 5016TIP3    H236464   0.570   6.490   5.061 -2.7975 -0.4240 -0.1588
 5017TIP3   OH236465   1.323   3.954  11.752 -0.3078 -0.6194  0.1264
 5017TIP3    H136466   1.294   4.013  11.821 -1.4582  0.3279 -1.1560
 5017TIP3    H236467   1.286   3.869  11.776  1.6735 -0.9536  2.1726
 5018TIP3   OH236468   3.626   1.120  17.030 -0.2449 -0.0443  0.2455
 5018TIP3    H136469   3.607   1.210  17.055 -0.7078  0.6388 -2.4034
 5018TIP3    H236470   3.587   1.067  17.099 -1.9415  1.7231  0.6772
 5019TIP3   OH236471   0.049   5.607  11.663 -0.2500 -0.1303 -0.3214
 5019TIP3    H136472   0.084   5.528  11.704  0.7750  0.9529  0.9245
 5019TIP3    H236473   0.065   5.593  11.569  2.0033 -0.4260  0.0615
 5020TIP3   OH236474   5.514   2.159   4.699 -0.1298  0.0094  0.4256
 5020TIP3    H136475   5.441   2.220   4.690 -1.3089 -1.3859  0.4458
 5020TIP3    H236476   5.535   2.160   4.792 -1.3201 -0.9635  0.7051
 5021TIP3   OH236477   4.294   6.462   0.377 -0.2794  0.1019 -0.2833
 5021TIP3    H136478   4.322   6.376   0.348 -0.9146  0.3313 -1.5995
 5021TIP3    H236479   4.206   6.474   0.340  0.6014  2.1235 -1.8367
 5022TIP3   OH236480   1.742   6.679  13.457 -0.4922  0.3183  0.8095
 5022TIP3    H136481   1.806   6.650  13.392  0.9727 -0.4749  2.5583
 5022TIP3    H236482   1.668   6.620  13.446  0.1116 -0.3834  0.4611
 5023TIP3   OH236483   1.788   4.497   5.556 -0.0618 -0.1422  0.9026
 5023TIP3    H136484   1.761   4.556   5.486  1.7548 -1.2645 -0.8026
 5023TIP3    H236485   1.787   4.550   5.635  1.8573  2.2963 -0.6436
 5024TIP3   OH236486   3.503   1.917  17.113  0.0650  0.1187 -0.0111
 5024TIP3    H136487   3.504   1.947  17.204 -0.6581 -0.4753  0.1892
 5024TIP3    H236488   3.569   1.972  17.070 -0.7746  1.5487  0.4957
 5025TIP3   OH236489   5.779   3.711   1.532  0.0897  0.5488 -0.1831
 5025TIP3    H136490   5.872   3.690   1.527  0.0154  0.2374 -0.3085
 5025TIP3    H236491   5.756   3.736   1.442 -0.5411 -1.9713 -0.7842
 5026TIP3   OH236492   2.725   4.396   5.122 -0.1764 -0.2771 -0.3488
 5026TIP3    H136493   2.707   4.302   5.118 -0.5994 -0.2820  1.2236
 5026TIP3    H236494   2.809   4.402   5.167 -0.9133  0.1488  0.9977
 5027TIP3   OH236495   4.071   4.622  17.191  0.2135  0.5153 -0.0002
 5027TIP3    H136496   4.108   4.698  17.237  1.1231 -0.3993  0.8082
 5027TIP3    H236497   4.088   4.640  17.099 -0.4102  1.7258  0.1061
 5028TIP3   OH236498   5.537   1.293  15.823 -0.0648 -0.0569  0.0024
 5028TIP3    H136499   5.597   1.366  15.840  0.5573 -1.2258  3.1462
 5028TIP3    H236500   5.501   1.272  15.909 -2.3242 -1.6746 -1.3175
 5029TIP3   OH236501   0.555   5.511  15.927 -0.1362  0.3861  0.1496
 5029TIP3    H136502   0.607   5.476  15.855 -0.8633 -1.0973  0.3312
 5029TIP3    H236503   0.608   5.494  16.005 -0.2708  0.1321  0.1857
 5030TIP3   OH236504   4.438   0.086  12.132  1.0994  0.2212 -0.4909
 5030TIP3    H136505   4.425   0.159  12.072  1.6389 -0.3585 -1.3391
 5030TIP3    H236506   4.360   0.085  12.187  1.4669  1.9505  0.0969
 5031TIP3   OH236507   0.585   6.192  13.352 -0.0768  0.3749  0.1355
 5031TIP3    H136508   0.525   6.136  13.401 -0.0488 -0.2096 -0.4838
 5031TIP3    H236509   0.632   6.242  13.419 -1.2856  0.8831  0.6199
 5032TIP3   OH236510   1.762   1.422  10.333 -0.2493 -0.0568  0.6150
 5032TIP3    H136511   1.731   1.365  10.403 -2.2872  0.5789  0.2793
 5032TIP3    H236512   1.780   1.506  10.376  2.1677 -0.7227  1.0012
 5033TIP3   OH236513   2.464   4.378  11.396 -0.0223 -0.4628  0.7885
 5033TIP3    H136514   2.439   4.471  11.396  1.1063 -0.1525  0.1136
 5033TIP3    H236515   2.425   4.343  11.316  0.8703 -0.2068  0.2402
 5034TIP3   OH236516   4.635   3.638  13.827  0.0914  0.3020 -0.2227
 5034TIP3    H136517   4.629   3.717  13.772  0.3282 -0.0413 -0.7505
 5034TIP3    H236518   4.545   3.610  13.838 -0.2831  2.3500  2.5052
 5035TIP3   OH236519   2.612   0.380   6.534  0.4237  0.3438  0.2757
 5035TIP3    H136520   2.603   0.433   6.455 -0.3710 -0.1035  0.0556
 5035TIP3    H236521   2.675   0.312   6.511 -0.6057 -0.4174 -0.3228
 5036TIP3   OH236522   4.547   3.282  13.596  0.1306  0.2602 -0.1992
 5036TIP3    H136523   4.461   3.278  13.553  0.3390 -0.3721 -0.5661
 5036TIP3    H236524   4.586   3.363  13.563  0.5678 -0.5705 -1.7438
 5037TIP3   OH236525   0.084   4.081  15.062  0.4315  0.2414 -0.1151
 5037TIP3    H136526   0.114   3.990  15.069  0.8620  0.2232 -1.9459
 5037TIP3    H236527   0.115   4.122  15.142 -0.0832 -1.3112  0.9155
 5038TIP3   OH236528   4.487   1.576  12.267 -0.4970  0.5109 -0.3191
 5038TIP3    H136529   4.531   1.533  12.341 -1.5659 -0.0186  0.0147
 5038TIP3    H236530   4.538   1.655  12.252  0.1809  0.2361  0.5008
 5039TIP3   OH236531   5.644   2.721  11.087 -0.6999  0.4198 -0.6857
 5039TIP3    H136532   5.723   2.749  11.133 -1.3222  2.0470 -0.5449
 5039TIP3    H236533   5.660   2.630  11.064 -0.0611 -0.2301  2.1253
 5040TIP3   OH236534   1.241   2.252   3.849  0.1730 -0.1104  0.0618
 5040TIP3    H136535   1.149   2.226   3.847  0.4777 -1.2336 -1.7407
 5040TIP3    H236536   1.282   2.191   3.910 -0.3175  0.5483  1.0509
 5041TIP3   OH236537   1.140   4.625  11.515  0.1968 -0.4731 -0.3127
 5041TIP3    H136538   1.225   4.582  11.527 -0.7370 -2.3903 -0.4771
 5041TIP3    H236539   1.161   4.718  11.514  1.8662 -0.7530  3.3352
 5042TIP3   OH236540   6.736   0.110   3.264  0.3228  0.1280 -0.5432
 5042TIP3    H136541   6.733   0.116   3.359 -1.2936  0.7290 -0.6025
 5042TIP3    H236542   6.654   0.152   3.235  1.5461  1.4347 -2.2536
 5043TIP3   OH236543   6.290   4.253   4.761 -0.2234 -0.0239 -0.4629
 5043TIP3    H136544   6.342   4.315   4.812 -1.6295 -1.6247  3.0953
 5043TIP3    H236545   6.206   4.297   4.747 -0.2746 -0.0658 -0.2913
 5044TIP3   OH236546   3.909   5.928  15.280  0.1937  0.3068  0.1324
 5044TIP3    H136547   3.815   5.924  15.301  0.1391 -1.8347 -0.4266
 5044TIP3    H236548   3.916   5.893  15.192  1.7302 -1.3913  0.8913
 5045TIP3   OH236549   3.860   5.040  11.102 -0.3169  0.5367  0.1173
 5045TIP3    H136550   3.834   4.964  11.049 -0.7895  1.0980 -0.4621
 5045TIP3    H236551   3.791   5.048  11.168  2.0998 -2.4104  3.2217
 5046TIP3   OH236552   2.414   5.016  14.746  0.0154  0.2571  0.3540
 5046TIP3    H136553   2.322   5.008  14.725  0.0443 -1.3299  0.7971
 5046TIP3    H236554   2.444   5.091  14.695 -1.2157  0.0003 -0.7669
 5047TIP3   OH236555   0.304   6.063   0.785  0.2276  0.3263 -0.1944
 5047TIP3    H136556   0.383   6.042   0.835  1.4877  2.2427 -1.3077
 5047TIP3    H236557   0.253   6.117   0.845  0.1943 -0.1415  0.2024
 5048TIP3   OH236558   4.511   6.638   4.515  0.2413 -0.2058  0.1443
 5048TIP3    H136559   4.519   6.728   4.482 -1.0931 -0.2816 -0.3947
 5048TIP3    H236560   4.483   6.648   4.606  0.6804 -0.0726  0.2681
 5049TIP3   OH236561   3.297   1.827  16.612  0.4021 -0.6713 -0.3863
 5049TIP3    H136562   3.309   1.910  16.565 -1.0318 -0.2257  0.0189
 5049TIP3    H236563   3.375   1.820  16.668  0.0694  0.8844  0.2961
 5050TIP3   OH236564   6.766   6.466   3.655  0.1722  0.2746 -0.8612
 5050TIP3    H136565   6.752   6.433   3.567 -2.4670  0.0027 -0.3862
 5050TIP3    H236566   6.732   6.555   3.653  0.7120  0.4919 -0.3086
 5051TIP3   OH236567   2.192   5.974   0.336  0.0905 -0.4467  0.1214
 5051TIP3    H136568   2.186   5.936   0.424  0.2554  0.9479  0.7419
 5051TIP3    H236569   2.104   5.964   0.299 -0.7138  1.4418  1.4847
 5052TIP3   OH236570   0.160   4.361   1.753  0.0470  0.0158  0.4362
 5052TIP3    H136571   0.099   4.412   1.700 -0.8078 -0.0851  1.3105
 5052TIP3    H236572   0.247   4.386   1.721 -0.4429  0.3354 -0.6562
 5053TIP3   OH236573   6.142   1.632  17.196 -0.7981  0.4342 -0.1480
 5053TIP3    H136574   6.124   1.559  17.137 -2.1660  0.5685  0.0891
 5053TIP3    H236575   6.086   1.703  17.163 -1.0173  0.7348  0.8585
 5054TIP3   OH236576   4.845   1.669   3.300 -0.2338  0.1104 -0.7300
 5054TIP3    H136577   4.890   1.624   3.371  1.2959  1.3429 -0.8909
 5054TIP3    H236578   4.842   1.760   3.327 -0.3009  0.4714 -1.9234
 5055TIP3   OH236579   3.004   6.561  16.584 -0.1384  0.0821 -0.2487
 5055TIP3    H136580   2.976   6.482  16.537 -0.7169  0.2559 -0.1957
 5055TIP3    H236581   3.044   6.616  16.516 -0.4463  0.0824 -0.4298
 5056TIP3   OH236582   5.036   5.500   3.470  0.1866 -0.3474  0.2651
 5056TIP3    H136583   5.028   5.419   3.420 -0.7584 -0.1936  0.1700
 5056TIP3    H236584   5.130   5.506   3.489  0.2399 -1.5791  0.4704
 5057TIP3   OH236585   6.233   1.735  11.495  0.2230 -0.1638  0.2109
 5057TIP3    H136586   6.260   1.808  11.439 -0.5565 -0.0485 -0.0163
 5057TIP3    H236587   6.292   1.664  11.471  0.0970 -0.0207 -0.5398
 5058TIP3   OH236588   0.026   1.985   1.741  0.4948 -0.0867 -0.6522
 5058TIP3    H136589   0.026   1.917   1.810  1.5431  0.2363 -0.3207
 5058TIP3    H236590  -0.032   1.951   1.674  1.1377 -1.4038 -0.5570
 5059TIP3   OH236591   0.431   2.744   6.126  0.4885 -0.4819  0.0574
 5059TIP3    H136592   0.339   2.725   6.141  0.2166  0.1775 -0.7041
 5059TIP3    H236593   0.479   2.683   6.182 -0.3861 -1.6606 -0.4776
 5060TIP3   OH236594   1.288   4.291   0.090  0.6832  0.7858 -0.2523
 5060TIP3    H136595   1.293   4.197   0.109 -1.3251  0.7284  0.0955
 5060TIP3    H236596   1.270   4.332   0.175  1.1760  1.4531 -0.4672
 5061TIP3   OH236597   0.591   4.753  11.905  0.0617 -0.1593  0.2446
 5061TIP3    H136598   0.651   4.828  11.896 -1.1232  0.9039  0.9950
 5061TIP3    H236599   0.579   4.721  11.815  0.2344  0.8424 -0.1427
 5062TIP3   OH236600   3.774   1.181   0.282 -0.1052 -0.4176  0.0099
 5062TIP3    H136601   3.740   1.222   0.203 -0.5076 -1.4490 -0.3697
 5062TIP3    H236602   3.731   1.095   0.284 -1.6709  0.3917  2.4639
 5063TIP3   OH236603   3.474   2.970   1.998  0.4921  0.1113 -0.2951
 5063TIP3    H136604   3.443   2.924   1.920  0.3395 -0.7256  0.2513
 5063TIP3    H236605   3.557   2.927   2.020 -0.0760 -0.4916  0.7145
 5064TIP3   OH236606   3.435   5.740   5.624  0.3885  0.2643 -0.8371
 5064TIP3    H136607   3.480   5.661   5.655 -1.0825 -0.0967  0.4695
 5064TIP3    H236608   3.505   5.804   5.612  1.3613 -0.5685  0.2537
 5065TIP3   OH236609   4.072   4.895  13.319  0.1000  0.1467 -0.1014
 5065TIP3    H136610   4.012   4.947  13.371 -1.8750 -1.6212 -0.5617
 5065TIP3    H236611   4.044   4.909  13.228  0.0274 -1.1376 -0.2823
 5066TIP3   OH236612   0.330   1.421  12.698  0.1453  0.0844 -0.1979
 5066TIP3    H136613   0.325   1.514  12.679 -0.9649  0.5029  2.0362
 5066TIP3    H236614   0.245   1.386  12.671  0.6707 -0.3579 -1.3180
 5067TIP3   OH236615   3.407   2.577   0.269 -0.6842  0.6632 -0.3313
 5067TIP3    H136616   3.391   2.624   0.351 -0.9637  0.5549 -0.3243
 5067TIP3    H236617   3.336   2.513   0.264  0.4558 -0.6688  0.3299
 5068TIP3   OH236618   1.142   2.248  13.172 -0.0214  0.1743  0.0514
 5068TIP3    H136619   1.059   2.204  13.151 -0.5887  1.0072  0.5340
 5068TIP3    H236620   1.130   2.337  13.141 -0.2208  0.9520  2.2935
 5069TIP3   OH236621   3.737   0.966  11.861 -0.4027 -0.4381  0.1718
 5069TIP3    H136622   3.648   0.942  11.838 -0.4837 -3.0358  2.8406
 5069TIP3    H236623   3.730   1.004  11.949  0.8801  1.2285 -0.4255
 5070TIP3   OH236624   0.701   5.306  16.234 -0.0089 -0.3926 -0.0265
 5070TIP3    H136625   0.724   5.221  16.273  2.9612  0.6377  0.5962
 5070TIP3    H236626   0.654   5.284  16.154  1.2744 -2.6632 -0.2011
 5071TIP3   OH236627   4.189   5.860  15.320 -0.7460  0.1985  0.0610
 5071TIP3    H136628   4.165   5.773  15.289 -0.5195  0.7996 -1.8227
 5071TIP3    H236629   4.104   5.904  15.334 -0.8403  0.2627 -0.6932
 5072TIP3   OH236630   1.982   4.643   5.985 -0.1013 -0.2526  0.1637
 5072TIP3    H136631   2.045   4.609   6.048 -0.7432  1.3864  1.7100
 5072TIP3    H236632   2.036   4.675   5.912  0.6622 -1.6010  0.1216
 5073TIP3   OH236633   5.715   3.078   2.973  0.1378  0.0513  0.5747
 5073TIP3    H136634   5.652   3.134   2.927 -1.6259 -0.7450  1.9566
 5073TIP3    H236635   5.677   2.991   2.969  1.1223 -0.4298  1.5054
 5074TIP3   OH236636   1.452   2.935   6.257  0.0456  0.4209  0.4513
 5074TIP3    H136637   1.479   2.878   6.328 -2.2291  0.5613  1.4791
 5074TIP3    H236638   1.515   3.008   6.259  0.7317 -0.1950  1.5102
 5075TIP3   OH236639   3.404   0.664  15.602 -0.1461 -0.4506 -0.1426
 5075TIP3    H136640   3.362   0.662  15.516  0.5815 -0.6512 -0.4962
 5075TIP3    H236641   3.332   0.676  15.664 -0.7773 -1.3380 -0.6987
 5076TIP3   OH236642   4.211   1.548   0.362  0.2483 -0.6171  0.3279
 5076TIP3    H136643   4.116   1.544   0.349  0.1058 -0.3267  1.2355
 5076TIP3    H236644   4.226   1.496   0.441  0.4799  1.8172  1.9234
 5077TIP3   OH236645   0.114   2.557  14.882  0.0564  0.0454  0.3486
 5077TIP3    H136646   0.181   2.493  14.908  1.4016  1.8762  1.5332
 5077TIP3    H236647   0.086   2.597  14.964 -1.5609  0.2287 -0.2768
 5078TIP3   OH236648   1.802   3.796   4.957  0.2510 -0.2022 -0.0784
 5078TIP3    H136649   1.884   3.813   4.911  0.5539  0.9977  0.8814
 5078TIP3    H236650   1.828   3.749   5.036  0.0308  0.3002  0.2941
 5079TIP3   OH236651   5.706   1.501  12.127  0.4089  0.4570 -0.4879
 5079TIP3    H136652   5.682   1.440  12.057  1.8580  0.5043 -1.0437
 5079TIP3    H236653   5.799   1.519  12.112 -0.1565  3.4046 -0.8093
 5080TIP3   OH236654   4.521   0.117   0.290 -0.0540 -0.0734  0.1396
 5080TIP3    H136655   4.549   0.050   0.353  0.7355  1.0196  0.9619
 5080TIP3    H236656   4.536   0.200   0.335  0.8367  0.7350 -1.6091
 5081TIP3   OH236657   2.004   1.519  15.973 -0.3203  0.3381  0.5166
 5081TIP3    H136658   1.920   1.477  15.951 -1.3163  1.9683  1.0875
 5081TIP3    H236659   2.049   1.528  15.889 -1.0958  0.2305  0.0836
 5082TIP3   OH236660   3.929   6.217  11.360  0.8672  0.4882 -0.1045
 5082TIP3    H136661   3.930   6.300  11.407 -0.6256  0.3735  0.1769
 5082TIP3    H236662   3.895   6.154  11.424 -2.8715  0.6594 -1.7650
 5083TIP3   OH236663   1.498   0.276   2.574 -0.2446 -0.3484  0.1061
 5083TIP3    H136664   1.563   0.208   2.593 -1.3743 -0.9091  2.0913
 5083TIP3    H236665   1.489   0.325   2.656 -1.5689  0.3686 -0.4516
 5084TIP3   OH236666   2.204   5.118  17.231 -0.3179 -0.0706  0.0019
 5084TIP3    H136667   2.186   5.038  17.183  2.1158  0.5879 -2.1295
 5084TIP3    H236668   2.212   5.091  17.322 -0.8387 -2.0176 -0.5253
 5085TIP3   OH236669   2.457   3.607   2.261  0.3624  0.5278  0.1560
 5085TIP3    H136670   2.395   3.680   2.256 -1.1037 -0.7387 -1.0105
 5085TIP3    H236671   2.402   3.529   2.250  2.1350 -0.6488 -0.5385
 5086TIP3   OH236672   1.789   2.003  13.142 -0.1471  0.3861  0.2063
 5086TIP3    H136673   1.761   2.047  13.223 -1.5567  0.5082 -0.3434
 5086TIP3    H236674   1.716   1.946  13.119 -0.2942  1.3282 -1.7014
 5087TIP3   OH236675   1.462   4.931  14.230  0.4810  0.4802 -0.4383
 5087TIP3    H136676   1.529   4.977  14.179  0.8155 -1.4153 -1.7874
 5087TIP3    H236677   1.392   4.913  14.167  1.0710 -2.2369 -0.3820
 5088TIP3   OH236678   4.264   0.721   5.388 -0.2022 -0.1635  0.5483
 5088TIP3    H136679   4.267   0.675   5.472 -0.3282  0.0497  0.6695
 5088TIP3    H236680   4.197   0.675   5.338 -0.7888  0.2982  0.9114
 5089TIP3   OH236681   5.025   5.193  13.956 -0.1060 -0.0465 -0.2329
 5089TIP3    H136682   4.935   5.162  13.961  0.1224 -0.3109  2.5792
 5089TIP3    H236683   5.019   5.288  13.962 -0.3763  0.1593 -3.0775
 5090TIP3   OH236684   2.000   3.389   2.652 -0.4170  0.0727  0.3308
 5090TIP3    H136685   1.974   3.323   2.588  0.1345  0.2582 -0.0887
 5090TIP3    H236686   2.089   3.414   2.626  0.5015 -1.1406  2.2229
 5091TIP3   OH236687   0.609   5.397   2.655  0.1885 -0.1832 -0.3601
 5091TIP3    H136688   0.617   5.351   2.571 -0.3746 -0.6327 -0.1694
 5091TIP3    H236689   0.520   5.378   2.684  0.6365 -0.6820  0.7225
 5092TIP3   OH236690   5.676   3.998  15.847  0.4264  0.1431  0.2880
 5092TIP3    H136691   5.612   3.959  15.907  1.0762 -1.6020 -0.1414
 5092TIP3    H236692   5.759   3.959  15.871  1.4091  2.6213  1.0142
 5093TIP3   OH236693   4.979   6.143  11.535  0.4007 -0.4557  0.0938
 5093TIP3    H136694   4.962   6.155  11.628  0.5738  0.0997  0.0595
 5093TIP3    H236695   5.017   6.056  11.528  1.1294 -0.1790  0.6411
 5094TIP3   OH236696   4.471   6.579   2.185 -0.4773  0.5257 -0.1340
 5094TIP3    H136697   4.553   6.536   2.162 -0.4325  0.7774 -0.4543
 5094TIP3    H236698   4.409   6.508   2.201 -0.6349  0.3402 -1.5032
 5095TIP3   OH236699   0.933   2.974   1.224 -0.0233 -0.8077  0.8285
 5095TIP3    H136700   0.926   2.920   1.146  0.2496 -1.8886  1.5338
 5095TIP3    H236701   0.971   3.056   1.193 -0.5783 -0.9623 -0.2804
 5096TIP3   OH236702   2.518   4.112   3.630  0.1786 -0.4565  0.0700
 5096TIP3    H136703   2.433   4.117   3.673 -0.2725 -1.8421 -0.6293
 5096TIP3    H236704   2.537   4.019   3.626  1.6304 -0.1650  0.0131
 5097TIP3   OH236705   3.875   4.636   0.233 -0.0178  0.0756 -0.2448
 5097TIP3    H136706   3.807   4.612   0.295  0.5149  0.8821  0.6703
 5097TIP3    H236707   3.859   4.580   0.156 -0.2518 -1.4421  0.8873
 5098TIP3   OH236708   1.682   3.594  12.161  0.5159  0.4493  0.3682
 5098TIP3    H136709   1.742   3.663  12.132  1.4831 -0.7304 -0.4781
 5098TIP3    H236710   1.738   3.518  12.176 -0.5017 -0.0782  1.6005
 5099TIP3   OH236711   2.529   1.983   4.919  0.0635 -0.8188 -0.2402
 5099TIP3    H136712   2.624   1.981   4.919  0.1772  2.5065 -0.1819
 5099TIP3    H236713   2.505   2.000   5.010 -0.5937 -1.5130 -0.2783
 5100TIP3   OH236714   4.872   3.280  13.962  0.2044 -0.3010 -0.1878
 5100TIP3    H136715   4.803   3.321  13.911  0.1115 -0.6748 -0.3652
 5100TIP3    H236716   4.937   3.253  13.898  0.8604  0.7140  0.0519
 5101TIP3   OH236717   5.951   3.602  13.103 -0.0350 -0.0676 -0.3739
 5101TIP3    H136718   6.010   3.529  13.117  1.4058  0.9506 -0.9950
 5101TIP3    H236719   5.988   3.674  13.154 -0.8759  0.5076 -0.5475
 5102TIP3   OH236720   2.067   5.821  11.677 -0.0575  0.0786  0.2102
 5102TIP3    H136721   2.090   5.911  11.699 -0.7118  1.1033 -3.0590
 5102TIP3    H236722   1.990   5.802  11.731  0.0193  1.4912  0.8347
 5103TIP3   OH236723   5.342   0.433  16.159  0.3120  0.3743  0.1199
 5103TIP3    H136724   5.285   0.509  16.150  0.1078  0.0844 -1.0809
 5103TIP3    H236725   5.318   0.395  16.244  0.0306  1.3215  0.4710
 5104TIP3   OH236726   1.878   4.551  16.408  0.3021 -0.3186 -0.4212
 5104TIP3    H136727   1.816   4.489  16.446  0.4790  0.2988  0.8921
 5104TIP3    H236728   1.877   4.531  16.314 -0.3699 -1.6516 -0.1406
 5105TIP3   OH236729   5.583   5.596  11.217 -0.2674 -0.4721  0.2750
 5105TIP3    H136730   5.674   5.622  11.231  0.7189 -3.3984 -0.3746
 5105TIP3    H236731   5.581   5.503  11.236 -2.8075 -0.7927 -1.2561
 5106TIP3   OH236732   0.437   6.061   5.051 -0.2409 -0.4267  0.4602
 5106TIP3    H136733   0.425   5.992   4.986 -1.8765 -0.6895  1.0153
 5106TIP3    H236734   0.518   6.105   5.024 -1.5747  0.3339 -2.5392
 5107TIP3   OH236735   1.644   5.653   3.752 -0.1435 -0.7970  0.3847
 5107TIP3    H136736   1.625   5.619   3.665  0.5740 -1.1797  0.3750
 5107TIP3    H236737   1.573   5.622   3.806 -1.4841  0.8109 -0.4016
 5108TIP3   OH236738   4.440   3.239   1.002  0.4604  0.0401 -0.0443
 5108TIP3    H136739   4.356   3.208   1.036  2.1642 -2.0638  2.4953
 5108TIP3    H236740   4.443   3.206   0.912 -2.1264  1.6044 -0.7396
 5109TIP3   OH236741   1.112   6.261   4.199  0.3232  0.2010  0.0104
 5109TIP3    H136742   1.093   6.247   4.292  1.2487  0.3065  0.2179
 5109TIP3    H236743   1.026   6.267   4.158 -0.1326 -2.4690  0.4699
 5110TIP3   OH236744   1.337   0.397   4.504 -0.5368 -0.2279  0.1549
 5110TIP3    H136745   1.388   0.377   4.582  0.6996 -0.5688 -0.7235
 5110TIP3    H236746   1.387   0.464   4.459 -1.8706  0.8562  0.2651
 5111TIP3   OH236747   5.973   3.295  15.245  0.3529  0.1417 -0.3110
 5111TIP3    H136748   5.983   3.301  15.150  0.2644  0.9441 -0.2735
 5111TIP3    H236749   5.889   3.249  15.256  0.7597 -0.6867 -0.6146
 5112TIP3   OH236750   1.380   3.588  13.235 -0.1495 -0.0312  0.3507
 5112TIP3    H136751   1.344   3.659  13.182  1.0863  0.4752  0.1654
 5112TIP3    H236752   1.428   3.533  13.172 -0.1906 -0.4329  0.6689
 5113TIP3   OH236753   4.079   0.941  13.501  0.4303  0.0605  0.8521
 5113TIP3    H136754   4.001   0.982  13.537 -0.1347  0.0620 -0.3633
 5113TIP3    H236755   4.147   1.008  13.510 -0.7045  1.6900 -1.9967
 5114TIP3   OH236756   4.389   5.797  16.417  0.0423  0.3231  0.0037
 5114TIP3    H136757   4.375   5.881  16.374  1.5838  0.2719 -0.6293
 5114TIP3    H236758   4.301   5.764  16.435 -0.5921  1.2921 -1.2599
 5115TIP3   OH236759   5.778   0.669   0.144 -0.1175  0.1869  0.9960
 5115TIP3    H136760   5.825   0.742   0.105  1.8052 -0.6796  1.6385
 5115TIP3    H236761   5.756   0.699   0.232 -1.3929  0.8453  0.4630
 5116TIP3   OH236762   6.729   5.430   5.331  0.0508  0.1357  0.6122
 5116TIP3    H136763   6.794   5.500   5.324  0.7540 -0.4880  0.8386
 5116TIP3    H236764   6.713   5.403   5.240  1.1639 -0.6610  0.6397
 5117TIP3   OH236765   4.090   4.684   4.081 -0.0860 -0.2525 -0.1852
 5117TIP3    H136766   4.021   4.652   4.023 -1.9304  0.2514  1.6736
 5117TIP3    H236767   4.046   4.746   4.139  1.9753  0.1984  0.9564
 5118TIP3   OH236768   2.274   6.528  11.679  0.5507 -0.2144  0.1385
 5118TIP3    H136769   2.338   6.505  11.611 -0.0336  3.6724 -1.8552
 5118TIP3    H236770   2.210   6.457  11.676  1.8140 -1.3383 -1.7137
 5119TIP3   OH236771   0.906   2.361  15.271 -0.1218  0.3088  0.2659
 5119TIP3    H136772   0.868   2.409  15.198 -0.4841 -0.3893 -0.0083
 5119TIP3    H236773   0.838   2.362  15.339 -0.0173  0.4306  0.3706
 5120TIP3   OH236774   1.713   0.104   5.208  0.5370 -0.3403  0.8114
 5120TIP3    H136775   1.676   0.180   5.253 -0.3357 -0.8790  1.0271
 5120TIP3    H236776   1.753   0.051   5.277 -0.0714 -0.7549  0.8523
 5121TIP3   OH236777   0.804   4.096   6.258 -0.3657 -0.7439 -0.0779
 5121TIP3    H136778   0.878   4.068   6.204 -0.3509 -1.4515  0.3022
 5121TIP3    H236779   0.812   4.044   6.338 -1.2139 -0.7486  0.0086
 5122TIP3   OH236780   0.299   6.081  16.441  0.1186 -0.3951  0.4163
 5122TIP3    H136781   0.232   6.085  16.372 -1.4718 -0.2942  1.9302
 5122TIP3    H236782   0.292   6.165  16.486  3.0443  0.6448 -1.0091
 5123TIP3   OH236783   6.324   2.651  14.245 -0.0352 -0.1468 -0.1776
 5123TIP3    H136784   6.261   2.608  14.188  0.5759  0.7604 -1.5660
 5123TIP3    H236785   6.398   2.672  14.188  0.9660 -0.0033  1.1369
 5124TIP3   OH236786   2.059   6.367  14.088 -0.2293 -0.1316  0.3422
 5124TIP3    H136787   2.000   6.440  14.105  1.2367  1.0844  0.2060
 5124TIP3    H236788   2.003   6.289  14.098 -1.3581  0.9022  2.2681
 5125TIP3   OH236789   1.768   3.786  14.041  0.0444  0.4159  0.3723
 5125TIP3    H136790   1.810   3.730  14.107 -0.0743  0.6702  0.6617
 5125TIP3    H236791   1.676   3.758  14.041  0.0092  0.5320  0.4342
 5126TIP3   OH236792   0.008   0.826  16.417  0.0967  0.4855  0.4435
 5126TIP3    H136793  -0.044   0.755  16.455  1.1844  0.5016  2.0197
 5126TIP3    H236794   0.060   0.784  16.348  0.4173 -0.1721  1.0794
 5127TIP3   OH236795   5.955   4.598   4.889 -0.1437 -0.3092  1.0737
 5127TIP3    H136796   6.043   4.635   4.881 -0.8967  1.4216  0.5850
 5127TIP3    H236797   5.937   4.601   4.983  0.1287 -0.1967  1.1234
 5128TIP3   OH236798   5.558   2.254  11.184  0.4957 -0.2438  0.1750
 5128TIP3    H136799   5.466   2.240  11.160  0.1027  0.0759  1.4760
 5128TIP3    H236800   5.564   2.225  11.275  1.8287 -0.8198 -0.0804
 5129TIP3   OH236801   4.568   1.677   3.980  0.4017  0.4467 -0.2274
 5129TIP3    H136802   4.571   1.677   4.076 -2.8887  0.9093 -0.0486
 5129TIP3    H236803   4.628   1.746   3.954  1.1087  0.5301  1.5278
 5130TIP3   OH236804   2.673   3.183   4.268 -0.0345  0.3399  0.2764
 5130TIP3    H136805   2.693   3.274   4.244 -0.0664 -0.0430 -1.2588
 5130TIP3    H236806   2.585   3.187   4.305  0.5869  1.1669  1.7027
 5131TIP3   OH236807   5.622   6.137  14.173  0.2512 -0.3083 -0.3490
 5131TIP3    H136808   5.556   6.206  14.165  0.4062 -0.1681 -0.4293
 5131TIP3    H236809   5.705   6.183  14.183  0.2174 -0.4860  0.8240
 5132TIP3   OH236810   1.502   5.952   4.829 -0.2002  0.0626  0.0639
 5132TIP3    H136811   1.429   5.894   4.851  0.2037 -0.9197 -1.1802
 5132TIP3    H236812   1.579   5.908   4.864 -0.0258  0.4118  0.1189
 5133TIP3   OH236813   3.242   2.816   4.062  0.4030  0.3140  1.0384
 5133TIP3    H136814   3.234   2.804   4.156  1.0706 -0.8415  0.9610
 5133TIP3    H236815   3.335   2.804   4.044  0.4671  1.7276  0.3885
 5134TIP3   OH236816   1.766   5.798   2.324  0.4910 -0.2773  0.0723
 5134TIP3    H136817   1.678   5.761   2.317 -0.0395  1.0632 -0.4266
 5134TIP3    H236818   1.800   5.795   2.235  0.5296  0.2266  0.0679
 5135TIP3   OH236819   1.703   6.075  15.656  0.0067 -0.0802 -0.1478
 5135TIP3    H136820   1.784   6.026  15.671 -0.9123 -2.0830 -1.4738
 5135TIP3    H236821   1.663   6.082  15.743 -0.8953 -3.6501 -0.1855
 5136TIP3   OH236822   3.983   4.723  13.534  0.0704 -0.6223 -0.1509
 5136TIP3    H136823   3.921   4.760  13.470 -1.6002 -3.4186 -0.2459
 5136TIP3    H236824   4.062   4.706  13.483 -0.7239 -1.4004 -1.1618
 5137TIP3   OH236825   1.929   6.071   5.570 -0.2942 -0.0002  0.3279
 5137TIP3    H136826   1.901   6.158   5.597 -0.9019 -0.5016  1.3225
 5137TIP3    H236827   1.984   6.039   5.642 -0.9040 -0.8413  0.4259
 5138TIP3   OH236828   4.580   5.280  15.906 -0.9843 -0.1817 -0.1095
 5138TIP3    H136829   4.564   5.187  15.895  0.0436 -0.2436 -1.1397
 5138TIP3    H236830   4.657   5.284  15.963 -0.0699  0.0084 -1.3441
 5139TIP3   OH236831   6.071   1.562   0.248 -0.1514 -0.0142 -0.2812
 5139TIP3    H136832   6.147   1.592   0.298  0.5319 -1.2489 -0.5361
 5139TIP3    H236833   6.043   1.639   0.198  0.3085  0.7226  0.5844
 5140TIP3   OH236834   4.268   6.492   4.586 -0.1535 -0.1337  0.0376
 5140TIP3    H136835   4.202   6.549   4.548  1.0756  0.3500 -1.4374
 5140TIP3    H236836   4.339   6.491   4.522  1.6070 -0.0193  1.9236
 5141TIP3   OH236837   2.493   0.260  11.522  0.0003  0.1718  0.0654
 5141TIP3    H136838   2.499   0.352  11.497 -0.1822  0.2461  0.2818
 5141TIP3    H236839   2.445   0.262  11.605  1.1570 -0.0150  0.7497
 5142TIP3   OH236840   5.688   3.199   1.786 -0.9013 -0.3779  0.1331
 5142TIP3    H136841   5.706   3.183   1.694 -0.0369  0.3424  0.1754
 5142TIP3    H236842   5.732   3.282   1.806 -0.2507 -1.0181  1.4328
 5143TIP3   OH236843   1.531   4.370   3.099 -1.3069 -0.1610  0.0163
 5143TIP3    H136844   1.615   4.329   3.078 -0.8494  0.9991 -0.4823
 5143TIP3    H236845   1.554   4.457   3.132 -2.3162  0.3055 -0.4721
 5144TIP3   OH236846   0.169   4.430   2.032 -0.0385 -0.2188 -0.5561
 5144TIP3    H136847   0.241   4.368   2.046  0.6648  0.6018 -0.4939
 5144TIP3    H236848   0.137   4.410   1.944  1.9247  1.0720 -1.5942
 5145TIP3   OH236849   1.566   5.312  12.687 -0.2125 -0.7202 -0.2044
 5145TIP3    H136850   1.491   5.263  12.653  0.5571 -1.3043 -1.0693
 5145TIP3    H236851   1.642   5.259  12.664  0.5641  0.4580 -0.4027
 5146TIP3   OH236852   5.048   2.683   1.310 -0.9162  0.1996  0.0039
 5146TIP3    H136853   5.023   2.726   1.229  1.0217 -0.1277 -0.8060
 5146TIP3    H236854   4.965   2.657   1.350 -1.9802  2.2568 -0.8065
 5147TIP3   OH236855   1.418   2.060  12.953 -0.5161 -0.2601 -0.0309
 5147TIP3    H136856   1.427   2.154  12.940 -0.3590 -0.3633 -0.6428
 5147TIP3    H236857   1.475   2.041  13.028  2.1410 -0.4309 -2.0260
 5148TIP3   OH236858   6.564   3.364   4.789 -0.1109  0.9990  0.4457
 5148TIP3    H136859   6.532   3.439   4.739 -1.8293  0.0277  0.0719
 5148TIP3    H236860   6.648   3.393   4.824  0.2643  2.3432 -1.4836
 5149TIP3   OH236861   3.244   1.585  16.930  0.0960 -0.3208  0.2829
 5149TIP3    H136862   3.314   1.553  16.874 -0.2136  0.0555 -0.3234
 5149TIP3    H236863   3.225   1.512  16.989  2.0464  0.1080  1.4702
 5150TIP3   OH236864   2.762   2.733   5.698 -0.3818 -0.2358  0.1343
 5150TIP3    H136865   2.706   2.724   5.621 -1.2564 -1.8852  0.9278
 5150TIP3    H236866   2.703   2.768   5.766  0.3914  1.2567  0.0540
 5151TIP3   OH236867   3.719   2.766   4.401 -0.1597  0.0439 -0.7884
 5151TIP3    H136868   3.707   2.769   4.307  0.0480 -2.7573 -0.9551
 5151TIP3    H236869   3.809   2.734   4.413  0.4332  2.0679  0.3713
 5152TIP3   OH236870   2.408   3.151   1.047 -0.4442  0.4407 -1.0486
 5152TIP3    H136871   2.393   3.108   1.131 -1.1099  1.4975 -0.6202
 5152TIP3    H236872   2.496   3.190   1.056 -0.4535  0.4251 -0.8894
 5153TIP3   OH236873   6.645   3.536  12.806  0.4070  0.5508  0.4430
 5153TIP3    H136874   6.741   3.539  12.800  0.4991 -1.4048  0.8138
 5153TIP3    H236875   6.617   3.623  12.778  2.1847  0.4117 -1.9596
 5154TIP3   OH236876   4.878   3.561   5.138  0.0801 -0.1279 -0.1246
 5154TIP3    H136877   4.800   3.505   5.140  0.9079 -1.2980  1.4227
 5154TIP3    H236878   4.884   3.592   5.048 -1.5317 -0.9364 -0.5276
 5155TIP3   OH236879   3.172   3.600   4.668 -0.1146  0.0420  0.1424
 5155TIP3    H136880   3.194   3.648   4.588 -1.1868 -0.3663 -0.4005
 5155TIP3    H236881   3.194   3.661   4.739  0.1869  0.6641 -0.4808
 5156TIP3   OH236882   0.725   6.694  15.022 -0.1778  0.0766  0.8520
 5156TIP3    H136883   0.647   6.742  15.052 -0.3956 -0.3872  1.0427
 5156TIP3    H236884   0.706   6.603  15.044 -1.0201 -0.5102 -2.1570
 5157TIP3   OH236885   4.391   2.792   3.463  0.1789 -0.4788 -0.1966
 5157TIP3    H136886   4.463   2.743   3.425 -0.5395  0.1761 -2.5024
 5157TIP3    H236887   4.429   2.878   3.483  0.2444 -0.4299 -0.5410
 5158TIP3   OH236888   0.060   3.151  16.604  0.6715 -0.2328 -0.3862
 5158TIP3    H136889   0.050   3.246  16.611 -1.1323 -0.4785  0.7352
 5158TIP3    H236890   0.046   3.132  16.511  1.2915  0.6199 -0.6578
 5159TIP3   OH236891   4.948   4.873  15.729  0.0656  0.0222 -0.0541
 5159TIP3    H136892   4.868   4.829  15.757  0.5208 -0.6869  0.1450
 5159TIP3    H236893   5.008   4.802  15.705  1.1087  0.5052  1.0641
 5160TIP3   OH236894   1.123   6.650  13.107  0.0567  0.2266  0.8267
 5160TIP3    H136895   1.051   6.695  13.152 -0.1109  0.1401  0.6462
 5160TIP3    H236896   1.158   6.589  13.172  2.1197  2.5971  2.0322
 5161TIP3   OH236897   3.083   2.897   2.619 -0.0199 -0.3657  0.4006
 5161TIP3    H136898   3.057   2.987   2.598 -0.9782 -1.0719 -1.6453
 5161TIP3    H236899   3.177   2.903   2.638 -0.3414  1.2527  1.6076
 5162TIP3   OH236900   5.172   0.876  14.906 -0.0159 -0.0536  0.6396
 5162TIP3    H136901   5.249   0.819  14.901 -0.4187 -0.5676  0.0055
 5162TIP3    H236902   5.205   0.964  14.892  0.4289 -0.3007  0.1152
 5163TIP3   OH236903   2.016   4.652   3.593  0.2720  0.3489 -0.5760
 5163TIP3    H136904   2.032   4.657   3.499 -1.6200 -0.3612 -0.9585
 5163TIP3    H236905   1.921   4.662   3.603  0.0213 -2.8052  0.9570
 5164TIP3   OH236906   3.942   6.779  15.649 -0.5912 -0.6094 -0.0171
 5164TIP3    H136907   3.965   6.687  15.651 -0.8393 -0.6518  0.9182
 5164TIP3    H236908   3.852   6.783  15.680 -0.1069  0.0878  1.3466
 5165TIP3   OH236909   3.484   0.894   0.537  0.3687 -0.1320  0.0730
 5165TIP3    H136910   3.542   0.843   0.595  1.9081  2.0601  0.5300
 5165TIP3    H236911   3.434   0.950   0.596  0.2290  0.4175 -0.5590
 5166TIP3   OH236912   3.985   5.831   0.045  0.0580  0.3965  0.1024
 5166TIP3    H136913   3.970   5.853  -0.047 -1.4408  0.0483  0.2540
 5166TIP3    H236914   4.007   5.914   0.086  0.5031  0.5920 -0.5117
 5167TIP3   OH236915   1.524   5.043   2.309 -0.1175 -0.0341 -0.1371
 5167TIP3    H136916   1.449   5.102   2.302 -1.1860 -1.4420 -0.7004
 5167TIP3    H236917   1.512   4.998   2.392 -0.2658 -0.7605 -0.5499
 5168TIP3   OH236918   4.659   1.091  11.541 -0.5645  0.0451  0.9083
 5168TIP3    H136919   4.733   1.117  11.596 -0.6218  1.0725  0.5206
 5168TIP3    H236920   4.676   1.135  11.458 -0.4751 -1.5001  0.0948
 5169TIP3   OH236921   3.526   5.154   3.455  0.0346  0.1464  0.2375
 5169TIP3    H136922   3.480   5.076   3.485 -2.8367  2.3854  1.9670
 5169TIP3    H236923   3.537   5.207   3.534  0.4661  2.2099 -1.1642
 5170TIP3   OH236924   5.160   3.153   5.456 -0.2128 -0.2188 -0.3099
 5170TIP3    H136925   5.130   3.241   5.434  0.2525  0.1511  0.5044
 5170TIP3    H236926   5.255   3.158   5.446  0.0409  0.0393  2.0035
 5171TIP3   OH236927   4.012   2.864   4.211 -0.0501 -0.0000  0.1954
 5171TIP3    H136928   3.979   2.824   4.131 -1.0850 -2.2141  1.6802
 5171TIP3    H236929   4.081   2.805   4.241 -0.5172  0.1486  1.5949
 5172TIP3   OH236930   1.034   0.668   1.596  0.1847  0.1353  0.6716
 5172TIP3    H136931   0.948   0.630   1.615 -0.6163  2.5949  2.3093
 5172TIP3    H236932   1.015   0.749   1.549  1.6516  0.2604  0.2603
 5173TIP3   OH236933   4.164   6.267  14.645  0.1689 -0.3295  0.2894
 5173TIP3    H136934   4.191   6.343  14.594  0.8766 -0.0654  1.0669
 5173TIP3    H236935   4.229   6.200  14.625 -0.0584 -0.5095  0.1513
 5174TIP3   OH236936   3.324   0.627  11.386 -0.0809 -0.2840 -0.3123
 5174TIP3    H136937   3.324   0.718  11.414  1.4924 -0.5751  0.7156
 5174TIP3    H236938   3.290   0.578  11.461  1.4118 -0.7825  0.0524
 5175TIP3   OH236939   3.664   5.797  12.818  0.0764 -0.8484  0.8010
 5175TIP3    H136940   3.630   5.821  12.732 -3.6536  1.1862  2.7402
 5175TIP3    H236941   3.743   5.851  12.827 -0.3730  0.1055 -0.7017
 5176TIP3   OH236942   0.936   0.836   4.365 -0.0530 -0.0368 -0.2384
 5176TIP3    H136943   0.875   0.773   4.327  2.1343 -1.0537 -2.1614
 5176TIP3    H236944   0.989   0.784   4.426  0.7341  0.2539 -0.6692
 5177TIP3   OH236945   5.387   2.662   2.080 -0.1322 -0.5703  0.0815
 5177TIP3    H136946   5.417   2.576   2.110 -0.7016 -0.7892  0.0167
 5177TIP3    H236947   5.323   2.644   2.012  1.1875 -0.0666 -1.3407
 5178TIP3   OH236948   3.070   1.206  12.297 -0.3040 -0.3078  0.2506
 5178TIP3    H136949   3.023   1.186  12.215 -1.2918 -1.1520  1.0135
 5178TIP3    H236950   3.162   1.201  12.273 -0.5692  1.7067 -1.3626
 5179TIP3   OH236951   1.257   5.709   1.235 -0.0615 -0.3245 -0.1589
 5179TIP3    H136952   1.294   5.655   1.164 -0.6342 -1.2635  0.2499
 5179TIP3    H236953   1.177   5.746   1.197 -0.8977 -1.6263  0.3164
 5180TIP3   OH236954   6.621   0.771  13.127 -0.1771  0.3341 -0.0825
 5180TIP3    H136955   6.559   0.700  13.144 -0.7800  0.9540  0.3530
 5180TIP3    H236956   6.696   0.752  13.184  0.4055 -0.8654 -1.2210
 5181TIP3   OH236957   1.677   0.224   6.235  0.0992 -0.0734 -1.0734
 5181TIP3    H136958   1.726   0.157   6.188  2.3383 -0.0212  1.0670
 5181TIP3    H236959   1.715   0.224   6.323 -1.6300  2.1946 -0.2763
 5182TIP3   OH236960   2.768   3.135   2.246 -0.4856 -0.2061 -0.4708
 5182TIP3    H136961   2.706   3.161   2.178  0.4170  0.1001 -1.1979
 5182TIP3    H236962   2.841   3.096   2.198  1.2443  2.1486  0.1251
 5183TIP3   OH236963   2.943   4.315  12.009 -0.2196  0.7386 -0.5439
 5183TIP3    H136964   2.870   4.370  11.980 -0.5252  0.6559  0.0523
 5183TIP3    H236965   2.932   4.310  12.104 -0.2419 -0.4349 -0.6068
 5184TIP3   OH236966   5.546   4.170  14.214 -0.4612  0.2225  0.1186
 5184TIP3    H136967   5.530   4.263  14.202  0.0201  0.5359  1.7485
 5184TIP3    H236968   5.632   4.165  14.255 -1.0776 -0.8480  1.3225
 5185TIP3   OH236969   5.570   2.602  12.552 -0.0527 -0.2024 -0.0581
 5185TIP3    H136970   5.578   2.613  12.647  1.1824 -1.4074 -0.0167
 5185TIP3    H236971   5.489   2.553  12.541 -1.1668  1.5164  0.2430
 5186TIP3   OH236972   5.341   0.774   1.624 -0.4597  0.3867  0.3720
 5186TIP3    H136973   5.256   0.807   1.652  0.5491  0.4157  3.6044
 5186TIP3    H236974   5.404   0.834   1.663  1.0852  0.3528 -1.9523
 5187TIP3   OH236975   0.053   2.659   5.083  0.0156  0.5590  0.8686
 5187TIP3    H136976  -0.027   2.671   5.133 -1.8404 -2.2486 -1.2780
 5187TIP3    H236977   0.069   2.564   5.085  0.9057  0.5798 -2.2569
 5188TIP3   OH236978   2.695   6.496  11.217 -0.2200 -0.1687  0.0358
 5188TIP3    H136979   2.717   6.503  11.310 -0.1349 -1.5723  0.1392
 5188TIP3    H236980   2.735   6.573  11.177  1.7323 -0.7448  0.8213
 5189TIP3   OH236981   6.605   2.553  17.002 -0.1404 -0.3244 -0.2662
 5189TIP3    H136982   6.515   2.578  16.983  0.0435 -0.6189 -1.6110
 5189TIP3    H236983   6.633   2.614  17.070 -1.5266 -0.6010  0.5696
 5190TIP3   OH236984   5.509   0.190   3.488  0.3528 -0.1286 -0.0943
 5190TIP3    H136985   5.448   0.127   3.526  1.3820 -1.2375 -0.2491
 5190TIP3    H236986   5.579   0.197   3.553 -0.9187  2.7398  1.0719
 5191TIP3   OH236987   5.182   6.316   4.880  0.1684  0.1210 -0.1071
 5191TIP3    H136988   5.239   6.277   4.814 -0.4879 -1.3481  0.1619
 5191TIP3    H236989   5.101   6.265   4.874 -1.2695  2.4088 -0.7586
 5192TIP3   OH236990   6.545   6.366  15.196 -0.2994 -0.8322  0.1754
 5192TIP3    H136991   6.616   6.309  15.226  1.3119  0.3395 -1.2567
 5192TIP3    H236992   6.550   6.442  15.254  0.7239 -0.0153 -0.9417
 5193TIP3   OH236993   4.764   4.575  15.082  0.0055 -0.3089 -0.0031
 5193TIP3    H136994   4.688   4.631  15.062 -0.2881 -1.0488 -0.9942
 5193TIP3    H236995   4.834   4.637  15.103 -1.0439  0.3670  1.5897
 5194TIP3   OH236996   1.264   1.451  11.745 -0.2583 -0.3456 -0.5459
 5194TIP3    H136997   1.209   1.373  11.739 -1.3033  0.3459 -0.0692
 5194TIP3    H236998   1.216   1.519  11.699 -0.5838  0.6832  1.2577
 5195TIP3   OH236999   3.380   1.550  13.194  0.1429  0.8680 -0.2274
 5195TIP3    H137000   3.393   1.613  13.124  0.4502 -0.0250 -0.9833
 5195TIP3    H237001   3.468   1.520  13.216 -0.0705 -0.0772 -0.6111
 5196TIP3   OH237002   5.541   5.813  11.898  0.3266  0.9403 -0.4274
 5196TIP3    H137003   5.509   5.725  11.876  0.9573  0.4261  0.6391
 5196TIP3    H237004   5.488   5.872  11.844  1.3437 -0.2059 -2.7754
 5197TIP3   OH237005   3.523   6.180   3.953  0.4698 -0.0559  0.2292
 5197TIP3    H137006   3.558   6.252   4.004  1.0286 -1.9879  2.6917
 5197TIP3    H237007   3.429   6.198   3.945  0.6330  0.9819  0.7022
 5198TIP3   OH237008   4.174   1.853  17.092  0.0774 -0.2043  0.3329
 5198TIP3    H137009   4.216   1.798  17.158  0.0001 -1.0780 -0.3360
 5198TIP3    H237010   4.219   1.832  17.011 -0.3392  0.3058 -0.0345
 5199TIP3   OH237011   6.482   3.816  11.514  0.6532 -0.3644  0.1294
 5199TIP3    H137012   6.435   3.871  11.452  1.1965 -1.0097 -0.8679
 5199TIP3    H237013   6.422   3.807  11.588 -1.4300 -2.3855 -1.7332
 5200TIP3   OH237014   0.991   2.947   1.932  0.1712 -0.4697  0.7704
 5200TIP3    H137015   0.983   3.030   1.978  0.3750 -0.6802  1.1880
 5200TIP3    H237016   0.951   2.963   1.846  0.2974  0.0857  0.8112
 5201TIP3   OH237017   4.486   4.642  16.766 -0.2661  0.5119 -0.4660
 5201TIP3    H137018   4.541   4.719  16.752 -1.5064  1.2579 -1.3927
 5201TIP3    H237019   4.535   4.588  16.828  1.1260  1.5257 -0.6590
 5202TIP3   OH237020   0.154   3.082  15.887  0.7528  0.2425 -0.8164
 5202TIP3    H137021   0.218   3.012  15.901 -2.5977 -3.0262 -0.7009
 5202TIP3    H237022   0.150   3.129  15.971  2.0491 -0.3659 -0.4119
 5203TIP3   OH237023   2.492   6.078  12.671  0.2462  0.2553 -0.4910
 5203TIP3    H137024   2.557   6.008  12.668  1.0044  0.8082  1.8146
 5203TIP3    H237025   2.463   6.080  12.762 -0.7002  2.0912 -0.8079
 5204TIP3   OH237026   5.215   5.370   4.874  0.1848  0.5443 -0.0278
 5204TIP3    H137027   5.217   5.357   4.969  0.4148  1.3716  0.0834
 5204TIP3    H237028   5.130   5.336   4.847  0.6951 -1.0197  0.2735
 5205TIP3   OH237029   2.100   5.252  15.533  0.2884  0.0685 -0.4251
 5205TIP3    H137030   2.065   5.166  15.554  0.4632  0.2681  0.7186
 5205TIP3    H237031   2.192   5.238  15.515  0.3336  0.0304 -0.1602
 5206TIP3   OH237032   1.596   4.427   4.310  0.2676  0.3389 -0.7273
 5206TIP3    H137033   1.647   4.383   4.378  0.1592  1.7132  0.2663
 5206TIP3    H237034   1.571   4.511   4.349  0.3357  1.2186 -2.5196
 5207TIP3   OH237035   0.057   2.368  13.674 -0.1716 -0.0937 -0.2071
 5207TIP3    H137036   0.087   2.391  13.586 -0.6379 -0.4040 -0.4457
 5207TIP3    H237037   0.032   2.452  13.713 -1.3814 -0.1170 -0.8971
 5208TIP3   OH237038   0.923   2.785   1.014 -0.5580  0.0717 -0.1018
 5208TIP3    H137039   0.888   2.768   0.926  2.8198  1.6985 -1.8442
 5208TIP3    H237040   0.976   2.707   1.034 -1.6245 -0.4651  0.6899
 5209TIP3   OH237041   3.439   6.296  14.797  0.3676  0.3930 -0.0362
 5209TIP3    H137042   3.479   6.349  14.865  0.4203 -0.0396  0.2738
 5209TIP3    H237043   3.355   6.338  14.779  0.6998  0.9566 -0.2601
 5210TIP3   OH237044   6.499   5.005   1.626  0.6950  0.1623 -0.1012
 5210TIP3    H137045   6.441   5.023   1.552  1.4310 -1.5818 -1.1380
 5210TIP3    H237046   6.446   4.954   1.686  0.0890  1.5990  0.6165
 5211TIP3   OH237047   1.224   4.957  15.319  0.2730  0.1418 -0.4778
 5211TIP3    H137048   1.257   4.987  15.403  2.0111 -0.3265 -0.9750
 5211TIP3    H237049   1.135   4.993  15.314  0.4692  0.8964  1.1625
 5212TIP3   OH237050   0.888   0.207   0.262 -0.2549 -0.1022  0.0538
 5212TIP3    H137051   0.843   0.148   0.201 -1.7230 -0.0821  1.0772
 5212TIP3    H237052   0.849   0.293   0.245  0.4641  0.2075 -0.0589
 5213TIP3   OH237053   5.899   6.110  14.653 -0.0322 -0.4075  0.1038
 5213TIP3    H137054   5.992   6.087  14.661  0.5549  1.2345 -1.6128
 5213TIP3    H237055   5.883   6.170  14.726 -0.3734 -2.5080  1.8023
 5214TIP3   OH237056   6.518   3.280   4.421 -0.0876 -0.1733  0.5243
 5214TIP3    H137057   6.546   3.371   4.407  1.0547 -0.2995  1.8022
 5214TIP3    H237058   6.475   3.255   4.340 -1.9631  2.0741  0.7927
 5215TIP3   OH237059   0.254   6.700   2.305 -0.3279 -0.3171 -0.2616
 5215TIP3    H137060   0.347   6.699   2.282 -0.9597  0.1888 -2.9697
 5215TIP3    H237061   0.224   6.787   2.280 -1.5639 -0.4766  0.5995
 5216TIP3   OH237062   4.594   0.621   3.741 -0.5627 -0.0048  0.4506
 5216TIP3    H137063   4.512   0.627   3.692 -0.2481  0.8664  0.0188
 5216TIP3    H237064   4.588   0.691   3.806 -0.0837  0.1722  0.3024
 5217TIP3   OH237065   0.303   6.429  12.133  0.0662 -0.3277 -0.0402
 5217TIP3    H137066   0.301   6.369  12.208 -0.9131 -0.9646 -0.5632
 5217TIP3    H237067   0.379   6.400  12.082  1.4902  0.8959  1.3146
 5218TIP3   OH237068   1.678   6.747   4.978 -0.1061 -0.1442 -0.0010
 5218TIP3    H137069   1.723   6.662   4.985  0.5441  0.1089 -1.0303
 5218TIP3    H237070   1.674   6.779   5.068  1.1023 -0.5281  0.2092
 5219TIP3   OH237071   4.800   5.906   2.079  0.2073 -0.2693  0.0335
 5219TIP3    H137072   4.756   5.990   2.064 -0.9719 -1.0067 -0.6885
 5219TIP3    H237073   4.792   5.892   2.173 -2.7198 -1.2510 -0.3223
 5220TIP3   OH237074   3.810   0.819  15.917 -0.3628  0.4317  0.1311
 5220TIP3    H137075   3.718   0.847  15.914 -0.4429  0.1630  0.0697
 5220TIP3    H237076   3.853   0.871  15.850 -0.8918 -0.9829 -1.3374
 5221TIP3   OH237077   0.199   0.419  12.206  0.0481 -0.2756 -0.0604
 5221TIP3    H137078   0.215   0.472  12.128 -1.3253  2.7237  1.5896
 5221TIP3    H237079   0.111   0.383  12.194  0.3975 -0.9661 -0.5323
 5222TIP3   OH237080   3.001   0.796  12.408  0.9291 -0.4609  0.3039
 5222TIP3    H137081   2.974   0.852  12.335 -0.8353 -0.9773  0.5196
 5222TIP3    H237082   2.981   0.707  12.379 -1.0505 -0.5847  1.8750
 5223TIP3   OH237083   0.856   0.331  16.221 -0.4054  0.2144  0.0760
 5223TIP3    H137084   0.853   0.421  16.188 -0.7754  0.2200  0.1254
 5223TIP3    H237085   0.949   0.312  16.231 -0.3200  0.5148 -0.1483
 5224TIP3   OH237086   3.102   5.306   0.979 -0.2250  0.4767  0.0028
 5224TIP3    H137087   3.109   5.397   1.009  1.5568  0.7445 -1.1323
 5224TIP3    H237088   3.186   5.267   1.002 -1.2874 -1.1332  1.2111
 5225TIP3   OH237089   5.269   6.000  12.277 -0.0317 -0.5698 -0.5431
 5225TIP3    H137090   5.299   6.091  12.286  0.2429 -0.7417  0.3000
 5225TIP3    H237091   5.181   6.000  12.316  1.9928 -1.7832  4.3865
 5226TIP3   OH237092   4.872   3.614  14.639 -0.2449  0.4303 -0.0438
 5226TIP3    H137093   4.819   3.535  14.637  0.3089  0.0372  0.5831
 5226TIP3    H237094   4.846   3.662  14.561 -0.8618 -0.1868 -0.2244
 5227TIP3   OH237095   6.177   1.712  14.363 -0.0663 -0.2031 -0.0166
 5227TIP3    H137096   6.210   1.802  14.357 -1.2947  0.2029 -0.8241
 5227TIP3    H237097   6.082   1.721  14.355 -0.4876 -1.2647  3.1511
 5228TIP3   OH237098   2.303   4.437  12.080 -0.5601 -0.0752  0.1675
 5228TIP3    H137099   2.341   4.424  11.993 -1.5562  1.8912 -0.5884
 5228TIP3    H237100   2.208   4.438  12.065 -0.8412 -1.8901  1.6051
 5229TIP3   OH237101   0.765   5.157   2.869  0.4150  0.0156  0.1950
 5229TIP3    H137102   0.779   5.093   2.798 -2.0067  0.3189 -0.5813
 5229TIP3    H237103   0.671   5.160   2.881  0.6443  1.7997  1.7995
 5230TIP3   OH237104   1.334   1.371  11.061  0.2831  0.3654 -0.1926
 5230TIP3    H137105   1.251   1.340  11.024  0.0774  1.7198 -0.8822
 5230TIP3    H237106   1.401   1.339  11.001  0.1108  0.7664 -0.6071
 5231TIP3   OH237107   2.299   2.281  13.572  0.0518  0.0939  0.1314
 5231TIP3    H137108   2.222   2.337  13.564 -0.1225 -0.4598 -2.4888
 5231TIP3    H237109   2.264   2.197  13.603 -0.8207 -0.9638 -3.5243
 5232TIP3   OH237110   0.812   3.774  17.076 -0.3731 -0.3360 -0.0931
 5232TIP3    H137111   0.903   3.804  17.068 -0.6618  0.5177 -0.1475
 5232TIP3    H237112   0.794   3.731  16.992  0.5259 -2.0235  0.5412
 5233TIP3   OH237113   5.170   3.307   1.808  0.2538  0.0606  0.1631
 5233TIP3    H137114   5.098   3.305   1.872  0.7790  0.8406  0.7909
 5233TIP3    H237115   5.249   3.309   1.861  0.8068 -2.2640 -0.5393
 5234TIP3   OH237116   2.876   1.480   3.689  0.3528 -0.8511  0.2149
 5234TIP3    H137117   2.879   1.421   3.614  0.5046  0.2964 -0.6998
 5234TIP3    H237118   2.786   1.473   3.722  0.5396 -2.0326  0.4854
 5235TIP3   OH237119   6.511   0.112   6.816 -0.4417  0.1488  0.6652
 5235TIP3    H137120   6.433   0.098   6.763 -0.2170  0.6032  0.2025
 5235TIP3    H237121   6.508   0.205   6.838  2.1299  1.2048 -2.9070
 5236TIP3   OH237122   6.298   1.102  13.657  0.5928  0.5517 -0.3880
 5236TIP3    H137123   6.343   1.019  13.644  1.2822  0.9414 -0.4994
 5236TIP3    H237124   6.289   1.110  13.752 -0.4089 -0.1436 -0.4180
 5237TIP3   OH237125   5.388   1.057  17.206  0.4372  0.3463  0.0049
 5237TIP3    H137126   5.386   0.965  17.233  3.4822 -0.2411 -1.4987
 5237TIP3    H237127   5.424   1.103  17.282  1.4198 -0.1185 -0.1687
 5238TIP3   OH237128   6.683   4.965   3.089 -0.0217 -0.5256 -0.5506
 5238TIP3    H137129   6.777   4.982   3.076 -0.0903 -0.4407 -0.9374
 5238TIP3    H237130   6.680   4.910   3.167  0.3493 -0.4916 -0.5095
 5239TIP3   OH237131   6.239   2.222   0.465 -0.8647 -0.2045 -0.5161
 5239TIP3    H137132   6.169   2.214   0.401 -0.1688  0.6952 -1.3985
 5239TIP3    H237133   6.215   2.299   0.517 -0.1281  0.6056 -1.3494
 5240TIP3   OH237134   2.048   1.689   3.527  0.5185  0.0833 -0.5357
 5240TIP3    H137135   1.999   1.648   3.457 -1.3778  0.8229  0.3241
 5240TIP3    H237136   2.078   1.616   3.582  2.8124 -0.5580 -2.5912
 5241TIP3   OH237137   1.948   6.030  17.011  0.5246  0.0648  0.2504
 5241TIP3    H137138   1.964   6.060  17.100  0.4932 -0.6618  0.4978
 5241TIP3    H237139   1.854   6.040  16.998  0.5866  0.5529  0.1518
 5242TIP3   OH237140   4.509   1.800   3.580  0.2682 -0.0095  0.0098
 5242TIP3    H137141   4.515   1.857   3.504  2.1999 -0.8912 -0.5199
 5242TIP3    H237142   4.440   1.840   3.635 -1.8945  0.0646 -2.6508
 5243TIP3   OH237143   2.629   3.166  15.935  0.0516 -0.3018  0.1657
 5243TIP3    H137144   2.657   3.193  15.847 -0.7549  0.5926  0.1690
 5243TIP3    H237145   2.588   3.081  15.922  1.3426 -0.8975 -0.0771
 5244TIP3   OH237146   4.297   0.896  14.009  0.0593  0.1469 -0.2510
 5244TIP3    H137147   4.257   0.983  14.008  1.0034  0.6090  0.7486
 5244TIP3    H237148   4.366   0.902  14.076  2.7691 -0.1595 -2.9185
 5245TIP3   OH237149   2.030   6.416  11.588 -0.2582  0.2324 -0.2044
 5245TIP3    H137150   2.059   6.364  11.513  0.7613 -0.7405  0.8582
 5245TIP3    H237151   1.943   6.382  11.608 -1.1718  1.5083 -1.8622
 5246TIP3   OH237152   4.004   0.157   5.324 -0.2332  1.2040  0.0756
 5246TIP3    H137153   4.005   0.175   5.230 -0.8796 -2.2278 -0.6466
 5246TIP3    H237154   4.095   0.171   5.352  0.1197  1.5166 -1.1820
 5247TIP3   OH237155   2.992   2.721  12.581  0.0347 -0.4447  0.5052
 5247TIP3    H137156   2.922   2.737  12.518  0.5967  1.5915  0.3741
 5247TIP3    H237157   2.947   2.714  12.665 -0.4065  0.1226  0.3196
 5248TIP3   OH237158   6.685   1.677  13.358 -0.0829  0.0324  0.0441
 5248TIP3    H137159   6.621   1.748  13.368  1.5195  1.5406 -0.0617
 5248TIP3    H237160   6.746   1.689  13.431  1.6243  0.3317 -1.3818
 5249TIP3   OH237161   3.568   3.731   4.452  0.2199  0.0372 -0.4755
 5249TIP3    H137162   3.533   3.801   4.508  2.1418  1.4845 -1.0402
 5249TIP3    H237163   3.490   3.694   4.409 -1.0830  0.1905  1.6539
 5250TIP3   OH237164   5.098   1.563   4.928  0.3071 -0.6130 -0.2859
 5250TIP3    H137165   5.110   1.563   4.833 -1.5201  0.6108 -0.5575
 5250TIP3    H237166   5.004   1.576   4.939  0.5057 -0.8204  1.6940
 5251TIP3   OH237167   1.378   3.373  17.130 -0.4796  0.0020  0.2464
 5251TIP3    H137168   1.422   3.451  17.163 -0.1683 -0.2684  0.4703
 5251TIP3    H237169   1.359   3.392  17.038  2.0785 -0.7485 -0.4653
 5252TIP3   OH237170   5.059   4.657  12.605  0.3059 -0.0078  0.2793
 5252TIP3    H137171   5.058   4.685  12.697 -0.5682  0.1630  0.2264
 5252TIP3    H237172   5.135   4.601  12.598 -0.1441 -0.7722  1.3419
 5253TIP3   OH237173   4.351   6.361  16.147 -0.3247  1.0712  0.6818
 5253TIP3    H137174   4.321   6.442  16.106 -0.9711  0.2093 -0.5983
 5253TIP3    H237175   4.334   6.373  16.240  0.7651  2.9052  0.6698
 5254TIP3   OH237176   0.386   4.260  12.135  0.2140 -0.3857  0.0063
 5254TIP3    H137177   0.358   4.316  12.063  0.2608  0.1050  0.3619
 5254TIP3    H237178   0.305   4.245  12.186  0.2003 -0.6437 -0.0944
 5255TIP3   OH237179   0.825   5.800   2.170  0.2529 -0.6339  0.2177
 5255TIP3    H137180   0.766   5.875   2.169 -0.6346 -1.2971  1.6803
 5255TIP3    H237181   0.898   5.825   2.112  1.3649  2.4499  2.8287
 5256TIP3   OH237182   4.246   5.476  16.895  0.1637  0.3255  0.1680
 5256TIP3    H137183   4.289   5.498  16.978  1.1895 -3.2441  0.6447
 5256TIP3    H237184   4.316   5.481  16.830  0.1125 -0.2155  0.0715
 5257TIP3   OH237185   2.953   2.281  13.825 -0.0672 -0.0195 -0.2698
 5257TIP3    H137186   2.939   2.325  13.909 -4.3488 -2.7728  0.6172
 5257TIP3    H237187   2.933   2.189  13.842  4.0921 -1.6565 -3.1621
 5258TIP3   OH237188   1.236   5.964   3.910  0.6547  0.0992  0.0277
 5258TIP3    H137189   1.264   6.036   3.854  1.5046  0.9487  1.5133
 5258TIP3    H237190   1.246   5.998   3.999  0.8149 -1.7622  0.7390
 5259TIP3   OH237191   5.476   4.260  17.117  0.2912  0.9312 -0.6544
 5259TIP3    H137192   5.435   4.342  17.144 -0.5964 -0.1548  1.4010
 5259TIP3    H237193   5.556   4.254  17.168  1.1892  1.2807 -1.9916
 5260TIP3   OH237194   5.476   3.588  13.922  0.3132 -0.5981  0.4148
 5260TIP3    H137195   5.534   3.523  13.962 -0.0358 -0.1953  1.5935
 5260TIP3    H237196   5.416   3.612  13.992  0.7944  1.4090  0.1597
 5261TIP3   OH237197   0.100   6.081   6.534 -0.1874 -0.3443 -0.3619
 5261TIP3    H137198   0.015   6.085   6.577 -0.3319  0.1869 -0.6928
 5261TIP3    H237199   0.147   6.158   6.566  0.2000 -0.6692 -0.1264
 5262TIP3   OH237200   0.981   4.086   4.335  0.5753  0.0708  0.0910
 5262TIP3    H137201   0.973   4.181   4.345  1.4348 -0.0505  2.0328
 5262TIP3    H237202   0.975   4.072   4.240  0.0318  2.0127 -0.1852
 5263TIP3   OH237203   6.376   6.008   2.140  0.4048  0.1733 -0.1393
 5263TIP3    H137204   6.447   6.070   2.122  0.4331 -0.3424 -1.8315
 5263TIP3    H237205   6.420   5.924   2.152  0.3657  0.4384  2.1759
 5264TIP3   OH237206   2.157   1.936   0.794  0.6303  0.1535 -0.1317
 5264TIP3    H137207   2.106   2.001   0.745 -1.1843 -1.7984 -0.9219
 5264TIP3    H237208   2.098   1.905   0.863  1.5185 -0.5330  0.3348
 5265TIP3   OH237209   4.505   6.442  15.718 -0.1471  0.5018  0.1651
 5265TIP3    H137210   4.528   6.360  15.675 -3.2802 -0.0389 -0.5722
 5265TIP3    H237211   4.546   6.436  15.805  2.6080 -0.2507 -1.1168
 5266TIP3   OH237212   6.294   0.375  10.825  0.0193 -0.2349 -0.1042
 5266TIP3    H137213   6.245   0.295  10.804  1.1919 -0.9480 -0.1618
 5266TIP3    H237214   6.253   0.443  10.771 -1.2829 -0.6890  0.2806
 5267TIP3   OH237215   0.455   4.694  12.602  0.4302 -0.0398  0.8847
 5267TIP3    H137216   0.498   4.615  12.569  1.1410  0.1940  1.2379
 5267TIP3    H237217   0.415   4.734  12.525  1.1471 -0.0710  0.4928
 5268TIP3   OH237218   5.429   6.208   1.153  0.3637 -0.4272  0.7353
 5268TIP3    H137219   5.476   6.163   1.224  2.3300  0.2516 -0.1077
 5268TIP3    H237220   5.474   6.292   1.144 -0.7891  0.0860 -0.3585
 5269TIP3   OH237221   3.441   0.793  16.259  0.3137  0.6731  0.5907
 5269TIP3    H137222   3.509   0.787  16.192 -2.2030 -3.2979 -1.8062
 5269TIP3    H237223   3.487   0.778  16.341  2.8535  1.7672 -0.5576
 5270TIP3   OH237224   5.300   1.828  11.648  0.3724  0.1756  0.3490
 5270TIP3    H137225   5.304   1.908  11.701  2.4696  0.2503  0.0986
 5270TIP3    H237226   5.348   1.850  11.568 -1.2304 -0.5237 -0.8220
 5271TIP3   OH237227   5.984   5.551   1.160  0.2865  0.2650 -0.1580
 5271TIP3    H137228   6.062   5.603   1.177  0.2344 -0.0041  0.9476
 5271TIP3    H237229   5.913   5.598   1.203 -0.1682  0.5147 -1.1676
 5272TIP3   OH237230   2.609   4.335   0.868  0.3557 -0.2335 -0.0852
 5272TIP3    H137231   2.579   4.425   0.854  0.1310 -0.2240  0.4522
 5272TIP3    H237232   2.642   4.335   0.958 -0.6064 -0.9504  0.2808
 5273TIP3   OH237233   3.767   6.343  14.340  0.3498 -0.6103  0.6377
 5273TIP3    H137234   3.717   6.328  14.420  0.7850 -0.6655  0.8988
 5273TIP3    H237235   3.702   6.340  14.270 -0.8226  4.1751  1.3681
 5274TIP3   OH237236   3.509   5.522   0.888 -0.2696 -0.5341  0.5694
 5274TIP3    H137237   3.581   5.515   0.825 -0.0142  1.5250  0.6230
 5274TIP3    H237238   3.464   5.603   0.865 -0.5607 -0.0856  2.6363
 5275TIP3   OH237239   4.255   2.720  16.608  0.1760 -0.0184  0.1840
 5275TIP3    H137240   4.340   2.677  16.612  0.1299 -0.1368 -0.1036
 5275TIP3    H237241   4.274   2.812  16.626  0.3912 -0.0087 -0.0866
 5276TIP3   OH237242   1.621   6.780   6.542  0.1280 -0.5092  0.1938
 5276TIP3    H137243   1.539   6.827   6.527  0.6615  0.0709 -1.0158
 5276TIP3    H237244   1.598   6.709   6.601 -1.0790  0.1479  0.5369
 5277TIP3   OH237245   2.139   4.668  13.870  0.1294  0.4369  0.0693
 5277TIP3    H137246   2.114   4.611  13.943  1.9649 -1.2619 -0.5851
 5277TIP3    H237247   2.201   4.730  13.908  0.5225  0.0193  0.1094
 5278TIP3   OH237248   2.227   4.671   0.882 -0.3765 -0.4454  0.2390
 5278TIP3    H137249   2.320   4.651   0.889 -0.7242 -2.0412  0.3494
 5278TIP3    H237250   2.225   4.763   0.854  1.2466 -0.8670 -1.4052
 5279TIP3   OH237251   5.733   0.885   2.886  0.3186  0.3159 -0.2861
 5279TIP3    H137252   5.753   0.791   2.887  0.8367  0.4293  1.0334
 5279TIP3    H237253   5.694   0.900   2.800  0.9190 -0.9683 -0.8004
 5280TIP3   OH237254   2.957   1.181  12.566  0.1870 -0.4445 -0.1741
 5280TIP3    H137255   3.043   1.218  12.589 -1.1444  2.8586 -0.2405
 5280TIP3    H237256   2.968   1.150  12.476  1.6016 -1.0742  0.1947
 5281TIP3   OH237257   1.933   1.788   1.607  0.1317  0.9025  0.0519
 5281TIP3    H137258   1.957   1.845   1.534 -0.1972  0.3073 -0.5305
 5281TIP3    H237259   1.911   1.705   1.566  1.0646  0.2028  0.9289
 5282TIP3   OH237260   0.895   3.402  13.358  0.1696 -0.4014  0.0674
 5282TIP3    H137261   0.865   3.413  13.268 -0.1659 -2.2804 -0.0632
 5282TIP3    H237262   0.989   3.384  13.350  0.0577 -0.9898  0.0618
 5283TIP3   OH237263   1.764   4.397  17.030  0.0906  0.0330 -0.1131
 5283TIP3    H137264   1.782   4.360  16.944 -4.1693 -3.9763  0.5550
 5283TIP3    H237265   1.794   4.331  17.092  0.2316  1.5075  1.4469
 5284TIP3   OH237266   4.224   1.400  11.880  0.3888 -0.3594  0.7613
 5284TIP3    H137267   4.179   1.477  11.847 -0.5437 -1.4439 -0.5732
 5284TIP3    H237268   4.299   1.388  11.822  0.1904 -0.7873  0.5845
 5285TIP3   OH237269   4.851   3.324  13.460 -0.1494  0.0526 -0.4731
 5285TIP3    H137270   4.799   3.400  13.484 -1.2427 -1.1998  1.2792
 5285TIP3    H237271   4.889   3.346  13.375 -0.2772  2.6102  0.1056
 5286TIP3   OH237272   4.582   4.198  14.094 -0.2278 -0.9818  0.5068
 5286TIP3    H137273   4.625   4.174  14.012 -1.0295 -0.7612  0.0172
 5286TIP3    H237274   4.645   4.176  14.162  0.0188 -2.1567 -0.1051
 5287TIP3   OH237275   2.608   5.148   4.646  0.1989 -0.5313  0.3017
 5287TIP3    H137276   2.639   5.063   4.678 -0.8974 -0.2740  2.0914
 5287TIP3    H237277   2.680   5.180   4.592 -0.0461 -3.3369 -1.8127
 5288TIP3   OH237278   3.135   6.403  15.793  0.4747 -0.2964  0.0768
 5288TIP3    H137279   3.201   6.413  15.862 -0.0707 -0.4853  0.6231
 5288TIP3    H237280   3.052   6.422  15.836  0.1470 -0.2654 -0.5653
 5289TIP3   OH237281   1.090   4.347  11.889 -0.2657 -0.5292 -0.1121
 5289TIP3    H137282   1.072   4.330  11.797 -1.4372  0.5786 -0.1067
 5289TIP3    H237283   1.005   4.338  11.932 -0.4310  2.4899  0.2979
 5290TIP3   OH237284   3.504   1.330  14.000 -0.3733  0.1917 -0.1202
 5290TIP3    H137285   3.545   1.411  13.968  0.9050  1.0422  3.4880
 5290TIP3    H237286   3.416   1.358  14.027 -0.2580  0.1649  0.2728
 5291TIP3   OH237287   1.608   2.876   0.773  0.0256  0.1554 -0.2734
 5291TIP3    H137288   1.602   2.795   0.825  0.2543 -1.0032 -2.0001
 5291TIP3    H237289   1.677   2.857   0.708  1.3998  2.4232  0.4797
 5292TIP3   OH237290   5.489   2.998  15.430 -0.2060 -0.1885  0.0046
 5292TIP3    H137291   5.435   3.041  15.363  0.2063  0.7648  0.2636
 5292TIP3    H237292   5.507   2.911  15.395 -0.2036  0.2137 -1.0094
 5293TIP3   OH237293   2.479   6.318   3.921 -0.3358  0.7162 -0.1062
 5293TIP3    H137294   2.481   6.365   4.005  0.0627  0.1580  0.1947
 5293TIP3    H237295   2.430   6.239   3.939  3.2736 -1.4627  0.6782
 5294TIP3   OH237296   1.389   2.967  14.813  0.4373  0.5904 -0.3142
 5294TIP3    H137297   1.330   3.019  14.868  0.3645  2.1092 -1.7882
 5294TIP3    H237298   1.335   2.939  14.739  0.3679 -1.9860  0.6728
 5295TIP3   OH237299   4.341   3.151   6.606  0.4947 -0.3070 -0.1689
 5295TIP3    H137300   4.417   3.201   6.637 -0.1238 -0.0570  1.0055
 5295TIP3    H237301   4.273   3.216   6.593  0.6011 -0.4773 -1.6455
 5296TIP3   OH237302   1.732   3.714  16.221  0.1033  0.2878  0.2700
 5296TIP3    H137303   1.794   3.661  16.172 -0.3095 -0.2639  0.3504
 5296TIP3    H237304   1.787   3.763  16.283  0.5787  0.6686 -0.4386
 5297TIP3   OH237305   4.594   6.503  15.124  0.0480 -0.2654 -0.0621
 5297TIP3    H137306   4.547   6.432  15.168 -1.0226 -0.1087 -0.9337
 5297TIP3    H237307   4.622   6.561  15.194 -0.9119 -0.4559  0.4816
 5298TIP3   OH237308   6.139   6.318   2.404 -0.4579  0.8837 -0.5576
 5298TIP3    H137309   6.134   6.222   2.400  0.8025  0.8682 -2.6335
 5298TIP3    H237310   6.106   6.340   2.491  0.6794 -1.5539  0.5434
 5299TIP3   OH237311   1.710   2.771   3.804 -0.0727 -0.0439  0.9956
 5299TIP3    H137312   1.619   2.796   3.821 -0.1119  0.0142  0.7086
 5299TIP3    H237313   1.704   2.702   3.738  0.1555  0.9693 -0.1041
 5300TIP3   OH237314   0.560   0.302  14.034  0.2893 -0.1548  0.1708
 5300TIP3    H137315   0.492   0.360  14.069 -1.4583 -2.1707  0.2051
 5300TIP3    H237316   0.525   0.214  14.047  1.5010 -1.1140 -2.7425
 5301TIP3   OH237317   6.015   5.678  16.081 -0.0679  0.3098  0.3871
 5301TIP3    H137318   6.066   5.611  16.036 -0.8313  0.2748 -0.4393
 5301TIP3    H237319   6.067   5.700  16.158  1.1611  0.2492 -0.4251
 5302TIP3   OH237320   1.198   2.172   0.039 -0.2721 -0.3845 -0.0867
 5302TIP3    H137321   1.291   2.174   0.064 -0.0919 -2.4819 -0.4897
 5302TIP3    H237322   1.154   2.223   0.107  1.0642 -0.1972  0.6561
 5303TIP3   OH237323   0.334   6.285  14.481 -0.0520  0.0637  0.5629
 5303TIP3    H137324   0.279   6.216  14.442  2.1657 -1.8038  0.6225
 5303TIP3    H237325   0.292   6.305  14.564 -1.6757  0.0239 -0.2202
 5304TIP3   OH237326   5.541   2.068  14.096  0.1089  0.3191  0.6283
 5304TIP3    H137327   5.498   2.001  14.042 -0.6889 -0.0795  1.7652
 5304TIP3    H237328   5.626   2.029  14.117  0.6156  0.6587 -0.6909
 5305TIP3   OH237329   0.763   6.084   5.581  0.1703  0.2317  0.4941
 5305TIP3    H137330   0.831   6.150   5.571  0.5543 -0.0565  1.1877
 5305TIP3    H237331   0.802   6.003   5.550 -0.7994  0.5949 -1.8069
 5306TIP3   OH237332   6.158   0.816  14.072  0.2664 -0.1304 -0.6895
 5306TIP3    H137333   6.216   0.751  14.033 -0.1185 -1.3432  0.6715
 5306TIP3    H237334   6.099   0.842  14.001 -0.2977 -2.1246 -0.9941
 5307TIP3   OH237335   6.319   3.303  15.643  0.3771 -0.5305  0.1378
 5307TIP3    H137336   6.236   3.265  15.674  1.5215 -1.9829  1.5393
 5307TIP3    H237337   6.306   3.316  15.549 -2.3192  1.6159  0.7574
 5308TIP3   OH237338   2.358   3.341   3.493  0.6694 -0.0604 -0.5361
 5308TIP3    H137339   2.393   3.252   3.487 -0.3905 -0.4745 -0.5400
 5308TIP3    H237340   2.327   3.360   3.405  0.6238  0.2090 -0.4616
 5309TIP3   OH237341   1.313   5.810   0.928  0.1790  0.0938 -0.5543
 5309TIP3    H137342   1.319   5.721   0.961 -1.8488  0.2751  0.3444
 5309TIP3    H237343   1.252   5.854   0.987  1.1920  2.1034 -0.9447
 5310TIP3   OH237344   3.514   5.209   1.362 -0.2358 -0.0216 -0.1794
 5310TIP3    H137345   3.579   5.157   1.410 -1.2436  0.6273  1.9360
 5310TIP3    H237346   3.561   5.288   1.336  0.0939  0.0139  0.5031
 5311TIP3   OH237347   1.877   2.530  12.683  0.5599 -0.2154  0.1895
 5311TIP3    H137348   1.812   2.586  12.726  0.5771  1.1041 -1.4391
 5311TIP3    H237349   1.959   2.551  12.728  0.6364  1.3812 -0.6458
 5312TIP3   OH237350   3.319   4.905  16.050  0.2543 -0.2337  0.0916
 5312TIP3    H137351   3.268   4.883  16.128 -0.1143  0.6771  0.1228
 5312TIP3    H237352   3.294   4.839  15.986 -1.5145  0.5836 -0.1068
 5313TIP3   OH237353   6.070   4.989   1.916  0.1226  0.5855  0.1168
 5313TIP3    H137354   6.052   5.012   1.825 -1.1653  3.0499  0.9568
 5313TIP3    H237355   5.990   5.010   1.963 -0.2324 -3.2958  1.4509
 5314TIP3   OH237356   0.495   1.752   4.378 -0.8675 -0.4183  0.6282
 5314TIP3    H137357   0.543   1.752   4.295  1.1730  2.1002  1.7287
 5314TIP3    H237358   0.533   1.680   4.428  0.0088 -0.0463  0.5077
 5315TIP3   OH237359   6.786   2.746  16.354 -0.3969  0.2167 -0.3814
 5315TIP3    H137360   6.722   2.676  16.342  0.4162 -0.5020 -0.6074
 5315TIP3    H237361   6.778   2.772  16.446  1.7422 -2.6421  0.6971
 5316TIP3   OH237362   6.426   3.863   3.253  0.5649  0.5025  0.6379
 5316TIP3    H137363   6.350   3.832   3.301  0.8619  1.5943  1.8369
 5316TIP3    H237364   6.501   3.836   3.306  1.0140 -0.4231 -0.4533
 5317TIP3   OH237365   5.412   0.277   5.745  0.9142 -0.2198 -0.0076
 5317TIP3    H137366   5.475   0.322   5.801 -0.9492  0.2595  1.7933
 5317TIP3    H237367   5.372   0.346   5.692 -0.1976 -0.0565  1.0067
 5318TIP3   OH237368   6.170   4.570   0.901  0.2996  0.8092  0.1044
 5318TIP3    H137369   6.102   4.597   0.962 -0.2344  3.5083 -1.6014
 5318TIP3    H237370   6.252   4.579   0.950 -0.2176  1.7864  0.8113
 5319TIP3   OH237371   3.149   6.047  16.671  0.4379  0.0752  0.3069
 5319TIP3    H137372   3.122   6.119  16.728 -0.2233  0.1358 -0.0718
 5319TIP3    H237373   3.141   6.082  16.582 -0.2439 -0.5668  0.1046
 5320TIP3   OH237374   1.835   3.448   1.200 -0.3328  0.2730 -0.1498
 5320TIP3    H137375   1.889   3.403   1.265 -0.4913 -1.3488 -1.1231
 5320TIP3    H237376   1.868   3.418   1.116 -0.8688  1.4952 -0.8050
 5321TIP3   OH237377   5.162   5.617  13.851  0.5958  0.3021 -0.3682
 5321TIP3    H137378   5.235   5.660  13.806  2.4874 -1.6639  0.7742
 5321TIP3    H237379   5.201   5.577  13.929 -1.8597 -0.0434  0.7351
 5322TIP3   OH237380   6.615   2.458   4.213  0.2244  0.5664 -0.2222
 5322TIP3    H137381   6.668   2.389   4.254  0.8147  0.8770 -0.4492
 5322TIP3    H237382   6.537   2.465   4.268  1.1546  1.2039  1.0476
 5323TIP3   OH237383   1.638   5.782   5.784  0.2353 -0.6686  0.1750
 5323TIP3    H137384   1.676   5.700   5.814 -0.3104 -0.6113  1.0689
 5323TIP3    H237385   1.678   5.849   5.841 -0.5685 -0.5179  0.5728
 5324TIP3   OH237386   5.228   5.832   6.476  0.2653 -0.2663  0.1895
 5324TIP3    H137387   5.159   5.769   6.455 -0.3307 -0.1212  1.6525
 5324TIP3    H237388   5.270   5.797   6.554  2.4913 -0.8350 -1.2131
 5325TIP3   OH237389   4.318   2.006  14.758  0.5434 -0.1918 -0.3619
 5325TIP3    H137390   4.321   2.045  14.671 -0.1952  1.0788  0.1600
 5325TIP3    H237391   4.273   1.922  14.746  2.2847 -0.9715 -1.5257
 5326TIP3   OH237392   4.017   4.759  14.613  0.0708  0.1652 -0.6385
 5326TIP3    H137393   4.056   4.685  14.567 -0.8975  0.2071 -1.5540
 5326TIP3    H237394   4.041   4.835  14.560 -1.1787  0.1970 -1.1815
 5327TIP3   OH237395   2.595   4.354   0.237  0.4465 -0.0512 -0.5498
 5327TIP3    H137396   2.559   4.382   0.322  1.2503  1.8981 -0.8119
 5327TIP3    H237397   2.519   4.327   0.187 -0.1982  0.0893  0.3313
 5328TIP3   OH237398   5.857   0.745  16.983  0.1124 -0.3012 -0.1411
 5328TIP3    H137399   5.771   0.785  16.966  0.6066  1.1491  0.7069
 5328TIP3    H237400   5.898   0.804  17.046  0.1968 -3.0471  2.4454
 5329TIP3   OH237401   0.122   6.590  11.344 -0.4880 -0.1001  0.6336
 5329TIP3    H137402   0.163   6.674  11.366 -1.5969 -0.2245  3.3737
 5329TIP3    H237403   0.178   6.553  11.276  1.1967  1.9169  0.8681
 5330TIP3   OH237404   1.201   6.218  16.640 -0.4250  0.5819 -0.4380
 5330TIP3    H137405   1.121   6.268  16.656 -1.1766 -0.8469  0.3135
 5330TIP3    H237406   1.196   6.194  16.548 -3.0249 -3.1974  0.6028
 5331TIP3   OH237407   4.377   2.310  16.198 -0.5056  0.2881 -0.3263
 5331TIP3    H137408   4.306   2.276  16.254 -0.7249  3.5660  1.4686
 5331TIP3    H237409   4.346   2.294  16.109 -2.8529  0.3490  0.4498
 5332TIP3   OH237410   6.497   3.316   3.007 -0.1721  0.4655  0.5980
 5332TIP3    H137411   6.488   3.371   3.084  0.7257  1.0604  0.2855
 5332TIP3    H237412   6.561   3.361   2.952  0.4645 -0.7944  0.2671
 5333TIP3   OH237413   6.113   6.121   1.376  0.0496  0.1620  0.6062
 5333TIP3    H137414   6.161   6.177   1.316 -0.9140 -0.6836 -0.9951
 5333TIP3    H237415   6.176   6.053   1.402  0.0683 -0.2649 -0.5481
 5334TIP3   OH237416   2.002   4.590   2.389 -0.7279  0.8210  0.1574
 5334TIP3    H137417   2.046   4.557   2.311 -0.5442  1.4413 -0.0099
 5334TIP3    H237418   1.923   4.537   2.397  0.2161 -0.5238  0.6395
 5335TIP3   OH237419   1.456   4.811   0.215  0.3390 -0.1668 -0.4374
 5335TIP3    H137420   1.504   4.789   0.135 -0.2097  0.1071 -0.8540
 5335TIP3    H237421   1.380   4.860   0.184 -0.3717 -0.8509  0.1733
 5336TIP3   OH237422   2.589   5.072  11.948  0.0355 -0.5121 -0.1082
 5336TIP3    H137423   2.522   5.059  12.014  1.2318  1.7881  1.6004
 5336TIP3    H237424   2.671   5.044  11.990  0.3579 -2.2142 -1.7795
 5337TIP3   OH237425   6.777   5.162  13.554  0.3130  0.1752 -0.3220
 5337TIP3    H137426   6.837   5.234  13.573  0.3239  0.0623  0.0578
 5337TIP3    H237427   6.834   5.087  13.539  0.2203 -0.2285  1.2756
 5338TIP3   OH237428   4.864   2.515  11.682 -0.0415  0.2528 -0.3662
 5338TIP3    H137429   4.795   2.582  11.686 -0.1326  0.1082  0.6671
 5338TIP3    H237430   4.892   2.515  11.591 -0.1106  1.6355 -0.3996
 5339TIP3   OH237431   1.045   2.378   0.162 -0.1786 -0.1091 -0.1538
 5339TIP3    H137432   1.117   2.440   0.156 -0.3009  0.3434  2.2980
 5339TIP3    H237433   1.034   2.363   0.256 -2.1552 -1.4888 -0.5606
 5340TIP3   OH237434   2.345   5.732   3.093  0.5230  0.0229 -0.5468
 5340TIP3    H137435   2.309   5.683   3.019  1.8908  0.1686 -1.3108
 5340TIP3    H237436   2.386   5.666   3.149 -1.3797 -0.2193  0.6285
 5341TIP3   OH237437   1.407   2.130  14.286 -0.1105  0.1448 -0.1186
 5341TIP3    H137438   1.356   2.179  14.221  1.4235  0.8014 -0.8443
 5341TIP3    H237439   1.495   2.127  14.250  0.4756 -0.6023  1.3428
 5342TIP3   OH237440   4.843   2.985   4.332 -0.4325  0.5236  0.0893
 5342TIP3    H137441   4.848   2.978   4.236 -0.4442 -1.5821  0.2272
 5342TIP3    H237442   4.927   3.024   4.357  0.8603 -1.7492 -0.5509
 5343TIP3   OH237443   2.331   3.732  16.375  0.2966  0.5541 -0.4165
 5343TIP3    H137444   2.246   3.710  16.337  0.3620  2.7504 -1.9503
 5343TIP3    H237445   2.393   3.672  16.332 -0.7209 -2.7296  2.4881
 5344TIP3   OH237446   2.936   5.054   5.311  0.1036  0.7087 -0.0431
 5344TIP3    H137447   2.927   5.138   5.356  0.6157  1.1185 -0.6910
 5344TIP3    H237448   2.878   5.062   5.235  0.3552  0.5759 -0.2472
 5345TIP3   OH237449   6.300   0.479  11.099 -0.4849 -0.0295 -0.5602
 5345TIP3    H137450   6.301   0.437  11.013  0.8537 -0.3503 -0.4113
 5345TIP3    H237451   6.369   0.546  11.093 -1.9148  1.4861 -0.4657
 5346TIP3   OH237452   5.183   5.114  12.652 -0.2450  0.0699 -0.5877
 5346TIP3    H137453   5.132   5.054  12.598 -1.3192  0.2609  0.2026
 5346TIP3    H237454   5.123   5.186  12.672  0.7441  0.9602 -0.7608
 5347TIP3   OH237455   5.042   1.483  11.430  0.0081 -0.1021 -0.4739
 5347TIP3    H137456   5.053   1.558  11.488  0.2121 -0.9391  0.5857
 5347TIP3    H237457   5.033   1.521  11.343  0.7098  1.1196 -0.0224
 5348TIP3   OH237458   4.243   2.046  16.842  0.8211 -0.5388  0.0578
 5348TIP3    H137459   4.174   2.107  16.870  1.4526 -0.2392  0.9990
 5348TIP3    H237460   4.296   2.033  16.921  2.2295 -0.2490 -0.8334
 5349TIP3   OH237461   4.163   3.107  14.552  0.5374  0.2062 -0.7041
 5349TIP3    H137462   4.200   3.069  14.472 -0.3791 -0.6220 -0.7452
 5349TIP3    H237463   4.070   3.084  14.549  0.4174  0.5182  0.3960
 5350TIP3   OH237464   5.300   4.720  15.389  0.2120 -0.3277 -0.1019
 5350TIP3    H137465   5.283   4.626  15.398 -1.0461 -0.2216 -1.2090
 5350TIP3    H237466   5.258   4.744  15.306 -0.6491  1.4776  0.8417
 5351TIP3   OH237467   1.396   4.718   1.665  0.1538 -0.3428 -0.3066
 5351TIP3    H137468   1.462   4.726   1.596  2.1285  1.2479  1.7073
 5351TIP3    H237469   1.446   4.724   1.747 -2.1047 -2.4301  1.2933
 5352TIP3   OH237470   6.457   0.859  13.915 -0.1274  0.2677 -0.3476
 5352TIP3    H137471   6.373   0.862  13.868 -0.6412  0.6559  0.5893
 5352TIP3    H237472   6.522   0.876  13.847 -0.5021 -3.6244 -1.7897
 5353TIP3   OH237473   5.392   6.240  15.344  0.1672  0.0985  0.0400
 5353TIP3    H137474   5.421   6.207  15.259 -1.3060 -0.6958 -0.1667
 5353TIP3    H237475   5.429   6.179  15.408 -0.1001 -0.2461 -0.1386
 5354TIP3   OH237476   2.029   1.070  12.743  0.0096  0.1833 -0.3022
 5354TIP3    H137477   2.116   1.030  12.748 -0.4225 -0.4477  2.6669
 5354TIP3    H237478   2.019   1.117  12.826 -2.2122  0.8346 -0.9140
 5355TIP3   OH237479   1.254   3.553  15.015  0.2980 -0.0202  0.0281
 5355TIP3    H137480   1.186   3.554  15.081  1.1577  0.1079  0.9250
 5355TIP3    H237481   1.313   3.625  15.039 -0.4894  1.3477 -2.0720
 5356TIP3   OH237482   4.008   5.724  12.737  0.3123  0.1375 -0.0509
 5356TIP3    H137483   4.071   5.665  12.779  1.1328  1.4859  0.6704
 5356TIP3    H237484   4.054   5.808  12.733 -0.1759  0.3186 -2.6470
 5357TIP3   OH237485   3.179   5.387  16.438  0.0037 -0.2019  0.4303
 5357TIP3    H137486   3.100   5.398  16.385 -0.4749 -0.2910  1.1169
 5357TIP3    H237487   3.201   5.476  16.467  1.8702  0.2458 -2.1689
 5358TIP3   OH237488   3.529   0.975   0.033 -0.6880 -0.0596 -0.5008
 5358TIP3    H137489   3.464   0.904   0.026  0.5225 -1.1631 -0.8657
 5358TIP3    H237490   3.479   1.055   0.022 -2.3145 -0.7958  1.3080
 5359TIP3   OH237491   4.692   3.554   4.614 -0.4765  0.1872  0.1517
 5359TIP3    H137492   4.778   3.523   4.587 -0.7390 -2.2751  1.9868
 5359TIP3    H237493   4.660   3.604   4.539  1.9624 -0.0165 -1.0819
 5360TIP3   OH237494   5.251   1.993   4.707 -0.0808  0.5924 -0.4746
 5360TIP3    H137495   5.218   2.083   4.706 -2.2685 -0.1537  0.3172
 5360TIP3    H237496   5.278   1.979   4.798  1.4866  0.8407 -0.8822
 5361TIP3   OH237497   6.047   4.697  12.361 -0.3033  0.4909 -0.3415
 5361TIP3    H137498   5.978   4.747  12.403 -0.9154  0.6880 -1.5723
 5361TIP3    H237499   6.060   4.621  12.418 -0.6785  1.0826  0.5349
 5362TIP3   OH237500   3.716   4.792  11.994 -0.4145 -0.1193 -0.2636
 5362TIP3    H137501   3.669   4.872  12.017 -2.0603 -0.0737 -3.5095
 5362TIP3    H237502   3.649   4.731  11.963  1.2049 -1.4464 -1.3403
 5363TIP3   OH237503   2.547   3.002   5.098  0.0578 -0.3462  0.5313
 5363TIP3    H137504   2.479   2.971   5.038 -3.6513  2.8417  2.8946
 5363TIP3    H237505   2.597   3.066   5.048 -2.4230  1.6108  0.5073
 5364TIP3   OH237506   5.176   5.302  13.055 -0.1143 -0.6146  0.2667
 5364TIP3    H137507   5.168   5.229  13.116 -0.4449 -0.7399  0.0680
 5364TIP3    H237508   5.271   5.311  13.041  0.0383  0.0514  1.5780
 5365TIP3   OH237509   0.297   2.117   4.681  0.1770  0.4592  0.0594
 5365TIP3    H137510   0.336   2.111   4.594 -0.6288 -1.2955 -0.2235
 5365TIP3    H237511   0.354   2.063   4.736 -0.6833 -0.4814  0.0590
 5366TIP3   OH237512   4.714   0.391  12.816 -0.2427 -0.0681 -0.3556
 5366TIP3    H137513   4.744   0.300  12.823 -1.0034 -0.4579 -1.9625
 5366TIP3    H237514   4.621   0.384  12.796 -0.0324  1.0377 -1.7697
 5367TIP3   OH237515   2.852   3.997   5.788  0.0224 -0.3611 -0.1831
 5367TIP3    H137516   2.937   4.022   5.751  0.9165  0.1426  2.1431
 5367TIP3    H237517   2.838   4.057   5.861 -1.3454 -1.8079  0.7911
 5368TIP3   OH237518   4.666   4.369  13.409  0.2364  0.1248 -0.2345
 5368TIP3    H137519   4.654   4.449  13.460  0.5604 -0.2710  0.4698
 5368TIP3    H237520   4.603   4.307  13.447 -0.0548  0.0663 -0.8146
 5369TIP3   OH237521   6.205   5.985   0.518  0.2226  0.1150 -0.2925
 5369TIP3    H137522   6.140   5.973   0.448  0.4208  4.1573 -1.3085
 5369TIP3    H237523   6.153   5.988   0.598 -0.2407 -2.3708 -0.4723
 5370TIP3   OH237524   4.482   1.559   0.820 -0.1240  0.0340 -0.0962
 5370TIP3    H137525   4.412   1.575   0.758 -1.5493  0.2286  1.5209
 5370TIP3    H237526   4.525   1.480   0.789 -1.2360 -0.2456 -0.9423
 5371TIP3   OH237527   3.400   6.588  14.674  0.0061 -0.1725  0.0734
 5371TIP3    H137528   3.338   6.661  14.666 -0.5221 -0.6117  0.1291
 5371TIP3    H237529   3.475   6.625  14.722  0.0289  0.5080 -0.4796
 5372TIP3   OH237530   5.755   6.714   6.467 -0.3581 -0.0032 -0.1582
 5372TIP3    H137531   5.837   6.673   6.438  0.7473  1.3991  0.9145
 5372TIP3    H237532   5.732   6.668   6.547  0.3032  0.7276  0.4599
 5373TIP3   OH237533   4.572   1.111   5.515  0.3831  0.0493  0.0623
 5373TIP3    H137534   4.523   1.048   5.568  1.3671  0.2064  1.1771
 5373TIP3    H237535   4.570   1.075   5.427 -0.7234 -0.5499  0.3219
 5374TIP3   OH237536   2.459   6.712  15.939 -0.6213 -0.3949 -0.1007
 5374TIP3    H137537   2.464   6.618  15.923  0.6579 -0.4149  0.3651
 5374TIP3    H237538   2.485   6.722  16.031 -0.0207  0.4802 -0.3595
 5375TIP3   OH237539   3.261   5.578  16.882 -0.2362 -0.4773  0.4622
 5375TIP3    H137540   3.337   5.603  16.935  1.2926 -0.3606 -1.7057
 5375TIP3    H237541   3.207   5.657  16.878 -0.6260 -0.6317  2.2261
 5376TIP3   OH237542   5.887   3.730   3.255 -0.6122 -0.0503 -0.6611
 5376TIP3    H137543   5.927   3.753   3.171 -0.7307 -1.6859 -1.1733
 5376TIP3    H237544   5.804   3.777   3.256 -0.1946  0.7194 -1.0320
 5377TIP3   OH237545   6.396   3.073   2.123 -0.2318 -0.4122  0.3557
 5377TIP3    H137546   6.362   3.060   2.034 -0.4112 -0.3611  0.4173
 5377TIP3    H237547   6.335   3.024   2.178  0.6203 -1.5374  0.3197
 5378TIP3   OH237548   1.129   3.761  11.008 -0.2921 -0.0310  0.3786
 5378TIP3    H137549   1.167   3.683  10.969 -0.8262 -0.0951 -0.0231
 5378TIP3    H237550   1.085   3.805  10.935 -1.0579 -0.0127  0.8452
 5379TIP3   OH237551   1.327   1.492  13.351 -0.7850 -0.2418 -0.1085
 5379TIP3    H137552   1.399   1.540  13.392  0.0271 -0.2865 -1.4564
 5379TIP3    H237553   1.267   1.561  13.321  0.8567  0.0598 -2.9313
 5380TIP3   OH237554   4.532   5.249   4.299  0.2718 -0.1631  0.0262
 5380TIP3    H137555   4.507   5.340   4.315  0.7462 -0.1182  0.5720
 5380TIP3    H237556   4.509   5.232   4.208  0.0909  0.4734 -0.0442
 5381TIP3   OH237557   2.819   1.741   0.231 -0.7229 -0.4175 -0.2161
 5381TIP3    H137558   2.829   1.723   0.325  0.0013 -1.8390 -0.5456
 5381TIP3    H237559   2.726   1.758   0.220 -0.8197 -0.2683  0.7615
 5382TIP3   OH237560   1.833   4.676   2.152 -0.4604  0.2310 -1.0390
 5382TIP3    H137561   1.851   4.656   2.244  0.7439 -0.1514 -1.3453
 5382TIP3    H237562   1.794   4.763   2.154  1.1206  0.9546 -0.2761
 5383TIP3   OH237563   4.445   4.139  11.854  0.2110 -0.6946  0.8141
 5383TIP3    H137564   4.482   4.226  11.839  1.2121 -1.2052  0.3412
 5383TIP3    H237565   4.357   4.157  11.887 -0.6181  0.4602 -1.9333
 5384TIP3   OH237566   1.790   4.914  15.282 -0.0631  0.0899 -0.0883
 5384TIP3    H137567   1.698   4.891  15.291  0.2795 -1.1550  0.3083
 5384TIP3    H237568   1.791   5.010  15.289 -1.1852  0.0316  1.2302
 5385TIP3   OH237569   1.583   5.973   0.196 -0.0643  0.8231  0.2274
 5385TIP3    H137570   1.644   5.901   0.214 -0.4289  0.1452 -1.1726
 5385TIP3    H237571   1.509   5.931   0.152 -0.4286  2.0071 -0.3083
 5386TIP3   OH237572   6.433   0.327  16.308 -0.3998  0.1742  0.0912
 5386TIP3    H137573   6.458   0.340  16.399 -1.1404  3.7127 -0.1128
 5386TIP3    H237574   6.364   0.262  16.310  0.9008 -1.1857  1.8421
 5387TIP3   OH237575   4.014   3.631   0.978  0.4836  0.0112 -0.0478
 5387TIP3    H137576   3.924   3.655   0.998  0.2081 -0.7883 -0.3302
 5387TIP3    H237577   4.025   3.654   0.886  1.1129  1.7374  0.4287
 5388TIP3   OH237578   4.461   6.329   3.175 -0.0675 -0.1458  0.2017
 5388TIP3    H137579   4.436   6.331   3.268  1.0308  1.7260  0.4865
 5388TIP3    H237580   4.557   6.324   3.177 -0.1690 -3.3777 -0.8591
 5389TIP3   OH237581   3.326   2.881   1.239 -0.5196 -0.4671  0.4670
 5389TIP3    H137582   3.408   2.876   1.191 -1.0196  0.5215 -0.5155
 5389TIP3    H237583   3.332   2.812   1.305  0.4613 -1.3863 -0.5749
 5390TIP3   OH237584   2.269   1.862   3.721  0.3165  0.2154  0.2902
 5390TIP3    H137585   2.179   1.831   3.708  0.4018  0.2365 -0.3613
 5390TIP3    H237586   2.290   1.839   3.812 -0.0374 -0.5691  0.1742
 5391TIP3   OH237587   2.806   1.992  11.327  0.3297  0.2761 -0.1968
 5391TIP3    H137588   2.752   2.002  11.249 -0.7458 -1.0328  0.3433
 5391TIP3    H237589   2.743   1.986  11.399  1.2753  0.7163  0.6914
 5392TIP3   OH237590   2.132   4.030  16.187 -0.1064  0.7279  0.3192
 5392TIP3    H137591   2.046   4.068  16.169 -0.2330  0.5378  0.5221
 5392TIP3    H237592   2.151   4.057  16.277 -1.0418 -1.2812  1.1334
 5393TIP3   OH237593   5.843   1.750   1.107 -0.4111  0.2096 -0.0649
 5393TIP3    H137594   5.846   1.658   1.081  1.3547  0.4390 -0.7480
 5393TIP3    H237595   5.922   1.763   1.158 -1.3525  1.0264  1.2308
 5394TIP3   OH237596   1.771   3.260  15.980  0.2408 -0.1403  0.4988
 5394TIP3    H137597   1.825   3.181  15.977 -1.7767 -1.5596  0.7710
 5394TIP3    H237598   1.831   3.331  15.955  2.2438 -1.6466  0.8781
 5395TIP3   OH237599   2.838   4.198   3.410  0.4370  0.3027 -0.9756
 5395TIP3    H137600   2.800   4.245   3.484 -0.8083 -1.6477 -0.3367
 5395TIP3    H237601   2.797   4.239   3.333 -2.5696 -1.3033 -0.3275
 5396TIP3   OH237602   0.831   4.990   2.366 -0.1998 -0.6318 -0.5104
 5396TIP3    H137603   0.837   4.943   2.283 -0.7105  0.0205 -0.9247
 5396TIP3    H237604   0.823   5.082   2.341  0.6924 -0.3250  0.2891
 5397TIP3   OH237605   3.259   4.395  11.721 -0.1458  0.0230 -0.3210
 5397TIP3    H137606   3.287   4.464  11.660  1.8213 -0.6519 -0.1960
 5397TIP3    H237607   3.249   4.318  11.666  0.1768 -0.2228 -0.0345
 5398TIP3   OH237608   6.634   5.143  15.310 -0.1975  0.0520  0.3370
 5398TIP3    H137609   6.612   5.152  15.403 -1.0894  0.2960  0.1026
 5398TIP3    H237610   6.728   5.123  15.310 -0.3864 -0.8935  1.3353
 5399TIP3   OH237611   1.138   3.225   6.182  0.6464  0.1412 -0.1150
 5399TIP3    H137612   1.079   3.226   6.257  2.2658 -0.9069  1.2056
 5399TIP3    H237613   1.082   3.203   6.108 -0.5074 -1.6745  1.2497
 5400TIP3   OH237614   2.795   4.558  11.992 -0.1030  0.1922 -0.4129
 5400TIP3    H137615   2.776   4.630  11.932  2.4537 -0.6118 -2.2826
 5400TIP3    H237616   2.750   4.581  12.073  2.1588  4.8727 -0.3489
 5401TIP3   OH237617   0.743   3.538  10.940 -0.5275 -0.1001 -0.3637
 5401TIP3    H137618   0.698   3.623  10.938  0.3258  0.4302  1.2952
 5401TIP3    H237619   0.829   3.557  10.902 -0.6480 -0.4221 -0.7913
 5402TIP3   OH237620   6.394   2.801  13.065 -0.5489  0.0320  0.5308
 5402TIP3    H137621   6.404   2.824  12.973 -0.7689 -0.5000  0.3747
 5402TIP3    H237622   6.401   2.706  13.067  0.7563  0.1405  1.2268
 5403TIP3   OH237623   1.933   1.170  14.945  0.2759  0.0274 -0.3442
 5403TIP3    H137624   1.892   1.225  15.012 -3.1651  0.3875 -2.6109
 5403TIP3    H237625   1.889   1.086  14.953  2.8214 -1.2559  0.5727
 5404TIP3   OH237626   5.325   5.637   3.356  0.3394 -0.0654 -0.1077
 5404TIP3    H137627   5.414   5.644   3.321  0.3921  0.4236  0.1125
 5404TIP3    H237628   5.268   5.657   3.282  0.4264  0.0674 -0.1397
 5405TIP3   OH237629   3.005   3.391   2.953 -0.4530 -0.2717  0.2507
 5405TIP3    H137630   3.029   3.299   2.954 -2.0000 -0.6950 -0.1336
 5405TIP3    H237631   2.920   3.393   2.909 -1.8168  0.9915  2.8163
 5406TIP3   OH237632   4.567   1.298  13.091  0.0279 -0.0224  0.1828
 5406TIP3    H137633   4.553   1.220  13.038 -1.5943  0.5753 -0.3094
 5406TIP3    H237634   4.600   1.364  13.030 -2.4001  0.8408 -0.2393
 5407TIP3   OH237635   1.713   3.346   3.492 -0.4156  0.1456 -0.2581
 5407TIP3    H137636   1.650   3.274   3.497  0.1899 -0.4214 -0.6976
 5407TIP3    H237637   1.785   3.311   3.439  0.0021  0.9844 -0.2497
 5408TIP3   OH237638   1.567   4.777   3.748 -0.2416  0.3339 -0.4692
 5408TIP3    H137639   1.542   4.846   3.686 -0.8331  1.1862  0.6884
 5408TIP3    H237640   1.585   4.823   3.829 -1.9851 -0.9778  0.7196
 5409TIP3   OH237641   0.134   5.005   1.880  0.0035  0.6879 -0.0103
 5409TIP3    H137642   0.074   4.954   1.825  0.0547 -0.7367  1.2384
 5409TIP3    H237643   0.136   4.959   1.964  1.9944  1.3355  0.3351
 5410TIP3   OH237644   2.654   0.113  14.443 -0.3362  0.3389  0.4780
 5410TIP3    H137645   2.562   0.134  14.461 -0.8157 -0.7612 -0.6490
 5410TIP3    H237646   2.658   0.102  14.348  1.3069  1.9448  0.3289
 5411TIP3   OH237647   0.612   3.353  12.925  0.7623  0.3981  0.1321
 5411TIP3    H137648   0.523   3.322  12.903  1.9618 -2.0410 -1.5882
 5411TIP3    H237649   0.630   3.421  12.860  0.8171 -0.4089 -0.7220
 5412TIP3   OH237650   5.120   5.629  14.404 -0.6785 -0.5066 -0.2391
 5412TIP3    H137651   5.186   5.564  14.381  0.9813  0.0365  2.7322
 5412TIP3    H237652   5.167   5.713  14.400 -1.6271  0.0557  0.2632
 5413TIP3   OH237653   5.849   6.548   5.015 -0.2737  0.8619 -0.4371
 5413TIP3    H137654   5.773   6.499   5.048  0.0964  0.4857 -0.1387
 5413TIP3    H237655   5.817   6.637   5.006 -0.4918  0.8927  0.5779
 5414TIP3   OH237656   5.724   0.421   0.433  0.6540  0.0280  0.7042
 5414TIP3    H137657   5.719   0.495   0.494 -1.3041 -1.3198  2.2789
 5414TIP3    H237658   5.652   0.436   0.371  2.7084  1.4486 -1.4119
 5415TIP3   OH237659   2.252   5.451  13.618  0.1856  0.3457 -0.5502
 5415TIP3    H137660   2.179   5.484  13.671 -1.1124 -1.8720 -0.8814
 5415TIP3    H237661   2.260   5.359  13.643  3.1426  0.6365 -0.2539
 5416TIP3   OH237662   0.672   6.372  13.153 -0.0982  0.5218 -0.4141
 5416TIP3    H137663   0.623   6.344  13.076 -0.2125  0.2154 -0.2282
 5416TIP3    H237664   0.648   6.310  13.221 -2.6464  2.7725  0.8382
 5417TIP3   OH237665   2.417   6.073   4.995 -0.1997 -0.3888  0.2309
 5417TIP3    H137666   2.504   6.087   4.958 -0.6463 -0.6013 -0.9226
 5417TIP3    H237667   2.410   5.978   5.003  0.3509 -0.2878  1.9925
 5418TIP3   OH237668   0.571   3.131   0.705  1.0466  0.2558 -0.1559
 5418TIP3    H137669   0.615   3.147   0.788  0.5417  0.4193  0.0881
 5418TIP3    H237670   0.582   3.038   0.688  2.0958  0.4350 -0.4552
 5419TIP3   OH237671   6.157   3.782  16.705  0.4240 -0.0256  0.1740
 5419TIP3    H137672   6.144   3.820  16.792 -0.5527 -0.0019  0.0247
 5419TIP3    H237673   6.207   3.701  16.722 -3.0729 -2.1012  1.2103
 5420TIP3   OH237674   6.716   5.512  10.437  0.1388 -0.1937  0.1831
 5420TIP3    H137675   6.636   5.533  10.486 -0.2945  0.0910 -0.6363
 5420TIP3    H237676   6.702   5.423  10.405  0.1957 -0.1834  0.1305
 5421TIP3   OH237677   6.006   4.370   4.038 -0.3558 -0.0962 -0.3401
 5421TIP3    H137678   5.957   4.290   4.017 -0.2269 -0.5434  1.0129
 5421TIP3    H237679   5.940   4.440   4.034 -0.9928 -0.6133  0.8968
 5422TIP3   OH237680   3.703   6.393  14.647 -0.1457 -0.2014  0.0359
 5422TIP3    H137681   3.781   6.438  14.679  0.2698 -0.6367 -0.3632
 5422TIP3    H237682   3.647   6.384  14.724 -0.6643  1.8708 -0.0487
 5423TIP3   OH237683   2.278   3.631  13.037 -0.1809  0.0716 -0.8965
 5423TIP3    H137684   2.249   3.706  13.089  0.4455 -0.3583  0.1054
 5423TIP3    H237685   2.214   3.562  13.057 -0.5030  0.2059 -1.4669
 5424TIP3   OH237686   4.025   6.474   0.301  0.4414  0.1479  0.1354
 5424TIP3    H137687   3.967   6.415   0.347  0.2360  0.5836  0.4378
 5424TIP3    H237688   3.973   6.554   0.288  0.8753  0.4376  0.1632
 5425TIP3   OH237689   4.738   3.120  15.763 -0.1537  0.0058  0.2031
 5425TIP3    H137690   4.725   3.178  15.837 -0.0125  1.4274 -0.8645
 5425TIP3    H237691   4.649   3.095  15.736 -0.2503  0.6220 -0.0392
 5426TIP3   OH237692   3.569   2.117   3.879  0.1642  0.2821 -0.7973
 5426TIP3    H137693   3.475   2.134   3.889  0.1605 -1.2109  1.9184
 5426TIP3    H237694   3.575   2.024   3.859  1.1236  0.1406  0.1190
 5427TIP3   OH237695   3.905   1.544  11.538  0.2283  0.4775  0.3287
 5427TIP3    H137696   3.837   1.491  11.580  0.1495  1.7989  1.9238
 5427TIP3    H237697   3.922   1.500  11.455  0.0994 -1.9812  1.5782
 5428TIP3   OH237698   1.803   1.985  16.055  0.1437 -0.0452 -0.3351
 5428TIP3    H137699   1.755   1.922  16.001  1.7973 -0.0276 -1.8797
 5428TIP3    H237700   1.747   2.063  16.056 -0.6793 -0.6213 -0.6247
 5429TIP3   OH237701   3.351   2.647   1.381  0.6993  0.1887  0.1263
 5429TIP3    H137702   3.388   2.579   1.325 -0.4252  0.1854 -0.6253
 5429TIP3    H237703   3.333   2.602   1.464  1.4195 -0.0430  0.1685
 5430TIP3   OH237704   0.884   2.090  13.190  0.1214  0.4834 -0.0757
 5430TIP3    H137705   0.792   2.097  13.164  0.1810  0.6308 -0.2452
 5430TIP3    H237706   0.924   2.038  13.120  0.1009  0.1434  0.1619
 5431TIP3   OH237707   2.632   6.001   4.207 -0.3712  0.0207 -0.2596
 5431TIP3    H137708   2.581   5.982   4.128  0.4744 -1.0060 -0.5576
 5431TIP3    H237709   2.718   6.028   4.175 -0.3450  0.5983  0.2830
 5432TIP3   OH237710   1.246   1.434  15.905  0.2278 -0.0865 -0.6162
 5432TIP3    H137711   1.161   1.478  15.901  0.2584 -0.1446 -2.7926
 5432TIP3    H237712   1.224   1.341  15.906  0.2369 -0.0801  0.5655
 5433TIP3   OH237713   4.541   2.926  14.460 -0.2128  0.0805 -0.2657
 5433TIP3    H137714   4.605   2.856  14.445  2.0484  1.8926  0.7078
 5433TIP3    H237715   4.514   2.952  14.372 -0.5659 -1.5469 -0.6535
 5434TIP3   OH237716   5.455   4.771  16.535 -0.4825  0.2155 -0.3070
 5434TIP3    H137717   5.449   4.805  16.625 -1.2097  1.7065 -0.9172
 5434TIP3    H237718   5.371   4.727  16.521 -1.4236  2.2346 -1.1592
 5435TIP3   OH237719   5.261   5.361   0.726 -0.3219  0.1356 -0.3393
 5435TIP3    H137720   5.201   5.332   0.658  0.3185 -0.4518 -0.6609
 5435TIP3    H237721   5.205   5.382   0.801 -1.0276  0.7662 -1.0414
 5436TIP3   OH237722   1.895   2.407  11.005 -0.5643 -0.5042 -0.2280
 5436TIP3    H137723   1.914   2.358  10.925 -0.2145  0.9431 -1.0591
 5436TIP3    H237724   1.979   2.412  11.050 -0.7957 -1.4627  0.3268
 5437TIP3   OH237725   2.856   0.761   3.071 -0.2533 -0.5306 -0.1776
 5437TIP3    H137726   2.769   0.795   3.050 -0.2471  0.6078  1.5371
 5437TIP3    H237727   2.870   0.785   3.162  1.8962 -0.6146 -0.4526
 5438TIP3   OH237728   4.613   0.508  15.047  0.1758  0.1675 -0.1885
 5438TIP3    H137729   4.553   0.433  15.047  1.6230 -1.0213  0.5511
 5438TIP3    H237730   4.581   0.564  15.117  0.9190 -1.3037  1.3686
 5439TIP3   OH237731   2.815   1.350   0.688  0.3417 -0.1889  0.1842
 5439TIP3    H137732   2.774   1.266   0.710 -0.9763  0.6360  0.9278
 5439TIP3    H237733   2.777   1.373   0.603 -2.1277  1.4194  1.6667
 5440TIP3   OH237734   4.182   6.004  13.516 -0.3125 -0.1644 -0.3769
 5440TIP3    H137735   4.108   6.008  13.577  0.6975  1.2392  0.7629
 5440TIP3    H237736   4.171   5.919  13.472 -1.0536 -1.2062  1.7381
 5441TIP3   OH237737   6.178   5.671  13.641 -0.4031  0.3688 -0.3391
 5441TIP3    H137738   6.155   5.720  13.562  1.0854  1.0075 -0.3956
 5441TIP3    H237739   6.273   5.679  13.647 -0.0458 -2.7721 -0.5364
 5442TIP3   OH237740   2.127   2.531   0.881  0.2424 -0.3854  0.0586
 5442TIP3    H137741   2.189   2.552   0.951  0.9346 -0.7864 -0.4282
 5442TIP3    H237742   2.065   2.604   0.882  0.9900  0.2552  0.2514
 5443TIP3   OH237743   6.353   2.380  14.057 -0.0405  0.0405  0.8212
 5443TIP3    H137744   6.430   2.427  14.089 -0.8382  1.3440  0.8470
 5443TIP3    H237745   6.379   2.288  14.058  1.7604  0.5240  0.1624
 5444TIP3   OH237746   6.385   0.467  11.737 -0.2809  0.5242  0.2407
 5444TIP3    H137747   6.410   0.559  11.730  2.0915  0.0633  2.1138
 5444TIP3    H237748   6.353   0.457  11.826  0.8533 -0.7528  0.5243
 5445TIP3   OH237749   0.951   2.669   6.239 -0.3239  0.4827  0.1546
 5445TIP3    H137750   0.921   2.744   6.187  1.0601 -1.1419 -3.1130
 5445TIP3    H237751   1.033   2.698   6.279 -1.5800  1.8675  1.7998
 5446TIP3   OH237752   3.765   0.271   3.919  0.6677 -0.2377  0.0060
 5446TIP3    H137753   3.693   0.302   3.863  1.2052 -0.6279 -0.9228
 5446TIP3    H237754   3.814   0.350   3.941 -0.0875  0.0418  0.7126
 5447TIP3   OH237755   0.840   2.129   0.225 -0.2128 -0.0217 -0.0101
 5447TIP3    H137756   0.849   2.194   0.294 -1.2184  0.8486 -0.6895
 5447TIP3    H237757   0.896   2.056   0.253  0.1947  0.7483  1.1998
 5448TIP3   OH237758   5.678   2.680   2.417  0.8022 -0.2177 -0.2638
 5448TIP3    H137759   5.587   2.698   2.392  1.2436 -0.4330 -2.1201
 5448TIP3    H237760   5.674   2.601   2.470 -0.1789  0.2603  0.3852
 5449TIP3   OH237761   3.907   5.386   0.981 -0.6242  0.3157 -0.0257
 5449TIP3    H137762   3.873   5.467   1.021  0.8104  0.5558  0.7354
 5449TIP3    H237763   3.991   5.411   0.944 -0.6015 -0.6236 -0.6186
 5450TIP3   OH237764   4.066   4.850  11.382  0.5951 -0.2780 -0.2748
 5450TIP3    H137765   4.073   4.819  11.291  1.2591 -3.6098  0.8474
 5450TIP3    H237766   4.059   4.945  11.374 -1.0642 -0.6013 -3.9030
 5451TIP3   OH237767   3.543   5.533  14.247  0.7423  0.6297 -0.5543
 5451TIP3    H137768   3.544   5.587  14.326 -1.2914 -0.7076  0.4204
 5451TIP3    H237769   3.557   5.595  14.176 -1.7253  2.5477  0.5315
 5452TIP3   OH237770   5.837   3.002  16.634  0.6936 -0.4138  0.3827
 5452TIP3    H137771   5.918   2.957  16.657  0.8433  0.4686  1.6775
 5452TIP3    H237772   5.767   2.942  16.660  0.9199 -1.3894 -1.2045
 5453TIP3   OH237773   3.516   4.476  12.682  0.7768  0.5832  0.9128
 5453TIP3    H137774   3.502   4.505  12.772  0.2022  1.0412  0.6762
 5453TIP3    H237775   3.555   4.389  12.691 -1.5403 -0.4300  1.6049
 5454TIP3   OH237776   2.873   5.377   3.743 -0.1884 -0.6301 -0.2741
 5454TIP3    H137777   2.801   5.438   3.729 -0.1649 -0.3496  0.7594
 5454TIP3    H237778   2.948   5.432   3.766  0.5320 -0.8768 -1.9484
 5455TIP3   OH237779   0.933   0.076   5.951 -0.3915  0.3600  0.7488
 5455TIP3    H137780   0.847   0.055   5.914 -0.9359  1.1748  1.5422
 5455TIP3    H237781   0.927   0.169   5.975  1.5211  1.1015 -1.4410
 5456TIP3   OH237782   2.847   3.034   5.464  0.2008  0.7414 -0.1313
 5456TIP3    H137783   2.779   3.100   5.453  0.6212  2.0601  4.2554
 5456TIP3    H237784   2.799   2.954   5.484 -0.1586  0.7751 -0.8376
 5457TIP3   OH237785   0.382   4.500  16.674 -0.5781 -0.7002  0.0126
 5457TIP3    H137786   0.442   4.426  16.688  0.7265  0.5179  1.0477
 5457TIP3    H237787   0.318   4.492  16.745 -2.3608 -2.6632 -1.7620
 5458TIP3   OH237788   1.645   3.586   0.481  0.3668 -0.2062 -0.4925
 5458TIP3    H137789   1.569   3.571   0.536 -0.2726  0.4121 -1.1974
 5458TIP3    H237790   1.698   3.650   0.529  0.1327 -0.1624 -0.2957
 5459TIP3   OH237791   5.753   0.470   5.595  0.1831  0.4626  0.0789
 5459TIP3    H137792   5.790   0.394   5.552  1.0932 -0.3172  2.1645
 5459TIP3    H237793   5.757   0.449   5.689 -2.5575  1.7035  0.5412
 5460TIP3   OH237794   3.702   5.944   3.219  0.6309  0.4820  0.3651
 5460TIP3    H137795   3.739   5.936   3.307  0.4669 -2.5217  0.1905
 5460TIP3    H237796   3.609   5.923   3.230  0.7484 -0.5972 -0.6263
 5461TIP3   OH237797   0.457   2.880  10.742  0.1277  0.5485 -0.0560
 5461TIP3    H137798   0.385   2.820  10.721 -0.2340  1.0557 -0.2895
 5461TIP3    H237799   0.528   2.855  10.683 -0.1366  0.5637 -0.3816
 5462TIP3   OH237800   4.046   4.505  12.307  0.8395  0.1020 -0.0788
 5462TIP3    H137801   3.961   4.511  12.351 -0.5298  2.0969 -2.7917
 5462TIP3    H237802   4.071   4.413  12.316 -2.1237 -0.7684 -0.0658
 5463TIP3   OH237803   2.665   4.777  14.361  0.2375 -0.1091  0.0343
 5463TIP3    H137804   2.706   4.863  14.352 -0.7306  0.5739  1.9426
 5463TIP3    H237805   2.649   4.749  14.271  2.2365  0.8678 -0.6696
 5464TIP3   OH237806   1.515   0.068  13.595  0.2691 -0.2591  0.2352
 5464TIP3    H137807   1.468  -0.010  13.624 -0.5250 -0.7605 -2.3044
 5464TIP3    H237808   1.578   0.035  13.531 -0.6926  1.2750 -1.5510
 5465TIP3   OH237809   5.062   6.371  10.842  0.1310  0.0974  0.3625
 5465TIP3    H137810   5.090   6.440  10.782  0.8457 -0.0683  0.4998
 5465TIP3    H237811   5.006   6.314  10.790  0.9560 -0.1916 -0.2277
 5466TIP3   OH237812   5.825   3.251   2.635  0.0541 -0.2899  0.0123
 5466TIP3    H137813   5.764   3.179   2.618  0.2768 -0.4308 -0.2081
 5466TIP3    H237814   5.843   3.288   2.548 -0.1161  0.0788  0.1317
 5467TIP3   OH237815   3.920   5.000  16.019 -0.3948 -0.1372 -0.2582
 5467TIP3    H137816   3.908   4.905  16.021 -1.9531  0.0585  0.9870
 5467TIP3    H237817   3.857   5.031  15.954 -0.8310  0.1528  0.2947
 5468TIP3   OH237818   0.845   0.021  13.546  0.7309 -0.2374 -0.1337
 5468TIP3    H137819   0.883   0.072  13.617 -1.1654  2.5612 -1.0411
 5468TIP3    H237820   0.775  -0.030  13.589 -0.3877  1.4125  0.0633
 5469TIP3   OH237821   6.717   1.052   2.391 -0.4327 -0.2455  0.0928
 5469TIP3    H137822   6.720   0.997   2.314  0.6613 -0.9242  0.6124
 5469TIP3    H237823   6.672   0.999   2.457 -3.1033  1.0361 -0.6051
 5470TIP3   OH237824   4.368   2.138  12.288 -0.4732 -0.4421  0.8822
 5470TIP3    H137825   4.302   2.167  12.226  0.5915  1.0948  0.4597
 5470TIP3    H237826   4.408   2.062  12.246  0.3892  0.7186 -0.4198
 5471TIP3   OH237827   0.733   4.263  12.589  0.6053  0.6360 -0.2287
 5471TIP3    H137828   0.826   4.252  12.607  0.4436  0.1799  0.3760
 5471TIP3    H237829   0.689   4.219  12.662 -0.0825  1.3578 -0.1933
 5472TIP3   OH237830   2.138   5.179  11.096  0.3893 -0.3081 -0.0660
 5472TIP3    H137831   2.157   5.176  11.002 -0.9234 -0.9977 -0.3274
 5472TIP3    H237832   2.224   5.187  11.138  1.0008 -0.1812 -1.3154
 5473TIP3   OH237833   1.808   3.666  12.974  0.3557  0.1467 -0.6487
 5473TIP3    H137834   1.806   3.572  12.992  0.5567  0.1561 -0.5672
 5473TIP3    H237835   1.797   3.673  12.880  0.7801  0.0159 -0.7103
 5474TIP3   OH237836   3.488   5.195   2.618 -0.0301  0.6150  0.5428
 5474TIP3    H137837   3.502   5.131   2.687  1.1071  0.5761  0.2718
 5474TIP3    H237838   3.559   5.258   2.628  0.3767  0.3961 -0.8266
 5475TIP3   OH237839   6.367   0.405  14.520  0.3249  0.5297 -1.0303
 5475TIP3    H137840   6.451   0.426  14.561 -0.6920 -0.2707  1.6210
 5475TIP3    H237841   6.377   0.315  14.490 -0.0835 -0.1680  0.8181
 5476TIP3   OH237842   2.056   2.058  14.198 -0.4266 -0.3545  0.3915
 5476TIP3    H137843   2.124   2.085  14.260 -2.1957  0.6015  1.9742
 5476TIP3    H237844   2.078   2.104  14.117 -0.0230  1.1633  1.3282
 5477TIP3   OH237845   2.766   2.414   0.326 -0.1063 -0.2207  0.1839
 5477TIP3    H137846   2.673   2.415   0.301  0.1780 -1.0209 -0.9577
 5477TIP3    H237847   2.770   2.464   0.408 -1.5152 -0.0296  0.1429
 5478TIP3   OH237848   3.680   2.130   4.121 -0.2709  0.2624  0.0487
 5478TIP3    H137849   3.663   2.049   4.169  1.5082 -0.3444 -0.3046
 5478TIP3    H237850   3.617   2.128   4.048 -1.3276  0.0090  0.9499
 5479TIP3   OH237851   2.531   3.987  11.662 -0.5667 -0.0207 -0.3084
 5479TIP3    H137852   2.521   4.056  11.727 -1.0165 -1.3645  1.0998
 5479TIP3    H237853   2.562   4.031  11.583  1.1106  1.4837  1.1567
 5480TIP3   OH237854   4.150   2.744  11.373 -0.2057 -0.3620  0.5233
 5480TIP3    H137855   4.121   2.796  11.297  0.4440 -0.7654 -0.0053
 5480TIP3    H237856   4.196   2.669  11.334  1.6167  0.2998  1.3586
 5481TIP3   OH237857   2.253   2.386  16.237  0.7557 -0.3078 -0.2770
 5481TIP3    H137858   2.285   2.373  16.148 -0.0366 -0.7967 -0.4984
 5481TIP3    H237859   2.176   2.442  16.226  0.2208 -0.9862  0.0289
 5482TIP3   OH237860   2.288   0.357   3.925 -0.0979  0.6010 -0.2064
 5482TIP3    H137861   2.208   0.375   3.877 -0.9369 -0.7532  0.6503
 5482TIP3    H237862   2.259   0.332   4.013  1.3111  1.2771  0.4798
 5483TIP3   OH237863   4.549   3.680  16.498  0.2528  0.3034  0.2225
 5483TIP3    H137864   4.543   3.738  16.575 -0.6259 -0.2306  0.5558
 5483TIP3    H237865   4.464   3.636  16.494  0.5313 -0.1628 -0.6744
 5484TIP3   OH237866   3.982   4.336  12.705  0.1831 -0.0572  0.2810
 5484TIP3    H137867   3.950   4.426  12.702  1.9545  0.5617 -0.7250
 5484TIP3    H237868   4.071   4.343  12.740  0.8615 -1.2484 -1.1433
 5485TIP3   OH237869   4.025   4.841   3.628  0.6346 -0.4757  0.2805
 5485TIP3    H137870   3.931   4.829   3.641  0.3560  1.8055  0.7034
 5485TIP3    H237871   4.056   4.879   3.711  1.1137  2.8256 -1.3467
 5486TIP3   OH237872   1.013   5.366  12.560 -0.1421 -0.0273  0.4617
 5486TIP3    H137873   1.015   5.444  12.616  0.7696  0.1050  0.2460
 5486TIP3    H237874   0.990   5.295  12.619  0.6605  0.1359  0.9850
 5487TIP3   OH237875   1.950   1.269   5.503 -0.5570  0.4810  0.3299
 5487TIP3    H137876   1.929   1.363   5.498 -1.2564  0.4347  2.1435
 5487TIP3    H237877   2.017   1.263   5.571 -0.7283 -0.3784  0.4236
 5488TIP3   OH237878   3.055   1.322  14.406  0.5185  0.7276 -0.6030
 5488TIP3    H137879   3.135   1.349  14.361  1.0367  0.1502 -0.0447
 5488TIP3    H237880   3.084   1.256  14.469 -0.5063 -0.0142 -0.8998
 5489TIP3   OH237881   2.541   1.138  13.913  0.1791  0.0650  0.1219
 5489TIP3    H137882   2.498   1.224  13.901  1.7396  0.7197 -0.9212
 5489TIP3    H237883   2.573   1.116  13.826 -0.6464 -1.8485  0.2861
 5490TIP3   OH237884   4.115   4.896  13.766 -0.2309 -0.0547  0.3470
 5490TIP3    H137885   4.119   4.990  13.779 -0.1439 -0.2666  2.0903
 5490TIP3    H237886   4.024   4.872  13.785 -0.0899 -0.3929  0.6263
 5491TIP3   OH237887   0.105   5.932   5.724  0.2513 -0.1080  0.3138
 5491TIP3    H137888   0.152   5.894   5.650 -0.1305 -1.0496  0.5396
 5491TIP3    H237889   0.038   5.866   5.746  1.1424 -0.4079  2.2564
 5492TIP3   OH237890   5.145   5.054   5.070 -0.4759  0.2856 -0.2106
 5492TIP3    H137891   5.151   5.040   5.164 -3.7658 -2.8749 -0.3232
 5492TIP3    H237892   5.082   5.126   5.060 -0.3209  0.4512  0.0231
 5493TIP3   OH237893   1.924   1.591   4.819 -0.1393  0.7276 -0.1094
 5493TIP3    H137894   1.946   1.593   4.912  2.2428 -2.0233 -0.5274
 5493TIP3    H237895   1.928   1.683   4.791  0.7960  1.4023  2.1250
 5494TIP3   OH237896   0.579   0.426   1.529  0.4805  0.2004 -0.0828
 5494TIP3    H137897   0.619   0.345   1.497  1.1752  0.0604  1.1241
 5494TIP3    H237898   0.501   0.437   1.475  0.0913 -1.5479  0.1154
 5495TIP3   OH237899   1.778   4.912  12.046 -0.0979 -0.0779  0.4922
 5495TIP3    H137900   1.803   4.831  12.091 -0.4430  0.7877  2.3072
 5495TIP3    H237901   1.831   4.913  11.966 -0.0953 -2.0870  0.4490
 5496TIP3   OH237902   4.376   0.939  15.329  0.4821  0.4572 -0.0186
 5496TIP3    H137903   4.460   0.982  15.321  1.6472 -1.3590  1.9825
 5496TIP3    H237904   4.359   0.903  15.242  1.7490  0.8782 -0.4470
 5497TIP3   OH237905   6.002   3.706  12.687 -1.5602 -0.5107 -0.0849
 5497TIP3    H137906   6.081   3.678  12.733 -0.1003  4.1673  0.5567
 5497TIP3    H237907   6.029   3.713  12.595 -0.4786  3.0695  0.4154
 5498TIP3   OH237908   5.478   5.931   4.592  0.3003  0.3238  0.1137
 5498TIP3    H137909   5.402   5.895   4.546 -0.2601  0.6630  0.7539
 5498TIP3    H237910   5.553   5.886   4.553 -0.4345 -2.2181  1.4961
 5499TIP3   OH237911   4.300   2.022   1.898 -0.3698 -0.1478 -0.8932
 5499TIP3    H137912   4.299   1.941   1.847  1.2118 -0.9215  0.2675
 5499TIP3    H237913   4.239   2.007   1.970 -0.0194 -0.3377 -0.6355
 5500TIP3   OH237914   4.652   2.383  12.821  0.2016 -0.4434 -0.6145
 5500TIP3    H137915   4.733   2.431  12.806  0.3033 -0.2270  0.6137
 5500TIP3    H237916   4.589   2.450  12.849 -0.1135 -0.7677 -0.5414
 5501TIP3   OH237917   3.955   6.031  12.669 -0.2196 -0.7671 -0.2728
 5501TIP3    H137918   3.983   6.122  12.668 -0.4142 -0.5910  3.0712
 5501TIP3    H237919   3.898   6.022  12.593 -1.5439  2.3649  0.2943
 5502TIP3   OH237920   5.684   0.559   2.051  0.1805  0.4027 -0.2876
 5502TIP3    H137921   5.760   0.613   2.075 -1.1911  1.1575  2.5254
 5502TIP3    H237922   5.609   0.602   2.092 -1.5959 -1.1120 -1.8433
 5503TIP3   OH237923   0.833   2.342   0.403 -0.0104 -0.3634 -0.2594
 5503TIP3    H137924   0.850   2.436   0.403 -3.3850  0.3036 -0.3995
 5503TIP3    H237925   0.855   2.313   0.491 -0.5443  0.8999  0.3024
 5504TIP3   OH237926   6.550   0.425   4.663 -0.5105 -0.8092  0.1755
 5504TIP3    H137927   6.568   0.426   4.757 -1.9246 -1.0572  0.4583
 5504TIP3    H237928   6.517   0.513   4.644  0.1596 -0.6309 -0.1684
 5505TIP3   OH237929   3.365   0.820  12.149  0.0794 -0.5181  0.1784
 5505TIP3    H137930   3.356   0.725  12.153 -0.5962 -0.4565  0.1524
 5505TIP3    H237931   3.348   0.850  12.238 -0.3111 -0.3717  0.0550
 5506TIP3   OH237932   1.467   1.221   5.343 -0.7890 -0.3291  0.1095
 5506TIP3    H137933   1.558   1.237   5.319 -1.2512 -0.3928 -1.7981
 5506TIP3    H237934   1.464   1.128   5.367 -0.4853 -0.5017 -0.5192
 5507TIP3   OH237935   6.421   3.373  15.184  0.3872  0.5388  0.2040
 5507TIP3    H137936   6.453   3.363  15.094  0.2850 -1.2283  0.3467
 5507TIP3    H237937   6.496   3.351  15.239 -0.6543 -2.3282  0.5371
 5508TIP3   OH237938   0.989   0.592   3.729 -0.1485  0.0073  0.2139
 5508TIP3    H137939   1.016   0.542   3.651  0.8380  0.4602  0.2537
 5508TIP3    H237940   0.982   0.682   3.698  0.3254  0.2017  0.6708
 5509TIP3   OH237941   1.929   0.753  13.136  0.3100 -0.0702 -0.6589
 5509TIP3    H137942   1.867   0.697  13.089 -1.7098  0.9872  0.6491
 5509TIP3    H237943   1.998   0.693  13.164 -0.5812 -1.4701 -1.3532
 5510TIP3   OH237944   3.041   1.976   6.053  0.4063  0.3942 -0.0372
 5510TIP3    H137945   3.054   1.911   6.122 -2.3888 -0.3289 -0.1274
 5510TIP3    H237946   3.106   2.044   6.071  2.3706 -1.6675  0.9537
 5511TIP3   OH237947   0.360   3.600   6.004 -0.7162  0.0521  0.5211
 5511TIP3    H137948   0.307   3.583   6.082 -0.1291 -0.5213  0.8043
 5511TIP3    H237949   0.335   3.531   5.943  0.4775 -0.8821  1.0602
 5512TIP3   OH237950   1.519   1.938   4.289  0.1969 -0.1395 -0.3654
 5512TIP3    H137951   1.453   1.949   4.357  0.4853 -2.2514  0.2992
 5512TIP3    H237952   1.572   2.018   4.293  0.6994 -0.5572  2.4471
 5513TIP3   OH237953   1.345   0.116   4.032 -0.1945 -0.4427 -0.4987
 5513TIP3    H137954   1.421   0.068   4.067  0.0387  1.7752  2.2553
 5513TIP3    H237955   1.376   0.151   3.949  0.8565 -1.9051 -0.7559
 5514TIP3   OH237956   2.418   1.472  12.184 -0.3875 -0.0677 -0.0174
 5514TIP3    H137957   2.508   1.453  12.161 -0.3356 -0.9001  0.8715
 5514TIP3    H237958   2.377   1.496  12.101  0.2741 -1.1359 -0.6648
 5515TIP3   OH237959   2.924   5.560  11.381  0.2092  0.2673 -0.4028
 5515TIP3    H137960   2.864   5.493  11.413  0.8298 -0.0725  0.0766
 5515TIP3    H237961   3.000   5.511  11.350  0.9438  0.7713  0.5606
 5516TIP3   OH237962   6.458   2.959   0.126  0.1744 -0.2832 -0.4789
 5516TIP3    H137963   6.511   2.916   0.059 -1.4413  1.0228 -2.6639
 5516TIP3    H237964   6.502   3.043   0.142  0.0729 -0.2209 -0.5294
 5517TIP3   OH237965   2.868   1.053  14.515  0.0424 -0.2464 -0.7597
 5517TIP3    H137966   2.869   0.964  14.481  0.8148  0.4181 -2.5680
 5517TIP3    H237967   2.919   1.103  14.452 -1.3282  1.6964 -0.3741
 5518TIP3   OH237968   6.154   4.314   1.495 -0.3139 -0.1316  0.5701
 5518TIP3    H137969   6.104   4.282   1.570  1.5717 -0.8554  1.5526
 5518TIP3    H237970   6.245   4.312   1.524  0.2114  2.4018 -0.7253
 5519TIP3   OH237971   4.739   4.138   0.698 -0.0904 -0.0395 -0.3719
 5519TIP3    H137972   4.685   4.135   0.777 -0.1471  3.5523 -0.2085
 5519TIP3    H237973   4.686   4.186   0.635  1.8491  1.2348 -1.0589
 5520TIP3   OH237974   3.930   3.582  10.449  0.6285  0.1763 -0.3328
 5520TIP3    H137975   3.926   3.487  10.439  2.7752  0.0214  0.0311
 5520TIP3    H237976   4.023   3.602  10.451  0.2181  2.0821  1.7033
 5521TIP3   OH237977   1.588   4.519   2.323  0.1786  0.2436 -0.5059
 5521TIP3    H137978   1.504   4.476   2.337  0.7627 -0.5659  0.6254
 5521TIP3    H237979   1.573   4.577   2.249 -1.5545  0.6375  0.1295
 5522TIP3   OH237980   3.331   3.595   4.337 -0.1740 -0.0954 -0.5474
 5522TIP3    H137981   3.238   3.575   4.350 -0.4847  2.3582  1.2675
 5522TIP3    H237982   3.331   3.667   4.274  0.3985  0.8269  0.4868
 5523TIP3   OH237983   1.036   0.877  12.155 -0.7985  0.4939 -0.0241
 5523TIP3    H137984   0.971   0.919  12.211 -1.1807  0.5536 -0.5117
 5523TIP3    H237985   0.997   0.793  12.131 -0.1378 -0.0340  0.7519
 5524TIP3   OH237986   5.836   1.638  14.627  0.1836 -0.9602  0.0033
 5524TIP3    H137987   5.820   1.544  14.643 -3.1455 -0.3736  0.4853
 5524TIP3    H237988   5.845   1.675  14.715 -6.4441  0.3458  0.4260
 5525TIP3   OH237989   5.563   1.287   0.995  0.4224 -0.3201  1.0533
 5525TIP3    H137990   5.476   1.327   1.005  0.1050 -0.2923 -1.5151
 5525TIP3    H237991   5.596   1.280   1.084 -1.8418  0.5192  2.0047
 5526TIP3   OH237992   0.547   0.192   4.038 -0.1128  0.2749 -0.3477
 5526TIP3    H137993   0.619   0.166   3.980  0.8981  2.8847 -0.3383
 5526TIP3    H237994   0.558   0.136   4.115  0.0168 -1.5006 -1.6318
 5527TIP3   OH237995   1.278   2.624  14.573  0.3629 -0.0337  0.2613
 5527TIP3    H137996   1.293   2.556  14.508  2.0786  1.4766 -0.9838
 5527TIP3    H237997   1.361   2.672  14.577 -0.5967  1.5596  1.5974
 5528TIP3   OH237998   2.242   1.297   2.326  0.2458 -0.0359  0.1576
 5528TIP3    H137999   2.147   1.297   2.335  0.2153  0.7882 -0.1628
 5528TIP3    H238000   2.267   1.205   2.335 -0.4289 -0.0699  1.8539
 5529TIP3   OH238001   6.516   3.985   3.949 -0.5468 -0.5279  0.7350
 5529TIP3    H138002   6.496   4.040   4.025  0.7342 -1.4224  1.7331
 5529TIP3    H238003   6.433   3.981   3.900 -0.7103  2.1151  0.7283
 5530TIP3   OH238004   1.115   6.448  11.533 -0.2644  0.5644 -0.3040
 5530TIP3    H138005   1.135   6.542  11.530 -0.4970  0.6066 -0.5208
 5530TIP3    H238006   1.132   6.417  11.445 -0.1877  0.4018 -0.2324
 5531TIP3   OH238007   6.317   5.443   3.776  0.0891  0.4833  0.3278
 5531TIP3    H138008   6.382   5.470   3.840  0.2597 -0.4380  0.5518
 5531TIP3    H238009   6.361   5.375   3.724 -0.8979 -0.6169  0.9017
 5532TIP3   OH238010   6.030   0.036  14.968  0.1105 -0.1099  0.0673
 5532TIP3    H138011   5.970   0.083  15.025 -0.7117 -1.0095 -0.0445
 5532TIP3    H238012   6.116   0.051  15.007 -0.2254  0.8380  0.4666
 5533TIP3   OH238013   5.942   5.134  11.692 -0.4087  0.0310  0.2600
 5533TIP3    H138014   5.928   5.133  11.786 -0.6587 -0.0152  0.2214
 5533TIP3    H238015   5.866   5.180  11.657 -0.1638  0.3278  0.1070
 5534TIP3   OH238016   4.658   1.094   5.213  0.0457  0.1345  0.1116
 5534TIP3    H138017   4.600   1.020   5.201  0.5932 -0.0475 -1.4910
 5534TIP3    H238018   4.743   1.065   5.180  0.7895  0.7799  1.3732
 5535TIP3   OH238019   1.376   3.827   4.776 -0.7080 -0.3043 -0.0893
 5535TIP3    H138020   1.281   3.839   4.780 -0.6867 -0.0004 -0.4134
 5535TIP3    H238021   1.397   3.836   4.683 -0.2041  0.9011  0.1343
 5536TIP3   OH238022   1.649   4.037   4.320  0.1427 -0.4700  0.0340
 5536TIP3    H138023   1.634   4.060   4.412 -0.2612 -2.7837  0.5728
 5536TIP3    H238024   1.643   3.942   4.318 -1.3399 -0.3516 -2.6786
 5537TIP3   OH238025   0.255   1.126   1.700 -0.2861 -0.2578  0.0340
 5537TIP3    H138026   0.342   1.163   1.684 -0.6190  0.5637  0.0772
 5537TIP3    H238027   0.268   1.031   1.697  0.6314 -0.1425  0.1582
 5538TIP3   OH238028   2.575   5.078   1.961 -0.3143  0.3693 -0.2274
 5538TIP3    H138029   2.570   5.019   2.035  1.6231 -0.5495 -0.7985
 5538TIP3    H238030   2.483   5.099   1.940 -0.9422 -1.0291  1.0641
 5539TIP3   OH238031   6.133   3.157  15.853 -0.2145 -0.3117  0.4647
 5539TIP3    H138032   6.098   3.148  15.765  0.9637  0.2061 -0.0571
 5539TIP3    H238033   6.137   3.067  15.887  1.3088 -0.7274 -0.7721
 5540TIP3   OH238034   0.043   0.055  12.521 -0.3864  0.0902 -0.4872
 5540TIP3    H138035   0.113   0.005  12.479 -0.4846 -0.6144  0.1763
 5540TIP3    H238036   0.082   0.141  12.537  0.9940 -0.8980  1.6491
 5541TIP3   OH238037   1.763   0.395   1.911  0.3426  0.9791 -1.1410
 5541TIP3    H138038   1.684   0.402   1.858 -0.2112  0.5587 -0.3802
 5541TIP3    H238039   1.738   0.430   1.996  0.7712  0.1624 -0.6784
 5542TIP3   OH238040   5.261   3.653  12.804  0.2315 -0.6606  0.2072
 5542TIP3    H138041   5.199   3.720  12.774 -0.9897 -1.4362  1.0016
 5542TIP3    H238042   5.342   3.673  12.756 -0.4409  0.7268 -0.3743
 5543TIP3   OH238043   3.165   3.085  10.990 -0.3352  0.5594  0.3408
 5543TIP3    H138044   3.146   3.007  11.042 -0.2580  1.3430  1.5562
 5543TIP3    H238045   3.194   3.051  10.905 -0.7607 -0.7212  0.7015
 5544TIP3   OH238046   2.289   6.536   3.746  0.2453 -0.4444  0.8323
 5544TIP3    H138047   2.266   6.445   3.732  2.4991 -0.9398  0.0260
 5544TIP3    H238048   2.272   6.578   3.661  0.3574 -0.3836  0.8394
 5545TIP3   OH238049   4.311   2.774  15.618 -0.0441  1.1190 -0.3608
 5545TIP3    H138050   4.352   2.694  15.585  0.1455  0.8822  0.4386
 5545TIP3    H238051   4.226   2.777  15.574 -0.1835  0.3160 -0.1540
 5546TIP3   OH238052   5.469   1.475   3.372  0.4529 -0.1608 -0.7479
 5546TIP3    H138053   5.494   1.383   3.371 -2.0999 -0.8815 -1.1540
 5546TIP3    H238054   5.448   1.494   3.464  0.4181 -0.1407 -0.7600
 5547TIP3   OH238055   4.927   0.692  15.821  0.8023 -0.1085 -0.2961
 5547TIP3    H138056   4.912   0.777  15.779  0.8754 -0.1709 -0.4480
 5547TIP3    H238057   4.870   0.632  15.773  1.2664 -0.2775 -0.6361
 5548TIP3   OH238058   6.054   6.206  15.517 -0.0091  0.2200  0.5779
 5548TIP3    H138059   6.141   6.193  15.481 -0.0076 -0.1223  0.7005
 5548TIP3    H238060   6.044   6.137  15.583 -0.9993 -0.8092 -0.6043
 5549TIP3   OH238061   2.735   4.796   5.344  0.1801 -0.0764 -0.1528
 5549TIP3    H138062   2.706   4.836   5.426 -0.4596 -1.6715  0.4334
 5549TIP3    H238063   2.663   4.812   5.282 -0.4105 -0.9511  0.2940
 5550TIP3   OH238064   6.187   6.673   3.085 -0.0877 -0.0838  0.2221
 5550TIP3    H138065   6.193   6.588   3.040  0.3185  0.2935 -0.4383
 5550TIP3    H238066   6.111   6.663   3.143 -0.1529 -0.8409  0.0229
 5551TIP3   OH238067   6.075   6.350   4.919 -0.4863  0.3644  0.0164
 5551TIP3    H138068   6.009   6.419   4.917  1.5097  2.3507  0.7994
 5551TIP3    H238069   6.024   6.268   4.922 -2.8777  1.8041 -0.0197
 5552TIP3   OH238070   6.062   2.331   2.293 -0.0780  0.0484  0.1054
 5552TIP3    H138071   5.993   2.286   2.342 -0.2004 -0.2607 -0.3479
 5552TIP3    H238072   6.093   2.399   2.352  1.7038 -2.0900  1.7541
 5553TIP3   OH238073   3.522   6.750  14.950 -0.1313  0.0114 -0.3193
 5553TIP3    H138074   3.569   6.764  14.868 -0.6442 -0.6822 -0.7404
 5553TIP3    H238075   3.430   6.768  14.929  0.1611  3.5099  1.0168
 5554TIP3   OH238076   4.423   2.418   1.711  0.4265 -0.1809  0.6561
 5554TIP3    H138077   4.390   2.433   1.623  0.1463 -0.1779  0.7630
 5554TIP3    H238078   4.356   2.365   1.754  1.1760 -1.3259  0.4445
 5555TIP3   OH238079   5.073   5.296   3.294 -0.7482 -0.0012 -0.6106
 5555TIP3    H138080   5.006   5.233   3.268 -0.9688  0.4639 -1.1853
 5555TIP3    H238081   5.129   5.305   3.217 -1.0032  0.8687 -0.6995
 5556TIP3   OH238082   5.351   3.246  11.116  0.0851 -0.6163  0.2089
 5556TIP3    H138083   5.382   3.212  11.032  0.8089 -2.3821  1.1586
 5556TIP3    H238084   5.256   3.250  11.107  0.2171 -0.0247 -0.9680
 5557TIP3   OH238085   0.506   3.486   2.757 -0.2571  0.1808 -0.0128
 5557TIP3    H138086   0.506   3.569   2.710 -0.2229  0.3427  0.2713
 5557TIP3    H238087   0.510   3.511   2.850 -0.3223 -0.1339  0.0756
 5558TIP3   OH238088   2.744   6.160  11.639 -0.0773 -0.2144  0.0120
 5558TIP3    H138089   2.773   6.103  11.710 -0.3002 -0.7688 -0.3372
 5558TIP3    H238090   2.704   6.100  11.576 -1.1603  0.4322  0.0778
 5559TIP3   OH238091   5.292   0.044   5.843 -0.3315 -0.4885 -0.2750
 5559TIP3    H138092   5.367  -0.011   5.819  2.1202  1.7229  1.9567
 5559TIP3    H238093   5.314   0.130   5.808 -1.5025  0.3602  1.0640
 5560TIP3   OH238094   6.554   0.496   4.383  0.2523 -0.0055  0.2133
 5560TIP3    H138095   6.502   0.460   4.455  0.7141 -0.7480  0.1709
 5560TIP3    H238096   6.562   0.589   4.405  0.5047 -0.2489  1.1999
 5561TIP3   OH238097   3.665   5.732  14.654 -0.3342 -0.1518 -0.4069
 5561TIP3    H138098   3.760   5.722  14.649 -0.3304  0.5285 -2.0213
 5561TIP3    H238099   3.652   5.801  14.720  0.3565  0.6565 -1.0970
 5562TIP3   OH238100   1.300   4.946  12.485  0.0556  0.4327 -0.3121
 5562TIP3    H138101   1.272   5.022  12.434  0.4772  2.0406  1.7718
 5562TIP3    H238102   1.222   4.891  12.491 -0.1140  0.4224 -2.2914
 5563TIP3   OH238103   6.644   3.960   1.080  0.4374  0.0563  0.2263
 5563TIP3    H138104   6.571   3.907   1.113 -0.7620  0.6363 -1.3891
 5563TIP3    H238105   6.722   3.910   1.103 -0.6218 -2.0930 -0.6681
 5564TIP3   OH238106   0.229   3.903  13.399  0.2293 -0.8216  0.1439
 5564TIP3    H138107   0.251   3.828  13.455  0.7241 -1.8299 -1.3848
 5564TIP3    H238108   0.269   3.883  13.314 -0.6973  0.5974 -0.6506
 5565TIP3   OH238109   2.707   4.474   2.531  0.0840 -0.4935 -0.9828
 5565TIP3    H138110   2.761   4.423   2.470 -0.3462  0.6319 -2.3515
 5565TIP3    H238111   2.769   4.504   2.598  1.4934  1.9490 -3.2850
 5566TIP3   OH238112   3.608   6.335  14.105  0.0956  0.2076  0.2617
 5566TIP3    H138113   3.653   6.402  14.054  1.1245 -0.2901  0.4888
 5566TIP3    H238114   3.631   6.252  14.063  0.1683 -0.1298  0.9457
 5567TIP3   OH238115   4.301   6.491  16.883 -0.0546  0.4923  0.2335
 5567TIP3    H138116   4.345   6.441  16.814  0.8060 -0.2285  1.2796
 5567TIP3    H238117   4.372   6.536  16.929 -0.3073 -1.0861  2.2599
 5568TIP3   OH238118   5.165   6.514  16.381 -0.2073 -0.1545  0.3496
 5568TIP3    H138119   5.238   6.574  16.361  1.0050 -1.9864 -0.9161
 5568TIP3    H238120   5.181   6.487  16.471 -0.6422  1.2164  0.8618
 5569TIP3   OH238121   1.892   0.437  16.929 -0.7524 -0.0655 -0.9626
 5569TIP3    H138122   1.930   0.430  16.842  0.8125 -1.6685 -0.1902
 5569TIP3    H238123   1.848   0.353  16.943  0.2806 -0.4127  0.3427
 5570TIP3   OH238124   0.726   2.813   4.589 -0.0957 -0.1213  0.3591
 5570TIP3    H138125   0.717   2.776   4.501 -0.1904 -3.4673  1.7023
 5570TIP3    H238126   0.640   2.851   4.608 -0.1789  0.3036 -0.8474
 5571TIP3   OH238127   3.230   5.058   0.839 -0.4983 -0.2494 -0.4539
 5571TIP3    H138128   3.156   4.999   0.846  0.9825 -2.1414 -0.3643
 5571TIP3    H238129   3.298   5.019   0.894  0.7465  1.1680 -0.9353
 5572TIP3   OH238130   0.683   0.286  16.032  0.3563  0.3505 -0.8538
 5572TIP3    H138131   0.682   0.195  16.004 -0.6716 -0.1569  0.7701
 5572TIP3    H238132   0.750   0.290  16.101  1.0061  1.0115 -1.5131
 5573TIP3   OH238133   1.056   0.141  14.031  0.4314 -0.3993 -0.2820
 5573TIP3    H138134   1.020   0.210  14.087  3.6864 -0.4361  2.0019
 5573TIP3    H238135   1.061   0.181  13.944  0.7339  1.6983  0.6726
 5574TIP3   OH238136   1.622   1.119  16.758 -0.6484  0.1584  0.0122
 5574TIP3    H138137   1.575   1.201  16.775 -2.5961 -1.0433  0.6627
 5574TIP3    H238138   1.615   1.070  16.840  2.5267  0.2734  0.3949
 5575TIP3   OH238139   0.298   1.151   5.241 -0.1877  0.8488  0.3193
 5575TIP3    H138140   0.298   1.080   5.305  2.4746  1.0188  0.5813
 5575TIP3    H238141   0.278   1.108   5.158  0.2971 -0.0305  0.6483
 5576TIP3   OH238142   0.020   4.075  15.468 -0.2090 -0.0865 -0.4059
 5576TIP3    H138143  -0.057   4.042  15.514  1.1738 -0.8729  1.4407
 5576TIP3    H238144  -0.001   4.166  15.447 -1.3565 -0.0892  0.6861
 5577TIP3   OH238145   5.541   3.949  14.477  0.0366 -0.2019 -0.0744
 5577TIP3    H138146   5.488   3.895  14.534 -0.5019  0.9351  0.5295
 5577TIP3    H238147   5.480   4.012  14.438  1.0198  1.6527  1.2626
 5578TIP3   OH238148   1.479   3.410  14.083  0.0160 -0.5299  0.1621
 5578TIP3    H138149   1.452   3.338  14.026  1.5366 -2.1042  1.3717
 5578TIP3    H238150   1.403   3.427  14.138 -0.1696 -1.5919  0.2424
 5579TIP3   OH238151   3.658   4.091   2.291 -0.5685 -0.0766 -0.1439
 5579TIP3    H138152   3.683   4.153   2.223 -1.0159  0.9821  0.6372
 5579TIP3    H238153   3.573   4.122   2.322  0.4382  0.5101  2.1169
 5580TIP3   OH238154   2.951   0.509  12.463 -0.2609 -0.3042 -0.3374
 5580TIP3    H138155   2.869   0.528  12.510  0.0231  1.9200 -0.6727
 5580TIP3    H238156   3.011   0.478  12.531 -0.4744  0.9625  0.4571
 5581TIP3   OH238157   2.818   6.600   0.491 -0.5659 -0.4060 -0.1305
 5581TIP3    H138158   2.772   6.527   0.451  0.4984 -0.8251 -0.6105
 5581TIP3    H238159   2.879   6.559   0.552  1.6977 -0.0759 -2.0923
 5582TIP3   OH238160   6.228   6.376   0.703 -0.1729  0.1618 -0.1006
 5582TIP3    H138161   6.208   6.458   0.658 -1.3637 -0.1695 -0.1928
 5582TIP3    H238162   6.144   6.349   0.741  0.0379 -1.4002 -0.7194
 5583TIP3   OH238163   1.219   2.797   0.822 -0.0892 -0.8121 -0.5241
 5583TIP3    H138164   1.147   2.860   0.830  0.3945 -0.2302 -0.6487
 5583TIP3    H238165   1.258   2.795   0.910 -0.3040 -1.1780 -0.4389
 5584TIP3   OH238166   3.259   1.827   5.793  0.2707 -0.3874 -0.1778
 5584TIP3    H138167   3.341   1.824   5.843  0.5472  1.3245 -0.4811
 5584TIP3    H238168   3.219   1.741   5.806  1.5001 -0.7898  1.0192
 5585TIP3   OH238169   5.003   4.659  10.847  0.3412  0.1833 -0.4109
 5585TIP3    H138170   4.985   4.733  10.789  0.9893  0.6486 -0.0148
 5585TIP3    H238171   5.089   4.678  10.885  0.5349 -0.7874 -0.3426
 5586TIP3   OH238172   5.067   6.194   4.499  0.5616 -0.0660 -0.0069
 5586TIP3    H138173   4.981   6.208   4.459  0.6730  1.2212  0.1873
 5586TIP3    H238174   5.103   6.119   4.453  0.4579  1.0425 -1.9225
 5587TIP3   OH238175   2.329   6.537  12.215  0.7730 -0.1623  0.0742
 5587TIP3    H138176   2.403   6.518  12.157  1.2035 -1.5441  1.0311
 5587TIP3    H238177   2.255   6.549  12.156  1.1855 -1.6333 -0.7771
 5588TIP3   OH238178   4.475   4.849  10.525  0.4406  0.0262 -0.0048
 5588TIP3    H138179   4.461   4.925  10.469  1.2299  0.7754  0.7975
 5588TIP3    H238180   4.507   4.885  10.607  0.5983 -1.1553  0.4654
 5589TIP3   OH238181   6.156   1.542   1.067 -0.5696 -0.2794  0.3667
 5589TIP3    H138182   6.229   1.508   1.120 -0.2268 -0.1909 -0.0464
 5589TIP3    H238183   6.102   1.466   1.049 -0.7742 -0.2843  0.9819
 5590TIP3   OH238184   2.924   4.481  16.294  0.8474 -0.2797 -0.0259
 5590TIP3    H138185   2.858   4.437  16.347 -0.3822  0.2465 -1.0905
 5590TIP3    H238186   2.917   4.573  16.317 -1.3792  0.3213 -2.7925
 5591TIP3   OH238187   6.672   5.424  14.322 -0.4138  0.3792  0.0485
 5591TIP3    H138188   6.580   5.400  14.307  0.0101 -0.6893 -0.8989
 5591TIP3    H238189   6.697   5.375  14.401 -0.4116  0.0083 -0.1822
 5592TIP3   OH238190   4.241   0.810   3.660 -0.1630 -0.3153 -0.2696
 5592TIP3    H138191   4.221   0.739   3.598 -0.7317 -0.4007  0.0056
 5592TIP3    H238192   4.240   0.889   3.607  0.5461 -0.5182 -0.5942
 5593TIP3   OH238193   4.940   0.456  12.413  0.1288  0.3089 -0.0116
 5593TIP3    H138194   4.878   0.495  12.475 -1.0017  0.8249 -1.4303
 5593TIP3    H238195   4.913   0.364  12.407  2.0585 -0.4663  2.4353
 5594TIP3   OH238196   5.833   2.174  15.388 -0.1105  0.1162 -0.8913
 5594TIP3    H138197   5.809   2.101  15.444  0.6132  0.5178 -0.0512
 5594TIP3    H238198   5.768   2.242  15.407 -0.8526 -0.3329 -1.7571
 5595TIP3   OH238199   4.071   5.807   2.936  0.5952  0.8498  0.7233
 5595TIP3    H138200   4.048   5.714   2.942  0.4566  0.7536 -1.1359
 5595TIP3    H238201   4.118   5.825   3.018  0.8973 -0.9314  0.9662
 5596TIP3   OH238202   4.689   1.809   2.237  0.2113 -0.1023  0.6309
 5596TIP3    H138203   4.733   1.724   2.232  0.2737 -0.3436  4.1658
 5596TIP3    H238204   4.598   1.788   2.255  0.2228  0.5724  1.4893
 5597TIP3   OH238205   2.661   4.571  12.264 -0.4193 -0.1585  1.0193
 5597TIP3    H138206   2.737   4.602  12.313 -0.9738  0.4146  1.5166
 5597TIP3    H238207   2.627   4.498  12.316  1.5784 -2.4167 -0.7381
 5598TIP3   OH238208   5.105   4.411  10.912 -0.0547  0.0601  0.0623
 5598TIP3    H138209   5.026   4.360  10.925  0.2542 -0.1725  1.1065
 5598TIP3    H238210   5.075   4.492  10.872 -0.6260 -0.6529 -0.9632
 5599TIP3   OH238211   6.202   2.581  10.744 -0.1925 -0.2829  0.0769
 5599TIP3    H138212   6.225   2.605  10.654  0.1459  1.9166  0.7345
 5599TIP3    H238213   6.114   2.616  10.756 -0.8009 -1.8056  0.1545
 5600TIP3   OH238214   0.003   5.043  14.412  0.2353  0.5778 -0.0646
 5600TIP3    H138215   0.049   5.071  14.333 -2.4408  1.3834 -1.4027
 5600TIP3    H238216  -0.024   4.953  14.393  1.1407  0.1575  0.6509
 5601TIP3   OH238217   0.567   1.348   1.917 -0.6038  0.0574 -0.3714
 5601TIP3    H138218   0.581   1.416   1.982  1.5117 -0.7106  0.0208
 5601TIP3    H238219   0.499   1.293   1.954  1.3349 -0.9855  1.7525
 5602TIP3   OH238220   4.824   4.842   1.771  0.2201  0.1548 -0.4139
 5602TIP3    H138221   4.835   4.815   1.680  0.9504  1.7615 -0.8244
 5602TIP3    H238222   4.873   4.924   1.777 -0.9354  0.7362  1.0932
 5603TIP3   OH238223   4.860   5.783  13.404  0.2628 -0.2141  0.0925
 5603TIP3    H138224   4.887   5.790  13.313 -1.4509 -1.2909 -0.5166
 5603TIP3    H238225   4.821   5.868  13.425 -0.8362 -0.5253 -0.6778
 5604TIP3   OH238226   4.488   1.979  17.074  0.3364  0.4516 -0.4252
 5604TIP3    H138227   4.572   1.944  17.042  0.8367  1.6130 -0.4268
 5604TIP3    H238228   4.477   2.060  17.025 -0.5579  0.5446 -0.0638
 5605TIP3   OH238229   6.466   1.047  15.022  0.2526  0.0100 -0.5727
 5605TIP3    H138230   6.497   0.972  15.071 -0.8437 -0.7488 -1.0189
 5605TIP3    H238231   6.477   1.121  15.082  0.7657 -0.5895  0.0839
 5606TIP3   OH238232   6.029   2.411  14.281 -1.0447 -0.0266 -0.2755
 5606TIP3    H138233   6.097   2.378  14.338 -1.8865 -1.3895 -0.0381
 5606TIP3    H238234   6.073   2.477  14.227  0.0991  0.1811  0.8806
 5607TIP3   OH238235   6.603   2.655   2.929  0.3552  0.4472  0.3508
 5607TIP3    H138236   6.514   2.648   2.895  0.8235 -0.5352 -0.7224
 5607TIP3    H238237   6.606   2.594   3.003  0.4854 -0.4768 -0.4030
 5608TIP3   OH238238   0.534   1.932  13.629 -0.1137 -0.3437 -0.7776
 5608TIP3    H138239   0.593   2.005  13.645  0.0303 -0.2909 -1.5126
 5608TIP3    H238240   0.456   1.951  13.681 -0.5251  0.9034 -1.8347
 5609TIP3   OH238241   1.464   1.369  12.026 -0.4328 -0.3177  0.6221
 5609TIP3    H138242   1.500   1.292  11.983  1.4302  0.8164  0.0891
 5609TIP3    H238243   1.412   1.413  11.958 -0.7017 -0.5864  0.6534
 5610TIP3   OH238244   5.876   5.116   3.827  0.5255 -0.6978  0.0021
 5610TIP3    H138245   5.889   5.115   3.922  1.7010 -1.5930 -0.1620
 5610TIP3    H238246   5.948   5.169   3.794  0.7433 -1.2951 -0.4844
 5611TIP3   OH238247   1.123   0.227   5.147 -0.3235 -0.4031 -0.3755
 5611TIP3    H138248   1.218   0.235   5.133 -0.2328  0.8849  0.9202
 5611TIP3    H238249   1.084   0.269   5.071  0.1276 -1.5524 -1.2658
 5612TIP3   OH238250   0.148   5.908  14.998  0.5161 -0.2544 -0.0895
 5612TIP3    H138251   0.139   5.855  14.919  1.2762 -0.3360 -0.1297
 5612TIP3    H238252   0.199   5.852  15.058  2.2681  0.8388 -0.5235
 5613TIP3   OH238253   2.247   6.602   1.672 -0.3763  0.6846  0.0275
 5613TIP3    H138254   2.248   6.566   1.583  2.8048 -0.6335  0.5433
 5613TIP3    H238255   2.203   6.535   1.725  1.3171 -0.3420  0.1479
 5614TIP3   OH238256   0.131   6.740  17.039  0.3050  0.0588 -0.2311
 5614TIP3    H138257   0.216   6.770  17.007 -0.0363  0.8999 -0.3671
 5614TIP3    H238258   0.112   6.663  16.986  1.8647 -1.2864  1.1160
 5615TIP3   OH238259   3.658   3.208  16.637 -0.2004  0.2081  0.2198
 5615TIP3    H138260   3.752   3.200  16.625 -0.2905  0.3645 -0.6138
 5615TIP3    H238261   3.620   3.150  16.571 -0.6620 -1.4746  1.9243
 5616TIP3   OH238262   4.576   2.137   3.930  0.4713  0.4455  0.4388
 5616TIP3    H138263   4.481   2.126   3.934  0.3669  1.3127  0.4476
 5616TIP3    H238264   4.610   2.050   3.910 -0.2730 -0.0473  1.2831
 5617TIP3   OH238265   3.159   2.466  11.326 -0.4667 -0.0910  0.0694
 5617TIP3    H138266   3.126   2.424  11.405  0.2108 -0.5577  0.1123
 5617TIP3    H238267   3.081   2.491  11.277 -0.8873  0.1000  0.8351
 5618TIP3   OH238268   0.434   4.653  14.968 -0.2458  0.1366  0.5109
 5618TIP3    H138269   0.349   4.647  15.012 -0.0586  0.8534  0.9902
 5618TIP3    H238270   0.474   4.733  15.004 -0.2535  0.9696 -1.2463
 5619TIP3   OH238271   5.515   6.304   5.439  0.5473 -0.3482 -0.1270
 5619TIP3    H138272   5.525   6.388   5.395 -0.8016  1.2606  2.5525
 5619TIP3    H238273   5.551   6.318   5.527 -3.0173 -1.4082  1.5970
 5620TIP3   OH238274   1.955   2.172   5.312 -0.1406  0.2607  0.2039
 5620TIP3    H138275   1.927   2.201   5.399 -0.4036 -0.1506  0.2596
 5620TIP3    H238276   1.874   2.145   5.269  0.2117 -1.5127  0.5853
 5621TIP3   OH238277   2.722   0.941   1.963  0.3807 -0.1437 -0.1030
 5621TIP3    H138278   2.813   0.939   1.935  0.2822  0.2245 -0.4542
 5621TIP3    H238279   2.672   0.929   1.883  0.1126  0.0994  0.0274
 5622TIP3   OH238280   4.282   4.422  14.434 -0.0417  0.2720 -0.2286
 5622TIP3    H138281   4.333   4.400  14.357  0.4667  0.4698  0.0501
 5622TIP3    H238282   4.308   4.357  14.500  0.5732  0.9637  0.2173
 5623TIP3   OH238283   2.057   1.113   4.727 -0.1081  0.1232 -0.8530
 5623TIP3    H138284   2.060   1.206   4.706  0.2127  0.1879 -0.5231
 5623TIP3    H238285   2.027   1.109   4.818  1.7606 -0.0051 -0.2316
 5624TIP3   OH238286   5.464   0.030   4.547 -0.0325 -0.2135 -0.1444
 5624TIP3    H138287   5.386  -0.002   4.501  0.5487 -0.9291 -0.6389
 5624TIP3    H238288   5.486  -0.040   4.609 -0.4817  0.5019  0.8400
 5625TIP3   OH238289   0.221   6.132   4.841  0.1952 -0.2428  0.5637
 5625TIP3    H138290   0.213   6.221   4.806  1.0223 -0.6022 -0.5500
 5625TIP3    H238291   0.310   6.127   4.876  0.3884 -0.8660 -0.0190
 5626TIP3   OH238292   2.790   3.454   1.458  0.4886 -0.7800  0.0853
 5626TIP3    H138293   2.804   3.548   1.469  1.7961 -0.7444 -1.7181
 5626TIP3    H238294   2.701   3.448   1.422  0.4087 -0.2399  0.1793
 5627TIP3   OH238295   6.335   0.502   1.245 -0.0957 -0.0231 -0.4318
 5627TIP3    H138296   6.267   0.491   1.178  1.5294 -1.1211 -1.9432
 5627TIP3    H238297   6.383   0.579   1.218 -1.7422  1.7633  1.5728
 5628TIP3   OH238298   1.906   2.992   4.202 -0.4058 -0.1756  0.0926
 5628TIP3    H138299   1.992   2.985   4.243 -0.8590 -0.1277  1.0701
 5628TIP3    H238300   1.909   3.074   4.152 -1.1963  1.8872  3.3169
 5629TIP3   OH238301   3.708   5.922  16.739 -0.4928 -0.3616 -0.3123
 5629TIP3    H138302   3.788   5.870  16.731 -0.1568  0.2565 -1.0302
 5629TIP3    H238303   3.676   5.930  16.649 -0.6346  0.5274 -0.1817
 5630TIP3   OH238304   5.388   0.039   2.454 -0.2452  0.1484 -0.0477
 5630TIP3    H138305   5.294   0.027   2.472 -0.0970 -0.6468  0.2444
 5630TIP3    H238306   5.392   0.059   2.361 -0.5153 -2.5781 -0.7002
 5631TIP3   OH238307   6.089   3.924   4.019  0.3233  0.2979 -0.6915
 5631TIP3    H138308   6.088   4.003   3.965 -1.1890  0.3090 -0.6751
 5631TIP3    H238309   6.112   3.955   4.107  0.9851  0.5368 -0.9480
 5632TIP3   OH238310   0.249   0.948  12.517  0.3201  0.4614 -0.0892
 5632TIP3    H138311   0.261   0.932  12.610  0.0713 -0.2871 -0.1833
 5632TIP3    H238312   0.338   0.961  12.483  0.7399 -2.5643 -0.3257
 5633TIP3   OH238313   1.738   5.920   5.997 -0.4781  0.3309 -0.3270
 5633TIP3    H138314   1.682   5.989   6.032  0.0929  0.2010  0.8365
 5633TIP3    H238315   1.819   5.926   6.047 -0.0568 -0.5463 -0.8901
 5634TIP3   OH238316   2.241   2.136   2.850 -0.3158 -0.1208 -0.0449
 5634TIP3    H138317   2.309   2.137   2.783 -0.0208  2.2401  0.2415
 5634TIP3    H238318   2.163   2.172   2.807 -1.1572 -1.9722 -0.1221
 5635TIP3   OH238319   1.846   3.288   2.451 -0.5501  0.4050  0.8300
 5635TIP3    H138320   1.752   3.300   2.465 -1.2735 -2.5951 -0.9141
 5635TIP3    H238321   1.862   3.329   2.366 -0.7332 -0.8810  0.1616
 5636TIP3   OH238322   5.408   1.232   3.804 -0.4798  0.1343  0.2808
 5636TIP3    H138323   5.458   1.292   3.859  0.3468 -0.1855 -0.1250
 5636TIP3    H238324   5.447   1.146   3.820 -1.6207 -0.2994  0.8133
 5637TIP3   OH238325   2.277   5.495   0.676 -0.3945 -0.4582 -0.2063
 5637TIP3    H138326   2.225   5.534   0.606 -1.6904  2.7515  2.4331
 5637TIP3    H238327   2.345   5.560   0.693  0.8714 -1.9337  0.4858
 5638TIP3   OH238328   4.435   3.167  15.818 -0.0146  0.3903 -0.1379
 5638TIP3    H138329   4.357   3.120  15.790  1.3544 -2.0986  0.0761
 5638TIP3    H238330   4.415   3.196  15.907 -0.9550  0.4161 -0.3503
 5639TIP3   OH238331   1.034   5.863   2.773 -0.1247  0.2199 -0.1793
 5639TIP3    H138332   1.038   5.787   2.715 -0.8366 -0.2566  0.3704
 5639TIP3    H238333   0.940   5.882   2.780 -0.0326  0.3795  0.6648
 5640TIP3   OH238334   5.553   3.468   4.720 -0.0071  0.1160  0.3954
 5640TIP3    H138335   5.642   3.452   4.688  0.3925  0.9257  1.0765
 5640TIP3    H238336   5.526   3.549   4.678 -0.6393 -0.4143 -0.2327
 5641TIP3   OH238337   0.618   1.583  15.491  0.0480  0.2628 -0.0073
 5641TIP3    H138338   0.638   1.490  15.493  0.6718  0.4165  1.1618
 5641TIP3    H238339   0.551   1.592  15.423  1.5544 -0.7182 -1.6561
 5642TIP3   OH238340   3.784   4.139   0.934 -0.1753  0.0168  0.2532
 5642TIP3    H138341   3.751   4.226   0.957  0.6483  0.8967 -1.7914
 5642TIP3    H238342   3.728   4.079   0.982 -0.9956  1.6688  1.4102
 5643TIP3   OH238343   6.743   3.563  11.207 -0.4545  0.8680 -0.0242
 5643TIP3    H138344   6.735   3.579  11.301 -2.2007  0.7460 -0.1263
 5643TIP3    H238345   6.730   3.650  11.167 -0.1165  0.8546 -0.1610
 5644TIP3   OH238346   2.768   4.365   3.202 -0.6097 -0.1806 -0.0867
 5644TIP3    H138347   2.700   4.342   3.140  0.4675 -1.7339 -0.7132
 5644TIP3    H238348   2.817   4.436   3.160 -0.5443 -0.5034 -0.5551
 5645TIP3   OH238349   0.104   3.059   3.430  0.0037 -0.1459  0.2216
 5645TIP3    H138350   0.131   2.969   3.449 -0.3325 -0.6662 -1.6299
 5645TIP3    H238351   0.053   3.085   3.506 -0.5536 -1.8110  0.4436
 5646TIP3   OH238352   1.264   0.247   1.013  0.1994  0.3327  0.4622
 5646TIP3    H138353   1.218   0.330   1.003  1.5575  0.9389 -0.9721
 5646TIP3    H238354   1.302   0.251   1.101 -1.2161  0.4490  1.0872
 5647TIP3   OH238355   0.213   1.319   4.542  0.1564 -0.1298  0.1704
 5647TIP3    H138356   0.303   1.306   4.512 -0.0725 -3.7538  0.7341
 5647TIP3    H238357   0.217   1.304   4.637 -0.9812 -0.1225  0.2281
 5648TIP3   OH238358   0.635   0.107   1.189  0.0350  0.0369  0.5930
 5648TIP3    H138359   0.720   0.129   1.150 -0.2137  0.7337  0.4348
 5648TIP3    H238360   0.574   0.109   1.116  0.0260 -1.3042  0.5645
 5649TIP3   OH238361   6.382   4.039   0.115 -0.2772  0.5725  0.6926
 5649TIP3    H138362   6.400   4.097   0.041  0.1494  0.5600  0.7885
 5649TIP3    H238363   6.379   4.097   0.191  1.1829  0.3375  0.9391
 5650TIP3   OH238364   0.958   2.953   3.645  0.5882  0.1253  0.3009
 5650TIP3    H138365   0.925   2.995   3.566  2.4001  1.9640  0.4588
 5650TIP3    H238366   0.913   2.998   3.717 -1.3870 -1.8452  0.3293
 5651TIP3   OH238367   6.304   1.869   2.365  0.3399 -0.0813 -0.0400
 5651TIP3    H138368   6.379   1.895   2.312  1.4183 -1.1024  0.9485
 5651TIP3    H238369   6.333   1.882   2.456 -0.7223 -0.3492  0.3475
 5652TIP3   OH238370   4.280   1.783   4.732  0.1379 -0.3156 -0.3098
 5652TIP3    H138371   4.282   1.812   4.823 -0.1288 -1.8295  0.2014
 5652TIP3    H238372   4.372   1.778   4.706  0.2284 -0.1720 -0.0166
 5653TIP3   OH238373   3.821   2.112  14.165  0.0067  1.2092  0.2718
 5653TIP3    H138374   3.862   2.063  14.094  1.6092  0.1738  1.8739
 5653TIP3    H238375   3.727   2.096  14.155  0.4733 -1.9503  0.5439
 5654TIP3   OH238376   0.698   0.675  16.876 -0.8661  0.2860  0.2856
 5654TIP3    H138377   0.682   0.697  16.785  1.9650 -0.6946 -0.5008
 5654TIP3    H238378   0.639   0.601  16.894 -0.9054  0.0136 -0.9578
 5655TIP3   OH238379   1.922   3.528   4.734  0.3379  0.2840  0.0842
 5655TIP3    H138380   1.950   3.564   4.649 -0.4528 -1.5711 -0.9951
 5655TIP3    H238381   1.828   3.543   4.735  0.5014  1.2590  1.1214
 5656TIP3   OH238382   2.734   4.769   4.375  0.0983  0.0454  0.1187
 5656TIP3    H138383   2.699   4.844   4.326 -1.2568 -0.3219  0.5278
 5656TIP3    H238384   2.828   4.773   4.359  0.0043  1.6413 -0.1494
 5657TIP3   OH238385   5.023   1.530  15.740 -0.0903 -0.3130  0.0554
 5657TIP3    H138386   5.106   1.487  15.762 -0.2188 -0.6219 -0.0687
 5657TIP3    H238387   4.957   1.462  15.751 -0.1877 -0.4123 -1.0230
 5658TIP3   OH238388   5.757   0.557  14.975 -0.4445 -0.3954  0.4500
 5658TIP3    H138389   5.705   0.479  14.955 -1.9702  0.2242  1.8093
 5658TIP3    H238390   5.824   0.560  14.907 -3.0191 -0.4869 -2.1696
 5659TIP3   OH238391   6.074   2.742  16.714  0.3474  0.4336 -0.1216
 5659TIP3    H138392   6.111   2.771  16.631  0.2644  1.3124  0.1458
 5659TIP3    H238393   6.059   2.648  16.701 -0.1192  0.6481 -1.2706
 5660TIP3   OH238394   2.840   4.388  14.003 -0.3596 -0.3092 -0.1814
 5660TIP3    H138395   2.748   4.405  14.020 -0.3632  0.3760 -0.8851
 5660TIP3    H238396   2.887   4.441  14.067 -0.4459 -0.4479 -0.0041
 5661TIP3   OH238397   6.759   1.644   1.055 -1.0341  0.2839  0.0759
 5661TIP3    H138398   6.704   1.702   1.003  0.2828  2.4887  1.0629
 5661TIP3    H238399   6.814   1.599   0.991 -2.8585 -0.7811 -0.7908
 5662TIP3   OH238400   3.924   0.453   5.522  0.5610 -0.0068  0.5411
 5662TIP3    H138401   3.872   0.419   5.596  0.2415 -0.7495 -0.0191
 5662TIP3    H238402   3.868   0.440   5.446  0.2295  2.2379  0.3609
 5663TIP3   OH238403   3.526   4.586  15.459  0.4505 -0.1874 -0.4814
 5663TIP3    H138404   3.468   4.625  15.524  0.0063  0.5208 -1.2965
 5663TIP3    H238405   3.471   4.574  15.381  1.5535  1.1470 -1.4985
 5664TIP3   OH238406   3.556   6.090  15.973  0.0708  0.0120 -0.3581
 5664TIP3    H138407   3.510   6.006  15.979  1.6132 -0.7466  1.0369
 5664TIP3    H238408   3.531   6.137  16.052  0.6125  0.1509 -0.2671
 5665TIP3   OH238409   3.035   3.448  11.525  0.2035 -0.2047  0.1645
 5665TIP3    H138410   3.042   3.540  11.551  0.4038 -0.1556 -0.0547
 5665TIP3    H238411   2.980   3.408  11.592  1.2643 -0.2332  1.0460
 5666TIP3   OH238412   5.936   1.044  15.153  0.1967  0.0936 -0.2754
 5666TIP3    H138413   5.986   0.985  15.210  1.7465  0.6156 -1.0780
 5666TIP3    H238414   5.845   1.018  15.167  0.6320 -0.5809  1.5412
 5667TIP3   OH238415   5.033   0.901   3.593  0.0249 -0.4800 -0.0902
 5667TIP3    H138416   5.009   0.939   3.677 -0.3779  1.2965 -0.9839
 5667TIP3    H238417   5.010   0.808   3.601 -1.0188 -0.1090  1.3603
 5668TIP3   OH238418   4.096   4.687   3.154  0.2573  0.0868 -0.2197
 5668TIP3    H138419   4.053   4.764   3.191 -1.6419 -2.2002  2.6097
 5668TIP3    H238420   4.051   4.672   3.071 -0.5316  1.0014  0.0347
 5669TIP3   OH238421   1.638   3.530  14.368  0.4824 -0.5246  0.0759
 5669TIP3    H138422   1.657   3.619  14.336  0.2024  0.0699  1.5049
 5669TIP3    H238423   1.720   3.482  14.356  0.5496 -0.1570 -0.9796
 5670TIP3   OH238424   4.624   3.978   3.895  0.1351  0.2351  0.0756
 5670TIP3    H138425   4.631   4.064   3.935  1.7256  1.5723 -2.9580
 5670TIP3    H238426   4.564   3.989   3.821  1.6803 -0.8376 -1.3774
 5671TIP3   OH238427   1.987   4.347  16.805 -0.0887 -0.0074 -0.2945
 5671TIP3    H138428   1.953   4.273  16.856 -1.9193  0.9517 -0.1025
 5671TIP3    H238429   1.965   4.326  16.714  1.0211 -0.5527 -0.4504
 5672TIP3   OH238430   1.892   0.381   3.573 -0.1058 -0.3501 -0.7550
 5672TIP3    H138431   1.841   0.462   3.581 -0.6416 -0.7875  0.4952
 5672TIP3    H238432   1.837   0.323   3.520  0.5868  0.3313 -2.2474
 5673TIP3   OH238433   4.566   4.318  14.557  0.1274 -0.5223 -0.4770
 5673TIP3    H138434   4.528   4.269  14.483 -1.0236  2.2996 -1.8634
 5673TIP3    H238435   4.558   4.258  14.631 -2.4519 -1.9544 -1.7973
 5674TIP3   OH238436   4.498   0.094  16.100 -0.1869  0.2872 -0.1729
 5674TIP3    H138437   4.418   0.084  16.151 -0.8077  0.2402 -1.1567
 5674TIP3    H238438   4.525   0.185  16.117 -1.9820  1.2032 -2.0460
 5675TIP3   OH238439   3.431   5.933   1.616 -0.3314 -0.6575  0.2691
 5675TIP3    H138440   3.416   6.028   1.610  0.0908 -0.5647  0.6460
 5675TIP3    H238441   3.468   5.920   1.703 -0.5279 -1.1922  0.2741
 5676TIP3   OH238442   2.145   2.525  10.911  0.5981  0.1450  0.0845
 5676TIP3    H138443   2.135   2.435  10.879  1.8545 -0.2894  0.9119
 5676TIP3    H238444   2.238   2.535  10.928  0.3742  1.3993  0.6481
 5677TIP3   OH238445   3.450   5.374  16.220  0.6368 -0.4217  0.0451
 5677TIP3    H138446   3.521   5.438  16.224 -1.2318  1.7464 -0.6398
 5677TIP3    H238447   3.380   5.413  16.272 -1.3707 -0.8681 -2.2866
 5678TIP3   OH238448   1.829   0.234   2.652 -0.3868  0.0743  0.0917
 5678TIP3    H138449   1.770   0.162   2.674  0.9673 -1.2795 -0.6617
 5678TIP3    H238450   1.911   0.212   2.697  0.5056  0.3715 -1.3787
 5679TIP3   OH238451   1.887   0.628  16.585 -0.2006  0.4167 -0.5524
 5679TIP3    H138452   1.848   0.701  16.633 -0.1228  0.6867 -0.8906
 5679TIP3    H238453   1.908   0.563  16.651 -1.1092  0.3213 -0.3489
 5680TIP3   OH238454   0.680   5.602   3.320 -0.4566 -0.8804  0.1411
 5680TIP3    H138455   0.672   5.516   3.361  0.6360 -1.3763 -0.6655
 5680TIP3    H238456   0.769   5.605   3.286 -0.6864  0.3202 -0.4009
 5681TIP3   OH238457   6.772   4.369  13.050  0.3454  0.2967 -0.4273
 5681TIP3    H138458   6.689   4.340  13.013  0.3300  1.0693 -1.0121
 5681TIP3    H238459   6.749   4.404  13.136  0.0946  0.3234 -0.5044
 5682TIP3   OH238460   4.716   0.336   1.185 -0.1680 -0.2082  0.8059
 5682TIP3    H138461   4.670   0.385   1.117 -0.7214 -2.2929 -0.3506
 5682TIP3    H238462   4.806   0.369   1.181 -0.5641  0.8078  0.1351
 5683TIP3   OH238463   6.026   5.285  13.534 -0.1486  0.3502  0.7230
 5683TIP3    H138464   5.993   5.372  13.508 -2.0877 -0.4373  0.4523
 5683TIP3    H238465   6.110   5.277  13.488 -0.5968  1.5270 -0.3480
 5684TIP3   OH238466   1.182   0.656   4.412 -0.2346 -0.0715 -0.0460
 5684TIP3    H138467   1.199   0.738   4.459  0.2432 -0.7212  0.9255
 5684TIP3    H238468   1.268   0.626   4.384 -0.4003 -0.2987 -0.3176
 5685TIP3   OH238469   6.450   4.752   3.304 -0.2431  0.6117  0.2926
 5685TIP3    H138470   6.429   4.837   3.264 -0.1480  0.1564 -0.7336
 5685TIP3    H238471   6.542   4.760   3.329  0.2930  0.1838 -1.4605
 5686TIP3   OH238472   4.700   6.210   2.190 -0.2122  0.1692  0.2831
 5686TIP3    H138473   4.654   6.164   2.118 -0.7895  0.2536  0.5973
 5686TIP3    H238474   4.677   6.302   2.178  0.4146  0.3007  0.0509
 5687TIP3   OH238475   4.501   6.668   3.001 -0.3816  0.4943 -0.3673
 5687TIP3    H138476   4.534   6.671   2.911  0.3260  1.0309 -0.0946
 5687TIP3    H238477   4.559   6.606   3.046  0.9162  2.1945  0.3655
 5688TIP3   OH238478   3.079   2.002   1.957 -0.0330  0.5326  0.3988
 5688TIP3    H138479   3.066   2.021   1.864 -0.2841 -0.8480  0.1463
 5688TIP3    H238480   3.153   2.058   1.982 -1.0069  2.1501 -0.2036
 5689TIP3   OH238481   0.180   4.612  16.259  0.1968 -0.0013  0.4225
 5689TIP3    H138482   0.138   4.614  16.345 -0.2903  1.3727  0.1516
 5689TIP3    H238483   0.274   4.605  16.279  0.0698  0.0263  1.0498
 5690TIP3   OH238484   3.757   4.525   2.054 -0.6992 -0.9270 -0.2560
 5690TIP3    H138485   3.735   4.617   2.045  0.2657 -0.9533 -3.4896
 5690TIP3    H238486   3.843   4.525   2.097 -1.4896 -0.4197  1.3635
 5691TIP3   OH238487   4.600   1.677   4.544  0.2460 -0.7257 -0.2576
 5691TIP3    H138488   4.597   1.635   4.630  1.4250 -0.7120 -0.1964
 5691TIP3    H238489   4.642   1.613   4.487 -3.5514 -2.0871 -1.6656
 5692TIP3   OH238490   4.078   6.714  11.325  0.2070  0.6673 -0.2626
 5692TIP3    H138491   4.112   6.777  11.388 -1.8643  1.0149  0.5431
 5692TIP3    H238492   4.008   6.760  11.280 -0.0606 -0.4355 -1.0009
 5693TIP3   OH238493   3.102   1.496   4.937 -0.6477 -0.4702  0.1131
 5693TIP3    H138494   3.136   1.427   4.994 -2.8152 -0.1515  1.8747
 5693TIP3    H238495   3.142   1.577   4.970  0.7296 -0.6574 -1.0143
 5694TIP3   OH238496   2.631   2.801  17.077 -0.4320 -0.4189 -0.1746
 5694TIP3    H138497   2.570   2.775  17.007 -0.6310 -1.7036  0.4664
 5694TIP3    H238498   2.574   2.830  17.148 -0.4001 -3.4468  1.1569
 5695TIP3   OH238499   6.480   4.211  16.136  0.0625  0.5685 -0.7896
 5695TIP3    H138500   6.545   4.279  16.155  0.1571  0.4990 -0.8658
 5695TIP3    H238501   6.438   4.195  16.220  1.2516 -0.5436 -0.3766
 5696TIP3   OH238502   4.884   4.818  12.158 -0.5331  0.5346 -0.2059
 5696TIP3    H138503   4.946   4.809  12.086  0.3276 -2.5062  0.8209
 5696TIP3    H238504   4.932   4.865  12.226  1.0797 -2.6068  0.9409
 5697TIP3   OH238505   6.580   4.875  13.497 -0.3801 -1.0562  0.3445
 5697TIP3    H138506   6.672   4.855  13.477 -0.3737 -0.2150 -0.5194
 5697TIP3    H238507   6.571   4.969  13.477 -1.9159 -1.5523 -1.4777
 5698TIP3   OH238508   5.646   3.852   5.029  0.2914 -0.1439  0.0367
 5698TIP3    H138509   5.567   3.870   4.977  0.6850 -0.8482 -0.8234
 5698TIP3    H238510   5.651   3.924   5.091 -0.1173  0.8036 -1.0037
 5699TIP3   OH238511   2.425   5.721  13.219 -0.0357 -0.1536 -0.5644
 5699TIP3    H138512   2.487   5.793  13.232  0.8473 -0.8488 -0.9288
 5699TIP3    H238513   2.398   5.696  13.307 -0.8350  1.0468 -0.4592
 5700TIP3   OH238514   1.207   2.268   2.574  0.0641  0.8496 -0.2251
 5700TIP3    H138515   1.193   2.182   2.612  1.4375  0.8603  0.3547
 5700TIP3    H238516   1.175   2.261   2.484  2.0312 -0.8968 -0.8248
 5701TIP3   OH238517   0.396   2.767   0.839  0.2245 -0.0021 -0.2664
 5701TIP3    H138518   0.455   2.761   0.764  3.5038  2.7947  1.9705
 5701TIP3    H238519   0.363   2.857   0.837 -0.6723 -0.2853  0.9481
 5702TIP3   OH238520   3.763   5.500   1.591 -0.2257 -0.0143 -0.3110
 5702TIP3    H138521   3.760   5.412   1.629  0.5389 -0.6170 -1.6278
 5702TIP3    H238522   3.847   5.536   1.619  0.2398 -0.3752 -1.2130
 5703TIP3   OH238523   0.816   0.136   3.658  0.4392  1.0027 -0.1693
 5703TIP3    H138524   0.796   0.170   3.570  0.4975 -0.5720 -0.8025
 5703TIP3    H238525   0.884   0.194   3.691 -0.9360  2.8067 -0.3724
 5704TIP3   OH238526   2.838   0.897   2.237  0.3570  0.1851  0.0368
 5704TIP3    H138527   2.828   0.925   2.147  1.8564  1.5780  0.2636
 5704TIP3    H238528   2.885   0.970   2.279  0.3321 -0.7615  1.7401
 5705TIP3   OH238529   5.039   2.074   1.358 -0.3755 -0.2841 -0.2492
 5705TIP3    H138530   5.133   2.093   1.367 -0.2570 -1.3805  1.0375
 5705TIP3    H238531   5.026   2.059   1.265  0.3573  1.7357 -0.7028
 5706TIP3   OH238532   1.511   0.076   3.644 -0.7524  0.4184 -0.3362
 5706TIP3    H138533   1.473   0.011   3.703 -1.2363  1.5460  0.6239
 5706TIP3    H238534   1.487   0.046   3.557 -1.1479 -0.5799  0.1059
 5707TIP3   OH238535   5.628   4.484   4.553 -0.1024 -0.2275 -0.0679
 5707TIP3    H138536   5.665   4.571   4.570 -0.4907 -0.4015  1.7695
 5707TIP3    H238537   5.580   4.462   4.633  1.5922 -2.9454  0.2732
 5708TIP3   OH238538   4.725   0.075  14.156 -0.0196 -0.2135 -0.4266
 5708TIP3    H138539   4.657   0.098  14.093  1.4623 -0.7127 -2.2468
 5708TIP3    H238540   4.801   0.053  14.103  0.6372 -2.7367  1.4484
 5709TIP3   OH238541   5.590   1.778  11.973  0.1552  0.2061  0.0332
 5709TIP3    H138542   5.509   1.748  11.933  0.4289 -2.4982  1.3821
 5709TIP3    H238543   5.565   1.805  12.062  0.5100  0.6571  0.0007
 5710TIP3   OH238544   5.234   6.657  15.480 -0.7324  0.5588  0.3537
 5710TIP3    H138545   5.266   6.582  15.430 -0.9803  0.9194 -0.3537
 5710TIP3    H238546   5.142   6.665  15.454 -1.0043  0.4195  1.2726
 5711TIP3   OH238547   5.400   3.136   0.891  0.2343  0.9413  0.5350
 5711TIP3    H138548   5.465   3.081   0.846  1.1555  1.9397  0.6401
 5711TIP3    H238549   5.318   3.118   0.845  0.4265 -0.8672  0.8533
 5712TIP3   OH238550   6.002   4.164  15.039  0.3063 -0.0613  0.6559
 5712TIP3    H138551   5.967   4.113  15.112 -1.5234 -1.3606 -1.0892
 5712TIP3    H238552   5.924   4.200  14.995  1.2710 -0.6219 -1.5946
 5713TIP3   OH238553   0.862   4.468  11.172 -0.3169  0.2922  0.1955
 5713TIP3    H138554   0.831   4.486  11.260 -0.2204 -1.3193  0.5683
 5713TIP3    H238555   0.858   4.553  11.127  0.5260  1.3150  2.0106
 5714TIP3   OH238556   2.778   2.796  15.752 -0.0113  0.4750  0.0965
 5714TIP3    H138557   2.855   2.750  15.784 -1.3145 -2.8549 -1.2812
 5714TIP3    H238558   2.812   2.864  15.694  1.8817 -1.3329 -0.9588
 5715TIP3   OH238559   1.743   6.769   4.744 -0.1315  0.0373  0.0482
 5715TIP3    H138560   1.709   6.742   4.829 -0.8548 -1.6323 -0.7514
 5715TIP3    H238561   1.665   6.780   4.689  0.3520  0.7257 -0.5112
 5716TIP3   OH238562   1.693   1.873  16.931  0.2983 -0.4701  0.0694
 5716TIP3    H138563   1.632   1.822  16.878  0.8163 -0.1485 -0.8534
 5716TIP3    H238564   1.669   1.964  16.913 -0.0166 -0.3757  0.9765
 5717TIP3   OH238565   6.776   5.230   3.283  0.3662  0.0399 -0.2326
 5717TIP3    H138566   6.804   5.149   3.239 -0.1286 -0.2023 -0.1075
 5717TIP3    H238567   6.855   5.262   3.326  1.0049  0.6008 -1.7911
 5718TIP3   OH238568   5.012   6.216   5.707 -0.1137 -0.3473  0.8509
 5718TIP3    H138569   4.972   6.272   5.774  0.7328  0.7465  0.4543
 5718TIP3    H238570   4.981   6.253   5.624 -0.1688 -0.9401  0.6078
 5719TIP3   OH238571   4.928   6.268  11.800  0.4490 -0.2251  0.0844
 5719TIP3    H138572   5.022   6.272  11.783  0.1880  1.4725 -1.1190
 5719TIP3    H238573   4.916   6.323  11.878  0.5001 -0.7726  0.4819
 5720TIP3   OH238574   5.416   2.952  14.920  0.1639 -0.1556 -0.4674
 5720TIP3    H138575   5.392   2.961  14.828  0.1667 -0.6700 -0.5193
 5720TIP3    H238576   5.512   2.955  14.921  0.1114  2.0791 -0.2421
 5721TIP3   OH238577   5.211   2.782  14.271 -0.3504  0.2601 -0.4316
 5721TIP3    H138578   5.273   2.855  14.263 -1.1005  0.9339 -0.1809
 5721TIP3    H238579   5.185   2.763  14.181 -0.9988  1.0406 -0.4104
 5722TIP3   OH238580   2.402   5.090  15.058 -0.0350  0.2530  0.3852
 5722TIP3    H138581   2.416   5.098  14.963 -1.4270  0.3266  0.1782
 5722TIP3    H238582   2.477   5.038  15.088  1.4489  1.8355 -0.4535
 5723TIP3   OH238583   5.740   5.313   4.093 -0.3097  0.2375 -0.2402
 5723TIP3    H138584   5.774   5.390   4.138  1.8388 -0.8566  0.0625
 5723TIP3    H238585   5.694   5.349   4.017 -0.7882  1.8939  0.8076
 5724TIP3   OH238586   4.535   5.443  14.746  0.1804  0.0508  0.4333
 5724TIP3    H138587   4.591   5.485  14.810  1.3352  0.3512 -0.7574
 5724TIP3    H238588   4.451   5.488  14.754  0.3488  0.1470  1.6492
 5725TIP3   OH238589   2.573   0.915  13.677 -0.3064  0.9061  0.1523
 5725TIP3    H138590   2.655   0.947  13.640  0.6751 -0.0556  1.4306
 5725TIP3    H238591   2.585   0.820  13.682 -1.6161  0.7249  0.0998
 5726TIP3   OH238592   2.012   3.035   0.791  0.2351  0.1176  0.5464
 5726TIP3    H138593   1.996   3.054   0.699 -2.4418  1.4196  1.2393
 5726TIP3    H238594   2.056   3.114   0.824 -0.6817  0.5133  0.8398
 5727TIP3   OH238595   0.473   4.467   0.388  0.0171 -0.2553 -0.0232
 5727TIP3    H138596   0.548   4.453   0.331  3.5603  0.3099  4.2373
 5727TIP3    H238597   0.466   4.562   0.397 -0.5463 -0.3303  0.3960
 5728TIP3   OH238598   3.961   6.517  12.212 -0.1571  0.3157 -0.0289
 5728TIP3    H138599   4.034   6.471  12.171 -0.6676 -1.5220  1.0505
 5728TIP3    H238600   3.897   6.529  12.141 -0.3722 -1.4322 -0.1685
 5729TIP3   OH238601   4.519   4.158   0.846  0.1515  0.1234 -0.2395
 5729TIP3    H138602   4.540   4.216   0.919  1.1217 -1.0285  0.4221
 5729TIP3    H238603   4.425   4.141   0.855 -0.0832  1.3653 -0.2798
 5730TIP3   OH238604   3.513   4.327  15.776  0.1369  0.6763  0.2233
 5730TIP3    H138605   3.419   4.321  15.794 -0.2586  2.0667 -1.1787
 5730TIP3    H238606   3.538   4.413  15.809  1.0466  0.1007  1.0563
 5731TIP3   OH238607   5.121   6.414   3.911 -0.7933 -0.2963 -0.0024
 5731TIP3    H138608   5.216   6.421   3.902 -0.7363 -0.3939  0.5032
 5731TIP3    H238609   5.104   6.432   4.003 -1.1140 -1.7281  0.2380
 5732TIP3   OH238610   0.327   2.725   3.205  0.9467  0.0261  0.3489
 5732TIP3    H138611   0.351   2.632   3.198  1.0960  0.1930 -1.7722
 5732TIP3    H238612   0.237   2.728   3.174  1.2106  0.6823 -0.3869
 5733TIP3   OH238613   6.447   6.464  10.983  0.7047 -0.4492  0.4810
 5733TIP3    H138614   6.519   6.429  11.036  0.2419 -2.5401 -0.1983
 5733TIP3    H238615   6.483   6.470  10.895  0.0265 -1.6948  0.0980
 5734TIP3   OH238616   0.022   1.303   5.910  0.1451  0.2778 -0.2299
 5734TIP3    H138617   0.092   1.330   5.969 -0.3570 -1.2124  1.0625
 5734TIP3    H238618  -0.056   1.347   5.943 -0.0150 -0.0542 -0.1647
 5735TIP3   OH238619   3.386   1.661  12.672 -0.0282  0.0041 -0.0711
 5735TIP3    H138620   3.419   1.600  12.607 -0.4862 -2.2033  1.6987
 5735TIP3    H238621   3.438   1.740  12.660  2.1111 -1.5048 -0.9468
 5736TIP3   OH238622   1.714   1.010  10.392  0.1875  0.2292  0.5702
 5736TIP3    H138623   1.637   0.995  10.447 -1.6256  1.2777 -1.6104
 5736TIP3    H238624   1.757   0.924  10.388 -0.9823 -0.4241  1.6097
 5737TIP3   OH238625   3.692   1.702  12.975  0.3681  0.3206 -0.0102
 5737TIP3    H138626   3.617   1.760  12.984  0.3614  0.3316 -0.1359
 5737TIP3    H238627   3.720   1.684  13.065 -1.4611 -1.8829  0.1602
 5738TIP3   OH238628   4.360   3.770   0.501 -0.2817 -0.7698 -0.4526
 5738TIP3    H138629   4.369   3.779   0.595 -1.8551 -2.5326 -0.1063
 5738TIP3    H238630   4.292   3.834   0.477 -0.7728 -1.1973 -0.2046
 5739TIP3   OH238631   4.724   4.421  16.114  0.2259 -0.0805  0.3360
 5739TIP3    H138632   4.745   4.452  16.026  0.9816  0.7341  0.7900
 5739TIP3    H238633   4.795   4.360  16.136  0.8946  0.9162  0.9794
 5740TIP3   OH238634   5.794   3.128   3.264  0.0409 -0.2693 -0.5145
 5740TIP3    H138635   5.844   3.057   3.305 -0.4251 -0.3772 -0.1318
 5740TIP3    H238636   5.817   3.122   3.171  1.9451  0.6582 -0.1301
 5741TIP3   OH238637   1.331   3.323  12.050 -0.5750  0.0716 -0.5594
 5741TIP3    H138638   1.405   3.341  11.992 -1.0908  1.8745 -0.6991
 5741TIP3    H238639   1.268   3.277  11.994  0.2793 -1.1767 -0.5256
 5742TIP3   OH238640   4.363   0.511  13.605  0.0811  0.2343  0.4583
 5742TIP3    H138641   4.394   0.562  13.531  1.3553 -1.1270  0.0200
 5742TIP3    H238642   4.287   0.558  13.638  0.8482  2.0332 -0.3268
 5743TIP3   OH238643   3.998   3.262   4.110 -0.1095  0.2390 -0.9191
 5743TIP3    H138644   3.933   3.224   4.170  1.6437  0.3178  1.0783
 5743TIP3    H238645   3.974   3.227   4.024 -1.5521 -1.3857  0.1001
 5744TIP3   OH238646   4.947   5.831   5.415 -0.0544 -0.7128  0.2575
 5744TIP3    H138647   5.003   5.804   5.342 -0.1346  0.7408 -0.3647
 5744TIP3    H238648   4.881   5.762   5.423  0.7345 -1.5221 -0.1951
 5745TIP3   OH238649   3.281   1.537   6.352  0.4320 -0.2422  0.1456
 5745TIP3    H138650   3.250   1.618   6.394  0.3495 -0.4981  0.5750
 5745TIP3    H238651   3.203   1.482   6.345  0.4836 -0.2781 -0.1745
 5746TIP3   OH238652   2.589   3.850  12.291 -0.6586 -0.5193 -0.2382
 5746TIP3    H138653   2.575   3.930  12.342 -1.0765  0.0384 -1.2253
 5746TIP3    H238654   2.552   3.780  12.345 -0.7516  0.0129  0.3926
 5747TIP3   OH238655   5.131   1.738  12.911 -0.3815 -0.3739 -0.4395
 5747TIP3    H138656   5.111   1.653  12.871 -0.3356 -0.4659 -0.2661
 5747TIP3    H238657   5.048   1.767  12.948 -0.7509  0.3405 -1.7797
 5748TIP3   OH238658   0.929   6.259  12.307 -0.4512 -0.4726  0.1571
 5748TIP3    H138659   0.884   6.175  12.297  0.6711 -1.1995  1.1140
 5748TIP3    H238660   0.961   6.279  12.219 -1.6249 -0.5165 -0.2959
 5749TIP3   OH238661   0.650   2.109  17.236 -0.1504  0.0011 -0.5843
 5749TIP3    H138662   0.663   2.131  17.328 -2.1119  0.1778 -0.3389
 5749TIP3    H238663   0.738   2.117  17.197  0.3394  1.8443  0.8448
 5750TIP3   OH238664   1.052   4.636  12.770 -0.1008 -0.1772 -0.3500
 5750TIP3    H138665   0.967   4.592  12.773  0.1705 -0.7743 -1.2073
 5750TIP3    H238666   1.042   4.703  12.702 -0.6139  1.3229  1.1759
 5751TIP3   OH238667   3.251   3.239   0.494  0.5653  0.2861  0.0040
 5751TIP3    H138668   3.191   3.260   0.566 -0.7247  0.5983 -1.1287
 5751TIP3    H238669   3.231   3.305   0.427  1.0178 -0.6264 -1.0420
 5752TIP3   OH238670   3.118   1.993  11.912 -0.5807 -0.6217  0.2067
 5752TIP3    H138671   3.192   1.988  11.973  0.8765 -0.4884 -1.4873
 5752TIP3    H238672   3.051   2.041  11.960  0.0477 -1.6294  2.1482
 5753TIP3   OH238673   6.385   4.640   0.186 -0.5436 -0.4318  0.0440
 5753TIP3    H138674   6.315   4.693   0.223  2.0089  1.6348  2.0838
 5753TIP3    H238675   6.429   4.698   0.124  0.8035 -0.9354  0.5055
 5754TIP3   OH238676   5.641   5.610   0.118  0.4039  0.2726  0.2260
 5754TIP3    H138677   5.701   5.682   0.099  0.3089  0.9692  2.4003
 5754TIP3    H238678   5.567   5.651   0.161 -1.2746 -0.6988 -1.6829
 5755TIP3   OH238679   2.154   6.050  13.209 -0.2349  0.3766  0.1400
 5755TIP3    H138680   2.241   6.047  13.171 -0.2797  1.0090 -0.0078
 5755TIP3    H238681   2.100   5.998  13.150 -0.0844  0.4838 -0.0910
 5756TIP3   OH238682   5.928   2.381  16.278  0.0734 -0.9157  0.2048
 5756TIP3    H138683   5.932   2.397  16.372 -1.5144  0.4006  0.0862
 5756TIP3    H238684   5.856   2.437  16.248  1.6060 -0.0982 -2.0513
 5757TIP3   OH238685   2.843   5.780   2.489  0.1601 -0.1599 -0.2262
 5757TIP3    H138686   2.842   5.717   2.561 -3.3983 -0.5940 -0.5887
 5757TIP3    H238687   2.839   5.865   2.532  1.0214 -0.3047  0.1521
 5758TIP3   OH238688   2.419   3.514  13.462 -0.6785  0.4844  0.0398
 5758TIP3    H138689   2.367   3.451  13.411 -0.1502  0.2974 -0.2689
 5758TIP3    H238690   2.408   3.486  13.553  0.0003 -0.3919 -0.1406
 5759TIP3   OH238691   1.743   4.851  13.269 -0.1357  0.3880 -0.4600
 5759TIP3    H138692   1.767   4.937  13.303  0.1243 -0.9413  2.9335
 5759TIP3    H238693   1.822   4.798  13.279 -0.0701 -0.0742 -3.2154
 5760TIP3   OH238694   0.271   3.265   2.353 -0.3088 -0.0535 -0.3224
 5760TIP3    H138695   0.217   3.334   2.314 -1.2728  0.1450  1.2920
 5760TIP3    H238696   0.348   3.311   2.386 -0.0226 -0.0487 -1.0064
 5761TIP3   OH238697   0.216   4.054  14.749 -0.3541  0.3049  0.6750
 5761TIP3    H138698   0.304   4.068  14.714 -0.7410  0.3727 -0.2823
 5761TIP3    H238699   0.200   4.131  14.803  0.3817  0.0405  1.2855
 5762TIP3   OH238700   5.995   4.058  10.539 -0.5475 -0.3464  0.1626
 5762TIP3    H138701   6.058   4.127  10.558 -1.4834  0.7306 -0.5835
 5762TIP3    H238702   6.019   4.026  10.452 -0.9975  0.0294 -0.1008
 5763TIP3   OH238703   4.244   6.051  16.553  0.6022  0.0594  0.3132
 5763TIP3    H138704   4.261   6.031  16.461  2.0780 -1.2510  0.8574
 5763TIP3    H238705   4.179   6.122  16.550  1.7338  1.0631 -1.7520
 5764TIP3   OH238706   6.416   1.956  17.127 -0.3820 -0.3473  0.2000
 5764TIP3    H138707   6.508   1.957  17.100 -0.8130  0.6276 -1.2852
 5764TIP3    H238708   6.418   1.918  17.214  1.5412  0.4535  0.5525
 5765TIP3   OH238709   0.698   4.584  14.431 -0.3462  0.1083  0.8138
 5765TIP3    H138710   0.743   4.596  14.514  0.5493 -2.3327  0.7402
 5765TIP3    H238711   0.766   4.597  14.365  0.0049 -2.1813  0.6555
 5766TIP3   OH238712   3.843   3.571   5.686 -0.6320 -0.1595 -0.4188
 5766TIP3    H138713   3.842   3.647   5.628  1.2348 -0.7880 -1.3328
 5766TIP3    H238714   3.824   3.496   5.629  0.2033 -0.6757 -0.0314
 5767TIP3   OH238715   4.344   1.713  13.336 -0.3034 -0.3009  0.1071
 5767TIP3    H138716   4.290   1.700  13.258 -0.1999  1.7685 -0.3294
 5767TIP3    H238717   4.300   1.664  13.405 -1.6094 -0.3176 -0.7329
 5768TIP3   OH238718   6.233   1.903   2.829 -0.1469 -0.0157 -0.0700
 5768TIP3    H138719   6.298   1.901   2.759 -0.2833 -0.5064 -0.1880
 5768TIP3    H238720   6.154   1.865   2.789  0.0599 -1.2251  0.6266
 5769TIP3   OH238721   0.659   4.347  10.958 -0.0467 -1.2730 -0.0556
 5769TIP3    H138722   0.596   4.287  10.999 -1.5185 -1.5857 -2.6970
 5769TIP3    H238723   0.716   4.290  10.907  0.8378 -0.7377  0.3225
 5770TIP3   OH238724   4.205   6.784   3.336 -0.3747 -0.5021  0.3340
 5770TIP3    H138725   4.216   6.756   3.245  1.2852 -0.7780  0.5900
 5770TIP3    H238726   4.111   6.799   3.346 -0.4841  0.2194 -1.6145
 5771TIP3   OH238727   1.904   3.211   1.962 -0.1381 -0.0066 -0.3179
 5771TIP3    H138728   1.971   3.279   1.961  0.0737 -0.0932  3.1025
 5771TIP3    H238729   1.938   3.143   1.904  1.5189  1.0650 -0.6374
 5772TIP3   OH238730   5.619   1.909   3.454 -0.5119 -0.3892  0.1246
 5772TIP3    H138731   5.698   1.961   3.443 -1.3653  0.9999  0.4202
 5772TIP3    H238732   5.648   1.829   3.497  0.9298 -0.4834 -1.0023
 5773TIP3   OH238733   1.662   4.455  11.398 -0.3608 -0.1413 -0.1007
 5773TIP3    H138734   1.668   4.429  11.490  1.1659 -1.8886 -0.6497
 5773TIP3    H238735   1.598   4.394  11.361 -0.2741 -0.0603 -0.3833
 5774TIP3   OH238736   5.408   2.775  11.703 -0.2568 -0.0442 -0.5179
 5774TIP3    H138737   5.434   2.857  11.745 -0.8713  0.1936 -0.5959
 5774TIP3    H238738   5.389   2.800  11.612 -0.9536 -0.1692 -0.4132
 5775TIP3   OH238739   6.043   0.121   1.130  0.3427  0.7451 -0.8985
 5775TIP3    H138740   5.971   0.168   1.174 -0.0327 -1.0209  0.4182
 5775TIP3    H238741   6.048   0.161   1.043 -1.9189  1.2256 -0.8429
 5776TIP3   OH238742   2.815   5.231   4.478  0.3673  0.1782  0.4472
 5776TIP3    H138743   2.870   5.273   4.544 -0.9098  1.9996  0.3686
 5776TIP3    H238744   2.813   5.293   4.405 -1.1369 -0.2192  0.1304
 5777TIP3   OH238745   0.203   3.614  13.090  0.1921 -0.0180 -0.0531
 5777TIP3    H138746   0.197   3.603  13.185  0.0339  1.0358  0.0593
 5777TIP3    H238747   0.113   3.626  13.061  0.4749  2.4538  0.0105
 5778TIP3   OH238748   6.534   1.339   3.606 -0.7689 -0.5059 -0.3307
 5778TIP3    H138749   6.499   1.379   3.526  2.7234 -1.7739 -2.6328
 5778TIP3    H238750   6.558   1.413   3.661 -0.5791  0.4787 -1.7011
 5779TIP3   OH238751   2.530   4.523   1.537 -0.3060  0.1476  0.4377
 5779TIP3    H138752   2.586   4.447   1.548 -0.9144 -0.2961  0.4809
 5779TIP3    H238753   2.480   4.504   1.457 -0.5859  0.4187  0.5481
 5780TIP3   OH238754   2.412   0.417   6.728  0.2653 -0.1363  0.4243
 5780TIP3    H138755   2.505   0.401   6.712  0.3553 -0.4093  1.1648
 5780TIP3    H238756   2.376   0.441   6.643  0.9178 -0.5096  0.0408
 5781TIP3   OH238757   2.690   5.890  11.500 -0.0627  0.5032 -0.3087
 5781TIP3    H138758   2.742   5.858  11.426 -0.1179 -0.7994  0.2105
 5781TIP3    H238759   2.710   5.831  11.571 -1.5096  0.5835  0.1751
 5782TIP3   OH238760   4.481   4.477  13.196  0.1020  0.0251  0.0050
 5782TIP3    H138761   4.557   4.532  13.178  0.2707 -0.5212 -1.0474
 5782TIP3    H238762   4.519   4.392  13.220 -0.1680 -0.4780 -1.2992
 5783TIP3   OH238763   5.133   5.689  10.682 -0.3208  0.1693  0.5285
 5783TIP3    H138764   5.073   5.617  10.659  0.4495 -0.4098  0.3278
 5783TIP3    H238765   5.214   5.668  10.636  0.1859  0.7077  1.1825
 5784TIP3   OH238766   1.050   1.040   5.501 -0.4092 -0.0611 -0.6003
 5784TIP3    H138767   1.025   1.108   5.438  0.6156 -0.0235 -0.9648
 5784TIP3    H238768   0.968   1.017   5.545 -1.1664 -0.2075 -2.0708
 5785TIP3   OH238769   3.523   5.225   0.893 -0.4506  0.2908  0.2544
 5785TIP3    H138770   3.510   5.319   0.907 -0.1622  0.0417  2.3500
 5785TIP3    H238771   3.500   5.185   0.976 -0.6451 -1.5187 -0.6452
 5786TIP3   OH238772   5.182   0.546   1.360 -0.2369 -0.0703 -0.2013
 5786TIP3    H138773   5.175   0.519   1.451 -1.6254  0.1258 -0.2318
 5786TIP3    H238774   5.275   0.562   1.346 -0.2623  1.9995  1.7647
 5787TIP3   OH238775   3.243   0.503   4.566  0.1766  0.1733  0.6056
 5787TIP3    H138776   3.176   0.474   4.504  1.5326 -2.3568  0.2598
 5787TIP3    H238777   3.311   0.542   4.511  1.9109 -3.1169  0.3310
 5788TIP3   OH238778   6.743   5.651   4.760 -0.2709  0.0510  0.2441
 5788TIP3    H138779   6.822   5.697   4.786 -0.0446  0.7576 -1.6017
 5788TIP3    H238780   6.769   5.600   4.683 -1.8494  1.1371 -1.0323
 5789TIP3   OH238781   2.508   3.616  14.719 -0.0943 -0.4786  0.1849
 5789TIP3    H138782   2.554   3.586  14.797  1.9738  0.6570 -0.5582
 5789TIP3    H238783   2.539   3.559  14.649  0.7673  0.7269 -0.4469
 5790TIP3   OH238784   3.525   0.281   1.408 -0.1391 -0.2409 -0.2886
 5790TIP3    H138785   3.542   0.190   1.381 -0.9487 -0.5122  0.1054
 5790TIP3    H238786   3.562   0.334   1.337 -0.6193 -0.9043 -1.0483
 5791TIP3   OH238787   1.059   6.033  15.241 -0.4903 -0.0571 -0.1334
 5791TIP3    H138788   1.107   6.115  15.232 -2.9748  1.4500 -0.1093
 5791TIP3    H238789   1.044   6.005  15.150 -0.3257 -0.0625 -0.1589
 5792TIP3   OH238790   4.366   6.435  14.897 -0.5947 -0.2984 -0.1038
 5792TIP3    H138791   4.417   6.367  14.852 -2.2640 -0.6858 -1.4871
 5792TIP3    H238792   4.409   6.517  14.874  0.1932 -0.7207 -0.1580
 5793TIP3   OH238793   1.775   6.217   4.989 -0.0884  0.1619  0.3901
 5793TIP3    H138794   1.870   6.207   4.984 -0.1211 -0.0419  0.1654
 5793TIP3    H238795   1.760   6.310   4.970  0.2498  0.8108  3.0783
 5794TIP3   OH238796   6.086   1.913   6.627 -0.0368 -0.0653 -0.1427
 5794TIP3    H138797   6.002   1.876   6.653  0.4875 -1.3885 -0.2874
 5794TIP3    H238798   6.149   1.877   6.689  0.7240 -0.6781 -1.2402
 5795TIP3   OH238799   2.803   6.567  12.979 -0.2433  0.5286  0.1493
 5795TIP3    H138800   2.737   6.566  13.048 -1.3046  1.4914 -0.8576
 5795TIP3    H238801   2.855   6.646  12.996  0.7621 -0.2960  1.0193
 5796TIP3   OH238802   0.954   1.511  11.463 -0.1674 -0.5802  0.4844
 5796TIP3    H138803   0.997   1.558  11.534  0.8314  1.0226 -1.1293
 5796TIP3    H238804   1.006   1.533  11.385 -0.4611 -3.3143 -0.5392
 5797TIP3   OH238805   0.488   3.169  14.994 -0.2772  0.9409  0.1031
 5797TIP3    H138806   0.460   3.183  15.085 -1.0748 -1.4750  0.2468
 5797TIP3    H238807   0.455   3.246  14.947 -2.9699  0.5012  1.1816
 5798TIP3   OH238808   3.001   3.236  12.484 -1.1047 -0.0572 -0.2783
 5798TIP3    H138809   2.988   3.313  12.428  1.3674  0.0376 -0.7490
 5798TIP3    H238810   2.958   3.164  12.437 -0.5222  0.3653 -1.4642
 5799TIP3   OH238811   3.033   4.575  10.853  0.5660  0.2175  0.2913
 5799TIP3    H138812   3.114   4.626  10.846 -0.9540  2.9373  1.3824
 5799TIP3    H238813   3.013   4.549  10.764  0.1859  3.6407 -0.7195
 5800TIP3   OH238814   6.784   0.383  16.828  0.0846  0.3095  1.0489
 5800TIP3    H138815   6.691   0.363  16.835  0.1373 -0.1524  0.4008
 5800TIP3    H238816   6.787   0.475  16.801 -0.2163 -0.1627 -0.6615
 5801TIP3   OH238817   3.379   5.201  11.245  0.8020  0.2023 -0.3084
 5801TIP3    H138818   3.404   5.237  11.330  1.6761  0.0366 -0.4892
 5801TIP3    H238819   3.363   5.108  11.262 -3.2561  0.9400  0.5384
 5802TIP3   OH238820   0.164   5.593   5.350 -0.4653  0.5202  0.2213
 5802TIP3    H138821   0.209   5.673   5.374  0.5240  0.3418 -0.9919
 5802TIP3    H238822   0.217   5.556   5.279 -0.2587 -1.7824  1.5202
 5803TIP3   OH238823   0.734   1.102   2.719 -0.6162 -0.2172  0.0432
 5803TIP3    H138824   0.788   1.073   2.645  0.2116 -0.7043  0.8372
 5803TIP3    H238825   0.666   1.035   2.726  0.1388 -0.9381  0.6204
 5804TIP3   OH238826   2.885   2.045  12.537  0.6711 -0.5784 -0.0066
 5804TIP3    H138827   2.963   2.078  12.494 -0.1188  1.3286  0.0019
 5804TIP3    H238828   2.822   2.033  12.466 -0.1679  1.2279  0.4102
 5805TIP3   OH238829   5.514   6.375   6.535 -0.3827 -0.2195  0.5479
 5805TIP3    H138830   5.564   6.408   6.460  1.0134  0.9557  1.9480
 5805TIP3    H238831   5.525   6.280   6.532  1.9824  0.0134  0.8316
 5806TIP3   OH238832   1.215   2.350  11.861 -0.0241 -0.0615  0.0376
 5806TIP3    H138833   1.305   2.379  11.878  0.0454 -0.4187  0.2751
 5806TIP3    H238834   1.225   2.259  11.831 -0.3424 -0.2417  0.4801
 5807TIP3   OH238835   3.930   6.673   2.942 -0.4845 -0.1296  0.3305
 5807TIP3    H138836   3.861   6.626   2.988  0.3818  0.4648  2.2722
 5807TIP3    H238837   4.010   6.623   2.960 -0.0413  0.4221 -0.0741
 5808TIP3   OH238838   3.478   1.670   1.136 -0.0568 -0.2037 -0.2319
 5808TIP3    H138839   3.537   1.678   1.061 -0.2650 -1.0462 -0.4977
 5808TIP3    H238840   3.394   1.645   1.097 -1.2584  3.3597 -0.1021
 5809TIP3   OH238841   2.919   2.695  11.639  0.1510  0.1593  0.1455
 5809TIP3    H138842   2.952   2.754  11.571 -0.4988  0.8240  0.3868
 5809TIP3    H238843   2.949   2.734  11.721 -2.0408  1.3603  0.4312
 5810TIP3   OH238844   6.003   0.067  11.515  0.7431 -0.8943  0.0793
 5810TIP3    H138845   6.006   0.059  11.420 -1.0137  2.4890 -0.3238
 5810TIP3    H238846   5.911   0.056  11.538  0.6192  1.8031  0.9949
 5811TIP3   OH238847   5.926   6.130   3.898 -0.8226  0.2590  0.2440
 5811TIP3    H138848   5.921   6.145   3.993  1.0468 -0.1485  0.4214
 5811TIP3    H238849   6.018   6.143   3.877 -1.1448 -0.1511 -1.4431
 5812TIP3   OH238850   3.267   0.829   1.897  0.0035 -0.2993  0.1113
 5812TIP3    H138851   3.264   0.734   1.898 -1.1283 -0.3619 -3.3756
 5812TIP3    H238852   3.341   0.851   1.840 -0.0369  0.9252  0.5018
 5813TIP3   OH238853   2.026   1.372   4.415  0.2231  0.6494 -0.3021
 5813TIP3    H138854   1.952   1.351   4.357 -0.2657 -1.7574  1.1040
 5813TIP3    H238855   2.075   1.289   4.422  1.3367  1.4062  1.1919
 5814TIP3   OH238856   3.318   4.816   5.751  0.3822 -0.7761  0.1985
 5814TIP3    H138857   3.242   4.774   5.712 -0.9517  2.1199 -0.4730
 5814TIP3    H238858   3.285   4.857   5.831  0.7945  1.8746 -0.9154
 5815TIP3   OH238859   0.987   2.774   0.028 -0.0413  0.0490 -0.1859
 5815TIP3    H138860   1.017   2.698  -0.021 -0.0387 -0.3414  0.4094
 5815TIP3    H238861   1.010   2.849  -0.027 -1.3367 -0.4547 -1.4334
 5816TIP3   OH238862   5.176   3.779  11.055 -0.6068  0.0563  0.3597
 5816TIP3    H138863   5.252   3.732  11.090 -0.0643  0.8802  0.3200
 5816TIP3    H238864   5.137   3.719  10.992 -0.1362 -0.4801  0.5715
 5817TIP3   OH238865   1.259   6.360   1.748 -0.5897  0.0651 -0.0253
 5817TIP3    H138866   1.329   6.400   1.799 -1.0530  0.2367  0.4799
 5817TIP3    H238867   1.179   6.402   1.780 -1.0314 -0.9183  0.1795
 5818TIP3   OH238868   1.117   4.214   3.168 -0.3017 -0.1538  0.2994
 5818TIP3    H138869   1.098   4.307   3.171 -2.9355 -0.5601 -1.6757
 5818TIP3    H238870   1.059   4.176   3.235  2.1066 -0.2205  2.4112
 5819TIP3   OH238871   6.022   5.790   5.381 -0.3139  0.5634  0.6081
 5819TIP3    H138872   6.012   5.874   5.337 -0.1459  1.5030  2.3488
 5819TIP3    H238873   6.023   5.726   5.309 -2.6745  1.8031 -0.5986
 5820TIP3   OH238874   3.036   0.912   4.276  0.6507  0.2674 -0.2881
 5820TIP3    H138875   3.122   0.880   4.250 -0.3357 -2.4831 -0.4001
 5820TIP3    H238876   3.004   0.847   4.339 -0.8608  1.8689  0.6584
 5821TIP3   OH238877   5.576   4.150  12.280  0.0348 -0.0361  0.3620
 5821TIP3    H138878   5.514   4.128  12.210 -0.8554  0.5449  0.9587
 5821TIP3    H238879   5.601   4.066  12.318  1.2051 -0.4208 -1.2247
 5822TIP3   OH238880   0.155   3.087   3.907  0.9354  0.1153  0.2271
 5822TIP3    H138881   0.176   3.178   3.929  0.4900  0.2532  0.0981
 5822TIP3    H238882   0.125   3.091   3.817  2.0320 -0.3363 -0.1621
 5823TIP3   OH238883   2.819   1.617  17.094  0.6308 -0.2853  0.2338
 5823TIP3    H138884   2.861   1.635  17.010  1.8141  0.0565  0.8878
 5823TIP3    H238885   2.819   1.521  17.100 -1.8052 -0.4395 -1.3013
 5824TIP3   OH238886   0.608   1.708  14.682 -0.0641  0.5415 -0.7212
 5824TIP3    H138887   0.703   1.720  14.691  0.2435 -1.4450 -1.1105
 5824TIP3    H238888   0.598   1.623  14.640 -2.0668  0.1656  0.4176
 5825TIP3   OH238889   2.494   1.384  15.738  0.5957  0.8287 -0.6695
 5825TIP3    H138890   2.532   1.346  15.658  0.4649 -1.4579  0.2977
 5825TIP3    H238891   2.416   1.331  15.754  1.1514  0.6190  1.4844
 5826TIP3   OH238892   5.085   4.961  13.231  0.3021 -0.2194  0.1167
 5826TIP3    H138893   5.146   4.963  13.157  0.2628  0.2966  0.0949
 5826TIP3    H238894   5.138   4.982  13.307 -0.1101  1.6853 -0.0934
 5827TIP3   OH238895   5.279   1.325   4.368 -0.9458 -0.4448 -0.3562
 5827TIP3    H138896   5.359   1.358   4.410 -1.3775 -0.5991  0.5943
 5827TIP3    H238897   5.309   1.250   4.317 -0.2391  0.3833 -1.1761
 5828TIP3   OH238898   0.129   4.811   5.608  0.4223  0.1224  0.3838
 5828TIP3    H138899   0.166   4.894   5.636  1.4689 -1.2365  3.2010
 5828TIP3    H238900   0.197   4.746   5.626 -1.0673 -1.6183  0.0104
 5829TIP3   OH238901   1.871   2.891  16.094  0.3451 -0.0600 -0.0329
 5829TIP3    H138902   1.946   2.942  16.062  1.5140 -1.1570  0.8552
 5829TIP3    H238903   1.821   2.868  16.016  0.9139  0.7449 -0.6358
 5830TIP3   OH238904   3.131   3.714   3.457  0.0559  0.2323 -0.2052
 5830TIP3    H138905   3.073   3.758   3.520  0.9799  1.1634  0.0089
 5830TIP3    H238906   3.200   3.675   3.511  0.5846  0.6165 -0.5954
 5831TIP3   OH238907   2.136   2.336  10.603  0.6795  0.3439 -0.2222
 5831TIP3    H138908   2.114   2.398  10.534 -0.6967 -0.2692 -0.3388
 5831TIP3    H238909   2.064   2.343  10.666  0.1072 -1.6945 -0.6195
 5832TIP3   OH238910   6.454   1.675  14.576 -0.3752 -0.1986  0.0419
 5832TIP3    H138911   6.445   1.706  14.486 -1.0900  0.1570  0.2318
 5832TIP3    H238912   6.447   1.580  14.570  0.9042 -0.2753 -0.4317
 5833TIP3   OH238913   4.591   6.478   0.532 -0.1107  0.0747 -0.0318
 5833TIP3    H138914   4.513   6.534   0.536 -0.8340 -0.8924 -0.3356
 5833TIP3    H238915   4.608   6.468   0.438 -0.5946 -1.0331 -0.0088
 5834TIP3   OH238916   5.819   3.064  16.349 -0.1918 -0.4846 -0.4635
 5834TIP3    H138917   5.904   3.106  16.348  0.3224 -1.5108 -0.8088
 5834TIP3    H238918   5.817   3.015  16.432 -1.0714  0.7798  0.2790
 5835TIP3   OH238919   5.371   2.025  13.705 -0.0087  0.2264  0.8387
 5835TIP3    H138920   5.365   2.084  13.780 -0.8366 -1.1489  1.8871
 5835TIP3    H238921   5.321   2.068  13.636  1.6885  2.0407  0.6918
 5836TIP3   OH238922   1.323   3.510  16.151 -0.0415  0.6743 -0.2434
 5836TIP3    H138923   1.247   3.486  16.099 -0.1453  1.2538 -0.3603
 5836TIP3    H238924   1.292   3.582  16.207 -0.3276 -0.8603  1.6054
 5837TIP3   OH238925   0.794   3.328  15.689  0.2441 -0.6226 -0.5013
 5837TIP3    H138926   0.861   3.368  15.632  0.9636 -0.3825  0.4910
 5837TIP3    H238927   0.711   3.354  15.649  0.7320 -0.3772 -1.3938
 5838TIP3   OH238928   6.660   2.073  12.556 -0.4854  0.0487 -0.4061
 5838TIP3    H138929   6.656   2.089  12.462 -0.0809  1.3813 -0.2089
 5838TIP3    H238930   6.626   2.154  12.595  0.4437 -0.0347  0.6063
 5839TIP3   OH238931   5.228   3.969  16.936  0.1357 -0.2309  0.4501
 5839TIP3    H138932   5.148   4.021  16.931 -0.5825 -1.2082  1.2975
 5839TIP3    H238933   5.197   3.879  16.949  1.3772 -0.5064  1.6594
 5840TIP3   OH238934   3.358   1.282  13.716  0.9308 -0.3740  0.6255
 5840TIP3    H138935   3.426   1.265  13.781  1.6426 -0.1232 -0.0457
 5840TIP3    H238936   3.405   1.284  13.632 -0.1441 -1.9685 -0.0527
 5841TIP3   OH238937   4.669   0.403  11.319 -0.8245  0.2601 -0.0558
 5841TIP3    H138938   4.625   0.488  11.322  0.8186  1.1109  0.3960
 5841TIP3    H238939   4.636   0.362  11.238  0.4860  2.4929 -1.7716
 5842TIP3   OH238940   5.726   3.118  10.387 -0.7678 -0.1233 -0.1760
 5842TIP3    H138941   5.788   3.185  10.360 -0.7222 -0.5413 -1.1339
 5842TIP3    H238942   5.780   3.053  10.434 -0.5452 -0.2838 -0.6513
 5843TIP3   OH238943   1.796   2.582   1.961 -0.1235  0.3350 -0.2365
 5843TIP3    H138944   1.871   2.642   1.965  0.6080 -0.6136  0.2427
 5843TIP3    H238945   1.823   2.513   1.901 -0.7398  0.1463 -0.3025
 5844TIP3   OH238946   4.330   6.318   3.419 -0.1223 -0.2389  0.3485
 5844TIP3    H138947   4.265   6.369   3.468  1.0317  0.2843  1.3779
 5844TIP3    H238948   4.374   6.266   3.486 -0.2411 -1.4307 -0.4972
 5845TIP3   OH238949   0.586   0.388   4.579 -0.1035  0.0940 -0.2800
 5845TIP3    H138950   0.496   0.412   4.600 -0.3573 -0.0734 -1.1504
 5845TIP3    H238951   0.582   0.293   4.565  0.5266 -0.1796  1.2951
 5846TIP3   OH238952   4.047   6.750   2.381 -0.2708 -0.4415  0.2872
 5846TIP3    H138953   3.999   6.753   2.464 -0.4967 -0.9900  0.1784
 5846TIP3    H238954   4.087   6.663   2.380  0.3280 -0.1668  0.1523
 5847TIP3   OH238955   6.479   1.741  15.938 -0.3091  0.6862  0.1754
 5847TIP3    H138956   6.449   1.752  16.028 -1.9718  0.0828 -0.2819
 5847TIP3    H238957   6.402   1.710  15.891  0.6569  0.5771 -1.3704
 5848TIP3   OH238958   5.524   4.255  13.699 -0.0214 -0.0823 -0.5768
 5848TIP3    H138959   5.578   4.304  13.762  0.6919 -0.1555 -1.1150
 5848TIP3    H238960   5.480   4.188  13.751  0.3392  0.0433 -0.1060
 5849TIP3   OH238961   2.715   5.765  16.175 -0.8326  0.6538  0.0400
 5849TIP3    H138962   2.639   5.739  16.123 -0.9837  1.9761 -0.4090
 5849TIP3    H238963   2.678   5.805  16.254 -0.6032 -1.1126  1.0631
 5850TIP3   OH238964   4.043   6.264   6.231  1.1197 -0.3508 -0.2254
 5850TIP3    H138965   4.053   6.245   6.325  0.3703  1.5546  0.2574
 5850TIP3    H238966   3.961   6.313   6.225  1.7396  0.5123 -1.7508
 5851TIP3   OH238967   2.750   5.495   4.883 -0.1947 -0.2047  0.0335
 5851TIP3    H138968   2.805   5.463   4.955 -0.5945  0.5014  0.6543
 5851TIP3    H238969   2.784   5.450   4.806 -0.1307 -1.4169  0.7506
 5852TIP3   OH238970   0.332   3.767  11.161 -0.4119 -0.4062 -0.8675
 5852TIP3    H138971   0.325   3.817  11.243 -0.8973 -0.8556 -0.6272
 5852TIP3    H238972   0.302   3.827  11.093  0.9535  0.3067 -0.8503
 5853TIP3   OH238973   4.404   4.222   0.051  0.3137 -0.1001 -0.0055
 5853TIP3    H138974   4.338   4.285   0.080  2.8425  1.8996  1.6514
 5853TIP3    H238975   4.432   4.178   0.131  0.4643 -1.4717 -0.7951
 5854TIP3   OH238976   2.093   2.788  14.625 -0.6220  0.1519  0.9090
 5854TIP3    H138977   2.170   2.821  14.578 -0.2864 -1.5721  0.1995
 5854TIP3    H238978   2.124   2.774  14.715  0.6146 -2.8418  0.0761
 5855TIP3   OH238979   1.825   6.685  11.477  0.1888  0.5225 -0.3263
 5855TIP3    H138980   1.742   6.687  11.429  0.5994 -1.7270 -1.1944
 5855TIP3    H238981   1.803   6.719  11.564 -1.4453  0.7903 -0.8178
 5856TIP3   OH238982   3.106   3.054  11.806  0.1432 -0.2543 -0.0652
 5856TIP3    H138983   3.185   3.045  11.858  0.0759 -1.3858 -0.1430
 5856TIP3    H238984   3.132   3.111  11.733  0.4322  0.7199  0.7843
 5857TIP3   OH238985   0.491   5.082   0.141 -0.0893 -0.2319 -0.1143
 5857TIP3    H138986   0.530   5.150   0.085 -0.2809  0.0742  0.1200
 5857TIP3    H238987   0.546   5.081   0.219  0.0348 -0.4926 -0.2039
 5858TIP3   OH238988   6.621   5.022  11.167  0.2984  0.0801  0.0627
 5858TIP3    H138989   6.616   5.108  11.124  1.8465 -0.4721 -1.2567
 5858TIP3    H238990   6.613   5.042  11.261  3.7745  2.0351  0.0486
 5859TIP3   OH238991   6.223   3.304  15.361 -0.1420  0.8015 -0.0271
 5859TIP3    H138992   6.253   3.299  15.270 -0.5092  0.6051 -0.1359
 5859TIP3    H238993   6.131   3.279  15.358 -0.3100  1.3788  0.3200
 5860TIP3   OH238994   5.115   0.376   5.187 -0.1730  0.2843  0.4749
 5860TIP3    H138995   5.072   0.418   5.112  0.6665  1.8864  0.8717
 5860TIP3    H238996   5.067   0.293   5.198 -0.2136 -0.0651 -1.9194
 5861TIP3   OH238997   3.972   5.844  10.781  0.3901 -0.7009  0.0789
 5861TIP3    H138998   4.055   5.892  10.776  1.6353 -2.6806  1.0842
 5861TIP3    H238999   3.971   5.807  10.869 -1.4679 -0.8853 -0.0004
 5862TIP3   OH239000   5.761   6.358   4.767 -0.0994 -0.1789  0.0201
 5862TIP3    H139001   5.809   6.312   4.836  0.0014  0.9996  0.7722
 5862TIP3    H239002   5.778   6.451   4.785  0.3742  0.1272 -1.9379
 5863TIP3   OH239003   4.533   5.906  12.287  0.3885 -0.0208  0.0821
 5863TIP3    H139004   4.458   5.963  12.271 -0.3128 -0.8725  0.3072
 5863TIP3    H239005   4.521   5.833  12.227  1.5429  0.3040 -0.5435
 5864TIP3   OH239006   4.664   0.434  14.528  0.4603  0.0917  0.5029
 5864TIP3    H139007   4.675   0.364  14.592  1.0977  0.2164  0.5321
 5864TIP3    H239008   4.751   0.447  14.491  0.3039  0.7145  0.3406
 5865TIP3   OH239009   5.673   4.269   3.955 -0.0135  0.3752  0.7209
 5865TIP3    H139010   5.716   4.350   3.930 -0.0065  0.4781  1.0715
 5865TIP3    H239011   5.620   4.245   3.878 -1.0434  1.4112  1.0964
 5866TIP3   OH239012   6.458   4.902  11.610 -0.3956  0.3043 -0.5577
 5866TIP3    H139013   6.530   4.928  11.668 -1.2565 -1.2631  1.2855
 5866TIP3    H239014   6.389   4.966  11.627 -0.6276 -0.1211  0.1445
 5867TIP3   OH239015   6.590   4.937  12.096 -0.3886 -0.0642  0.5035
 5867TIP3    H139016   6.511   4.899  12.056  0.3926 -0.8414 -0.3410
 5867TIP3    H239017   6.610   4.879  12.170  0.2600 -0.7899 -0.2172
 5868TIP3   OH239018   5.782   0.608   2.933 -0.2237 -0.2499  0.3517
 5868TIP3    H139019   5.840   0.575   3.002  0.5493  0.1963 -0.0745
 5868TIP3    H239020   5.760   0.531   2.881 -0.8219 -0.5916  1.1074
 5869TIP3   OH239021   4.327   0.273  15.382  0.9097  0.0797 -0.2449
 5869TIP3    H139022   4.288   0.207  15.439 -0.1983  0.7374 -0.2299
 5869TIP3    H239023   4.263   0.344  15.380  0.5331 -0.3001 -3.0157
 5870TIP3   OH239024   0.131   2.787  11.097  0.4753 -0.2333  0.1961
 5870TIP3    H139025   0.075   2.742  11.161  0.3880 -0.0481  0.2512
 5870TIP3    H239026   0.195   2.721  11.070  0.7101 -0.2170  0.7104
 5871TIP3   OH239027   6.310   5.880  16.641  0.0213  0.3990  0.8577
 5871TIP3    H139028   6.218   5.902  16.656  0.4427  1.1300  2.3853
 5871TIP3    H239029   6.307   5.791  16.605 -1.4115  1.2417 -1.2711
 5872TIP3   OH239030   1.626   3.926   0.654  0.1553  0.4113  0.0000
 5872TIP3    H139031   1.661   3.915   0.566  0.8321 -1.1277  0.4518
 5872TIP3    H239032   1.702   3.940   0.709 -0.0218 -1.4483  0.7571
 5873TIP3   OH239033   0.216   4.254   3.017 -0.7428 -0.0437 -0.1387
 5873TIP3    H139034   0.300   4.234   3.059 -0.4405 -1.7680 -1.5042
 5873TIP3    H239035   0.240   4.301   2.937 -1.0554 -0.7957 -0.6772
 5874TIP3   OH239036   6.196   5.379   5.206 -0.3419 -0.2341  0.0551
 5874TIP3    H139037   6.284   5.413   5.194  0.8776 -3.2594 -0.1309
 5874TIP3    H239038   6.157   5.432   5.275  2.2095  0.0972  1.2596
 5875TIP3   OH239039   3.462   5.659   3.311  0.4320  0.0736  0.4361
 5875TIP3    H139040   3.447   5.573   3.272  2.9833 -0.2789  0.1779
 5875TIP3    H239041   3.441   5.648   3.403 -1.0000 -0.3371  0.0780
 5876TIP3   OH239042   0.564   1.644   2.756  0.7633  0.5040  0.2719
 5876TIP3    H139043   0.508   1.662   2.681  1.6512  0.1745 -0.4711
 5876TIP3    H239044   0.504   1.643   2.831 -0.5766 -2.1960 -0.7888
 5877TIP3   OH239045   1.392   1.899  17.202  0.6826  0.3352  0.2797
 5877TIP3    H139046   1.405   1.857  17.287  2.8101  1.6199  0.6283
 5877TIP3    H239047   1.417   1.832  17.138 -0.3884 -0.4465  0.6670
 5878TIP3   OH239048   1.895   1.628  10.905  0.0075  0.1469 -0.5883
 5878TIP3    H139049   1.870   1.699  10.964 -1.5772 -0.7539 -0.1682
 5878TIP3    H239050   1.988   1.644  10.888  0.7532 -0.0720  2.8627
 5879TIP3   OH239051   4.172   3.199   1.121 -0.5231 -0.3227 -0.3723
 5879TIP3    H139052   4.087   3.241   1.106  0.2661  0.8956 -1.5686
 5879TIP3    H239053   4.170   3.120   1.067 -0.2837  0.5482 -1.6697
 5880TIP3   OH239054   4.988   0.483   0.916  0.3643 -0.0756  0.0893
 5880TIP3    H139055   5.061   0.473   0.977  0.1034 -1.4028  0.1958
 5880TIP3    H239056   4.977   0.397   0.876 -0.0808  0.5447 -1.1471
 5881TIP3   OH239057   5.342   4.957   0.721 -0.5921  0.1755 -0.1159
 5881TIP3    H139058   5.363   4.893   0.790 -0.5049 -1.8377 -1.9555
 5881TIP3    H239059   5.249   4.944   0.703 -0.8847  1.4807  0.3697
 5882TIP3   OH239060   0.322   0.494   3.471 -0.1222 -0.6379 -0.0313
 5882TIP3    H139061   0.352   0.462   3.386 -1.8159 -1.1214 -0.4662
 5882TIP3    H239062   0.373   0.445   3.535  1.2437 -0.1939 -0.7606
 5883TIP3   OH239063   5.441   2.505  12.256 -0.2313 -0.2389 -0.2315
 5883TIP3    H139064   5.486   2.582  12.291  0.8145  0.1973 -2.4529
 5883TIP3    H239065   5.404   2.534  12.173 -0.5111 -1.9153 -0.7119
 5884TIP3   OH239066   2.765   2.832   3.272  0.3489  0.2928  0.0188
 5884TIP3    H139067   2.801   2.916   3.242  0.8597  0.4803  1.1391
 5884TIP3    H239068   2.672   2.837   3.250  0.1934  1.5257  0.9019
 5885TIP3   OH239069   2.133   6.273  16.722 -0.3413 -0.1507  0.2919
 5885TIP3    H139070   2.069   6.246  16.788  1.3243 -0.4354  1.8218
 5885TIP3    H239071   2.178   6.348  16.762 -0.3104  0.5916 -1.1193
 5886TIP3   OH239072   6.362   1.484  13.687 -0.4318 -0.2713  0.4350
 5886TIP3    H139073   6.364   1.473  13.782  1.0902  0.4881  0.5097
 5886TIP3    H239074   6.389   1.574  13.672 -0.6850 -0.3752 -0.7135
 5887TIP3   OH239075   1.565   4.026   3.389  0.0236 -0.0709 -0.5817
 5887TIP3    H139076   1.512   3.981   3.323  0.3585 -3.3135  1.2972
 5887TIP3    H239077   1.655   4.016   3.358  0.1650 -1.4193  0.2764
 5888TIP3   OH239078   3.148   2.182  15.997  0.5041 -0.2057 -1.0039
 5888TIP3    H139079   3.163   2.158  15.906  2.5888  0.3440 -0.8346
 5888TIP3    H239080   3.196   2.116  16.048 -0.3868 -0.3274 -0.3011
 5889TIP3   OH239081   0.373   5.956  11.535  0.1710 -0.0602  0.3804
 5889TIP3    H139082   0.357   5.989  11.447  1.7528 -0.2916 -0.0165
 5889TIP3    H239083   0.291   5.971  11.582 -0.5514  0.4353 -1.0100
 5890TIP3   OH239084   4.340   6.150   3.011 -0.5227  0.5812 -0.0618
 5890TIP3    H139085   4.306   6.082   3.069 -2.2442  1.0404 -0.4989
 5890TIP3    H239086   4.397   6.203   3.067  0.6942 -1.0991  0.3251
 5891TIP3   OH239087   2.891   0.598  12.072  0.3171  0.2446  0.6893
 5891TIP3    H139088   2.892   0.689  12.042 -1.0069  0.0850  0.0990
 5891TIP3    H239089   2.959   0.555  12.021 -2.4914 -0.2239 -2.8983
 5892TIP3   OH239090   6.199   0.121  12.767  0.3404  0.1066 -0.1320
 5892TIP3    H139091   6.267   0.188  12.759 -0.2762  0.7126 -0.3572
 5892TIP3    H239092   6.235   0.045  12.721  0.3014  0.8710 -1.4671
 5893TIP3   OH239093   4.365   3.481   4.935  0.2518  0.1423  0.4542
 5893TIP3    H139094   4.442   3.524   4.972  1.6347 -1.7137 -0.2114
 5893TIP3    H239095   4.384   3.472   4.841 -1.1738  0.4840  0.1079
 5894TIP3   OH239096   2.727   3.317   6.154  0.8000 -0.4710 -0.0474
 5894TIP3    H139097   2.742   3.227   6.126 -0.6990  0.5508 -4.4190
 5894TIP3    H239098   2.811   3.361   6.139 -0.0246  0.1003 -3.3585
 5895TIP3   OH239099   1.522   1.439  14.138  0.5308  0.0032  0.0953
 5895TIP3    H139100   1.471   1.364  14.167 -0.8674 -0.5944 -3.6131
 5895TIP3    H239101   1.609   1.404  14.121 -0.3101 -1.0224 -2.3322
 5896TIP3   OH239102   5.077   1.967   0.728 -0.7009 -0.0106  0.5326
 5896TIP3    H139103   5.018   1.951   0.654 -0.9215  0.5962  0.5718
 5896TIP3    H239104   5.084   2.063   0.733  0.9818 -0.0909 -0.0138
 5897TIP3   OH239105   1.888   5.877   1.093 -0.1050  0.2304 -0.0392
 5897TIP3    H139106   1.831   5.952   1.113  1.1134  0.8368  1.1807
 5897TIP3    H239107   1.958   5.882   1.158  1.2225 -0.6538 -1.3833
 5898TIP3   OH239108   3.638   1.643   4.679 -0.2278  0.9809 -0.2647
 5898TIP3    H139109   3.553   1.682   4.658  0.3817  1.3293 -2.2288
 5898TIP3    H239110   3.697   1.718   4.690 -0.5631  0.8289  3.1364
 5899TIP3   OH239111   4.731   2.191  12.473  0.2716 -0.1519  0.0475
 5899TIP3    H139112   4.670   2.261  12.496 -0.0893 -0.7801  0.9971
 5899TIP3    H239113   4.766   2.161  12.556  1.3791 -0.2476 -0.4544
 5900TIP3   OH239114   1.168   0.155  17.106 -0.2486  0.4296  0.0519
 5900TIP3    H139115   1.209   0.069  17.104 -0.7105  0.1365  2.2291
 5900TIP3    H239116   1.167   0.180  17.198 -2.6011  1.5574 -0.2233
 5901TIP3   OH239117   6.285   3.202  14.799 -0.2544  0.0028  0.2947
 5901TIP3    H139118   6.330   3.152  14.867  3.3345  2.8819  0.2373
 5901TIP3    H239119   6.349   3.207  14.728 -1.0241  3.3639 -0.2583
 5902TIP3   OH239120   4.017   0.687   1.458  0.4519 -0.0822  0.1186
 5902TIP3    H139121   4.093   0.632   1.440 -0.4788 -0.6153 -2.3948
 5902TIP3    H239122   4.015   0.750   1.386 -0.4536  1.0790  1.1394
 5903TIP3   OH239123   3.091   5.050   2.481 -0.1291  0.1597  0.1094
 5903TIP3    H139124   3.055   4.965   2.506 -0.5638  0.2699 -0.1378
 5903TIP3    H239125   3.097   5.046   2.385  0.6666  0.0832  0.1544
 5904TIP3   OH239126   3.797   6.165  16.857  0.3355  1.0191  0.1302
 5904TIP3    H139127   3.791   6.081  16.812 -0.0174  1.2554 -0.2621
 5904TIP3    H239128   3.740   6.155  16.934 -0.0521  1.0512 -0.1521
 5905TIP3   OH239129   4.805   2.213  11.381  0.1031  0.6741 -0.0450
 5905TIP3    H139130   4.780   2.210  11.289  0.3437  0.7901 -0.1144
 5905TIP3    H239131   4.738   2.160  11.426  1.6354 -1.8434 -0.6642
 5906TIP3   OH239132   0.800   0.897  14.524 -0.8099 -0.7652  0.3529
 5906TIP3    H139133   0.836   0.885  14.436 -1.1018 -1.1859  0.2889
 5906TIP3    H239134   0.736   0.826  14.533  0.3954 -1.7151  1.5134
 5907TIP3   OH239135   5.779   0.529   3.986  0.0121  0.1794  0.0563
 5907TIP3    H139136   5.786   0.444   3.943  0.4801  0.3060 -0.1245
 5907TIP3    H239137   5.726   0.512   4.063 -1.2845  0.0549 -0.8449
 5908TIP3   OH239138   1.678   6.354  15.711  0.0745 -0.1442  0.3721
 5908TIP3    H139139   1.734   6.294  15.662  0.7378  0.7316  0.0422
 5908TIP3    H239140   1.596   6.356  15.661  0.8964  1.0724 -0.9700
 5909TIP3   OH239141   4.612   4.766   3.739  0.2987  0.0572 -0.7256
 5909TIP3    H139142   4.623   4.847   3.688 -0.5767  1.6687  1.5506
 5909TIP3    H239143   4.568   4.795   3.819 -1.5378 -2.9470 -0.5825
 5910TIP3   OH239144   2.743   1.309  11.465  0.7090  0.7134  0.6751
 5910TIP3    H139145   2.654   1.276  11.476  0.9810 -0.2261  0.1095
 5910TIP3    H239146   2.732   1.401  11.443 -0.0356  1.4225  3.6761
 5911TIP3   OH239147   4.169   0.786   2.893  0.5921 -0.3099  0.2963
 5911TIP3    H139148   4.197   0.711   2.945  0.2884  0.4738  1.6392
 5911TIP3    H239149   4.074   0.774   2.883  0.5960 -0.2819  0.2251
 5912TIP3   OH239150   2.894   5.352  14.518  0.3760 -0.7143 -0.0229
 5912TIP3    H139151   2.937   5.378  14.436 -1.6588 -0.5848 -1.0784
 5912TIP3    H239152   2.966   5.327  14.576  1.8982  0.0344 -1.5562
 5913TIP3   OH239153   1.688   0.992   1.379  0.0430 -0.3603  0.1908
 5913TIP3    H139154   1.606   0.943   1.377  0.4213 -1.0262  0.7719
 5913TIP3    H239155   1.751   0.935   1.336  0.1197  0.3116 -0.5919
 5914TIP3   OH239156   4.245   4.312  16.248  0.0035  0.6319  0.6213
 5914TIP3    H139157   4.203   4.395  16.272 -2.3423 -0.1914 -0.4355
 5914TIP3    H239158   4.325   4.337  16.203 -1.7626  2.4130 -1.6477
 5915TIP3   OH239159   2.413   2.999  13.493 -0.5417  0.0734 -0.5769
 5915TIP3    H139160   2.343   3.026  13.553  0.6033  2.4045 -0.2282
 5915TIP3    H239161   2.374   3.010  13.406 -0.6924  1.1900 -0.3798
 5916TIP3   OH239162   1.445   1.941  14.471 -0.3203  0.0976  0.0683
 5916TIP3    H139163   1.434   1.996  14.393  0.7038  0.9491  0.5086
 5916TIP3    H239164   1.539   1.920  14.472 -0.0507  1.3371  1.8898
 5917TIP3   OH239165   3.480   4.445  16.348  0.1655  0.0405  0.2326
 5917TIP3    H139166   3.534   4.410  16.418  0.6531  1.9011  0.8179
 5917TIP3    H239167   3.538   4.449  16.272  0.5462  0.9695  0.5655
 5918TIP3   OH239168   1.199   3.838   0.882  0.0571 -0.4823 -0.5771
 5918TIP3    H139169   1.284   3.799   0.900  0.4549  0.5692 -0.1165
 5918TIP3    H239170   1.208   3.928   0.912 -1.9746 -1.0005  1.6995
 5919TIP3   OH239171   5.767   2.114   4.131 -0.0147 -0.0769 -0.2023
 5919TIP3    H139172   5.703   2.089   4.065  1.3239  0.9147 -1.9189
 5919TIP3    H239173   5.728   2.188   4.177 -0.2897  0.2354 -0.9387
 5920TIP3   OH239174   2.488   6.531   1.171 -0.0942 -0.2248  0.0786
 5920TIP3    H139175   2.513   6.527   1.079  2.6944  0.8090  0.7215
 5920TIP3    H239176   2.534   6.458   1.212 -1.6636 -0.9431  0.5955
 5921TIP3   OH239177   2.738   0.575  14.155 -0.1616  0.4100 -0.6918
 5921TIP3    H139178   2.811   0.521  14.187 -0.8667  0.2496  0.6798
 5921TIP3    H239179   2.698   0.522  14.086 -0.8023 -0.8178  0.5957
 5922TIP3   OH239180   4.931   3.097   0.869  0.4577  0.3074 -0.2612
 5922TIP3    H139181   5.017   3.125   0.901 -0.5434  0.9387  1.9573
 5922TIP3    H239182   4.892   3.050   0.943 -1.9048  1.7910 -0.5183
 5923TIP3   OH239183   4.993   4.347  15.714  0.1026  0.5970  0.3588
 5923TIP3    H139184   4.923   4.406  15.742 -2.1196 -1.1989 -1.2180
 5923TIP3    H239185   4.980   4.268  15.767  1.0691  0.3466  0.2234
 5924TIP3   OH239186   4.646   2.183   4.969 -0.0942  0.5357 -0.4456
 5924TIP3    H139187   4.554   2.160   4.954 -0.4342  1.4720  0.2020
 5924TIP3    H239188   4.655   2.273   4.938  0.7047  0.3132 -0.8848
 5925TIP3   OH239189   2.625   6.228  11.145 -0.1384 -0.4031  1.2471
 5925TIP3    H139190   2.665   6.308  11.178  1.0231 -0.5862  0.3180
 5925TIP3    H239191   2.641   6.230  11.051 -0.5756 -1.4575  1.1389
 5926TIP3   OH239192   0.748   3.861  14.893  0.0301  0.1879  0.3248
 5926TIP3    H139193   0.780   3.950  14.878 -2.4218  1.2562  1.1268
 5926TIP3    H239194   0.793   3.832  14.972  1.9029  0.1631 -0.7332
 5927TIP3   OH239195   5.562   4.688  15.523  0.4277  0.0820 -0.0410
 5927TIP3    H139196   5.606   4.771  15.538  1.0263 -0.3148  0.4120
 5927TIP3    H239197   5.510   4.702  15.444 -1.8919  1.8603  1.7193
 5928TIP3   OH239198   1.073   2.581   1.066  0.1968  0.4622  0.7931
 5928TIP3    H139199   1.140   2.557   1.003 -0.4332  0.3682  0.1527
 5928TIP3    H239200   1.120   2.590   1.149  0.8689 -0.3439  0.5017
 5929TIP3   OH239201   6.670   1.419  14.031  0.1868 -0.4444 -0.3979
 5929TIP3    H139202   6.641   1.404  13.941 -1.8416 -0.6069  0.2501
 5929TIP3    H239203   6.640   1.342  14.079 -2.7791  1.6634  1.2795
 5930TIP3   OH239204   5.236   2.144   3.701 -0.4194 -0.0008 -0.3816
 5930TIP3    H139205   5.169   2.133   3.634 -0.1200  1.8770 -1.0320
 5930TIP3    H239206   5.206   2.220   3.752  1.1113  0.7711 -0.5982
 5931TIP3   OH239207   3.581   2.114  11.893  0.2086  0.2595  0.1356
 5931TIP3    H139208   3.557   2.046  11.956  1.0271  0.4568  0.6674
 5931TIP3    H239209   3.501   2.128  11.842 -0.4811  0.1441  1.1653
 5932TIP3   OH239210   6.386   1.862   5.828  0.0104 -0.7391  0.2933
 5932TIP3    H139211   6.451   1.835   5.893  0.2952 -0.0902  0.2765
 5932TIP3    H239212   6.424   1.939   5.786 -0.4026 -0.8495 -0.2914
 5933TIP3   OH239213   5.491   6.630   6.231  0.3455  0.1737  0.7206
 5933TIP3    H139214   5.472   6.722   6.210  0.7042  0.2090  0.5393
 5933TIP3    H239215   5.461   6.582   6.154 -0.9692  0.0126  1.3283
 5934TIP3   OH239216   3.179   2.775   4.740 -0.5678  0.0969  0.2010
 5934TIP3    H139217   3.202   2.804   4.828 -1.9652 -1.1214  0.9954
 5934TIP3    H239218   3.220   2.689   4.732  0.9296  0.9023 -0.9604
 5935TIP3   OH239219   2.376   5.914  16.029  0.0618 -0.3141  0.2146
 5935TIP3    H139220   2.391   6.006  16.049 -1.2326  0.3392 -1.6763
 5935TIP3    H239221   2.325   5.881  16.102 -0.5524  0.8089  0.3021
 5936TIP3   OH239222   0.790   0.637   0.202 -0.2062  0.3391 -0.2463
 5936TIP3    H139223   0.873   0.658   0.246 -0.0168 -0.4436 -0.2246
 5936TIP3    H239224   0.737   0.716   0.211 -0.1869  0.1738  1.4567
 5937TIP3   OH239225   6.607   5.900   3.283 -0.2176 -0.1553 -0.0034
 5937TIP3    H139226   6.675   5.962   3.309 -1.1285  0.6625  0.4961
 5937TIP3    H239227   6.649   5.842   3.219  0.7528  0.7230 -0.1657
 5938TIP3   OH239228   1.769   1.802   0.851 -0.2479  0.2031  0.6375
 5938TIP3    H139229   1.711   1.864   0.806  0.2258 -1.1459 -1.9282
 5938TIP3    H239230   1.711   1.735   0.885 -0.4948  0.5750  0.9565
 5939TIP3   OH239231   4.725   0.329   4.390  0.0939  0.4528  0.0391
 5939TIP3    H139232   4.728   0.400   4.326 -2.2690  0.1061 -0.4899
 5939TIP3    H239233   4.643   0.283   4.371 -1.1085  0.8550  3.8525
 5940TIP3   OH239234   4.813   3.500  16.785 -0.4790 -0.7041 -0.7534
 5940TIP3    H139235   4.823   3.536  16.873  0.8431  1.6213 -1.8032
 5940TIP3    H239236   4.902   3.503  16.748 -1.3591  0.2047 -2.8515
 5941TIP3   OH239237   1.995   4.091   3.506 -0.1113 -0.1706  0.5532
 5941TIP3    H139238   2.087   4.115   3.497 -0.3433  0.0086 -1.5987
 5941TIP3    H239239   1.962   4.146   3.576  0.7559  1.7466 -0.5157
 5942TIP3   OH239240   1.549   5.337  15.874  0.0137 -0.3088  0.2151
 5942TIP3    H139241   1.600   5.274  15.823 -0.5704 -0.8842  0.3313
 5942TIP3    H239242   1.549   5.301  15.963 -1.4678 -0.8745  0.0076
 5943TIP3   OH239243   4.591   2.617   0.028 -0.0530 -0.4449 -0.3473
 5943TIP3    H139244   4.533   2.606  -0.047  0.1840 -0.4511 -0.5314
 5943TIP3    H239245   4.606   2.711   0.033 -1.1353 -0.3130  0.5086
 5944TIP3   OH239246   0.245   3.777  10.689 -0.5444  0.1753  0.1480
 5944TIP3    H139247   0.189   3.805  10.617 -0.3455 -1.7017 -0.7539
 5944TIP3    H239248   0.243   3.682  10.685  0.5705  0.0753  1.7785
 5945TIP3   OH239249   3.308   2.835   2.276  0.1742  0.5550  0.0812
 5945TIP3    H139250   3.336   2.770   2.341  1.3003  0.1213 -0.8427
 5945TIP3    H239251   3.232   2.795   2.234 -0.6907  0.9217  1.2531
 5946TIP3   OH239252   2.968   4.419   5.815 -0.4098 -0.3578  0.4257
 5946TIP3    H139253   2.896   4.481   5.829  0.7074  1.1987 -0.7127
 5946TIP3    H239254   2.973   4.409   5.720  1.2997  0.0237  0.4730
 5947TIP3   OH239255   1.461   0.659  13.021  0.5283 -0.0262  0.4282
 5947TIP3    H139256   1.432   0.686  13.108  1.4043  0.5830  0.5513
 5947TIP3    H239257   1.495   0.740  12.982  2.9963 -0.8776  0.7015
 5948TIP3   OH239258   0.170   3.015  17.177  0.6037  0.0886  0.2521
 5948TIP3    H139259   0.094   3.046  17.129  0.9346  0.4447 -0.0510
 5948TIP3    H239260   0.172   2.920  17.160 -0.1102 -0.0186  0.7530
 5949TIP3   OH239261   4.049   3.740   2.054 -0.6883  0.3111  0.3727
 5949TIP3    H139262   4.085   3.771   2.137  0.4106  2.1698 -0.7650
 5949TIP3    H239263   4.080   3.803   1.989 -2.2243 -0.6464 -1.3387
 5950TIP3   OH239264   6.182   2.610   0.937 -0.3593  0.2120 -0.1093
 5950TIP3    H139265   6.170   2.516   0.923 -1.2733  0.3729 -0.4422
 5950TIP3    H239266   6.273   2.618   0.966 -0.4547 -0.8334  0.5122
 5951TIP3   OH239267   3.743   4.091  15.236 -0.2203  0.3786  0.6566
 5951TIP3    H139268   3.702   4.110  15.320  0.9985 -0.0536  1.3672
 5951TIP3    H239269   3.826   4.048  15.259  0.0881  0.1882 -0.7623
 5952TIP3   OH239270   5.891   4.188  10.814 -0.0446  0.0067  0.0261
 5952TIP3    H139271   5.881   4.272  10.769  0.3727 -0.3578 -0.7552
 5952TIP3    H239272   5.935   4.132  10.750 -0.2177 -0.7697  0.5885
 5953TIP3   OH239273   4.542   0.999  15.041 -0.4417 -0.2249 -0.1056
 5953TIP3    H139274   4.617   1.026  15.094  0.0630 -1.2274 -0.2913
 5953TIP3    H239275   4.580   0.949  14.969 -1.2608 -0.4064 -0.4244
 5954TIP3   OH239276   3.203   0.781  12.650 -0.3622  0.9525  0.1316
 5954TIP3    H139277   3.113   0.798  12.677  0.4738  1.5948  2.6813
 5954TIP3    H239278   3.241   0.868  12.635  0.2098  0.7546  0.4090
 5955TIP3   OH239279   5.229   5.319  17.137  0.1267  0.6621 -0.0944
 5955TIP3    H139280   5.172   5.252  17.100  0.4479  1.8039 -2.7846
 5955TIP3    H239281   5.315   5.276  17.143 -0.1769  0.1178  0.4037
 5956TIP3   OH239282   5.874   1.796   5.674  0.3593 -0.4428 -0.2526
 5956TIP3    H139283   5.809   1.834   5.732 -0.8768 -2.5105 -0.2261
 5956TIP3    H239284   5.947   1.772   5.731  0.2776 -0.0329  0.0248
 5957TIP3   OH239285   5.293   6.436   4.140 -0.3159  0.1496 -0.1734
 5957TIP3    H139286   5.332   6.519   4.114  0.0285  0.1254  0.2846
 5957TIP3    H239287   5.213   6.460   4.187  0.2050  0.2327  0.6605
 5958TIP3   OH239288   4.657   0.787   5.753  0.3417  0.3240  0.1885
 5958TIP3    H139289   4.568   0.753   5.754  0.9022 -1.1663  2.1691
 5958TIP3    H239290   4.702   0.736   5.686  0.4327 -0.9198  1.1773
 5959TIP3   OH239291   2.492   1.988  13.425  0.0926  0.0266 -0.1305
 5959TIP3    H139292   2.509   1.943  13.342  0.0771 -0.7383  0.2710
 5959TIP3    H239293   2.426   1.934  13.468 -1.8875  1.8604 -0.7801
 5960TIP3   OH239294   3.927   5.619  16.959 -0.3741  0.0985 -0.8733
 5960TIP3    H139295   4.017   5.586  16.957 -0.0642  0.9257 -0.5605
 5960TIP3    H239296   3.936   5.714  16.961 -1.2562  0.1824 -0.6999
 5961TIP3   OH239297   6.716   2.415   5.552 -0.5016  0.0766  0.3274
 5961TIP3    H139298   6.766   2.461   5.484 -1.3299 -0.1591 -0.4463
 5961TIP3    H239299   6.765   2.333   5.565 -0.1283  0.2911  0.2923
 5962TIP3   OH239300   0.432   4.951  13.770  0.1357 -0.6411 -0.1292
 5962TIP3    H139301   0.344   4.968  13.805  0.1033  0.3880 -0.6673
 5962TIP3    H239302   0.427   4.863  13.732  0.8413 -2.8169  4.5046
 5963TIP3   OH239303   0.183   5.482  16.073 -0.2969  0.2589  0.3613
 5963TIP3    H139304   0.221   5.396  16.092  1.1536  1.0763  1.2641
 5963TIP3    H239305   0.175   5.524  16.159  1.0807  1.8624 -0.2732
 5964TIP3   OH239306   6.749   2.499   3.438 -0.1779 -0.1794  0.0451
 5964TIP3    H139307   6.784   2.588   3.434  1.1037 -0.6943 -0.9520
 5964TIP3    H239308   6.727   2.485   3.530  2.7706  0.0209  0.8369
 5965TIP3   OH239309   4.224   6.688  11.986  1.0028 -0.6589  0.1220
 5965TIP3    H139310   4.294   6.723  11.930  0.9660 -0.3699  0.2543
 5965TIP3    H239311   4.144   6.703  11.937  0.8612  0.5376  0.6872
 5966TIP3   OH239312   5.769   2.576  16.061  0.1918  0.3135  0.6234
 5966TIP3    H139313   5.745   2.649  16.004  0.7608 -0.4594 -0.6240
 5966TIP3    H239314   5.687   2.552  16.105 -0.9474 -0.9879 -2.0849
 5967TIP3   OH239315   3.418   5.307  16.546 -0.0498  0.1094 -0.1736
 5967TIP3    H139316   3.489   5.267  16.496 -0.1323 -0.6074  0.2796
 5967TIP3    H239317   3.338   5.281  16.499  0.0050  1.2060 -0.8877
 5968TIP3   OH239318   2.745   3.397  11.628 -0.4106 -0.0322  0.2275
 5968TIP3    H139319   2.757   3.454  11.705  1.9144  0.2364 -0.2955
 5968TIP3    H239320   2.736   3.458  11.555  0.5667 -0.3215 -0.1329
 5969TIP3   OH239321   4.250   1.210  13.560  0.0229 -0.1316  0.6125
 5969TIP3    H139322   4.313   1.144  13.589  0.7119  0.5908  0.7554
 5969TIP3    H239323   4.278   1.232  13.471  0.7429  1.1331  1.1499
 5970TIP3   OH239324   4.532   2.469  13.863  0.0328  0.3791 -0.6977
 5970TIP3    H139325   4.627   2.469  13.871 -0.1008 -0.4931  1.1348
 5970TIP3    H239326   4.502   2.413  13.935 -1.8571  0.5472 -1.3335
 5971TIP3   OH239327   4.194   2.495   1.087 -0.1735 -0.2049 -0.0831
 5971TIP3    H139328   4.148   2.440   1.150  2.0916 -2.5763 -0.4357
 5971TIP3    H239329   4.282   2.506   1.123  0.0973  1.3177 -1.1295
 5972TIP3   OH239330   4.938   5.139  16.263  0.1111  0.2197 -0.5930
 5972TIP3    H139331   4.998   5.082  16.311 -1.0732  1.3497  2.3300
 5972TIP3    H239332   4.983   5.156  16.180  2.2829 -1.6575  0.1376
 5973TIP3   OH239333   2.767   6.606   5.283  0.3670 -0.4889 -0.0267
 5973TIP3    H139334   2.712   6.672   5.241  0.9497  0.9407  1.4086
 5973TIP3    H239335   2.783   6.640   5.371 -0.4650 -3.2098  1.2308
 5974TIP3   OH239336   3.159   3.153   4.206  0.4958 -0.6429  0.1258
 5974TIP3    H139337   3.068   3.127   4.217  0.4974 -0.7114 -0.0262
 5974TIP3    H239338   3.156   3.226   4.145  0.5827 -0.9287 -0.2219
 5975TIP3   OH239339   2.222   3.694  12.755 -0.3204 -0.0885  0.3599
 5975TIP3    H139340   2.196   3.634  12.685  0.5082 -0.0135 -0.0205
 5975TIP3    H239341   2.202   3.647  12.836 -2.5157  0.3431  0.1054
 5976TIP3   OH239342   5.675   4.982  16.843  0.3150 -0.1536 -0.2433
 5976TIP3    H139343   5.743   4.961  16.778 -1.1231  0.1813 -1.9003
 5976TIP3    H239344   5.618   5.044  16.798 -0.9203 -0.2036  1.2311
 5977TIP3   OH239345   1.182   4.538  16.139 -0.3643 -0.0631 -0.1289
 5977TIP3    H139346   1.166   4.632  16.153  0.9830  0.1495  0.0724
 5977TIP3    H239347   1.276   4.527  16.156 -0.9476 -1.8663  2.2268
 5978TIP3   OH239348   2.370   1.430   3.898 -0.3495 -0.2819 -0.8760
 5978TIP3    H139349   2.443   1.368   3.894 -0.4868 -0.3429 -2.9509
 5978TIP3    H239350   2.300   1.388   3.849 -1.5607  0.1046  0.4681
 5979TIP3   OH239351   2.853   6.234   1.287 -0.0853  0.1221  0.3541
 5979TIP3    H139352   2.819   6.181   1.360 -0.6156 -1.3128 -0.9141
 5979TIP3    H239353   2.848   6.324   1.319  1.3938 -0.6087  2.7765
 5980TIP3   OH239354   5.413   3.446  14.451 -0.6032  0.5485 -0.1468
 5980TIP3    H139355   5.338   3.502  14.471 -0.5323  1.0584 -1.2399
 5980TIP3    H239356   5.395   3.411  14.364  1.0184  1.7186 -0.9840
 5981TIP3   OH239357   1.238   5.065  14.597  0.3388 -0.4290  0.0488
 5981TIP3    H139358   1.228   5.114  14.679 -1.4791  1.3302 -1.1811
 5981TIP3    H239359   1.175   5.105  14.538  2.3548 -1.0189 -2.5506
 5982TIP3   OH239360   6.135   3.790   0.897 -0.4733  0.1982  0.1172
 5982TIP3    H139361   6.101   3.710   0.936 -0.5189  0.9118  1.5545
 5982TIP3    H239362   6.061   3.851   0.897 -0.0875  0.6740  0.2297
 5983TIP3   OH239363   0.009   6.018  15.573  0.5015 -0.8172 -0.0651
 5983TIP3    H139364   0.072   6.049  15.637  1.4839 -0.8010 -1.0246
 5983TIP3    H239365   0.059   6.010  15.491 -0.8977 -0.0799 -1.0152
 5984TIP3   OH239366   6.063   4.655  11.305 -0.4597 -0.4605  0.3376
 5984TIP3    H139367   5.998   4.586  11.291 -1.3211  0.3358  0.3269
 5984TIP3    H239368   6.114   4.657  11.224 -0.3848 -1.1284  0.3666
 5985TIP3   OH239369   5.050   2.549  16.970  0.5273 -0.6749 -0.0354
 5985TIP3    H139370   4.999   2.628  16.988  0.2640 -0.5306 -1.3509
 5985TIP3    H239371   4.991   2.493  16.920  1.8116 -0.2714 -2.0653
 5986TIP3   OH239372   2.537   4.018   4.702 -0.1943  0.3500  0.1208
 5986TIP3    H139373   2.612   3.976   4.660  0.2003  1.8228 -0.6661
 5986TIP3    H239374   2.528   3.973   4.786 -0.5021 -2.1026 -1.1733
 5987TIP3   OH239375   0.513   2.397   0.732  0.1527 -0.1897 -0.0942
 5987TIP3    H139376   0.496   2.440   0.649 -0.7419  1.7076  1.0374
 5987TIP3    H239377   0.426   2.380   0.769  0.5317 -1.2100  0.3661
 5988TIP3   OH239378   5.539   5.660  11.586  0.0820 -0.7072 -0.1860
 5988TIP3    H139379   5.538   5.746  11.544  1.4260 -0.6221 -0.0686
 5988TIP3    H239380   5.453   5.652  11.627  0.2675  0.9600  0.5531
 5989TIP3   OH239381   4.443   0.308   1.963 -0.1195  0.1512  0.0580
 5989TIP3    H139382   4.458   0.219   1.930  1.9281  0.0974  1.0153
 5989TIP3    H239383   4.360   0.303   2.009 -1.7809 -0.3959 -2.8590
 5990TIP3   OH239384   4.543   3.555   0.495 -0.1421 -0.0354  0.2687
 5990TIP3    H139385   4.495   3.498   0.435  0.0554 -0.0672  0.1391
 5990TIP3    H239386   4.493   3.637   0.496 -1.0442 -0.5914  1.3178
 5991TIP3   OH239387   4.357   0.821  16.854  0.1398  0.6194  0.5654
 5991TIP3    H139388   4.380   0.914  16.849  1.3118  0.4546  2.6003
 5991TIP3    H239389   4.316   0.811  16.940  1.4466 -1.0563  1.0136
 5992TIP3   OH239390   0.307   5.902   5.901  1.0714  0.6815 -0.3280
 5992TIP3    H139391   0.276   5.845   5.971  1.9257  1.3666  0.6349
 5992TIP3    H239392   0.229   5.922   5.849  0.2027  1.1519  1.1421
 5993TIP3   OH239393   1.588   0.344  13.244 -0.6107 -0.1222  0.8601
 5993TIP3    H139394   1.588   0.411  13.312 -0.1976 -0.5562  1.2953
 5993TIP3    H239395   1.640   0.273  13.281  1.1797  0.3655 -0.6026
 5994TIP3   OH239396   0.547   3.171  12.339 -0.4686 -0.2605 -0.3875
 5994TIP3    H139397   0.544   3.266  12.332  0.7085 -0.1997 -0.1806
 5994TIP3    H239398   0.479   3.140  12.280 -0.6750  0.7027 -0.6526
 5995TIP3   OH239399   4.335   0.683  14.895 -0.3540 -0.3814 -0.7937
 5995TIP3    H139400   4.295   0.597  14.902  0.4650 -0.7268 -0.2186
 5995TIP3    H239401   4.390   0.678  14.817  0.3535 -0.6696 -0.2882
 5996TIP3   OH239402   1.360   4.294   5.008 -0.7153  0.4313 -0.5770
 5996TIP3    H139403   1.270   4.272   5.032 -0.3098  0.6128  1.1938
 5996TIP3    H239404   1.403   4.310   5.092  1.5045 -1.6691 -1.2615
 5997TIP3   OH239405   4.231   1.668  14.396 -0.2020 -0.0520 -0.9108
 5997TIP3    H139406   4.149   1.640  14.437  0.1396  0.8170  0.3829
 5997TIP3    H239407   4.251   1.599  14.332 -1.1421 -1.0384 -0.1501
 5998TIP3   OH239408   3.606   1.853   3.826  0.2312  0.4625 -0.0037
 5998TIP3    H139409   3.692   1.814   3.812 -1.0116 -2.1263 -0.5855
 5998TIP3    H239410   3.578   1.822   3.912 -0.8255 -0.0937 -0.5324
 5999TIP3   OH239411   3.234   4.590   5.437  0.1111  0.1321 -0.2246
 5999TIP3    H139412   3.326   4.610   5.455  0.2162 -0.9900  0.5013
 5999TIP3    H239413   3.197   4.673   5.408  1.4320  0.5207 -0.8320
 6000TIP3   OH239414   3.882   1.167   0.573 -0.7538  0.0648  0.3587
 6000TIP3    H139415   3.817   1.182   0.505 -0.1321  0.6132 -0.1243
 6000TIP3    H239416   3.883   1.248   0.624  0.7426  0.7071 -0.6614
 6001TIP3   OH239417   5.699   2.789  17.012  0.0301  0.0912  0.0777
 6001TIP3    H139418   5.791   2.769  16.992 -0.1109 -1.0800  0.5289
 6001TIP3    H239419   5.700   2.880  17.042  0.8963  0.4027 -0.8389
 6002TIP3   OH239420   6.177   2.510  15.807  0.5477 -0.0944  0.4495
 6002TIP3    H139421   6.260   2.466  15.818  1.1237  1.2941  1.8465
 6002TIP3    H239422   6.114   2.458  15.858  1.0317  0.1281  1.2876
 6003TIP3   OH239423   5.385   4.229   1.165  0.8924  0.5048 -0.0474
 6003TIP3    H139424   5.369   4.193   1.253 -0.1781  1.5166  0.1911
 6003TIP3    H239425   5.460   4.180   1.132 -1.0150 -2.5677 -0.0662
 6004TIP3   OH239426   2.888   0.260   0.114 -0.2365 -0.2863  0.3071
 6004TIP3    H139427   2.795   0.275   0.128 -0.2427  0.4526 -0.5158
 6004TIP3    H239428   2.894   0.226   0.024  0.3177 -0.0190  0.2398
 6005TIP3   OH239429   6.624   1.890   0.460  0.8624  0.6941 -0.3665
 6005TIP3    H139430   6.611   1.799   0.489 -0.0641  0.5794 -1.1346
 6005TIP3    H239431   6.634   1.939   0.542  0.0107  0.1084  0.1000
 6006TIP3   OH239432   1.529   6.773   5.598  0.2090 -0.3227  0.6133
 6006TIP3    H139433   1.553   6.787   5.506 -0.0284  0.2961  0.6453
 6006TIP3    H239434   1.492   6.856   5.626 -1.6642 -1.1558  0.6788
 6007TIP3   OH239435   2.679   1.734   4.431 -0.0491 -0.2496 -0.3129
 6007TIP3    H139436   2.665   1.740   4.526 -2.2010  0.2455 -0.6246
 6007TIP3    H239437   2.676   1.640   4.413  1.1049 -0.3871  0.2130
 6008TIP3   OH239438   6.378   2.655   3.652  0.5406  0.2372 -0.4842
 6008TIP3    H139439   6.392   2.567   3.685 -1.7155  0.3311  0.7869
 6008TIP3    H239440   6.283   2.668   3.655  0.9458  3.4464  1.3832
 6009TIP3   OH239441   2.257   4.052  17.230 -0.4038  0.2254  0.0657
 6009TIP3    H139442   2.174   4.020  17.266  0.2537 -1.5133  0.0794
 6009TIP3    H239443   2.299   3.974  17.195  1.7298  0.9134  1.0480
 6010TIP3   OH239444   0.363   5.434   2.400  0.2230  0.0178  0.0488
 6010TIP3    H139445   0.312   5.380   2.340  0.0809 -2.2338  2.1170
 6010TIP3    H239446   0.436   5.378   2.427  0.5135  1.1171  1.6491
 6011TIP3   OH239447   4.883   3.822  15.722  0.2778 -0.2820 -0.1009
 6011TIP3    H139448   4.832   3.745  15.749  0.8997  0.6011  3.9865
 6011TIP3    H239449   4.816   3.889  15.704 -0.1964  0.1990  3.0672
 6012TIP3   OH239450   0.990   6.325   2.867 -0.0779  0.5069 -0.5877
 6012TIP3    H139451   1.038   6.385   2.924 -0.5472 -0.2079  0.5920
 6012TIP3    H239452   1.004   6.238   2.906 -0.3525 -0.0028 -1.6058
 6013TIP3   OH239453   1.962   6.686  14.740 -0.6289  0.1219 -1.0094
 6013TIP3    H139454   1.961   6.607  14.685 -1.8156  0.7360 -1.9082
 6013TIP3    H239455   1.872   6.694  14.772  0.1498 -0.4433  1.3793
 6014TIP3   OH239456   0.849   4.003  11.012 -0.5981 -0.0628 -0.0688
 6014TIP3    H139457   0.844   4.069  10.943 -0.5045 -1.2188 -1.1931
 6014TIP3    H239458   0.889   3.927  10.970 -1.3735 -1.0892  1.0151
 6015TIP3   OH239459   2.745   6.433   4.676  0.3406  0.0113 -0.2121
 6015TIP3    H139460   2.755   6.386   4.758 -0.1577  0.2555 -0.0085
 6015TIP3    H239461   2.775   6.522   4.694  0.6847 -0.0589 -0.4262
 6016TIP3   OH239462   3.617   6.781   3.484  0.0999  0.6609  0.2981
 6016TIP3    H139463   3.601   6.691   3.515  0.9176  0.5652  0.4441
 6016TIP3    H239464   3.646   6.771   3.394  0.6930  0.7426  0.4777
 6017TIP3   OH239465   0.756   2.445  11.592  0.0813  0.1752  0.3028
 6017TIP3    H139466   0.688   2.433  11.658 -0.4220  1.5989  0.0769
 6017TIP3    H239467   0.839   2.439  11.641 -0.2621  0.1432  0.8813
 6018TIP3   OH239468   0.855   2.034   3.032 -0.3698 -0.3817  0.1154
 6018TIP3    H139469   0.819   2.120   3.008  1.2445  0.1359 -0.4937
 6018TIP3    H239470   0.852   2.032   3.127 -1.4050 -0.0843  0.0953
 6019TIP3   OH239471   3.003   4.939   0.445 -0.3130 -0.0746 -0.2959
 6019TIP3    H139472   2.992   4.860   0.498 -0.9518 -0.1885 -0.5922
 6019TIP3    H239473   2.917   4.954   0.407 -0.5225  1.4770  0.7582
 6020TIP3   OH239474   1.113   4.046   0.173  0.1567 -0.3110 -1.1133
 6020TIP3    H139475   1.165   4.053   0.093  0.2916 -1.5407 -1.1507
 6020TIP3    H239476   1.174   4.069   0.243 -0.0214  0.9914 -1.3703
 6021TIP3   OH239477   2.931   5.952  14.133  0.3412 -0.6148  0.5007
 6021TIP3    H139478   2.896   5.930  14.047  0.6497 -0.6988  0.3966
 6021TIP3    H239479   2.891   6.037  14.154 -1.4324 -1.6228  1.2269
 6022TIP3   OH239480   2.190   3.352  12.726  0.7471  0.1910 -0.5451
 6022TIP3    H139481   2.193   3.264  12.686 -3.6624 -1.1543  1.7766
 6022TIP3    H239482   2.190   3.335  12.820  0.0275  2.7186 -0.0752
 6023TIP3   OH239483   0.678   6.525   4.239  0.2643 -0.1602 -0.0490
 6023TIP3    H139484   0.689   6.609   4.194 -0.4405 -0.8250 -1.4784
 6023TIP3    H239485   0.739   6.530   4.313  0.5673  1.4208 -0.3789
 6024TIP3   OH239486   5.441   1.914  10.926 -0.2587 -0.3498  0.2348
 6024TIP3    H139487   5.366   1.952  10.882 -0.5066 -1.4967 -0.3326
 6024TIP3    H239488   5.442   1.956  11.012 -0.4935  0.9738 -0.4012
 6025TIP3   OH239489   3.678   1.740  16.480 -0.1537 -0.1704  0.0169
 6025TIP3    H139490   3.700   1.649  16.460 -0.3256  0.1952 -1.9263
 6025TIP3    H239491   3.599   1.757  16.429 -1.2996  0.4893  1.9270
 6026TIP3   OH239492   2.291   2.486   0.678  0.3357 -0.4787  0.4750
 6026TIP3    H139493   2.367   2.513   0.730  0.5642 -2.5624  1.2663
 6026TIP3    H239494   2.219   2.483   0.741 -0.1315  0.2436 -0.0179
 6027TIP3   OH239495   4.346   5.678  15.977  0.1310 -0.0473  0.0598
 6027TIP3    H139496   4.329   5.641  16.063  2.7520  2.5980  1.8054
 6027TIP3    H239497   4.385   5.606  15.927  0.0339 -1.1766  1.5940
 6028TIP3   OH239498   2.566   0.318  12.999 -1.0472  0.3090 -0.0904
 6028TIP3    H139499   2.607   0.376  13.063 -1.1267 -1.0259  1.2076
 6028TIP3    H239500   2.534   0.244  13.051  2.7150 -2.9451 -2.1291
 6029TIP3   OH239501   0.150   2.687   2.139  0.3101 -0.0363 -0.4782
 6029TIP3    H139502   0.100   2.766   2.117  0.1792 -0.3635 -1.4052
 6029TIP3    H239503   0.235   2.701   2.096  0.2182 -0.4792 -0.8083
 6030TIP3   OH239504   4.364   3.793   3.197 -0.4106 -0.3098 -0.0869
 6030TIP3    H139505   4.271   3.814   3.190 -0.4495 -0.9955 -1.9060
 6030TIP3    H239506   4.389   3.821   3.285 -2.4000 -0.3789  0.5117
 6031TIP3   OH239507   5.308   4.022   1.658  0.4406  0.1471  0.6510
 6031TIP3    H139508   5.379   4.046   1.717  1.4170 -0.1245 -0.3880
 6031TIP3    H239509   5.301   3.927   1.665 -0.2866  0.2379  1.2572
 6032TIP3   OH239510   4.946   4.104   5.859 -0.1525 -0.0803 -0.4605
 6032TIP3    H139511   4.946   4.190   5.901 -0.1275  0.1932 -1.0252
 6032TIP3    H239512   4.930   4.121   5.767 -0.8698 -0.7391 -0.4698
 6033TIP3   OH239513   0.092   4.008  11.510  0.6232  0.7852  0.4016
 6033TIP3    H139514   0.085   4.093  11.466  0.9004  1.0831  0.9348
 6033TIP3    H239515   0.058   4.023  11.598 -0.9221 -0.0689 -0.0287
 6034TIP3   OH239516   2.691   2.931  12.872  0.4696  0.2686 -0.4484
 6034TIP3    H139517   2.656   3.020  12.880  0.8204  0.3645  0.0948
 6034TIP3    H239518   2.619   2.880  12.836  0.7054  1.0501 -2.0912
 6035TIP3   OH239519   2.984   1.716   5.566 -0.5707 -0.5320 -0.1573
 6035TIP3    H139520   2.995   1.811   5.572 -0.3283 -0.5306 -0.6348
 6035TIP3    H239521   3.068   1.680   5.594 -1.0779 -0.6429  1.2858
 6036TIP3   OH239522   4.940   1.954   0.451 -0.0108 -0.8664  0.4459
 6036TIP3    H139523   4.991   2.035   0.442  0.5974 -1.1217  1.4553
 6036TIP3    H239524   4.891   1.947   0.370 -2.7408  2.3414  1.7263
 6037TIP3   OH239525   1.358   0.167  12.620  0.1783 -0.8130 -0.4580
 6037TIP3    H139526   1.424   0.099  12.634  0.4504 -0.5793 -0.5738
 6037TIP3    H239527   1.397   0.246  12.657  0.1883 -0.5614 -0.9946
 6038TIP3   OH239528   2.741   5.894   1.676 -0.0107 -0.4893 -0.3950
 6038TIP3    H139529   2.646   5.885   1.678  0.0296 -1.3529 -1.9514
 6038TIP3    H239530   2.768   5.885   1.767 -1.5196  0.9187  0.2109
 6039TIP3   OH239531   4.545   4.253   5.091  0.7857  0.0951 -0.3016
 6039TIP3    H139532   4.562   4.339   5.130  1.4584  0.4826 -1.4038
 6039TIP3    H239533   4.628   4.207   5.098  0.1564 -0.8325  1.1571
 6040TIP3   OH239534   6.320   1.878  16.467  0.2835 -0.6398  0.5901
 6040TIP3    H139535   6.317   1.927  16.385  0.4105 -0.2585  0.8161
 6040TIP3    H239536   6.353   1.940  16.532  1.2752 -1.2539  0.7003
 6041TIP3   OH239537   5.546   6.601  11.415 -0.9060 -0.1297  0.0509
 6041TIP3    H139538   5.591   6.623  11.497 -0.6876 -0.3143 -0.0199
 6041TIP3    H239539   5.468   6.554  11.442  0.3027 -2.1680  0.0554
 6042TIP3   OH239540   4.352   0.094  13.114  0.0887 -0.3156 -0.3473
 6042TIP3    H139541   4.370   0.178  13.156  0.1749 -1.1660  1.3734
 6042TIP3    H239542   4.423   0.082  13.052  0.5391  0.4991  0.0093
 6043TIP3   OH239543   5.890   1.050   3.016 -0.4207  0.3851 -0.3806
 6043TIP3    H139544   5.933   1.098   2.945 -0.2630  0.1306 -0.4585
 6043TIP3    H239545   5.820   1.000   2.972 -0.0388 -0.1194 -0.4244
 6044TIP3   OH239546   6.729   1.248  13.085 -0.4446 -0.0601 -0.4393
 6044TIP3    H139547   6.794   1.186  13.052 -2.5739 -2.3084 -0.4708
 6044TIP3    H239548   6.680   1.199  13.150 -0.3112  2.4864  1.6571
 6045TIP3   OH239549   6.373   6.132   0.365 -0.0427 -0.2785  0.1456
 6045TIP3    H139550   6.341   6.093   0.284  1.0594 -0.2448 -0.3086
 6045TIP3    H239551   6.310   6.104   0.431 -0.2175 -1.4018 -0.4776
 6046TIP3   OH239552   4.252   4.159   0.552  0.0898 -0.5004 -0.1986
 6046TIP3    H139553   4.234   4.117   0.636  0.2652 -1.1021 -0.4642
 6046TIP3    H239554   4.209   4.103   0.487 -0.8539  0.4715 -0.4346
 6047TIP3   OH239555   2.517   6.596   2.522 -1.2712 -1.0085  0.1169
 6047TIP3    H139556   2.439   6.615   2.470 -0.9973  0.6275  0.3020
 6047TIP3    H239557   2.516   6.500   2.531 -0.7956 -1.4686 -3.7294
 6048TIP3   OH239558   4.071   2.686   3.033  0.4194  0.4724  0.3099
 6048TIP3    H139559   4.020   2.768   3.030  3.3565  2.3935  0.8913
 6048TIP3    H239560   4.109   2.685   3.121 -0.9588 -2.4723  0.9481
 6049TIP3   OH239561   2.511   4.269  10.590  0.4405  0.2999 -0.2436
 6049TIP3    H139562   2.606   4.275  10.597  0.2089  1.4057  2.8605
 6049TIP3    H239563   2.487   4.341  10.531  1.3474  1.5856  0.9326
 6050TIP3   OH239564   1.448   5.197   3.429 -0.3447  0.2239 -1.1601
 6050TIP3    H139565   1.510   5.165   3.495 -0.4087  2.7180  0.1203
 6050TIP3    H239566   1.502   5.247   3.368 -0.7869  0.5656 -1.2710
 6051TIP3   OH239567   0.052   5.655  15.231  0.1407 -0.1845  0.1914
 6051TIP3    H139568   0.029   5.571  15.191  1.5419 -0.3110 -0.3711
 6051TIP3    H239569   0.121   5.635  15.294  0.0511  0.4589  0.5068
 6052TIP3   OH239570   4.344   2.398   6.034 -0.0350  0.2293  0.3656
 6052TIP3    H139571   4.345   2.312   6.076  1.2572  0.4579  0.8191
 6052TIP3    H239572   4.318   2.380   5.944  1.3118 -0.7749  0.1636
 6053TIP3   OH239573   5.579   0.763  13.356 -0.0733  0.3750  0.2270
 6053TIP3    H139574   5.569   0.695  13.290  0.9163  1.3935 -1.0130
 6053TIP3    H239575   5.673   0.782  13.357 -0.3307  1.7194  0.5238
 6054TIP3   OH239576   6.027   3.218  12.660 -0.5550 -0.5525  0.0472
 6054TIP3    H139577   5.992   3.251  12.743 -0.9980 -0.7432 -0.0596
 6054TIP3    H239578   5.964   3.247  12.594 -2.0993 -3.3861  0.1948
 6055TIP3   OH239579   2.144   4.351  12.701 -0.9386 -0.2339 -0.4656
 6055TIP3    H139580   2.063   4.337  12.750  0.0668 -1.7548  0.8203
 6055TIP3    H239581   2.157   4.446  12.704 -1.8992 -0.1216  0.6084
 6056TIP3   OH239582   6.691   1.715  15.579 -0.4522 -0.1420 -0.1616
 6056TIP3    H139583   6.711   1.755  15.494  0.7016  0.5830  0.4351
 6056TIP3    H239584   6.656   1.786  15.632  0.3676 -0.2031  0.4837
 6057TIP3   OH239585   5.103   0.213  15.436 -0.0931  0.2252  0.3020
 6057TIP3    H139586   5.091   0.305  15.458  1.0176 -0.0942  2.3296
 6057TIP3    H239587   5.187   0.190  15.474 -0.7048 -1.8387  0.4657
 6058TIP3   OH239588   0.483   0.510  12.520 -0.8933  0.3662  0.3049
 6058TIP3    H139589   0.465   0.497  12.613 -1.9496 -1.8035 -0.1761
 6058TIP3    H239590   0.398   0.531  12.482 -0.9901 -1.6068 -0.6177
 6059TIP3   OH239591   5.925   2.915   5.028  0.2994 -0.2573 -0.0319
 6059TIP3    H139592   6.001   2.913   4.971 -0.4587 -1.2867 -1.0362
 6059TIP3    H239593   5.942   2.987   5.089  1.2456  0.6813 -1.3827
 6060TIP3   OH239594   6.223   0.978  16.419 -0.1970  0.3855  0.0641
 6060TIP3    H139595   6.141   0.969  16.468 -0.1782  1.6449  0.3468
 6060TIP3    H239596   6.255   0.888  16.408 -1.5524 -0.1044  0.0598
 6061TIP3   OH239597   5.034   0.558   2.734  0.4483 -0.4111  0.0823
 6061TIP3    H139598   4.990   0.598   2.659  1.3879  1.0585  0.2814
 6061TIP3    H239599   5.126   0.556   2.709  0.6027 -1.0768  0.6936
 6062TIP3   OH239600   2.915   4.041   1.440 -0.2862  0.2858  0.0871
 6062TIP3    H139601   2.929   4.119   1.387  0.5120 -1.1601 -1.8753
 6062TIP3    H239602   2.826   4.013   1.419 -0.7568  0.9359  1.1733
 6063TIP3   OH239603   2.086   6.513   2.683 -0.3225 -0.2468 -0.3495
 6063TIP3    H139604   2.019   6.556   2.737 -0.0427 -0.4689  0.1795
 6063TIP3    H239605   2.044   6.433   2.653  0.3215 -1.3155  1.5149
 6064TIP3   OH239606   4.738   3.891   0.270  0.1467  0.1493 -0.0564
 6064TIP3    H139607   4.750   3.847   0.354 -0.7588 -0.6834 -0.3660
 6064TIP3    H239608   4.808   3.957   0.267  1.6498 -1.4071  0.3126
 6065TIP3   OH239609   6.220   1.372   0.115  0.4824  0.0355  0.3342
 6065TIP3    H139610   6.174   1.354   0.033  0.0043  1.5768  0.2518
 6065TIP3    H239611   6.153   1.410   0.172  0.8604 -0.8483  1.3895
 6066TIP3   OH239612   6.752   2.695   3.805 -0.0648  0.5622 -0.3204
 6066TIP3    H139613   6.678   2.756   3.798  0.3863  1.2588  0.9528
 6066TIP3    H239614   6.724   2.618   3.756 -1.1429  1.3019 -0.8885
 6067TIP3   OH239615   6.131   2.530  14.949  0.5496 -0.6090 -0.0071
 6067TIP3    H139616   6.151   2.456  14.892 -0.4540 -0.5262 -0.4719
 6067TIP3    H239617   6.190   2.600  14.920 -0.4926 -0.3190 -1.4634
 6068TIP3   OH239618   4.795   6.416   1.850 -0.2890  0.4478  0.6135
 6068TIP3    H139619   4.889   6.404   1.842 -0.2237  1.3473 -0.0198
 6068TIP3    H239620   4.757   6.338   1.809  0.1255  2.1174 -3.0836
 6069TIP3   OH239621   1.563   4.059   5.412  0.5070 -0.0024 -0.3127
 6069TIP3    H139622   1.535   4.009   5.489 -3.0476 -0.2301 -1.6335
 6069TIP3    H239623   1.636   4.111   5.443  1.9856 -3.3059  2.0586
 6070TIP3   OH239624   1.014   0.800  13.316 -0.4195  0.4145  0.1301
 6070TIP3    H139625   0.997   0.763  13.402  1.1543 -0.4501  0.0804
 6070TIP3    H239626   1.074   0.739  13.274 -1.2359  0.7745 -1.6209
 6071TIP3   OH239627   6.786   4.842  15.459  0.0745 -0.1452  0.5322
 6071TIP3    H139628   6.704   4.793  15.462 -0.5006  0.8581  1.3283
 6071TIP3    H239629   6.827   4.825  15.544  1.1378 -1.3693 -0.1975
 6072TIP3   OH239630   0.506   3.075  15.434  0.4131  0.1019  0.0551
 6072TIP3    H139631   0.543   3.046  15.518  0.6600 -0.2301 -0.1687
 6072TIP3    H239632   0.547   3.018  15.369 -1.1607 -0.8699 -0.1034
 6073TIP3   OH239633   2.364   6.385   5.685  0.0608  0.1879 -0.2527
 6073TIP3    H139634   2.312   6.420   5.758 -1.7953  0.2475 -1.5595
 6073TIP3    H239635   2.375   6.292   5.706 -1.0393  0.0583 -0.1921
 6074TIP3   OH239636   3.299   6.166   1.543 -0.2647  0.4709  0.1440
 6074TIP3    H139637   3.348   6.238   1.584 -0.5833  1.4762 -1.2135
 6074TIP3    H239638   3.232   6.209   1.490  0.1403 -0.8004 -1.4384
 6075TIP3   OH239639   3.093   5.199  13.156 -0.3218 -0.3286 -0.3173
 6075TIP3    H139640   3.033   5.207  13.230 -0.2519  1.4683 -0.4389
 6075TIP3    H239641   3.152   5.128  13.180 -0.1441  0.4014  1.4650
 6076TIP3   OH239642   5.953   1.739   4.870 -0.2997 -0.3908 -0.0385
 6076TIP3    H139643   5.994   1.693   4.944  0.0102  0.0420  0.0599
 6076TIP3    H239644   5.965   1.832   4.890 -0.0641 -0.2738 -0.7168
 6077TIP3   OH239645   3.261   1.802  17.084  0.0791 -0.6103 -0.6851
 6077TIP3    H139646   3.347   1.839  17.064 -1.3183  2.0693 -2.0160
 6077TIP3    H239647   3.245   1.740  17.013  0.9175 -1.1743 -0.3971
 6078TIP3   OH239648   4.510   0.367   1.368 -0.0750 -0.2493 -0.3179
 6078TIP3    H139649   4.596   0.346   1.331 -0.4855  0.7573 -1.9191
 6078TIP3    H239650   4.450   0.357   1.294 -1.3876 -1.2586  0.8707
 6079TIP3   OH239651   5.300   2.982  11.270  0.0022 -0.3447 -0.2582
 6079TIP3    H139652   5.350   2.941  11.199  0.1837 -0.0208 -0.3154
 6079TIP3    H239653   5.278   3.069  11.237 -2.1302 -1.1129 -0.9582
 6080TIP3   OH239654   4.015   2.799  12.921  0.4587 -0.3731  0.5714
 6080TIP3    H139655   3.933   2.754  12.940  0.4228 -1.1922 -1.4166
 6080TIP3    H239656   4.077   2.763  12.985 -0.1489 -1.5086  0.5387
 6081TIP3   OH239657   5.742   1.765   4.019 -0.0389  0.4059  0.1099
 6081TIP3    H139658   5.665   1.759   3.964  0.1627 -0.3805 -0.0903
 6081TIP3    H239659   5.798   1.692   3.992  1.0528  1.3200 -0.1777
 6082TIP3   OH239660   1.767   2.406   4.400 -0.4643  0.1572  0.5057
 6082TIP3    H139661   1.816   2.397   4.481  0.7004 -0.3335 -0.2463
 6082TIP3    H239662   1.759   2.501   4.387 -1.2044  0.2406  1.5045
 6083TIP3   OH239663   4.376   6.112   1.695 -0.1346  0.1654  0.0040
 6083TIP3    H139664   4.419   6.027   1.706  0.6876  0.2505 -2.1358
 6083TIP3    H239665   4.446   6.175   1.712 -0.2187  0.3615 -0.3787
 6084TIP3   OH239666   1.969   0.607  12.056  0.3201  0.4469  0.1216
 6084TIP3    H139667   2.022   0.681  12.087 -1.8689  1.4949  1.5228
 6084TIP3    H239668   1.882   0.624  12.092 -0.9689 -1.2328 -2.1241
 6085TIP3   OH239669   2.944   3.771  13.520  0.2912 -0.4267 -0.2746
 6085TIP3    H139670   2.989   3.781  13.604  1.5962 -0.9158 -0.8953
 6085TIP3    H239671   3.000   3.710  13.471 -0.2237  0.2072 -1.6582
 6086TIP3   OH239672   1.944   4.540   1.335  0.0677  0.1296 -0.0232
 6086TIP3    H139673   1.867   4.489   1.361  0.2610  0.1367  0.5764
 6086TIP3    H239674   1.913   4.594   1.262 -0.8283  1.0216  0.9892
 6087TIP3   OH239675   5.039   2.698  16.684  0.1544 -0.3771  0.0105
 6087TIP3    H139676   5.135   2.700  16.682  0.1450  0.1766  0.1092
 6087TIP3    H239677   5.017   2.610  16.654  0.7522 -1.0854  1.5464
 6088TIP3   OH239678   1.463   2.261   2.176  0.0937  0.2998  0.7757
 6088TIP3    H139679   1.382   2.230   2.135 -0.3981 -0.8599  2.5677
 6088TIP3    H239680   1.503   2.318   2.111 -1.7532  0.2139 -0.4498
 6089TIP3   OH239681   1.066   3.985   5.106 -0.2914 -1.2495 -0.3288
 6089TIP3    H139682   0.993   4.031   5.147 -0.6485 -2.5407  0.4994
 6089TIP3    H239683   1.139   3.996   5.167 -0.2457 -1.3861 -0.3580
 6090TIP3   OH239684   2.626   3.674   2.924  0.4214 -0.9067  0.3821
 6090TIP3    H139685   2.682   3.729   2.980 -0.9587  0.2019  0.7120
 6090TIP3    H239686   2.537   3.705   2.941 -0.0750 -0.8200 -2.1280
 6091TIP3   OH239687   2.049   3.823   4.848 -0.1192 -0.2275  0.4389
 6091TIP3    H139688   2.065   3.897   4.789 -0.5959  1.0393  1.8700
 6091TIP3    H239689   2.109   3.754   4.817  1.3396  1.2281 -0.0314
 6092TIP3   OH239690   3.830   3.808  16.097 -0.5840 -0.0677  0.0882
 6092TIP3    H139691   3.804   3.847  16.181  0.8011 -1.0411  0.9996
 6092TIP3    H239692   3.848   3.717  16.118  1.4048  0.0664 -0.9187
 6093TIP3   OH239693   2.099   2.471  13.554 -0.9214 -0.0226  0.3048
 6093TIP3    H139694   2.048   2.531  13.499 -0.5409  0.7160  0.7436
 6093TIP3    H239695   2.152   2.529  13.609  1.0048 -0.7864 -0.7164
 6094TIP3   OH239696   1.203   3.164   3.058  0.4556 -0.4590 -0.4491
 6094TIP3    H139697   1.210   3.075   3.024  1.0883 -0.3320 -0.6565
 6094TIP3    H239698   1.192   3.219   2.981 -2.6126 -0.6108 -0.1668
 6095TIP3   OH239699   2.476   0.563   3.852 -0.3947  0.5378 -0.2442
 6095TIP3    H139700   2.493   0.540   3.761  0.0994  0.0131 -0.0193
 6095TIP3    H239701   2.427   0.489   3.888  0.9202 -0.0376  0.3893
 6096TIP3   OH239702   2.576   0.864   1.690  0.3446  0.1132 -0.1127
 6096TIP3    H139703   2.577   0.770   1.674 -0.6848  0.4036 -2.0799
 6096TIP3    H239704   2.577   0.903   1.603 -2.9392  1.8680  0.5766
 6097TIP3   OH239705   1.692   5.224   0.545 -0.2370  0.0038  0.6402
 6097TIP3    H139706   1.740   5.148   0.511  0.4816  1.4100 -1.6175
 6097TIP3    H239707   1.759   5.291   0.558 -1.3030  1.3923 -0.8015
 6098TIP3   OH239708   0.488   2.390  10.304 -0.5746  0.2142 -0.4247
 6098TIP3    H139709   0.501   2.477  10.268  1.1780  0.2286  0.2051
 6098TIP3    H239710   0.573   2.346  10.294 -1.1804 -1.1159  0.0788
 6099TIP3   OH239711   1.947   1.078  11.846  0.2707 -0.3350 -0.4766
 6099TIP3    H139712   1.987   1.065  11.932 -1.1509  0.0784  0.2682
 6099TIP3    H239713   1.922   0.990  11.818  0.8059 -0.4796 -0.4927
 6100TIP3   OH239714   5.534   3.195  16.026  0.1733  0.5372  0.0918
 6100TIP3    H139715   5.549   3.228  16.114 -1.4963 -0.2777  0.7070
 6100TIP3    H239716   5.613   3.145  16.004  1.2251  1.9903  0.5166
 6101TIP3   OH239717   0.084   1.517   0.817  0.6868  0.1738 -0.3768
 6101TIP3    H139718   0.062   1.424   0.828  0.3767  0.2772 -0.1123
 6101TIP3    H239719   0.032   1.545   0.742 -0.5988  0.5827  0.6510
 6102TIP3   OH239720   0.736   1.894   1.550 -0.0204 -0.4676 -0.3350
 6102TIP3    H139721   0.695   1.973   1.512  1.5093  0.4290 -0.1577
 6102TIP3    H239722   0.741   1.913   1.644  1.9215 -0.0374 -0.5112
 6103TIP3   OH239723   1.352   1.176   3.613 -0.0062 -0.0879 -0.1067
 6103TIP3    H139724   1.442   1.198   3.589 -0.8739  1.9720 -1.6092
 6103TIP3    H239725   1.302   1.191   3.533 -1.7254 -0.9849  0.7883
 6104TIP3   OH239726   5.779   5.126   1.073 -0.4132 -0.4319  0.2546
 6104TIP3    H139727   5.705   5.163   1.121 -1.1517  0.0018 -1.1939
 6104TIP3    H239728   5.856   5.159   1.118 -1.0766  1.9355 -0.2918
 6105TIP3   OH239729   5.072   3.250   3.957  0.4850  0.1858  0.4183
 6105TIP3    H139730   5.077   3.339   3.922  1.3131 -1.0028 -2.6982
 6105TIP3    H239731   4.987   3.217   3.926  1.0465 -0.7597 -0.1473
 6106TIP3   OH239732   0.019   1.140  15.800 -0.1522 -0.4539 -0.0014
 6106TIP3    H139733   0.092   1.181  15.847 -0.2402  0.0491 -0.3039
 6106TIP3    H239734   0.026   1.174  15.711  1.1870 -2.9229 -0.8728
 6107TIP3   OH239735   1.163   2.711   0.237  0.1876 -0.3406  0.2481
 6107TIP3    H139736   1.092   2.739   0.180 -0.2898 -0.3111  0.8460
 6107TIP3    H239737   1.240   2.761   0.207 -0.2051  0.1538  0.0569
 6108TIP3   OH239738   5.917   0.343   0.949  0.7462 -0.4285  0.1329
 6108TIP3    H139739   5.844   0.290   0.917  0.1183  0.6040 -0.1651
 6108TIP3    H239740   5.891   0.433   0.931  0.2865  0.2025  3.6650
 6109TIP3   OH239741   5.105   5.162  16.045 -0.2567  0.3502 -0.1158
 6109TIP3    H139742   5.166   5.088  16.048 -3.3099 -2.1946  1.3645
 6109TIP3    H239743   5.073   5.162  15.955  0.2635  0.3297 -0.3054
 6110TIP3   OH239744   4.528   4.474  16.315 -0.1162  0.3206  0.4921
 6110TIP3    H139745   4.529   4.379  16.303 -1.1968 -0.2795  4.4790
 6110TIP3    H239746   4.621   4.500  16.312  0.2264 -0.9365  0.0881
 6111TIP3   OH239747   2.571   4.895   2.156 -0.0886  0.5944  0.1757
 6111TIP3    H139748   2.480   4.868   2.143 -0.4414  2.1310 -0.5772
 6111TIP3    H239749   2.597   4.853   2.238 -0.9334 -1.2359 -0.4744
 6112TIP3   OH239750   0.939   0.294   3.253 -0.2867  0.6638 -0.2851
 6112TIP3    H139751   0.912   0.375   3.210  0.1111  1.2423  0.5327
 6112TIP3    H239752   1.035   0.299   3.254 -0.3190  1.1916  1.6423
 6113TIP3   OH239753   4.747   6.468  16.804 -0.3078 -0.3919  0.1277
 6113TIP3    H139754   4.693   6.515  16.867 -0.8220 -1.0831  0.2115
 6113TIP3    H239755   4.730   6.375  16.822  0.4038 -0.6067 -0.2771
 6114TIP3   OH239756   5.199   4.193  10.621 -0.1790 -0.0832  0.3169
 6114TIP3    H139757   5.281   4.214  10.578 -0.0353 -1.6648 -0.2113
 6114TIP3    H239758   5.222   4.128  10.688 -0.9907 -0.5737  0.1370
 6115TIP3   OH239759   0.424   2.839   1.579  0.0700 -0.2033 -0.7489
 6115TIP3    H139760   0.422   2.891   1.499  1.4254 -0.5840 -1.0488
 6115TIP3    H239761   0.338   2.853   1.619 -0.0351  1.2791 -1.4394
 6116TIP3   OH239762   4.336   2.998   4.743  0.0298 -0.6615 -0.3625
 6116TIP3    H139763   4.338   3.058   4.818 -0.4885 -0.1869 -0.7234
 6116TIP3    H239764   4.386   3.042   4.675 -1.5873  0.0378 -1.1192
 6117TIP3   OH239765   3.940   2.192  16.382  0.0549 -0.6570  0.4390
 6117TIP3    H139766   3.914   2.115  16.432  1.7041 -0.3204  1.8660
 6117TIP3    H239767   4.035   2.186  16.375  0.2029  1.1777  0.4395
 6118TIP3   OH239768   6.477   1.478  15.109  0.0434  0.0277 -0.2521
 6118TIP3    H139769   6.415   1.550  15.100  0.8631  0.5334 -1.9199
 6118TIP3    H239770   6.427   1.410  15.155 -1.9793  0.1622 -2.1622
 6119TIP3   OH239771   4.941   2.142   2.171 -0.2302  0.1192  0.0378
 6119TIP3    H139772   4.872   2.082   2.144  1.0560 -1.9193  1.1300
 6119TIP3    H239773   4.959   2.196   2.094 -0.7021 -1.6008 -1.2890
 6120TIP3   OH239774   6.231   3.566  12.035  0.4949  0.0149 -0.1409
 6120TIP3    H139775   6.325   3.565  12.015  0.5805  0.9347  0.2448
 6120TIP3    H239776   6.197   3.641  11.986  0.0579  0.0254  0.1818
 6121TIP3   OH239777   3.015   5.615  14.203 -0.2126  0.1722 -0.3169
 6121TIP3    H139778   3.042   5.526  14.224 -1.1655 -0.5834 -2.1633
 6121TIP3    H239779   3.075   5.642  14.133  0.4756  1.2389  0.6543
 6122TIP3   OH239780   2.904   2.444  11.864 -0.7475 -0.2476 -0.1925
 6122TIP3    H139781   2.869   2.531  11.883 -0.0170  0.1369 -0.5845
 6122TIP3    H239782   2.854   2.414  11.788 -0.5279  0.1214 -0.4861
 6123TIP3   OH239783   6.320   4.421  12.174 -0.0222  0.2467  0.6069
 6123TIP3    H139784   6.343   4.490  12.112 -1.7089 -0.7630 -1.1871
 6123TIP3    H239785   6.224   4.423  12.178  0.0245 -0.2456  2.5781
 6124TIP3   OH239786   5.642   0.844  12.593 -0.0380  0.0520 -0.1935
 6124TIP3    H139787   5.624   0.751  12.579 -1.5606  0.2811  0.1409
 6124TIP3    H239788   5.663   0.877  12.506  2.5129 -1.0072 -0.0175
 6125TIP3   OH239789   4.792   1.395   2.566 -0.4860 -0.4018  0.8593
 6125TIP3    H139790   4.715   1.338   2.570 -1.0067  0.3187  1.2497
 6125TIP3    H239791   4.756   1.484   2.576  0.3242 -0.0155  0.3338
 6126TIP3   OH239792   1.408   5.767   0.051  0.4025  0.7724  0.4982
 6126TIP3    H139793   1.389   5.790  -0.040 -1.2814 -0.1249  0.6164
 6126TIP3    H239794   1.442   5.677   0.047  0.1512  0.6628  0.7701
 6127TIP3   OH239795   4.514   3.297   2.161 -0.3271 -0.0690 -0.0389
 6127TIP3    H139796   4.573   3.279   2.234 -0.9705  0.1746  0.5488
 6127TIP3    H239797   4.458   3.220   2.156 -0.0200 -0.2646 -0.5440
 6128TIP3   OH239798   5.908   0.118   3.228  0.5115 -0.5628  0.1246
 6128TIP3    H139799   5.871   0.173   3.297 -2.2181 -0.2867 -1.4706
 6128TIP3    H239800   5.921   0.033   3.269  0.9448  0.1927  1.5558
 6129TIP3   OH239801   3.325   5.432  14.358 -0.3511 -0.0083  0.4634
 6129TIP3    H139802   3.365   5.397  14.437  1.8660  0.1358 -0.5721
 6129TIP3    H239803   3.398   5.455  14.301 -1.8761  1.1308 -1.1129
 6130TIP3   OH239804   3.850   4.791  16.507  0.1196 -0.0227 -0.2876
 6130TIP3    H139805   3.918   4.859  16.514  2.2835 -2.2670  1.6994
 6130TIP3    H239806   3.799   4.800  16.587  1.6977 -1.9676  0.9998
 6131TIP3   OH239807   4.855   5.355   0.542 -0.4884  0.0232  0.2015
 6131TIP3    H139808   4.885   5.353   0.633  1.1851 -2.7473 -0.3416
 6131TIP3    H239809   4.774   5.303   0.543  1.0462 -2.4523 -0.3365
 6132TIP3   OH239810   2.904   5.962   6.165 -0.5174 -0.1444  0.0751
 6132TIP3    H139811   2.866   5.944   6.251 -1.5287 -1.1207 -0.5569
 6132TIP3    H239812   2.975   5.897   6.156  0.5844  0.9489  0.7932
 6133TIP3   OH239813   3.426   5.541   6.177 -0.2991  0.0847  0.0916
 6133TIP3    H139814   3.450   5.497   6.259  2.3413  1.2951  0.0411
 6133TIP3    H239815   3.504   5.533   6.122 -1.2723  1.1553 -1.4965
 6134TIP3   OH239816   4.040   4.894  10.856  0.8654 -0.3941 -0.4312
 6134TIP3    H139817   3.959   4.848  10.831 -0.4599  1.8979 -0.4753
 6134TIP3    H239818   4.078   4.922  10.773 -0.0251  1.3602 -0.2692
 6135TIP3   OH239819   1.652   4.307   3.635  0.4795  0.5215  0.4433
 6135TIP3    H139820   1.725   4.268   3.588 -0.5274  0.7416 -1.3421
 6135TIP3    H239821   1.576   4.288   3.581 -0.2642  3.5298  0.3706
 6136TIP3   OH239822   3.400   5.870   4.038  0.1596  0.0451 -0.0038
 6136TIP3    H139823   3.338   5.798   4.025  0.5070  0.0768 -2.1108
 6136TIP3    H239824   3.346   5.949   4.036  0.2053  0.0726 -1.8307
 6137TIP3   OH239825   1.638   2.422  14.511  0.1009 -0.2067  0.4760
 6137TIP3    H139826   1.638   2.344  14.456 -1.8563 -0.1601  0.3688
 6137TIP3    H239827   1.668   2.392  14.597  0.2712 -0.8914  0.1729
 6138TIP3   OH239828   6.575   1.077  11.675  0.3802  0.7236  0.2914
 6138TIP3    H139829   6.650   1.101  11.621  1.1483  1.0828  1.4903
 6138TIP3    H239830   6.511   1.147  11.659 -0.1145 -0.1084 -1.4979
 6139TIP3   OH239831   3.072   5.517   4.196  0.1477 -0.2574 -0.1537
 6139TIP3    H139832   2.979   5.518   4.218  0.1693 -0.2159 -0.0612
 6139TIP3    H239833   3.117   5.525   4.281  0.2624 -1.9382 -0.0404
 6140TIP3   OH239834   2.091   3.887   0.113  0.9797 -0.4090  0.4838
 6140TIP3    H139835   2.024   3.903   0.179  0.9184 -1.6360  0.7368
 6140TIP3    H239836   2.109   3.793   0.120 -0.0375 -0.8590 -2.1824
 6141TIP3   OH239837   4.034   5.285   0.529 -0.4941  0.0865  0.0501
 6141TIP3    H139838   4.128   5.295   0.545 -0.0964 -0.5283 -1.7891
 6141TIP3    H239839   4.002   5.236   0.605  0.5501  0.8705  1.0004
 6142TIP3   OH239840   2.835   2.966  16.406 -0.4030 -0.0011 -0.2524
 6142TIP3    H139841   2.801   2.877  16.397 -2.3581  0.8293 -1.4455
 6142TIP3    H239842   2.927   2.959  16.383  0.1345 -2.1853  2.2838
 6143TIP3   OH239843   2.056   2.609  16.182 -0.5404 -0.7765  0.1413
 6143TIP3    H139844   2.003   2.607  16.262  0.0445 -0.3877  0.5380
 6143TIP3    H239845   2.112   2.685  16.192 -0.4736 -0.7169 -0.6526
 6144TIP3   OH239846   4.132   5.611   0.379 -0.1889  0.4430  0.1183
 6144TIP3    H139847   4.073   5.544   0.346  1.1026 -0.2752 -0.7432
 6144TIP3    H239848   4.191   5.564   0.439 -0.7023  1.2159  1.2491
 6145TIP3   OH239849   6.132   1.731  13.017 -0.1361  0.9665  0.1181
 6145TIP3    H139850   6.194   1.763  12.951 -0.0471  2.0643  0.7302
 6145TIP3    H239851   6.173   1.651  13.051 -1.0207 -0.6037 -2.3929
 6146TIP3   OH239852   6.272   2.206   5.092 -0.0815  0.1603  0.3607
 6146TIP3    H139853   6.236   2.204   5.003 -1.4010  2.1083  0.8089
 6146TIP3    H239854   6.206   2.161   5.145 -1.0671  2.1987  0.9082
 6147TIP3   OH239855   4.276   4.725   1.597  0.4034  0.0775 -0.1508
 6147TIP3    H139856   4.231   4.641   1.601 -0.9878  0.8153 -0.1983
 6147TIP3    H239857   4.268   4.761   1.685  1.2938  0.0263 -0.0376
 6148TIP3   OH239858   4.572   4.340   1.043  0.3168  0.4760 -0.1197
 6148TIP3    H139859   4.538   4.424   1.014 -1.3555 -0.1303  0.0642
 6148TIP3    H239860   4.551   4.336   1.136  0.3111 -0.1764 -0.1451
 6149TIP3   OH239861   1.644   2.166   4.279  0.2411 -0.1740 -0.1605
 6149TIP3    H139862   1.666   2.169   4.186 -1.5234  1.0958 -0.5770
 6149TIP3    H239863   1.658   2.256   4.309  0.3766 -0.4798  0.6931
 6150TIP3   OH239864   4.280   4.980   0.776 -0.1690 -0.4272  0.0138
 6150TIP3    H139865   4.329   4.905   0.809 -0.0892  0.7247  2.6655
 6150TIP3    H239866   4.189   4.964   0.803 -1.0962 -1.8501 -3.6233
 6151TIP3   OH239867   5.065   1.350   5.565  0.0468 -0.0071  0.3090
 6151TIP3    H139868   5.018   1.402   5.499 -0.1590  2.6211  2.4198
 6151TIP3    H239869   5.000   1.287   5.595 -0.3661 -0.1380 -0.8017
 6152TIP3   OH239870   3.446   0.283   4.441 -0.4158 -0.1677  0.1251
 6152TIP3    H139871   3.427   0.377   4.443 -0.0787 -0.0941 -0.1173
 6152TIP3    H239872   3.496   0.266   4.521  0.3834  0.0439 -0.3301
 6153TIP3   OH239873   6.592   4.968  15.743 -0.2553  0.3701 -0.1729
 6153TIP3    H139874   6.627   4.952  15.655  0.1930  2.3942 -0.3761
 6153TIP3    H239875   6.667   4.951  15.801  0.0896  1.2323 -0.3553
 6154TIP3   OH239876   3.883   5.682  12.491 -0.2112 -0.3065  0.2691
 6154TIP3    H139877   3.841   5.597  12.479 -1.3512  0.1747  0.8066
 6154TIP3    H239878   3.906   5.685  12.584  2.1510 -1.0709 -0.2493
 6155TIP3   OH239879   4.529   2.797   1.612 -0.0963  0.4398 -0.0888
 6155TIP3    H139880   4.603   2.854   1.592 -0.7966  0.7756 -1.7785
 6155TIP3    H239881   4.488   2.779   1.527 -1.9930  0.3268  0.8260
 6156TIP3   OH239882   1.619   1.501  11.137  0.4447 -0.0685  0.0279
 6156TIP3    H139883   1.614   1.521  11.230  0.0196 -1.1934  0.2480
 6156TIP3    H239884   1.554   1.558  11.096 -0.1221 -0.3559  0.5389
 6157TIP3   OH239885   4.554   1.463  13.402  0.4192  0.0950  0.1044
 6157TIP3    H139886   4.628   1.523  13.401 -0.0906  0.7603  1.2645
 6157TIP3    H239887   4.495   1.497  13.335  0.8712 -0.0781 -0.3887
 6158TIP3   OH239888   1.051   4.737  14.461  0.1693  0.2420 -0.9932
 6158TIP3    H139889   1.058   4.686  14.542  0.7841  1.2984 -0.3619
 6158TIP3    H239890   0.996   4.812  14.485 -0.3253  0.1248 -1.7748
 6159TIP3   OH239891   1.910   2.960  16.690 -0.5868  0.4302  0.3784
 6159TIP3    H139892   1.847   3.025  16.657  0.5744  1.1500 -0.4561
 6159TIP3    H239893   1.993   2.984  16.650 -0.5031 -2.7967 -1.5236
 6160TIP3   OH239894   1.286   6.241   0.721  0.4988 -0.3941  0.8613
 6160TIP3    H139895   1.371   6.196   0.733  0.2599 -0.5818  1.9634
 6160TIP3    H239896   1.238   6.186   0.659  1.5559  0.2456 -0.5544
 6161TIP3   OH239897   1.898   2.804  13.202 -0.1803 -0.2971 -0.1267
 6161TIP3    H139898   1.845   2.884  13.213  1.7508  1.1825 -1.1976
 6161TIP3    H239899   1.933   2.812  13.113  0.5365 -2.0442 -0.0015
 6162TIP3   OH239900   2.651   4.034   1.011  0.3904 -0.2856  0.2820
 6162TIP3    H139901   2.716   3.968   1.035  0.7204  0.0252  0.2515
 6162TIP3    H239902   2.593   3.990   0.948  0.5528 -0.5727  0.3350
 6163TIP3   OH239903   6.617   3.206  10.466  0.5703 -0.0330 -0.0763
 6163TIP3    H139904   6.557   3.281  10.458 -0.3184 -0.5128  1.8302
 6163TIP3    H239905   6.693   3.241  10.513  0.8862  0.0730 -0.6646
 6164TIP3   OH239906   5.746   3.070  15.842 -0.2231 -0.0789 -0.0888
 6164TIP3    H139907   5.708   3.070  15.754 -0.3552  0.4166 -0.0362
 6164TIP3    H239908   5.822   3.012  15.835 -0.9987 -1.1023 -0.1863
 6165TIP3   OH239909   2.830   5.001  12.061  0.2272 -0.3049  0.2369
 6165TIP3    H139910   2.885   5.006  11.983  2.9929 -0.2011  2.1283
 6165TIP3    H239911   2.890   4.978  12.132 -2.0115  0.6805  2.5504
 6166TIP3   OH239912   1.778   3.457   6.362  0.2732 -0.0837  0.4464
 6166TIP3    H139913   1.815   3.369   6.373 -0.0640 -0.2649  0.1548
 6166TIP3    H239914   1.694   3.454   6.406  0.3907  0.1856  0.6933
 6167TIP3   OH239915   1.664   2.126   4.024 -0.0218 -0.5997 -0.5896
 6167TIP3    H139916   1.737   2.064   4.016  0.4369  0.0837 -1.9836
 6167TIP3    H239917   1.644   2.151   3.933  0.0032  1.5116 -0.0516
 6168TIP3   OH239918   6.255   0.136  14.381 -0.3389  0.0699  0.0767
 6168TIP3    H139919   6.283   0.071  14.445 -0.7891 -0.0329  0.1690
 6168TIP3    H239920   6.168   0.163  14.410  0.2502  1.4363  0.6067
 6169TIP3   OH239921   2.821   3.294   0.407 -0.0974  0.4067  0.4818
 6169TIP3    H139922   2.793   3.360   0.343  0.7299 -1.9833 -2.4648
 6169TIP3    H239923   2.740   3.248   0.431 -0.2538  0.6208  0.3665
 6170TIP3   OH239924   3.171   0.701   4.874 -0.2124 -0.5890  0.5393
 6170TIP3    H139925   3.198   0.745   4.794 -0.9464 -1.2306 -0.0746
 6170TIP3    H239926   3.252   0.674   4.917  0.2085  0.6111  0.4978
 6171TIP3   OH239927   1.187   1.638  15.085  0.2838 -0.4649  0.0274
 6171TIP3    H139928   1.274   1.653  15.048  0.5198  0.6428  1.0044
 6171TIP3    H239929   1.200   1.643  15.180 -0.9872  0.5528  0.1707
 6172TIP3   OH239930   6.036   5.864   3.230  0.0652 -0.0902  0.2477
 6172TIP3    H139931   6.065   5.781   3.193 -1.3902  0.1067 -1.4423
 6172TIP3    H239932   6.074   5.930   3.173 -0.6453  0.3000  0.2145
 6173TIP3   OH239933   2.677   1.067   4.712 -0.5791  0.1844 -0.2300
 6173TIP3    H139934   2.656   1.159   4.728  0.4162  0.6765 -1.6503
 6173TIP3    H239935   2.629   1.045   4.632 -0.1995 -0.3109 -0.3221
 6174TIP3   OH239936   6.676   5.628   2.986 -0.1390  0.6081 -0.0289
 6174TIP3    H139937   6.663   5.533   2.985 -0.4604  0.6278  1.5618
 6174TIP3    H239938   6.699   5.650   2.896  2.6923 -1.3707  0.1376
 6175TIP3   OH239939   1.698   4.590  16.655  0.5152 -0.8418 -1.2145
 6175TIP3    H139940   1.777   4.644  16.665 -0.2766  0.4090 -1.5632
 6175TIP3    H239941   1.651   4.602  16.737 -0.2304 -0.0358 -1.7433
 6176TIP3   OH239942   1.475   0.319   4.722 -0.3521 -0.3774  0.3752
 6176TIP3    H139943   1.542   0.342   4.657 -0.5251  2.0325  0.9922
 6176TIP3    H239944   1.523   0.304   4.803 -0.2962 -1.6954  0.1094
 6177TIP3   OH239945   0.733   0.526  15.207 -0.6870 -0.2905 -0.0799
 6177TIP3    H139946   0.763   0.528  15.116 -0.8646  1.6730 -0.1064
 6177TIP3    H239947   0.784   0.455  15.246 -0.9219 -1.4489 -1.8026
 6178TIP3   OH239948   3.602   2.737   0.464 -0.6530  0.2979  0.5842
 6178TIP3    H139949   3.509   2.721   0.482 -0.8423  1.1340  0.3757
 6178TIP3    H239950   3.617   2.697   0.379 -0.6900 -0.3239  0.8712
 6179TIP3   OH239951   3.997   4.343  11.733  0.0117  0.6589 -0.2836
 6179TIP3    H139952   4.012   4.408  11.664  0.8315  0.8310  0.0418
 6179TIP3    H239953   4.051   4.374  11.807  1.0475 -0.8000 -0.3965
 6180TIP3   OH239954   4.848   0.880   4.807  0.4706  0.1925  0.4483
 6180TIP3    H139955   4.936   0.895   4.772  1.9868 -2.6955  2.8204
 6180TIP3    H239956   4.816   0.805   4.757 -0.2182  0.5593  0.3434
 6181TIP3   OH239957   4.911   0.053  10.447 -0.2363  0.5880 -0.3097
 6181TIP3    H139958   4.913   0.118  10.518 -0.4024  0.1114  0.1336
 6181TIP3    H239959   5.003   0.035  10.428 -0.1909 -0.6062  1.0004
 6182TIP3   OH239960   6.162   0.767  17.164 -0.1746  0.6857 -0.4745
 6182TIP3    H139961   6.116   0.690  17.131  0.6434  0.5582 -1.3804
 6182TIP3    H239962   6.221   0.733  17.232 -0.4260  0.6402 -0.2797
 6183TIP3   OH239963   2.797   1.672   1.791 -0.0678 -0.3243 -0.4243
 6183TIP3    H139964   2.858   1.738   1.827 -0.7099  0.8767 -1.5036
 6183TIP3    H239965   2.784   1.699   1.700 -2.3885 -0.4393 -0.1452
 6184TIP3   OH239966   5.640   4.336   1.557  0.3427 -0.3382  0.1327
 6184TIP3    H139967   5.637   4.411   1.617  1.3421 -0.6498  0.5811
 6184TIP3    H239968   5.604   4.369   1.475  0.7801  0.6415  0.3302
 6185TIP3   OH239969   1.267   5.436   2.907 -0.4021  0.2038  0.2845
 6185TIP3    H139970   1.220   5.362   2.868 -1.9656  0.3920  1.7287
 6185TIP3    H239971   1.328   5.395   2.968 -1.9133  0.0979  1.7706
 6186TIP3   OH239972   6.712   0.188  14.730 -0.0339  0.1303 -0.5776
 6186TIP3    H139973   6.631   0.154  14.766  0.0101 -1.0644 -1.5835
 6186TIP3    H239974   6.781   0.148  14.783 -0.0863  0.7799 -0.0205
 6187TIP3   OH239975   6.397   2.582  12.756 -0.4370 -0.0461  0.6663
 6187TIP3    H139976   6.343   2.573  12.678 -0.6811  0.5556  0.7627
 6187TIP3    H239977   6.396   2.676  12.775  1.0429  0.0309  0.3896
 6188TIP3   OH239978   4.792   0.849  12.312 -0.3354  0.4385 -0.6042
 6188TIP3    H139979   4.719   0.884  12.261 -0.6154 -0.1574 -0.6145
 6188TIP3    H239980   4.824   0.776  12.260 -1.3885 -0.9342  0.6522
 6189TIP3   OH239981   0.909   2.114   3.754  0.3444 -0.2608 -0.2175
 6189TIP3    H139982   0.856   2.178   3.801 -2.4204 -2.3148 -0.3641
 6189TIP3    H239983   0.885   2.125   3.663  1.1211 -0.3448 -0.4320
 6190TIP3   OH239984   6.063   6.579   4.665  0.4559 -0.5026 -0.1084
 6190TIP3    H139985   6.086   6.493   4.700 -0.3401 -1.0315 -0.8817
 6190TIP3    H239986   6.005   6.560   4.591 -1.2757  0.7785  0.9207
 6191TIP3   OH239987   3.453   0.154   2.085 -0.3883  0.0553  0.0048
 6191TIP3    H139988   3.411   0.089   2.030  1.0788 -0.7423 -0.1878
 6191TIP3    H239989   3.413   0.143   2.171  0.2862 -1.5369  0.1286
 6192TIP3   OH239990   2.068   3.810   3.902 -0.0798 -0.0098 -0.1133
 6192TIP3    H139991   2.059   3.850   3.989 -1.1895 -2.8805  1.1648
 6192TIP3    H239992   2.000   3.851   3.849  0.3051  1.4323  0.4858
 6193TIP3   OH239993   4.961   4.541  15.340  0.1181 -0.3436 -0.0454
 6193TIP3    H139994   5.034   4.487  15.312  0.6673  0.1750  0.3623
 6193TIP3    H239995   4.960   4.614  15.278  1.6208  1.0460  1.5038
 6194TIP3   OH239996   6.375   5.513   3.025 -0.1012  0.0630  0.2917
 6194TIP3    H139997   6.463   5.527   3.060 -0.2058  2.3973 -0.2603
 6194TIP3    H239998   6.388   5.516   2.930 -0.6556 -0.4252  0.2033
 6195TIP3   OH239999   3.687   0.657  11.037 -0.0201  0.1063  0.2154
 6195TIP3    H140000   3.614   0.717  11.053 -0.4215 -0.3050 -0.0414
 6195TIP3    H240001   3.657   0.602  10.964  0.3012 -0.4624  0.5045
 6196TIP3   OH240002   2.989   4.952  12.272 -0.4564  0.0774  0.2739
 6196TIP3    H140003   3.027   5.040  12.273 -0.5661  0.1700 -1.4422
 6196TIP3    H240004   3.047   4.900  12.328  0.0759  1.0686  0.6469
 6197TIP3   OH240005   3.449   3.564   4.755  0.7549 -0.4950 -0.4520
 6197TIP3    H140006   3.389   3.634   4.729 -0.1634 -1.0998  0.0166
 6197TIP3    H240007   3.440   3.498   4.686  1.9027  0.0002 -1.0955
 6198TIP3   OH240008   3.142   0.372   0.339 -0.4388  0.0856 -0.2206
 6198TIP3    H140009   3.233   0.358   0.364 -0.4896  0.8232  0.3989
 6198TIP3    H240010   3.145   0.391   0.245  0.1032  0.6964 -0.0772
 6199TIP3   OH240011   2.858   0.605  16.824  0.4400 -0.2586  0.5907
 6199TIP3    H140012   2.917   0.566  16.889 -1.2232 -2.3762  0.8683
 6199TIP3    H240013   2.797   0.657  16.875 -0.9713 -2.0577  0.7817
 6200TIP3   OH240014   2.197   6.483  12.865 -0.8061 -0.4561 -0.2706
 6200TIP3    H140015   2.133   6.443  12.806  0.2645 -2.1760 -0.3275
 6200TIP3    H240016   2.277   6.488  12.813 -0.3142 -0.3756  0.4889
 6201TIP3   OH240017   6.174   1.117  11.297 -0.4015  0.0567 -0.0780
 6201TIP3    H140018   6.187   1.074  11.213  0.1285 -1.7826  0.9071
 6201TIP3    H240019   6.091   1.083  11.329 -1.4151  2.0002 -0.5727
 6202TIP3   OH240020   3.892   2.065   6.068  0.1703  0.4582 -0.1351
 6202TIP3    H140021   3.959   2.113   6.019 -1.6694  4.2175  0.8426
 6202TIP3    H240022   3.921   2.069   6.159  0.1956 -0.6276 -0.0924
 6203TIP3   OH240023   2.949   6.630  15.606 -0.4786  0.0384  0.3957
 6203TIP3    H140024   2.893   6.672  15.671  0.5544  1.9947  0.0704
 6203TIP3    H240025   3.033   6.616  15.651  0.3194  1.6270 -0.5493
 6204TIP3   OH240026   5.429   1.521   4.124 -0.8146  0.5846 -0.3629
 6204TIP3    H140027   5.476   1.438   4.125 -1.0692  0.4402 -0.2631
 6204TIP3    H240028   5.493   1.585   4.155 -0.6898  0.3865 -0.2067
 6205TIP3   OH240029   6.423   2.762   1.088  0.5930 -0.3852  0.8143
 6205TIP3    H140030   6.502   2.816   1.083  0.9788 -1.1191 -1.6480
 6205TIP3    H240031   6.454   2.675   1.114  0.3161 -0.1611  1.9343
 6206TIP3   OH240032   5.441   6.355  16.179 -0.0136 -0.0095 -0.8173
 6206TIP3    H140033   5.356   6.323  16.210  0.3051  0.3803  0.5097
 6206TIP3    H240034   5.420   6.432  16.125 -0.5062  0.0945 -0.4836
 6207TIP3   OH240035   1.532   5.317  16.596  0.3557  0.2132  0.0151
 6207TIP3    H140036   1.486   5.239  16.628 -0.7395  1.1255  0.7273
 6207TIP3    H240037   1.599   5.283  16.538 -0.8756 -1.2005 -0.6289
 6208TIP3   OH240038   1.465   4.553  16.190  0.0195 -0.0469  0.0436
 6208TIP3    H140039   1.520   4.481  16.157 -0.7211  0.0916 -1.5375
 6208TIP3    H240040   1.477   4.550  16.285  0.6831 -1.7061 -0.0679
 6209TIP3   OH240041   1.956   0.346  16.659  0.3336  0.2476 -0.0039
 6209TIP3    H140042   1.914   0.320  16.577 -0.5337 -1.2474  0.8752
 6209TIP3    H240043   2.048   0.324  16.647  0.3930  0.9939 -0.9431
 6210TIP3   OH240044   3.648   0.876  13.643  0.5443 -0.3621  0.3057
 6210TIP3    H140045   3.587   0.890  13.715  2.2389  1.4113  1.4305
 6210TIP3    H240046   3.685   0.789  13.660 -1.0916 -1.1667 -0.0239
 6211TIP3   OH240047   6.578   2.403   6.441  0.1679  0.7888 -0.7337
 6211TIP3    H140048   6.637   2.366   6.376 -2.1301 -2.1171 -1.2800
 6211TIP3    H240049   6.490   2.385   6.408 -1.0553  1.6887  1.8325
 6212TIP3   OH240050   4.999   5.768   2.706 -0.6553  0.5092 -0.8447
 6212TIP3    H140051   5.053   5.823   2.763 -2.1100  1.8069 -0.6968
 6212TIP3    H240052   4.919   5.752   2.757 -1.0652 -0.0839 -1.6741
 6213TIP3   OH240053   6.283   1.860   0.126 -0.1192  0.4092 -0.4224
 6213TIP3    H140054   6.220   1.931   0.116 -1.9280 -0.8436  1.5269
 6213TIP3    H240055   6.251   1.791   0.068 -0.5373 -0.2251  0.5583
 6214TIP3   OH240056   3.127   2.632   6.511 -0.3737  0.2332 -0.0579
 6214TIP3    H140057   3.078   2.712   6.489  0.9311  1.2053  0.4622
 6214TIP3    H240058   3.136   2.636   6.607  1.0488  0.2633 -0.1921
 6215TIP3   OH240059   3.670   6.041   1.934 -0.7942 -0.2944 -0.0229
 6215TIP3    H140060   3.756   6.075   1.959 -0.7014 -0.5122 -0.0374
 6215TIP3    H240061   3.690   5.959   1.888 -1.0723 -0.9347  0.9809
 6216TIP3   OH240062   6.309   2.746   0.720 -0.2803  0.5785 -0.5797
 6216TIP3    H140063   6.270   2.819   0.671  0.0185  1.7562  0.9106
 6216TIP3    H240064   6.234   2.701   0.759 -0.6995 -1.5920 -3.7101
 6217TIP3   OH240065   3.258   3.791   3.961  0.1033  0.1263 -0.3889
 6217TIP3    H140066   3.298   3.799   4.047  0.1890 -1.8626 -0.2140
 6217TIP3    H240067   3.330   3.805   3.899 -0.1519  2.5592 -0.1871
 6218TIP3   OH240068   2.732   3.831   4.927  0.3320  0.5728 -0.5855
 6218TIP3    H140069   2.812   3.859   4.973  0.0421 -1.5343  1.2773
 6218TIP3    H240070   2.756   3.749   4.884 -0.6677  0.2083 -0.4635
 6219TIP3   OH240071   6.295   1.347  11.150  0.0526 -0.0929 -0.3645
 6219TIP3    H140072   6.360   1.308  11.091 -1.2068  1.8006 -3.1140
 6219TIP3    H240073   6.213   1.303  11.128 -0.6393  1.3855 -0.7802
 6220TIP3   OH240074   5.427   6.689   4.045 -0.2075  0.5221 -0.3773
 6220TIP3    H140075   5.426   6.774   4.089  1.9980  0.8596 -0.9323
 6220TIP3    H240076   5.488   6.700   3.972  0.5439 -1.7201 -0.1245
 6221TIP3   OH240077   4.587   0.063   0.588 -0.3621 -0.0521 -0.0454
 6221TIP3    H140078   4.539   0.071   0.670 -1.3054 -0.0964 -0.5850
 6221TIP3    H240079   4.679   0.072   0.613 -0.7397  1.8083  0.7820
 6222TIP3   OH240080   5.747   1.527  13.557  0.5242 -0.2498  0.0358
 6222TIP3    H140081   5.835   1.526  13.519  0.2627 -2.1892 -0.5563
 6222TIP3    H240082   5.688   1.528  13.481  0.0208  0.0817  0.4281
 6223TIP3   OH240083   1.065   5.649  13.088  0.0302 -0.2736 -0.1648
 6223TIP3    H140084   1.034   5.739  13.081  0.9742 -0.0448 -1.6823
 6223TIP3    H240085   1.160   5.657  13.097  0.2903 -1.1431 -1.8791
 6224TIP3   OH240086   2.449   1.795  12.121 -0.0571  0.4811  0.1977
 6224TIP3    H140087   2.361   1.806  12.157 -0.2015  0.7491 -0.2288
 6224TIP3    H240088   2.507   1.829  12.188 -0.2794  0.3272  0.4702
 6225TIP3   OH240089   6.063   6.583  15.121  0.1713  0.0636 -0.5430
 6225TIP3    H140090   6.124   6.616  15.187 -0.5793  0.7268 -0.1702
 6225TIP3    H240091   6.038   6.661  15.071  0.6356 -0.4150 -1.5270
 6226TIP3   OH240092   6.675   6.329  12.537 -0.2500  0.0294  0.3922
 6226TIP3    H140093   6.728   6.409  12.542 -1.2764  0.7226  0.3824
 6226TIP3    H240094   6.706   6.275  12.610  0.0158  0.7053  0.7862
 6227TIP3   OH240095   3.349   3.169  14.520  0.0605  0.7886  0.1025
 6227TIP3    H140096   3.312   3.103  14.461  0.6888  1.5801 -1.2001
 6227TIP3    H240097   3.368   3.121  14.601 -0.0982 -0.4765 -0.6060
 6228TIP3   OH240098   4.705   1.337   1.609 -0.2675  0.4122  0.0307
 6228TIP3    H140099   4.774   1.399   1.629 -0.4020  0.6246 -0.1666
 6228TIP3    H240100   4.630   1.366   1.662  0.0996 -0.4104  1.0264
 6229TIP3   OH240101   1.021   3.366  11.642  0.0441 -0.2735 -0.3360
 6229TIP3    H140102   1.019   3.274  11.615 -0.1730 -0.7178  1.1525
 6229TIP3    H240103   0.928   3.391  11.647  0.0533 -0.4109  0.6740
 6230TIP3   OH240104   1.581   0.741   4.734 -0.0094 -0.1938 -0.4528
 6230TIP3    H140105   1.672   0.712   4.730  0.6591  1.7364  0.1474
 6230TIP3    H240106   1.566   0.763   4.826 -0.4043  1.5266 -0.9033
 6231TIP3   OH240107   3.465   2.722  13.941  0.2185 -0.1892  0.1919
 6231TIP3    H140108   3.408   2.797  13.953 -0.5550 -0.5198 -1.3483
 6231TIP3    H240109   3.488   2.724  13.848  0.0336 -1.9598  0.0988
 6232TIP3   OH240110   0.069   1.136  16.150 -0.1578 -0.5480  0.3471
 6232TIP3    H140111   0.161   1.128  16.125 -0.6593  0.8841 -2.1213
 6232TIP3    H240112   0.032   1.049  16.134  0.3907 -0.6788 -0.2189
 6233TIP3   OH240113   6.258   5.385  14.742  0.4276  0.5900 -0.1291
 6233TIP3    H140114   6.322   5.406  14.810  2.2595 -1.1266 -1.2704
 6233TIP3    H240115   6.309   5.342  14.673 -1.8071  0.0249 -1.4904
 6234TIP3   OH240116   4.290   5.878  12.727  0.0050  0.6002 -0.3095
 6234TIP3    H140117   4.361   5.829  12.770 -0.4310 -1.9682 -2.4146
 6234TIP3    H240118   4.325   5.900  12.641 -1.7367 -0.8504 -1.4428
 6235TIP3   OH240119   5.186   6.568  13.585  0.4150 -0.1800 -0.4347
 6235TIP3    H140120   5.135   6.495  13.620  2.6516 -0.6187  2.0903
 6235TIP3    H240121   5.239   6.530  13.516  1.0375 -0.8130  0.3803
 6236TIP3   OH240122   6.742   6.646  15.900 -0.1546  0.5602  0.4164
 6236TIP3    H140123   6.711   6.576  15.958 -0.1232  0.2187  0.0186
 6236TIP3    H240124   6.838   6.639  15.903 -0.1650 -1.2398 -1.8234
 6237TIP3   OH240125   6.179   1.719   1.989  0.7071 -0.5803  0.0515
 6237TIP3    H140126   6.093   1.734   2.028  0.8051 -0.5133  0.2405
 6237TIP3    H240127   6.217   1.807   1.981  0.0184 -0.4096 -1.7260
 6238TIP3   OH240128   2.819   4.859   3.149  0.1379 -0.4813  0.1970
 6238TIP3    H140129   2.801   4.859   3.055 -1.1034 -0.4077  0.4267
 6238TIP3    H240130   2.886   4.792   3.161 -1.6024 -2.3604 -0.3878
 6239TIP3   OH240131   3.743   0.624   6.415 -0.4435 -0.3401 -0.5731
 6239TIP3    H140132   3.765   0.623   6.322  2.4641 -2.7440  0.0881
 6239TIP3    H240133   3.715   0.535   6.435 -2.1962  0.4483  0.6241
 6240TIP3   OH240134   2.869   2.966  15.509 -0.0208 -0.7822  0.2387
 6240TIP3    H140135   2.913   2.931  15.431  0.7310 -0.7521  0.6470
 6240TIP3    H240136   2.777   2.972  15.484  0.5927  1.7872 -1.5864
 6241TIP3   OH240137   1.485   1.624   0.159  0.0098  0.2112  0.2277
 6241TIP3    H140138   1.562   1.588   0.115  0.4090 -1.7146  2.3820
 6241TIP3    H240139   1.415   1.615   0.095  1.0039 -0.5620 -0.7794
 6242TIP3   OH240140   2.218   4.097   4.311  0.7293  0.6880 -0.1558
 6242TIP3    H140141   2.164   4.112   4.389  1.0901  0.1720  0.2024
 6242TIP3    H240142   2.170   4.139   4.240  0.5943  1.5184  0.4165
 6243TIP3   OH240143   0.071   4.186  11.278  0.2129  0.2916 -0.5298
 6243TIP3    H140144   0.051   4.279  11.264  1.9272  0.5669 -1.2191
 6243TIP3    H240145  -0.012   4.142  11.260 -0.4740  1.6323 -0.7962
 6244TIP3   OH240146   1.004   6.360   5.036  0.0814  0.1557 -0.3762
 6244TIP3    H140147   1.024   6.439   4.985 -0.6895  0.1113 -0.7646
 6244TIP3    H240148   1.062   6.293   4.999 -0.9312 -0.0417 -1.6656
 6245TIP3   OH240149   6.083   0.650  11.747 -0.1559  0.1590 -0.2491
 6245TIP3    H140150   6.029   0.604  11.812 -0.9321  1.6939  0.1990
 6245TIP3    H240151   6.040   0.633  11.664  0.4903 -1.2875 -0.3124
 6246TIP3   OH240152   1.918   2.291   4.139 -0.6091 -0.3338 -0.1808
 6246TIP3    H140153   1.841   2.318   4.089 -1.2120 -2.3389 -0.3808
 6246TIP3    H240154   1.885   2.226   4.201  0.5760  0.2949  1.1509
 6247TIP3   OH240155   4.887   4.423   3.137 -0.3202 -0.0506  0.3501
 6247TIP3    H140156   4.889   4.329   3.156 -1.1208  0.2796  2.2656
 6247TIP3    H240157   4.939   4.462   3.207 -2.4784  1.1676  1.3115
 6248TIP3   OH240158   5.924   5.477   0.381  0.0434 -0.0392  0.1367
 6248TIP3    H140159   5.915   5.405   0.444 -1.3129 -0.4665 -0.5147
 6248TIP3    H240160   5.842   5.525   0.388 -0.3607 -0.4281 -1.6885
 6249TIP3   OH240161   0.376   4.877  11.382 -0.0139 -0.3346 -0.4957
 6249TIP3    H140162   0.286   4.881  11.414  0.0856 -1.0692 -0.1126
 6249TIP3    H240163   0.419   4.953  11.421 -0.1946 -0.5816  0.1882
 6250TIP3   OH240164   0.151   1.416  12.917  0.4709 -0.5999  0.7980
 6250TIP3    H140165   0.121   1.373  12.996 -0.6126 -1.7661 -0.2359
 6250TIP3    H240166   0.126   1.357  12.846  1.1640  0.5636 -0.4406
 6251TIP3   OH240167   1.186   0.500  12.463 -0.0594  0.9772 -0.7969
 6251TIP3    H140168   1.144   0.477  12.545 -0.3072 -0.1597 -1.2313
 6251TIP3    H240169   1.114   0.511  12.401  0.1581  1.2510 -1.0043
 6252TIP3   OH240170   0.755   1.872   2.833  0.5134  0.3493  0.9318
 6252TIP3    H140171   0.715   1.785   2.839  2.5369 -0.6502  0.1899
 6252TIP3    H240172   0.801   1.883   2.916  1.9209 -0.1486  0.2348
 6253TIP3   OH240173   2.711   0.085  11.706  0.4414 -0.4577 -0.4864
 6253TIP3    H140174   2.770   0.011  11.697  0.2231 -1.2793  3.6201
 6253TIP3    H240175   2.623   0.046  11.703  0.2255  0.0810 -1.4608
 6254TIP3   OH240176   6.206   6.302  16.664  0.3009  0.1691 -0.1235
 6254TIP3    H140177   6.299   6.282  16.672  0.5598  0.9218 -1.2201
 6254TIP3    H240178   6.182   6.340  16.749  0.4161 -2.1880  1.0297
 6255TIP3   OH240179   2.449   4.999   1.590 -0.3469 -0.9224  0.6255
 6255TIP3    H140180   2.383   4.992   1.520 -0.9425  1.9373  0.8346
 6255TIP3    H240181   2.407   5.054   1.656  1.9547  0.2838  1.1309
 6256TIP3   OH240182   0.917   0.357   5.335  0.4123 -0.5007 -0.6852
 6256TIP3    H140183   0.889   0.336   5.423  0.3670 -2.3632 -1.1300
 6256TIP3    H240184   0.988   0.296   5.316 -0.5175 -1.0835 -2.4496
 6257TIP3   OH240185   2.848   6.726   2.956  0.7640 -0.3686 -0.0459
 6257TIP3    H140186   2.863   6.744   3.048  0.3622 -1.2905  0.2031
 6257TIP3    H240187   2.935   6.729   2.916  0.7734  1.5411  0.0811
 6258TIP3   OH240188   5.608   3.852  11.768 -0.1206 -0.5407 -0.8524
 6258TIP3    H140189   5.542   3.916  11.739 -0.4965 -1.1182 -1.2876
 6258TIP3    H240190   5.632   3.881  11.856 -1.5704 -0.8021 -0.3603
 6259TIP3   OH240191   4.265   3.531  16.530  0.0650 -0.4446  0.4979
 6259TIP3    H140192   4.178   3.493  16.521 -0.7009  1.3726  0.0199
 6259TIP3    H240193   4.269   3.560  16.621 -0.1313  0.2096  0.2959
 6260TIP3   OH240194   4.696   1.134   3.857 -0.0053 -0.2597  0.1509
 6260TIP3    H140195   4.639   1.120   3.781 -0.7030 -0.9132  0.7713
 6260TIP3    H240196   4.653   1.205   3.905  0.7069  0.4929 -0.3180
 6261TIP3   OH240197   2.123   0.298  13.103  0.3355  0.4125  0.3597
 6261TIP3    H140198   2.156   0.342  13.181 -0.5036 -0.8489  1.4275
 6261TIP3    H240199   2.099   0.210  13.132 -1.5125  0.4495 -0.9663
 6262TIP3   OH240200   0.998   3.279   4.932 -0.4692 -0.1123 -0.0203
 6262TIP3    H140201   0.996   3.374   4.946 -1.8414 -0.2021  0.4000
 6262TIP3    H240202   1.057   3.247   5.000  1.7012  0.6319 -1.4588
 6263TIP3   OH240203   4.049   6.267  16.299 -0.6411 -0.0130 -0.0145
 6263TIP3    H140204   3.967   6.235  16.261  0.2492 -0.0688 -1.8912
 6263TIP3    H240205   4.114   6.255  16.231  0.6952  1.2325  1.0129
 6264TIP3   OH240206   4.844   4.426  14.009  0.5797 -0.7647 -0.1467
 6264TIP3    H140207   4.793   4.506  14.024  0.5973 -0.3598 -2.1682
 6264TIP3    H240208   4.864   4.427  13.916  1.7660 -2.4422  0.0672
 6265TIP3   OH240209   2.771   1.793  12.619 -0.0635 -0.2744 -0.0829
 6265TIP3    H140210   2.733   1.794  12.532  1.3989 -0.1575 -0.7331
 6265TIP3    H240211   2.734   1.715  12.661 -1.1002 -0.0922 -0.6361
 6266TIP3   OH240212   4.435   1.420  13.666 -0.4308 -0.9418 -0.0970
 6266TIP3    H140213   4.459   1.441  13.576 -0.3237  0.2115  0.1893
 6266TIP3    H240214   4.514   1.379  13.703  0.4051  0.8785  0.2021
 6267TIP3   OH240215   3.197   1.705  14.248 -0.3686  0.1258  0.4556
 6267TIP3    H140216   3.121   1.705  14.307 -0.9236  0.3460 -0.2551
 6267TIP3    H240217   3.237   1.619  14.262 -0.3234  0.2915  1.3734
 6268TIP3   OH240218   1.945   2.344  14.416  0.8129  0.2385  0.6428
 6268TIP3    H140219   1.918   2.413  14.476  0.5119  0.3233  0.4106
 6268TIP3    H240220   1.864   2.315  14.374  0.5596 -2.0707  2.6217
 6269TIP3   OH240221   4.947   1.516   3.088  0.3298  0.1017  0.1465
 6269TIP3    H140222   4.866   1.479   3.054  0.8321 -1.1555  0.2656
 6269TIP3    H240223   4.922   1.562   3.167 -0.3487  0.1895 -0.1184
 6270TIP3   OH240224   0.131   4.810  15.692 -0.3707 -0.0362 -0.8285
 6270TIP3    H140225   0.206   4.867  15.710  0.3152 -0.9313 -0.8306
 6270TIP3    H240226   0.099   4.785  15.778 -0.6819  0.3515 -0.8273
 6271TIP3   OH240227   3.464   5.994  12.322 -0.2864 -0.1291 -0.4969
 6271TIP3    H140228   3.405   6.045  12.266 -2.1199 -2.4159 -0.7514
 6271TIP3    H240229   3.496   5.925  12.264  0.6623 -0.3788  0.3240
 6272TIP3   OH240230   4.106   5.405  13.670  0.3751 -0.1838 -0.3813
 6272TIP3    H140231   4.143   5.368  13.590 -0.7195 -1.0526 -0.4954
 6272TIP3    H240232   4.028   5.352  13.687  1.5094 -1.1146  2.1812
 6273TIP3   OH240233   3.698   4.509   0.589  0.3105  0.1941  0.2567
 6273TIP3    H140234   3.768   4.548   0.642 -1.6004  1.1254  2.1573
 6273TIP3    H240235   3.656   4.584   0.547  0.5452 -0.3767 -0.9957
 6274TIP3   OH240236   5.496   4.884  12.451 -0.9774  0.5052  0.3063
 6274TIP3    H140237   5.472   4.975  12.467 -1.2809  0.2250  1.5309
 6274TIP3    H240238   5.523   4.852  12.537  0.8993 -0.0397 -0.4704
 6275TIP3   OH240239   1.615   2.349  11.632 -0.3089  0.1867  0.5097
 6275TIP3    H140240   1.609   2.264  11.676  1.1179  0.9328  2.2150
 6275TIP3    H240241   1.635   2.327  11.541 -2.7349 -1.3693  0.3037
 6276TIP3   OH240242   5.301   1.226  14.459  0.3709 -0.2404  0.0942
 6276TIP3    H140243   5.330   1.246  14.548 -0.2954  0.5632  0.1354
 6276TIP3    H240244   5.380   1.196  14.414  0.3298 -2.5380  1.4881
 6277TIP3   OH240245   1.900   0.742   3.068 -0.2545 -0.5492  0.2809
 6277TIP3    H140246   1.821   0.704   3.106  0.1506 -0.5302  1.1433
 6277TIP3    H240247   1.880   0.749   2.974 -0.4430 -2.6149  0.1434
 6278TIP3   OH240248   5.378   2.810  12.788  0.0176 -0.2378  0.3887
 6278TIP3    H140249   5.427   2.878  12.743  0.2175 -1.0921 -0.7351
 6278TIP3    H240250   5.294   2.851  12.810  0.5683  0.7012  0.7486
 6279TIP3   OH240251   2.540   0.160   1.451 -0.0772  0.1636 -0.7348
 6279TIP3    H140252   2.522   0.095   1.383 -0.4255  1.8609 -2.3029
 6279TIP3    H240253   2.583   0.232   1.404  2.6829  0.0075  1.3964
 6280TIP3   OH240254   4.483   6.267   2.700 -0.4671  0.1776 -0.9076
 6280TIP3    H140255   4.458   6.345   2.750  0.3805  0.1879 -0.4842
 6280TIP3    H240256   4.407   6.209   2.706 -0.3822  0.1804  0.4174
 6281TIP3   OH240257   6.533   1.992   0.221  0.3546 -0.3096  0.7460
 6281TIP3    H140258   6.452   1.955   0.184  1.9026 -3.2076  0.0895
 6281TIP3    H240259   6.528   1.972   0.314  1.2916 -2.4809  0.3565
 6282TIP3   OH240260   5.115   2.220  14.356  0.1749  0.1601 -0.2940
 6282TIP3    H140261   5.038   2.164  14.353 -1.0660  1.8646 -1.3428
 6282TIP3    H240262   5.140   2.222  14.448  0.6663 -2.6404 -0.3391
 6283TIP3   OH240263   5.108   5.135   4.158 -0.0355 -0.5761 -0.0558
 6283TIP3    H140264   5.061   5.053   4.143 -0.0291 -0.2853 -1.7791
 6283TIP3    H240265   5.161   5.147   4.079  0.5323  0.7152  0.5005
 6284TIP3   OH240266   1.856   3.702   3.445  0.1241  0.0356  0.3424
 6284TIP3    H140267   1.871   3.646   3.368  0.2478  0.6773 -0.1072
 6284TIP3    H240268   1.761   3.700   3.458 -0.1051  1.3975 -0.9640
 6285TIP3   OH240269   1.848   3.189  14.869 -0.7731 -0.5038  0.0833
 6285TIP3    H140270   1.811   3.108  14.835  0.3251 -0.6877 -0.7006
 6285TIP3    H240271   1.793   3.258  14.833 -0.5969 -0.7954 -0.7468
 6286TIP3   OH240272   5.126   0.046   6.106  0.2997 -0.2607  0.2350
 6286TIP3    H140273   5.140  -0.048   6.092  0.7082 -0.1337 -0.2255
 6286TIP3    H240274   5.091   0.078   6.023 -0.2983 -0.0970  0.5511
 6287TIP3   OH240275   5.394   1.103   1.675 -0.8270  0.1230 -0.1065
 6287TIP3    H140276   5.441   1.100   1.591  0.9264 -0.2679  0.8796
 6287TIP3    H240277   5.397   1.195   1.701  0.9863 -0.1815  0.8294
 6288TIP3   OH240278   3.935   4.605  12.060  0.0958 -0.3834 -0.1684
 6288TIP3    H140279   3.863   4.664  12.082  1.3622  0.9944  0.4098
 6288TIP3    H240280   3.960   4.567  12.145  1.0066  0.2896 -0.1241
 6289TIP3   OH240281   1.688   5.510   5.803  0.1925 -0.1647 -0.1682
 6289TIP3    H140282   1.659   5.444   5.739 -0.1334  0.0750 -0.2702
 6289TIP3    H240283   1.765   5.472   5.844  0.9605  0.0673 -1.3653
 6290TIP3   OH240284   0.496   6.756   6.050  0.8603 -0.1674  0.2587
 6290TIP3    H140285   0.455   6.779   6.133  1.8845 -0.0145  0.7268
 6290TIP3    H240286   0.489   6.660   6.045 -3.0678  0.0974 -1.5126
 6291TIP3   OH240287   6.508   6.155  16.097  0.1773 -0.1356  0.7913
 6291TIP3    H140288   6.420   6.172  16.130 -0.3391 -0.0061 -0.5975
 6291TIP3    H240289   6.555   6.115  16.171 -1.8475 -2.7160  0.7556
 6292TIP3   OH240290   2.639   2.893  15.130  0.2969  0.5217  0.5783
 6292TIP3    H140291   2.655   2.983  15.099  0.3014  0.5877  0.7716
 6292TIP3    H240292   2.664   2.895  15.223 -0.7282  0.6016  0.8627
 6293TIP3   OH240293   0.299   6.155   2.318  0.4943 -0.0950  0.3106
 6293TIP3    H140294   0.351   6.080   2.290 -0.7428 -0.6573 -0.5339
 6293TIP3    H240295   0.354   6.231   2.301  0.6733 -0.6154 -1.4516
 6294TIP3   OH240296   2.771   2.058   1.354  0.0884 -0.0624  0.4071
 6294TIP3    H140297   2.685   2.071   1.394 -0.0981  0.7491 -0.2643
 6294TIP3    H240298   2.798   2.145   1.325  0.2444 -0.6401 -1.2203
 6295TIP3   OH240299   1.354   1.525  11.294 -0.3105  0.9857  0.1650
 6295TIP3    H140300   1.264   1.558  11.289 -0.9429 -0.7901 -0.6384
 6295TIP3    H240301   1.368   1.480  11.211  1.1726  0.8525  0.4630
 6296TIP3   OH240302   6.547   4.130   1.295 -0.1781 -0.9112 -0.0676
 6296TIP3    H140303   6.588   4.076   1.363  2.8996  0.3019 -0.8527
 6296TIP3    H240304   6.578   4.092   1.213  0.2578  0.6715 -0.6580
 6297TIP3   OH240305   6.583   5.775  16.330  0.1627  0.4567 -0.0874
 6297TIP3    H140306   6.556   5.756  16.420 -1.7837 -0.5399 -0.8649
 6297TIP3    H240307   6.559   5.697  16.281  1.8352  0.7306 -1.3623
 6298TIP3   OH240308   3.409   6.306   5.197 -0.3500 -0.2097  0.4380
 6298TIP3    H140309   3.466   6.298   5.273  0.0631 -2.2910 -0.0589
 6298TIP3    H240310   3.322   6.325   5.233  0.3226  1.3312  1.2761
 6299TIP3   OH240311   0.276   3.965  16.920  0.1482 -0.1845  0.3997
 6299TIP3    H140312   0.250   4.052  16.888 -0.0164 -0.0554  0.8843
 6299TIP3    H240313   0.228   3.904  16.864  0.4032  0.0340 -0.0646
 6300TIP3   OH240314   3.853   0.926  14.141 -0.1354 -0.2634  0.3833
 6300TIP3    H140315   3.844   0.884  14.056  0.8646 -0.0286  0.1476
 6300TIP3    H240316   3.946   0.950  14.146 -0.2049 -0.1887  1.4962
 6301TIP3   OH240317   2.581   0.767   3.047 -0.1043  0.0497 -0.2186
 6301TIP3    H140318   2.584   0.698   2.982  0.1387  0.9885 -1.2184
 6301TIP3    H240319   2.552   0.844   2.999  0.5046  0.8582  0.6879
 6302TIP3   OH240320   4.058   6.694   1.463  0.4351  0.1737  0.0154
 6302TIP3    H140321   4.000   6.619   1.478  0.5884  0.1271  0.3698
 6302TIP3    H240322   4.146   6.660   1.476  0.4218  0.8314  1.9523
 6303TIP3   OH240323   4.948   1.027   4.182  0.3056 -0.0829  1.0321
 6303TIP3    H140324   4.983   1.103   4.136  1.2786 -1.4788 -0.5697
 6303TIP3    H240325   5.024   0.985   4.222  0.4440 -2.5250 -1.5776
 6304TIP3   OH240326   5.704   6.615  17.198 -0.3155  0.2547 -0.3918
 6304TIP3    H140327   5.617   6.640  17.228 -0.3136  0.8587 -0.8820
 6304TIP3    H240328   5.759   6.622  17.276 -0.7322 -0.2611 -0.0510
 6305TIP3   OH240329   2.285   6.708  14.389  0.1258  0.8302 -0.3507
 6305TIP3    H140330   2.279   6.782  14.328 -1.3926  0.7678 -0.3173
 6305TIP3    H240331   2.357   6.655  14.356 -0.9066  0.6041 -2.3227
 6306TIP3   OH240332   0.973   5.350   3.456  0.2051 -0.3156  0.3733
 6306TIP3    H140333   0.918   5.426   3.470 -1.5744 -1.3953 -0.5700
 6306TIP3    H240334   1.021   5.338   3.538 -1.3852  0.3079  1.4055
 6307TIP3   OH240335   6.682   5.462   0.685  0.0404  0.1374 -0.7528
 6307TIP3    H140336   6.689   5.555   0.664 -0.7174  0.4175  0.1994
 6307TIP3    H240337   6.609   5.431   0.631 -0.3673  0.3333 -0.3260
 6308TIP3   OH240338   3.342   3.024  16.810 -0.3342 -0.0257 -0.1240
 6308TIP3    H140339   3.287   2.996  16.736 -1.9575  0.3225  0.9123
 6308TIP3    H240340   3.341   3.120  16.805 -0.2510 -0.0084  0.2061
 6309TIP3   OH240341   4.110   5.572   6.225 -0.0956 -0.2719 -0.1162
 6309TIP3    H140342   4.144   5.646   6.175 -0.9669  0.1322 -0.1264
 6309TIP3    H240343   4.147   5.494   6.183  1.3372  0.1800  0.2829
 6310TIP3   OH240344   2.690   5.325   4.054 -0.1210 -0.6168  1.2084
 6310TIP3    H140345   2.629   5.252   4.043  0.0083 -0.6210  0.5198
 6310TIP3    H240346   2.725   5.341   3.966  0.3140 -0.1303  1.4679
 6311TIP3   OH240347   4.344   0.956   1.379  0.1482  0.1069  0.3794
 6311TIP3    H140348   4.423   0.908   1.404  0.6671  0.5431 -0.4281
 6311TIP3    H240349   4.329   1.017   1.452 -0.8010 -1.5993  1.6554
 6312TIP3   OH240350   1.352   6.127   2.872  0.8022  0.2826  0.2399
 6312TIP3    H140351   1.369   6.216   2.843 -0.8725  0.5533  0.0278
 6312TIP3    H240352   1.385   6.072   2.801  1.5116  0.7503  0.2117
 6313TIP3   OH240353   4.497   1.303   0.748 -0.1122  0.0694  0.3127
 6313TIP3    H140354   4.514   1.284   0.656  0.9364  0.3281  0.4547
 6313TIP3    H240355   4.448   1.226   0.779 -1.1948  0.3471 -0.6528
 6314TIP3   OH240356   3.328   1.949  12.837  0.1623  0.6388 -0.3734
 6314TIP3    H140357   3.258   2.009  12.812  0.5176  0.9628 -0.6038
 6314TIP3    H240358   3.408   2.002  12.829  0.8210 -0.7783 -3.6260
 6315TIP3   OH240359   5.227   0.251   3.974  0.3793 -0.3892  0.1606
 6315TIP3    H140360   5.149   0.236   3.921 -0.6150 -1.6318  1.9294
 6315TIP3    H240361   5.248   0.343   3.961 -1.0893 -0.1636 -0.7293
 6316TIP3   OH240362   0.746   0.680   4.223 -0.0216  0.5738 -0.5164
 6316TIP3    H140363   0.666   0.667   4.171 -0.3891 -1.3761  0.4851
 6316TIP3    H240364   0.817   0.656   4.164 -0.3503 -0.2575 -0.5815
 6317TIP3   OH240365   0.779   5.898   2.828 -0.1702  0.3704 -0.3016
 6317TIP3    H140366   0.783   5.806   2.853  0.9749 -0.2078 -2.4844
 6317TIP3    H240367   0.694   5.928   2.861 -1.8178 -2.2171 -1.9838
 6318TIP3   OH240368   2.308   1.461   1.036 -0.3530 -0.5254  0.2216
 6318TIP3    H140369   2.361   1.437   0.960 -0.5611 -0.5767  0.0900
 6318TIP3    H240370   2.235   1.511   0.998 -0.0051  0.1871  0.4711
 6319TIP3   OH240371   0.655   2.442   0.243  1.0189  0.3956  0.6565
 6319TIP3    H140372   0.706   2.372   0.285 -1.2436 -0.2222  2.4819
 6319TIP3    H240373   0.604   2.397   0.176 -0.5938  0.2304  1.9725
 6320TIP3   OH240374   5.803   2.952  13.826  0.1665 -0.1167 -0.5177
 6320TIP3    H140375   5.848   2.951  13.911  0.6939  1.1701 -0.7670
 6320TIP3    H240376   5.861   2.903  13.768  0.2726 -0.1824 -0.3579
 6321TIP3   OH240377   4.079   5.872   0.395  0.0654  0.0013 -0.5291
 6321TIP3    H140378   4.160   5.922   0.402  0.2833 -0.4532  0.3450
 6321TIP3    H240379   4.108   5.781   0.386 -0.3310 -0.0318 -1.5030
 6322TIP3   OH240380   0.616   6.021  14.703  0.1558  0.7381 -0.1371
 6322TIP3    H140381   0.520   6.019  14.700  0.1660 -0.2396  0.1075
 6322TIP3    H240382   0.640   6.089  14.640 -0.6784  0.4525 -0.7774
 6323TIP3   OH240383   0.431   6.545   2.943  0.6528 -0.7702  0.1729
 6323TIP3    H140384   0.385   6.608   2.999  0.1580  1.2025 -2.3865
 6323TIP3    H240385   0.494   6.598   2.895  0.5797 -2.3057 -1.6521
 6324TIP3   OH240386   6.705   5.942   4.614  0.0905  0.0349  0.1356
 6324TIP3    H140387   6.677   6.033   4.601  0.4689 -0.1998 -2.7716
 6324TIP3    H240388   6.766   5.945   4.687  0.3344  2.1746 -0.1329
 6325TIP3   OH240389   0.228   0.392   3.096  0.0397  0.5544  0.7699
 6325TIP3    H140390   0.291   0.429   3.034 -1.4885 -0.2657 -1.2958
 6325TIP3    H240391   0.161   0.460   3.105 -0.4616  0.1005  0.4476
 6326TIP3   OH240392   5.568   6.740   3.835 -0.0342 -0.2725 -0.4702
 6326TIP3    H140393   5.499   6.728   3.770 -0.5712 -2.3743  0.4589
 6326TIP3    H240394   5.639   6.782   3.787 -1.5275  0.9072 -1.6973
 6327TIP3   OH240395   5.467   6.737   1.389  0.1821  0.2922  0.4614
 6327TIP3    H140396   5.447   6.749   1.482  0.2644 -1.7112  0.7546
 6327TIP3    H240397   5.536   6.671   1.388  0.9880  1.1371 -0.9831
 6328TIP3   OH240398   2.044   5.213   5.596 -0.0125 -0.0218  0.4642
 6328TIP3    H140399   2.060   5.189   5.687 -1.0903  1.8182  1.1622
 6328TIP3    H240400   1.984   5.146   5.564  0.7923 -0.9799  0.9366
 6329TIP3   OH240401   3.958   1.767   1.752 -0.3234  0.1537  0.1460
 6329TIP3    H140402   3.897   1.706   1.793  1.3750 -1.5151  0.2222
 6329TIP3    H240403   3.907   1.847   1.740 -2.3705 -1.0356  0.7038
 6330TIP3   OH240404   5.882   5.271  14.746 -0.4270 -0.2000 -0.3775
 6330TIP3    H140405   5.852   5.356  14.715 -2.8140  0.0874  2.5539
 6330TIP3    H240406   5.923   5.288  14.830 -0.1478 -1.8432 -0.1605
 6331TIP3   OH240407   6.484   3.924   5.173  0.1903 -0.7821 -0.3455
 6331TIP3    H140408   6.446   3.836   5.175 -0.5585 -0.4605  0.7343
 6331TIP3    H240409   6.460   3.959   5.088 -0.8041 -1.0854 -0.1968
 6332TIP3   OH240410   4.216   6.687  16.741  0.1856  0.0712  0.1440
 6332TIP3    H140411   4.243   6.609  16.790  1.7863 -0.5876 -1.7121
 6332TIP3    H240412   4.212   6.658  16.650  0.9369  2.1760 -0.5889
 6333TIP3   OH240413   5.076   4.865   3.087 -0.1804 -0.2880  0.1999
 6333TIP3    H140414   5.168   4.890   3.095  0.2683 -2.1160  0.7549
 6333TIP3    H240415   5.031   4.920   3.152  0.6237 -0.0395  0.5561
 6334TIP3   OH240416   2.248   2.803   2.311 -0.3563 -0.8632 -0.4974
 6334TIP3    H140417   2.308   2.737   2.275 -0.6889  0.3633 -3.5022
 6334TIP3    H240418   2.165   2.756   2.321 -0.0257 -1.4557 -0.5011
 6335TIP3   OH240419   1.027   5.483  14.303  0.0489 -0.6088  0.5826
 6335TIP3    H140420   1.079   5.403  14.309  0.3568 -0.4468  0.0697
 6335TIP3    H240421   0.936   5.452  14.304  0.1420 -0.8577  1.9374
 6336TIP3   OH240422   6.185   5.328  15.342  0.4190  0.4263 -0.0398
 6336TIP3    H140423   6.214   5.348  15.430  0.2625 -0.3162  0.1833
 6336TIP3    H240424   6.265   5.311  15.293  0.4312 -0.4736  0.2873
 6337TIP3   OH240425   1.132   3.117  16.564  0.0788  0.2732  0.1443
 6337TIP3    H140426   1.060   3.096  16.505 -1.0282  1.7218  0.9416
 6337TIP3    H240427   1.152   3.209  16.548  0.7944  0.2686  0.9273
 6338TIP3   OH240428   2.699   1.412   1.429 -0.3973  0.3807 -0.3797
 6338TIP3    H140429   2.625   1.470   1.443  0.2852  1.4790 -1.2483
 6338TIP3    H240430   2.733   1.394   1.516 -2.0182 -0.5767  0.0604
 6339TIP3   OH240431   1.006   1.659  13.059 -0.0729 -0.6018  0.0696
 6339TIP3    H140432   0.960   1.668  12.976 -0.1015 -0.1561  0.1360
 6339TIP3    H240433   0.950   1.702  13.123  1.2434  1.4430 -0.1208
 6340TIP3   OH240434   6.656   1.063  16.533 -0.1008  0.3922 -0.1231
 6340TIP3    H140435   6.689   1.145  16.496 -1.1728 -0.6345 -3.4765
 6340TIP3    H240436   6.733   1.006  16.538  0.4416  1.1977  1.2516
 6341TIP3   OH240437   4.916   1.848  11.252 -0.5424  0.0786  0.4009
 6341TIP3    H140438   4.841   1.864  11.310 -0.3175  0.9399  0.4545
 6341TIP3    H240439   4.924   1.752  11.251 -1.8829 -0.0499  0.0803
 6342TIP3   OH240440   5.764   2.819  12.350  0.0572  0.3032  0.1524
 6342TIP3    H140441   5.678   2.795  12.314 -0.5972  1.1871  1.1099
 6342TIP3    H240442   5.754   2.910  12.378  1.2422  0.3322  0.5127
 6343TIP3   OH240443   3.660   2.260   1.144 -0.0738 -0.3177  0.1303
 6343TIP3    H140444   3.617   2.232   1.063  0.1865 -0.7541  0.1427
 6343TIP3    H240445   3.753   2.265   1.121  0.0689 -0.9768  0.5473
 6344TIP3   OH240446   5.852   4.308  12.636 -0.1036 -0.2168  0.3412
 6344TIP3    H140447   5.839   4.231  12.692  0.5634 -0.3929  0.2583
 6344TIP3    H240448   5.796   4.376  12.675  0.6120 -0.2346  1.4096
 6345TIP3   OH240449   3.786   6.498  10.608  0.7022  0.2014  0.4812
 6345TIP3    H140450   3.766   6.405  10.621  1.7899 -0.2065 -0.6893
 6345TIP3    H240451   3.882   6.501  10.604  0.7289  1.5557  1.8313
 6346TIP3   OH240452   2.273   2.101   1.522 -0.6039  0.2822  0.4434
 6346TIP3    H140453   2.237   2.034   1.463  0.9798  0.3697 -0.6624
 6346TIP3    H240454   2.297   2.173   1.463 -1.3916  1.4338  1.5140
 6347TIP3   OH240455   1.541   6.340  15.130 -0.0510  0.3445  0.3649
 6347TIP3    H140456   1.617   6.391  15.099 -0.6740 -0.1472 -2.1125
 6347TIP3    H240457   1.470   6.403  15.132 -0.4228 -0.0175 -1.0002
 6348TIP3   OH240458   1.639   0.699   3.148 -0.4819 -0.5259 -0.2496
 6348TIP3    H140459   1.613   0.747   3.069  0.5247  0.1106 -0.2022
 6348TIP3    H240460   1.562   0.702   3.205 -0.5183  0.7889 -0.3654
 6349TIP3   OH240461   5.021   4.031  13.387 -0.2238  1.0277  0.0246
 6349TIP3    H140462   4.928   4.038  13.366 -0.2502 -0.1591 -0.3050
 6349TIP3    H240463   5.061   3.998  13.306  0.6309  2.4516 -0.1423
 6350TIP3   OH240464   4.061   2.775  13.543  0.0325  1.1201 -0.3270
 6350TIP3    H140465   4.113   2.795  13.465  0.1296  0.7156 -0.3648
 6350TIP3    H240466   4.075   2.681  13.558 -1.0237  0.9082 -0.6003
 6351TIP3   OH240467   1.194   3.919   4.408 -0.1095 -0.2198  0.1757
 6351TIP3    H140468   1.154   3.838   4.378 -0.5642 -0.2196  0.7832
 6351TIP3    H240469   1.134   3.988   4.378  1.2183  0.0448 -1.9858
 6352TIP3   OH240470   1.582   2.517  11.244 -0.5503  0.1324 -0.2825
 6352TIP3    H140471   1.545   2.578  11.308 -0.8501  2.2040 -2.3673
 6352TIP3    H240472   1.506   2.469  11.210 -0.4972 -0.3056  0.2012
 6353TIP3   OH240473   1.389   0.533   0.268 -0.8509 -0.1730  0.6088
 6353TIP3    H140474   1.412   0.504   0.356 -2.3630  1.2259  1.5055
 6353TIP3    H240475   1.424   0.622   0.262  1.6513 -1.2276 -1.2278
 6354TIP3   OH240476   2.619   2.997   0.270  0.4033 -0.0820  0.4382
 6354TIP3    H140477   2.592   3.052   0.343  1.6683 -0.9047  1.5528
 6354TIP3    H240478   2.589   2.909   0.293  3.2950 -0.8855  1.3751
 6355TIP3   OH240479   2.544   5.282   0.144  0.0540  0.2619 -0.3874
 6355TIP3    H140480   2.496   5.363   0.128  1.6616  1.2760 -0.2173
 6355TIP3    H240481   2.558   5.281   0.239 -3.2245 -2.1325  0.1489
 6356TIP3   OH240482   4.941   4.446  12.443 -0.5953  0.0501  0.1446
 6356TIP3    H140483   4.899   4.467  12.527  0.0605  1.5564  0.1054
 6356TIP3    H240484   5.033   4.433  12.465 -0.6138 -0.6927 -0.1837
 6357TIP3   OH240485   2.162   1.560  11.004  0.2253 -0.4890 -0.2811
 6357TIP3    H140486   2.184   1.599  10.919  1.6916 -0.9025 -0.1088
 6357TIP3    H240487   2.244   1.564  11.054  0.0026 -2.3699  0.2811
 6358TIP3   OH240488   1.264   4.479   2.347  0.4123 -0.4038 -0.0473
 6358TIP3    H140489   1.238   4.417   2.279 -0.5703  0.6646 -0.6561
 6358TIP3    H240490   1.246   4.433   2.429 -1.7430 -0.3512 -0.4700
 6359TIP3   OH240491   5.840   1.501   0.963  0.2472 -0.1044 -0.0189
 6359TIP3    H140492   5.914   1.447   0.989 -1.3679 -2.1193  0.5118
 6359TIP3    H240493   5.803   1.458   0.886 -1.4527 -0.1881  0.8072
 6360TIP3   OH240494   0.647   6.654   2.842  0.5749  0.3880 -0.0306
 6360TIP3    H140495   0.679   6.580   2.790  1.0717  1.1568 -0.8227
 6360TIP3    H240496   0.631   6.723   2.779 -3.6538 -0.2616  0.2069
 6361TIP3   OH240497   2.463   4.767   4.910  0.1063 -0.2291  0.1974
 6361TIP3    H140498   2.475   4.675   4.936  0.0893 -0.4760 -0.6207
 6361TIP3    H240499   2.396   4.763   4.842 -0.2854  0.4574  0.5401
 6362TIP3   OH240500   1.153   3.006  12.442  0.4604  0.6140 -0.4909
 6362TIP3    H140501   1.147   3.099  12.417  0.8897  0.5331 -0.9038
 6362TIP3    H240502   1.216   2.969  12.380 -0.3731 -0.1500 -0.8754
 6363TIP3   OH240503   6.777   3.299   5.535 -0.1434 -0.5184 -0.2959
 6363TIP3    H140504   6.706   3.289   5.598  1.0146  1.2181  1.3051
 6363TIP3    H240505   6.733   3.323   5.453 -1.3742  1.3879  0.8873
 6364TIP3   OH240506   2.757   5.297   5.320  0.2467  0.0248  0.0352
 6364TIP3    H140507   2.701   5.236   5.368 -0.4824 -1.2801 -2.3799
 6364TIP3    H240508   2.779   5.365   5.384 -1.6050 -1.0475  1.8747
 6365TIP3   OH240509   1.355   0.291   1.286  0.1675  0.0753  0.0464
 6365TIP3    H140510   1.371   0.358   1.352 -0.7563  1.3476 -1.0058
 6365TIP3    H240511   1.291   0.232   1.326 -0.4073  0.8536  0.2688
 6366TIP3   OH240512   5.405   6.724   0.171 -0.6852 -0.5394 -0.1011
 6366TIP3    H140513   5.370   6.750   0.086  0.2634  0.1612 -0.2912
 6366TIP3    H240514   5.454   6.800   0.202  1.0505 -1.6285 -0.0673
 6367TIP3   OH240515   0.221   1.845   2.654 -0.7704 -0.6225  0.5562
 6367TIP3    H140516   0.204   1.931   2.692  1.5295 -0.4461  1.2948
 6367TIP3    H240517   0.299   1.858   2.600 -1.3143 -1.9062 -0.5680
 6368TIP3   OH240518   6.671   2.762  11.309  0.6425 -0.0461  0.2639
 6368TIP3    H140519   6.590   2.710  11.309  0.7474 -0.2183 -1.2035
 6368TIP3    H240520   6.739   2.700  11.332  1.0341 -1.0456 -3.2525
 6369TIP3   OH240521   3.654   5.618   2.303  0.3074  0.4576 -0.2308
 6369TIP3    H140522   3.636   5.706   2.271 -0.4151 -0.4641 -2.4246
 6369TIP3    H240523   3.580   5.566   2.272  1.3541 -1.1782 -0.0238
 6370TIP3   OH240524   3.517   1.776   5.939 -0.0953  0.8922  0.1346
 6370TIP3    H140525   3.610   1.798   5.946  0.8589 -2.8600  0.3175
 6370TIP3    H240526   3.499   1.725   6.018 -2.0738  0.7286 -0.4073
 6371TIP3   OH240527   3.082   4.560  12.152 -0.5623  0.1507  0.2613
 6371TIP3    H140528   3.126   4.644  12.137  0.3077 -0.3471  0.0094
 6371TIP3    H240529   3.021   4.551  12.079 -0.5121  0.4727  0.1798
 6372TIP3   OH240530   4.625   1.067   1.726 -0.0213  0.1104  0.4776
 6372TIP3    H140531   4.563   1.009   1.770 -0.9158  1.1582  0.6310
 6372TIP3    H240532   4.672   1.110   1.797 -2.6052  3.0272  0.4994
 6373TIP3   OH240533   2.363   0.444   6.036 -0.4646 -0.4423  0.4368
 6373TIP3    H140534   2.407   0.369   6.076  0.4618  0.3503  0.9543
 6373TIP3    H240535   2.334   0.497   6.110 -0.6392 -0.0306  0.0785
 6374TIP3   OH240536   1.903   2.508   4.672  0.0024 -0.2422 -0.0498
 6374TIP3    H140537   1.918   2.475   4.760  0.7607  0.2473  0.0091
 6374TIP3    H240538   1.985   2.492   4.626  0.9416  2.9810  0.4271
 6375TIP3   OH240539   4.471   4.176  15.082  0.4691 -0.3703 -0.1457
 6375TIP3    H140540   4.504   4.094  15.044 -0.8924 -0.8835 -0.2321
 6375TIP3    H240541   4.550   4.220  15.113  1.5565 -0.3189 -2.7856
 6376TIP3   OH240542   0.206   5.150  15.543  0.0067 -0.0475  0.9125
 6376TIP3    H140543   0.161   5.234  15.531 -0.1680 -0.1086  1.1386
 6376TIP3    H240544   0.181   5.122  15.631 -1.7960 -1.4818 -0.0333
 6377TIP3   OH240545   3.778   3.022   3.338 -0.5314  0.8054 -0.3963
 6377TIP3    H140546   3.814   2.980   3.416  0.7480 -0.4885 -1.6467
 6377TIP3    H240547   3.850   3.074   3.302 -0.6100  0.1189 -1.5862
 6378TIP3   OH240548   2.231   3.067  13.284  0.1387 -0.4363  0.1960
 6378TIP3    H140549   2.219   3.048  13.191 -1.7679  1.5501  0.0037
 6378TIP3    H240550   2.150   3.035  13.325  1.0126 -1.3943  1.1969
 6379TIP3   OH240551   3.323   3.511  16.704 -0.0954  0.7976 -0.4352
 6379TIP3    H140552   3.286   3.506  16.792  1.5169  0.8573  0.2699
 6379TIP3    H240553   3.303   3.426  16.665 -1.6302  1.1071 -0.3602
 6380TIP3   OH240554   0.858   6.116   1.908  0.0723  0.0474 -0.3158
 6380TIP3    H140555   0.820   6.162   1.833 -1.9989 -0.3198  0.4804
 6380TIP3    H240556   0.786   6.109   1.971  1.0508 -2.0230  0.6156
 6381TIP3   OH240557   1.379   3.851   3.262 -0.0992 -0.4753  0.3263
 6381TIP3    H140558   1.310   3.840   3.197 -0.5189  1.6738  0.3659
 6381TIP3    H240559   1.332   3.854   3.346 -0.3502  4.0427  0.1280
 6382TIP3   OH240560   4.286   4.622  13.426  0.4955  0.2970  0.1992
 6382TIP3    H140561   4.276   4.527  13.432  0.0368  0.3344  0.0627
 6382TIP3    H240562   4.267   4.642  13.334 -1.7063  0.7853  0.7222
 6383TIP3   OH240563   5.995   1.510   5.370  0.5635 -0.1045 -0.2653
 6383TIP3    H140564   5.992   1.451   5.295  0.1591  0.1230 -0.4314
 6383TIP3    H240565   6.088   1.524   5.387  0.6562  1.0076 -1.6420
 6384TIP3   OH240566   0.167   1.576   2.578  0.4393  0.4705  0.3314
 6384TIP3    H140567   0.100   1.533   2.630  0.7389 -0.7814 -0.2959
 6384TIP3    H240568   0.169   1.666   2.610  1.0394 -0.4140  2.9076
 6385TIP3   OH240569   0.470   6.237   0.990  0.3442  1.0555  0.2273
 6385TIP3    H140570   0.397   6.179   1.013  0.3366  0.9111 -0.1532
 6385TIP3    H240571   0.541   6.209   1.049  0.7650 -0.2596 -0.8726
 6386TIP3   OH240572   4.983   4.342  12.172 -0.4248  0.7470  0.0438
 6386TIP3    H140573   5.073   4.323  12.145 -0.8354 -0.3376 -0.6218
 6386TIP3    H240574   4.992   4.379  12.260  0.6595  0.4185  0.0866
 6387TIP3   OH240575   1.939   3.868  12.692 -0.0820  0.6980 -0.3499
 6387TIP3    H140576   1.908   3.778  12.685  1.6108  0.0330  0.2503
 6387TIP3    H240577   1.902   3.900  12.774 -1.4361  0.8644 -1.0200
 6388TIP3   OH240578   1.552   0.350   0.873 -0.1203  0.0581  0.3586
 6388TIP3    H140579   1.544   0.334   0.779 -1.0349  0.5000  0.3515
 6388TIP3    H240580   1.607   0.279   0.905  0.6602  0.2180 -0.6005
 6389TIP3   OH240581   2.981   6.121   4.059  0.1900 -0.3004 -0.5839
 6389TIP3    H140582   2.903   6.170   4.086  1.6162  1.5636  0.3197
 6389TIP3    H240583   2.990   6.141   3.966 -1.4395 -2.0423 -1.1501
 6390TIP3   OH240584   2.287   0.476   4.921  0.1043 -0.2113 -0.2738
 6390TIP3    H140585   2.313   0.386   4.902  1.5988  0.2788 -0.5586
 6390TIP3    H240586   2.292   0.482   5.017 -2.9090 -1.2892  0.0181
 6391TIP3   OH240587   1.141   5.509   0.607  0.0639  0.0275  0.4426
 6391TIP3    H140588   1.051   5.530   0.583 -0.1233 -1.2620  0.0056
 6391TIP3    H240589   1.185   5.594   0.611 -0.7760  0.5447 -0.9585
 6392TIP3   OH240590   3.136   4.761   4.861  0.5497  0.6673  1.0501
 6392TIP3    H140591   3.110   4.689   4.804 -0.0712  0.8799  1.0617
 6392TIP3    H240592   3.149   4.835   4.802 -3.6896  1.8873  1.5201
 6393TIP3   OH240593   2.267   2.362   0.087  0.7641  0.6620 -0.4901
 6393TIP3    H140594   2.191   2.328   0.041  0.3528  0.6030  0.2338
 6393TIP3    H240595   2.341   2.344   0.029  0.4445 -0.7712 -0.4520
 6394TIP3   OH240596   6.432   4.831   5.538  0.6668  0.2789  0.6210
 6394TIP3    H140597   6.448   4.840   5.444  2.8273  0.6041  0.9788
 6394TIP3    H240598   6.520   4.825   5.576 -0.1135  2.0223  2.7959
 6395TIP3   OH240599   0.086   1.949  12.096 -0.0359  0.5196  0.1740
 6395TIP3    H140600   0.042   1.898  12.028  1.6454  2.2429 -2.2616
 6395TIP3    H240601   0.040   1.925  12.177 -1.9144 -1.7454 -1.5006
 6396TIP3   OH240602   1.261   0.860   3.090 -0.2426 -0.9677 -0.1069
 6396TIP3    H140603   1.308   0.855   3.007 -1.2934 -2.3464 -0.6349
 6396TIP3    H240604   1.312   0.804   3.149  0.5428  0.0670  0.2017
 6397TIP3   OH240605   6.643   0.303  11.613  0.0100 -0.0705 -0.2743
 6397TIP3    H140606   6.664   0.261  11.530 -1.8704 -0.5238 -0.5440
 6397TIP3    H240607   6.570   0.362  11.592 -0.8049 -0.5513  1.1423
 6398TIP3   OH240608   5.673   5.010  15.200 -0.5972  0.2898 -0.4585
 6398TIP3    H140609   5.764   4.983  15.215 -0.6616 -0.3539 -1.2318
 6398TIP3    H240610   5.681   5.096  15.158 -0.3157 -0.4345 -1.8997
 6399TIP3   OH240611   4.586   0.750  17.229  1.0432 -0.2911 -0.3365
 6399TIP3    H140612   4.575   0.700  17.148  0.3724  0.2258 -0.5654
 6399TIP3    H240613   4.641   0.694  17.284 -0.9189 -1.9751 -0.0093
 6400TIP3   OH240614   0.430   6.104  10.509  0.2057  0.0519 -0.2745
 6400TIP3    H140615   0.448   6.147  10.593  2.5911 -0.8471 -0.2811
 6400TIP3    H240616   0.380   6.169  10.459 -0.2798  1.0257  1.4114
 6401TIP3   OH240617   0.145   4.149  16.730 -0.3353  0.3846  0.0450
 6401TIP3    H140618   0.160   4.244  16.724 -1.3607  0.6734  1.5098
 6401TIP3    H240619   0.102   4.126  16.648 -0.2525  1.2407 -0.2456
 6402TIP3   OH240620   3.118   0.153  15.769 -0.0498  0.1634 -0.0716
 6402TIP3    H140621   3.165   0.233  15.745  0.5149  0.3865  1.6703
 6402TIP3    H240622   3.187   0.093  15.799 -0.7969  0.3438  2.1026
 6403TIP3   OH240623   5.482   5.742  15.971 -0.3513  0.1287 -0.4130
 6403TIP3    H140624   5.481   5.835  15.994 -0.9969 -0.3071  1.4378
 6403TIP3    H240625   5.561   5.708  16.014 -0.8082 -0.4193  0.0166
 6404TIP3   OH240626   5.665   4.320   0.950  0.2959  0.0966  0.3766
 6404TIP3    H140627   5.669   4.405   0.993  2.9083  0.8904 -1.2810
 6404TIP3    H240628   5.681   4.257   1.020  0.5512  1.1156  1.2498
 6405TIP3   OH240629   3.352   2.419   4.149 -0.3388  0.4333  0.1970
 6405TIP3    H140630   3.311   2.341   4.112  1.1382 -1.1137  1.7264
 6405TIP3    H240631   3.446   2.401   4.143  0.0002  1.9764  0.8439
 6406TIP3   OH240632   0.676   1.241  13.247 -0.0390 -0.4116 -0.3216
 6406TIP3    H140633   0.721   1.167  13.207  1.3193  0.4107 -0.3410
 6406TIP3    H240634   0.645   1.293  13.173 -0.5484 -0.6845 -0.3053
 6407TIP3   OH240635   4.129   2.525  16.070 -0.4446 -0.2083 -0.3620
 6407TIP3    H140636   4.219   2.535  16.038 -0.5075 -2.6191 -1.3960
 6407TIP3    H240637   4.111   2.431  16.063 -2.1458 -0.1581  2.3091
 6408TIP3   OH240638   4.626   1.952   2.958  0.2067  0.4745 -0.0433
 6408TIP3    H140639   4.542   1.998   2.968 -0.8960 -1.0140 -2.1199
 6408TIP3    H240640   4.680   2.011   2.906 -0.5520  0.2528 -1.1035
 6409TIP3   OH240641   2.353   1.867  13.168  0.3211  0.1116  0.1344
 6409TIP3    H140642   2.426   1.913  13.126 -0.2911 -0.5308 -1.6910
 6409TIP3    H240643   2.278   1.884  13.111 -0.9083  0.5353  1.8530
 6410TIP3   OH240644   6.193   2.039  11.579  0.4917 -0.4391 -0.5379
 6410TIP3    H140645   6.159   1.972  11.638  1.8876 -1.4562 -0.8438
 6410TIP3    H240646   6.286   2.045  11.601  0.2642  1.8281 -0.1353
 6411TIP3   OH240647   5.664   5.359  17.049 -0.0670 -0.1284 -0.2913
 6411TIP3    H140648   5.659   5.362  17.144 -0.7575  0.2825 -0.3380
 6411TIP3    H240649   5.758   5.368  17.030  0.2751 -2.0270  0.3984
 6412TIP3   OH240650   1.156   2.029   6.285  0.0615 -0.0216 -0.2898
 6412TIP3    H140651   1.073   2.056   6.245  1.0139  0.5532 -1.9397
 6412TIP3    H240652   1.206   2.111   6.293 -0.1243 -0.1099  2.1790
 6413TIP3   OH240653   0.882   6.271  12.020 -0.2537  0.2967 -0.4277
 6413TIP3    H140654   0.977   6.279  12.015 -0.3241  1.3812 -0.2358
 6413TIP3    H240655   0.852   6.359  12.043 -1.2345 -0.2383  0.4072
 6414TIP3   OH240656   3.164   3.736   0.183  0.0995  0.4433  0.1033
 6414TIP3    H140657   3.174   3.822   0.141  0.8250  0.0293 -0.5955
 6414TIP3    H240658   3.070   3.722   0.188 -0.1564  2.6536  3.0627
 6415TIP3   OH240659   6.561   1.257  17.066 -0.1467 -0.2857 -0.0038
 6415TIP3    H140660   6.503   1.311  17.011 -0.8333 -0.1373  0.8445
 6415TIP3    H240661   6.502   1.218  17.131  0.6133 -0.6739  0.4565
 6416TIP3   OH240662   6.741   6.434   6.008  0.3658 -0.2192 -0.5644
 6416TIP3    H140663   6.717   6.439   6.101 -1.3213  0.7726 -1.0283
 6416TIP3    H240664   6.780   6.347   5.997  0.7673 -0.2646  1.1010
 6417TIP3   OH240665   2.240   6.768   5.586  1.1710 -0.5669 -0.5952
 6417TIP3    H140666   2.211   6.803   5.501 -0.2890 -2.0924 -0.7406
 6417TIP3    H240667   2.299   6.696   5.564  3.4349  1.1083 -0.2827
 6418TIP3   OH240668   4.317   1.728  15.623 -0.6197 -0.0592 -0.1252
 6418TIP3    H140669   4.345   1.761  15.537  0.8682 -1.0437 -0.0347
 6418TIP3    H240670   4.236   1.682  15.605  0.7840 -2.1196 -1.4038
 6419TIP3   OH240671   4.368   3.331  16.885  0.0418  0.4779 -0.5235
 6419TIP3    H140672   4.404   3.357  16.970  1.4031 -2.4025 -0.1752
 6419TIP3    H240673   4.278   3.305  16.904  0.2467  0.1402 -0.0289
 6420TIP3   OH240674   2.082   4.127   2.827 -0.0831  0.4555  0.5995
 6420TIP3    H140675   2.106   4.039   2.798  1.8560  1.1979 -0.1570
 6420TIP3    H240676   2.035   4.165   2.754  0.4897  0.5972  0.2997
 6421TIP3   OH240677   6.268   0.422   2.680  0.0217  0.0257  0.0583
 6421TIP3    H140678   6.199   0.384   2.734  2.4742 -1.5003  2.2626
 6421TIP3    H240679   6.305   0.491   2.734  2.9267 -1.9344  0.7263
 6422TIP3   OH240680   3.964   1.301  11.738  0.0841  1.0566 -0.5616
 6422TIP3    H140681   3.929   1.217  11.710  0.7495  0.3275  0.7463
 6422TIP3    H240682   3.889   1.361  11.735 -0.6094  0.1903 -0.5662
 6423TIP3   OH240683   3.444   0.384   0.331 -0.1314  0.3109 -0.4906
 6423TIP3    H140684   3.450   0.477   0.312  2.0366  0.3530  0.2894
 6423TIP3    H240685   3.528   0.361   0.370 -0.7674 -1.8947 -0.3036
 6424TIP3   OH240686   0.721   1.558   5.262  0.2131 -0.5065  0.4330
 6424TIP3    H140687   0.696   1.478   5.309  2.5553 -1.0624  0.7801
 6424TIP3    H240688   0.699   1.540   5.170 -0.1649 -1.1662  0.6527
 6425TIP3   OH240689   3.360   5.766  10.695  0.0456  0.0079 -0.2107
 6425TIP3    H140690   3.431   5.703  10.712 -0.5659 -0.2877  1.3805
 6425TIP3    H240691   3.367   5.786  10.602  1.2336 -1.2285 -0.4052
 6426TIP3   OH240692   3.074   4.970  11.384  0.2838 -0.0637  0.1619
 6426TIP3    H140693   3.037   5.049  11.345  1.2262  0.1128 -0.3853
 6426TIP3    H240694   3.131   4.934  11.316  1.2589 -0.2379  1.0618
 6427TIP3   OH240695   2.285   2.431   2.672 -0.1761  0.7739 -0.3271
 6427TIP3    H140696   2.196   2.399   2.686 -0.2842  0.9224 -0.6549
 6427TIP3    H240697   2.339   2.381   2.732 -0.6135  1.3409  0.5474
 6428TIP3   OH240698   3.940   5.138   6.407  0.5389 -0.3236 -0.1089
 6428TIP3    H140699   3.865   5.097   6.449  0.4350 -1.0153 -0.9716
 6428TIP3    H240700   3.909   5.226   6.383  0.8901  0.4408  2.1007
 6429TIP3   OH240701   5.854   4.042   3.221 -0.7080 -0.2577  0.5259
 6429TIP3    H140702   5.760   4.031   3.208 -0.7325  0.0728  0.4226
 6429TIP3    H240703   5.883   4.096   3.147 -0.3661 -0.6894  0.3352
 6430TIP3   OH240704   6.367   0.808   5.110  0.1664 -0.2068 -0.4013
 6430TIP3    H140705   6.276   0.835   5.122  0.2496  0.7942 -1.9437
 6430TIP3    H240706   6.363   0.742   5.041  0.5932 -0.2946 -0.3435
 6431TIP3   OH240707   6.612   4.932   2.713 -0.4596 -0.1768 -0.5030
 6431TIP3    H140708   6.531   4.965   2.753  0.4513 -0.4989  1.6619
 6431TIP3    H240709   6.585   4.854   2.665 -1.5266  0.0434 -0.2789
 6432TIP3   OH240710   5.050   1.713   1.556  0.1235  0.2873  0.3339
 6432TIP3    H140711   5.085   1.642   1.501 -2.7663 -2.0622  1.3850
 6432TIP3    H240712   4.986   1.757   1.500 -0.0244  0.3597  0.5599
 6433TIP3   OH240713   0.101   5.410  12.090 -0.4902  0.0730 -0.4303
 6433TIP3    H140714   0.030   5.467  12.058 -0.7856  0.5562  1.0395
 6433TIP3    H240715   0.056   5.339  12.136 -0.0663 -0.5914 -1.0226
 6434TIP3   OH240716   1.517   6.023   3.101 -0.1365 -0.5503 -0.0702
 6434TIP3    H140717   1.560   5.952   3.054  0.6989 -0.0787 -0.0214
 6434TIP3    H240718   1.447   6.051   3.043 -1.2933 -2.2477  0.4403
 6435TIP3   OH240719   4.437   5.473   4.468  0.3448  0.1004  0.2247
 6435TIP3    H140720   4.377   5.451   4.397 -0.8356  0.1970  1.1880
 6435TIP3    H240721   4.416   5.410   4.537 -1.3619  2.5997  2.0595
 6436TIP3   OH240722   0.985   0.353   4.449  0.1786  0.0760  0.2111
 6436TIP3    H140723   0.961   0.413   4.377 -1.1059 -1.8280 -1.0004
 6436TIP3    H240724   1.050   0.295   4.410 -1.0982 -1.4595  0.3292
 6437TIP3   OH240725   5.974   4.521   5.165  0.2658 -0.2969 -0.0533
 6437TIP3    H140726   5.990   4.484   5.252 -1.1594 -2.3826 -0.6521
 6437TIP3    H240727   5.883   4.550   5.168  0.2131 -0.3650 -0.8621
 6438TIP3   OH240728   2.615   2.802   1.372  0.4204  0.4548  0.2349
 6438TIP3    H140729   2.692   2.748   1.388 -0.4140 -0.5137  1.0818
 6438TIP3    H240730   2.630   2.882   1.421 -0.4424 -0.9664  2.8949
 6439TIP3   OH240731   3.953   2.235   4.156 -0.5569 -0.0117 -0.0859
 6439TIP3    H140732   3.863   2.201   4.158 -0.9107  0.9051 -0.2889
 6439TIP3    H240733   4.007   2.158   4.136 -1.5260 -0.1297 -2.4110
 6440TIP3   OH240734   5.873   0.936  13.363 -0.2524  0.1055 -0.3443
 6440TIP3    H140735   5.943   0.995  13.333 -0.8804  0.9832 -0.1250
 6440TIP3    H240736   5.896   0.851  13.327  1.9652 -0.0269  1.3044
 6441TIP3   OH240737   3.267   4.454   2.736 -0.0003  0.2144 -0.4438
 6441TIP3    H140738   3.297   4.536   2.773  0.0332  0.5033 -1.1002
 6441TIP3    H240739   3.181   4.439   2.776  1.0335 -0.6781  1.5305
 6442TIP3   OH240740   0.992   0.303   3.784  0.3420 -0.2087  0.7745
 6442TIP3    H140741   0.971   0.396   3.778  0.2937 -0.2230  0.7203
 6442TIP3    H240742   1.025   0.291   3.873  2.6433  0.3311  0.0286
 6443TIP3   OH240743   3.624   6.712  16.524 -0.0674  0.7172 -0.1702
 6443TIP3    H140744   3.625   6.747  16.613 -0.6479  1.5460 -0.4855
 6443TIP3    H240745   3.554   6.761  16.480 -1.0502 -0.9745 -0.5564
 6444TIP3   OH240746   2.955   1.461  10.661  0.1475 -0.0574  0.0557
 6444TIP3    H140747   3.012   1.385  10.667  0.8356  0.6207  2.4034
 6444TIP3    H240748   2.903   1.459  10.741  0.1601  1.9390  0.1363
 6445TIP3   OH240749   5.353   1.179   4.141 -0.3231  0.7647 -0.4964
 6445TIP3    H140750   5.443   1.202   4.119 -0.4541  0.2627 -1.5569
 6445TIP3    H240751   5.332   1.104   4.085 -1.4777  1.0255 -0.4267
 6446TIP3   OH240752   2.067   2.807   0.942 -0.2721 -0.1129 -0.7233
 6446TIP3    H140753   1.976   2.814   0.971 -0.7316  0.9890 -2.3610
 6446TIP3    H240754   2.069   2.853   0.858  1.3954 -1.6740 -1.5811
 6447TIP3   OH240755   5.447   5.932  12.486  0.7710 -0.5767  0.1054
 6447TIP3    H140756   5.426   5.840  12.496 -1.5036 -0.0667  0.2698
 6447TIP3    H240757   5.388   5.963  12.417  0.0878  1.1921  1.4579
 6448TIP3   OH240758   0.007   4.216   5.346 -0.6015  0.5091  0.0813
 6448TIP3    H140759  -0.014   4.286   5.407 -0.1198 -1.0140  2.0563
 6448TIP3    H240760  -0.078   4.181   5.318 -0.8164  0.6423  0.5676
 6449TIP3   OH240761   4.844   2.627   2.598  0.1503  0.7713 -0.1946
 6449TIP3    H140762   4.767   2.682   2.616 -0.8314 -0.6795  0.1896
 6449TIP3    H240763   4.899   2.638   2.676 -1.1551 -0.6117  0.9530
 6450TIP3   OH240764   6.313   1.500  15.426  0.2120 -0.0759  0.5375
 6450TIP3    H140765   6.333   1.463  15.341  0.1492  1.3910 -0.1309
 6450TIP3    H240766   6.397   1.510  15.470  0.4115  0.8129 -0.0475
 6451TIP3   OH240767   6.515   4.244   3.048  0.5551  0.1070 -0.4918
 6451TIP3    H140768   6.594   4.288   3.076  0.2473  0.2624  0.1411
 6451TIP3    H240769   6.541   4.153   3.035  1.2376  0.5070 -2.0050
 6452TIP3   OH240770   5.738   4.794   4.511 -0.4594 -0.0256  0.2179
 6452TIP3    H140771   5.643   4.787   4.515 -0.5294  0.5657 -0.3348
 6452TIP3    H240772   5.756   4.824   4.422  0.1981  0.6828  0.5835
 6453TIP3   OH240773   4.377   6.542   0.006  0.2706  0.1715  0.7258
 6453TIP3    H140774   4.435   6.618   0.011 -0.5314  0.8057  0.5928
 6453TIP3    H240775   4.292   6.576   0.033 -0.4878 -0.2701 -1.0812
 6454TIP3   OH240776   3.498   3.149   1.384  0.0218 -0.5483 -0.1371
 6454TIP3    H140777   3.415   3.105   1.365 -0.0257 -0.4973 -0.0497
 6454TIP3    H240778   3.488   3.180   1.475 -0.5072  0.8936 -0.6609
 6455TIP3   OH240779   5.762   1.556   1.868  0.1527 -0.2041 -0.4167
 6455TIP3    H140780   5.855   1.538   1.850  0.1465 -0.4303 -0.2132
 6455TIP3    H240781   5.725   1.471   1.892  0.1708  0.1128  0.7439
 6456TIP3   OH240782   3.952   2.156   0.136 -0.1314  0.3702 -0.0774
 6456TIP3    H140783   3.924   2.085   0.080 -0.2498  1.1807 -1.0540
 6456TIP3    H240784   3.924   2.130   0.224  0.5529 -1.1594 -0.3009
 6457TIP3   OH240785   6.010   2.958   1.258  0.5390 -0.5833 -0.6233
 6457TIP3    H140786   6.049   2.879   1.221 -0.3658 -0.0560 -2.7237
 6457TIP3    H240787   5.916   2.946   1.248  0.3811  0.6240 -0.6764
 6458TIP3   OH240788   2.226   0.617  12.257  0.6798 -0.4710 -0.0464
 6458TIP3    H140789   2.174   0.608  12.337 -1.7732 -0.4610 -1.5672
 6458TIP3    H240790   2.289   0.545  12.261  1.4301  0.2840  2.4643
 6459TIP3   OH240791   0.982   1.531  17.074  0.6498 -0.0677  0.3486
 6459TIP3    H140792   0.928   1.488  17.007  1.1691 -0.7530  0.3645
 6459TIP3    H240793   0.920   1.586  17.122  0.1855  0.0887 -0.4044
 6460TIP3   OH240794   3.110   0.484   0.868 -0.1325 -0.9200  0.1919
 6460TIP3    H140795   3.094   0.578   0.875 -2.0169 -1.2786  0.9547
 6460TIP3    H240796   3.066   0.457   0.788  2.9236 -0.6821 -1.6645
 6461TIP3   OH240797   2.155   2.715  13.390 -0.0871  0.2765 -0.2143
 6461TIP3    H140798   2.242   2.683  13.367 -0.0145  0.4804 -0.2183
 6461TIP3    H240799   2.105   2.709  13.309  0.8228  3.2336 -1.0259
 6462TIP3   OH240800   5.656   5.870   0.893 -0.0127 -0.3746 -0.0083
 6462TIP3    H140801   5.615   5.831   0.970  0.1987  1.6740  1.1905
 6462TIP3    H240802   5.585   5.875   0.829 -0.5716 -0.7799  0.5615
 6463TIP3   OH240803   1.375   2.013  12.105  0.4852  0.1581  0.0252
 6463TIP3    H140804   1.360   1.976  12.192  0.4907 -0.8573 -0.4044
 6463TIP3    H240805   1.380   1.937  12.047 -1.9098  0.9386 -1.2293
 6464TIP3   OH240806   5.823   4.157  13.614 -0.7449 -0.5076  0.0453
 6464TIP3    H140807   5.786   4.100  13.681 -0.0474  0.1853  1.0331
 6464TIP3    H240808   5.878   4.218  13.662 -0.5223  0.2315 -1.1281
 6465TIP3   OH240809   5.391   3.296   5.923 -0.1046 -0.6661  0.6101
 6465TIP3    H140810   5.472   3.341   5.944  1.1742 -2.1166 -1.0913
 6465TIP3    H240811   5.322   3.360   5.941  1.3685  0.4634  2.3801
 6466TIP3   OH240812   3.094   3.912  16.519  0.5967  0.1204 -0.5849
 6466TIP3    H140813   3.142   3.832  16.496  0.0156 -0.2932 -0.3748
 6466TIP3    H240814   3.153   3.957  16.580  0.9183 -0.1571 -0.6837
 6467TIP3   OH240815   2.219   3.651   2.027  0.4266  0.3466 -0.0227
 6467TIP3    H140816   2.154   3.718   2.048 -0.7766 -0.6521 -0.4653
 6467TIP3    H240817   2.250   3.674   1.940 -0.9591 -0.4081 -0.7278
 6468TIP3   OH240818   6.027   6.355  12.902 -0.0172 -0.0528 -0.1645
 6468TIP3    H140819   5.957   6.383  12.843  0.4972 -1.0680 -1.2808
 6468TIP3    H240820   6.020   6.259  12.903  0.4827 -0.0893  0.8155
 6469TIP3   OH240821   2.859   1.996   4.083 -0.7701  0.7911  0.3069
 6469TIP3    H140822   2.918   2.009   4.157  1.1609  0.3518 -1.1214
 6469TIP3    H240823   2.871   1.904   4.059  0.4654  1.5469 -2.0782
 6470TIP3   OH240824   6.506   1.879   2.198  0.9462 -1.1976  0.2137
 6470TIP3    H140825   6.589   1.840   2.227  0.1304 -2.5578  0.7799
 6470TIP3    H240826   6.473   1.819   2.132  0.8777 -0.1472 -0.7182
 6471TIP3   OH240827   2.200   1.665   2.336 -0.4196  0.3218  0.3012
 6471TIP3    H140828   2.117   1.623   2.315 -0.6448  0.3035  1.2266
 6471TIP3    H240829   2.252   1.656   2.256 -2.2744  2.7928 -1.2655
 6472TIP3   OH240830   4.443   2.528  15.500  0.1503 -0.1095 -0.1696
 6472TIP3    H140831   4.399   2.446  15.477 -0.3632  0.6500 -2.0074
 6472TIP3    H240832   4.508   2.540  15.431  0.4220  0.8787  0.2541
 6473TIP3   OH240833   5.533   4.739   0.316 -0.2891 -0.4895 -0.2572
 6473TIP3    H140834   5.469   4.728   0.387 -1.0192 -1.3105 -1.0379
 6473TIP3    H240835   5.493   4.803   0.257 -1.2945 -2.4859 -1.7729
 6474TIP3   OH240836   3.590   1.618  13.944 -0.1705 -0.6138 -0.0425
 6474TIP3    H140837   3.659   1.683  13.955 -0.2064 -0.7127  0.8793
 6474TIP3    H240838   3.510   1.664  13.966 -0.1001 -1.1837  1.4695
 6475TIP3   OH240839   6.239   6.310  13.518 -0.2555  0.3204 -0.2428
 6475TIP3    H140840   6.247   6.230  13.570  0.4030  0.2627 -0.4339
 6475TIP3    H240841   6.299   6.372  13.559  0.3253  0.2475 -0.9897
 6476TIP3   OH240842   3.653   1.113   2.425 -0.3522 -0.1267  0.1526
 6476TIP3    H140843   3.660   1.017   2.420 -1.2241 -0.1317 -1.0233
 6476TIP3    H240844   3.728   1.139   2.479  0.7760 -1.3458 -0.7802
 6477TIP3   OH240845   4.594   5.182   4.868  0.5490  0.0195 -0.7666
 6477TIP3    H140846   4.516   5.185   4.811 -0.0741  0.3948  0.0947
 6477TIP3    H240847   4.654   5.124   4.822 -0.1394 -0.0738 -1.5780
 6478TIP3   OH240848   3.932   2.139   1.014 -0.2890 -0.1825 -0.3127
 6478TIP3    H140849   4.018   2.175   0.993 -0.4367  0.9784  1.0871
 6478TIP3    H240850   3.879   2.157   0.936  0.7229 -0.9090 -1.1821
 6479TIP3   OH240851   5.277   0.645   5.188  0.3801 -0.0649 -0.2861
 6479TIP3    H140852   5.335   0.698   5.133  1.0839 -0.4303  0.1034
 6479TIP3    H240853   5.317   0.559   5.190 -0.7961 -0.6426 -0.9567
 6480TIP3   OH240854   5.368   6.188  10.982  0.4908 -0.0209  0.5709
 6480TIP3    H140855   5.414   6.115  10.941 -0.9865  0.7821 -2.6807
 6480TIP3    H240856   5.426   6.263  10.969  0.3076  0.1159  0.5484
 6481TIP3   OH240857   0.361   3.918   1.676  0.1125 -0.1087 -0.0972
 6481TIP3    H140858   0.450   3.901   1.705 -0.8300 -2.3018  1.6385
 6481TIP3    H240859   0.325   3.977   1.743 -0.1528 -0.3117 -0.0586
 6482TIP3   OH240860   2.390   3.793  10.984  0.6635  0.1712  0.1301
 6482TIP3    H140861   2.393   3.812  10.890 -0.1794 -0.4272 -0.0251
 6482TIP3    H240862   2.430   3.707  10.993  2.4190  1.0008  0.5595
 6483TIP3   OH240863   3.771   4.739  11.294 -0.5098 -0.5584 -0.2410
 6483TIP3    H140864   3.763   4.828  11.328  1.1067  0.2371 -1.8518
 6483TIP3    H240865   3.693   4.726  11.241 -2.1495 -1.1625  2.2169
 6484TIP3   OH240866   1.994   3.050  14.482 -0.2241  0.1481  0.0875
 6484TIP3    H140867   1.898   3.050  14.478 -0.2611 -2.2070 -0.2861
 6484TIP3    H240868   2.014   3.008  14.566  0.4707 -0.3284 -0.3129
 6485TIP3   OH240869   3.243   1.555   2.254 -1.1639 -0.1045  0.1444
 6485TIP3    H140870   3.260   1.463   2.234  0.9353 -0.0913  1.7246
 6485TIP3    H240871   3.194   1.587   2.178  2.1211 -1.3379 -2.6093
 6486TIP3   OH240872   0.908   1.208  17.127 -0.0310 -0.2521 -0.4092
 6486TIP3    H140873   0.854   1.149  17.179  0.0427 -0.8261 -0.9690
 6486TIP3    H240874   0.993   1.163  17.121  0.0451 -0.0605 -0.7862
 6487TIP3   OH240875   2.476   3.596   1.630  0.0510 -0.1241  0.0746
 6487TIP3    H140876   2.549   3.619   1.687  0.3758  3.3921 -1.6292
 6487TIP3    H240877   2.398   3.601   1.686  0.5627  1.3705  0.6644
 6488TIP3   OH240878   6.019   0.235  11.890 -0.0671  0.4875 -0.2188
 6488TIP3    H140879   6.108   0.258  11.866 -0.4612  0.9363 -1.3076
 6488TIP3    H240880   5.964   0.299  11.844 -0.9417  0.3674  0.6192
 6489TIP3   OH240881   5.948   0.849   0.044 -0.3616 -0.2134  0.0415
 6489TIP3    H140882   5.914   0.936   0.026  0.7782  0.4115  0.8503
 6489TIP3    H240883   6.026   0.842  -0.011  0.7213  0.0802  1.5272
 6490TIP3   OH240884   0.208   6.683   4.720 -0.2872  0.0681 -0.2732
 6490TIP3    H140885   0.236   6.643   4.802 -0.3612  0.8828  0.1484
 6490TIP3    H240886   0.132   6.735   4.743 -0.0304  0.6701 -0.7779
 6491TIP3   OH240887   6.467   0.708   1.142 -0.0461 -0.1434  0.2815
 6491TIP3    H140888   6.524   0.785   1.140  1.4555 -1.2468 -2.0616
 6491TIP3    H240889   6.516   0.641   1.095 -2.3255 -1.8329  0.2135
 6492TIP3   OH240890   4.576   5.372   0.271  0.2444  0.2327 -0.0527
 6492TIP3    H140891   4.591   5.450   0.217 -1.1187  0.0186 -0.7549
 6492TIP3    H240892   4.528   5.312   0.214 -0.5585 -0.2903  1.1542
 6493TIP3   OH240893   2.539   2.564   4.959  0.4551 -0.4341  0.1500
 6493TIP3    H140894   2.478   2.628   4.924  0.1155  0.0914  1.6887
 6493TIP3    H240895   2.511   2.550   5.049  2.2458 -0.6352  0.6936
 6494TIP3   OH240896   0.042   6.440  12.045 -0.1165  0.4607 -0.2191
 6494TIP3    H140897   0.135   6.423  12.062 -0.3654 -0.9125 -0.1162
 6494TIP3    H240898  -0.004   6.396  12.117 -0.9854 -1.7497 -2.0496
 6495TIP3   OH240899   5.955   4.902   1.034  0.4149 -0.6169  0.4473
 6495TIP3    H140900   5.898   4.977   1.023 -0.5280 -1.5961 -1.6133
 6495TIP3    H240901   5.955   4.859   0.949  3.2858 -1.3051  0.7320
 6496TIP3   OH240902   1.538   6.193   4.465  0.0996 -0.2668  0.2359
 6496TIP3    H140903   1.609   6.195   4.400 -0.1724  0.0110 -0.0561
 6496TIP3    H240904   1.500   6.105   4.456  0.1994 -0.3042  0.1724
 6497TIP3   OH240905   5.437   1.830  13.133 -0.4912  0.1077 -0.0071
 6497TIP3    H140906   5.532   1.835  13.140 -0.2300 -1.8896 -1.5609
 6497TIP3    H240907   5.415   1.895  13.065  0.0262 -1.0196 -1.2747
 6498TIP3   OH240908   4.440   5.321  12.658 -0.2334 -0.1045  0.4402
 6498TIP3    H140909   4.476   5.355  12.740  1.9171 -2.9948  0.7701
 6498TIP3    H240910   4.413   5.231  12.680  1.3457 -1.2724 -2.2613
 6499TIP3   OH240911   3.369   6.036   5.345  0.0870 -0.4006 -0.2855
 6499TIP3    H140912   3.312   5.964   5.372 -0.5051  0.0417 -0.3416
 6499TIP3    H240913   3.346   6.052   5.253 -0.1302  0.1731 -0.1368
 6500TIP3   OH240914   6.461   4.512  13.263 -0.0481 -0.5225 -0.2405
 6500TIP3    H140915   6.436   4.483  13.176 -0.7305  1.3687 -0.7077
 6500TIP3    H240916   6.386   4.492  13.318 -0.3067 -0.1533 -0.4553
 6501TIP3   OH240917   4.709   0.196   5.717  0.1580  0.3631  0.6973
 6501TIP3    H140918   4.790   0.145   5.721 -0.3216 -0.3978  0.7682
 6501TIP3    H240919   4.652   0.147   5.658  0.4621  1.9402 -0.9733
 6502TIP3   OH240920   2.289   6.074   5.576 -0.4957  0.4589  0.0566
 6502TIP3    H140921   2.273   6.077   5.670  0.7413  0.2897  0.2757
 6502TIP3    H240922   2.310   5.982   5.559 -0.7237  0.4875 -0.3892
 6503TIP3   OH240923   4.448   6.085   4.071  0.7372 -0.4037 -0.6811
 6503TIP3    H140924   4.399   6.017   4.024 -0.4568 -0.5317  0.7169
 6503TIP3    H240925   4.432   6.165   4.020 -0.4586 -0.5641 -0.5740
 6504TIP3   OH240926   1.571   5.286   5.677  0.6356 -0.1740  0.1714
 6504TIP3    H140927   1.534   5.264   5.591 -0.4357 -0.8517  0.8024
 6504TIP3    H240928   1.524   5.231   5.739  0.2454  1.5130  1.4068
 6505TIP3   OH240929   4.517   0.050  15.799 -0.2787  0.2997  0.5079
 6505TIP3    H140930   4.425   0.065  15.774 -0.2000  0.0591  0.0750
 6505TIP3    H240931   4.514   0.040  15.894 -0.9495 -1.4567  0.3260
 6506TIP3   OH240932   4.084   5.834  14.038  0.3050 -0.1455  0.2582
 6506TIP3    H140933   4.093   5.929  14.034 -1.1836  0.0109  0.0638
 6506TIP3    H240934   4.002   5.820  14.086  0.0365 -1.2925 -0.5113
 6507TIP3   OH240935   0.032   0.266   0.521 -0.2549 -0.1728 -0.1149
 6507TIP3    H140936  -0.043   0.234   0.571 -0.5102 -0.1547 -0.4814
 6507TIP3    H240937   0.033   0.361   0.537 -1.4362  0.1135 -1.5845
 6508TIP3   OH240938   0.967   0.132   0.543 -0.0442 -0.1217  0.4504
 6508TIP3    H140939   0.952   0.140   0.449  1.7409 -0.3316  0.1308
 6508TIP3    H240940   0.950   0.040   0.562  1.6049 -0.5626 -0.0756
 6509TIP3   OH240941   0.878   3.332  13.826 -0.1884 -0.2805  0.4699
 6509TIP3    H140942   0.787   3.354  13.810 -0.1490 -0.2384  0.3103
 6509TIP3    H240943   0.887   3.241  13.795  0.2470  0.2761 -1.0870
 6510TIP3   OH240944   1.333   4.807  14.690 -0.0467 -0.5827 -0.4827
 6510TIP3    H140945   1.279   4.885  14.676  0.3088  0.1365  1.8905
 6510TIP3    H240946   1.401   4.812  14.623 -1.3353 -0.0616 -1.7682
 6511TIP3   OH240947   3.898   3.471  11.210 -0.1264  0.1907 -0.3482
 6511TIP3    H140948   3.957   3.540  11.179 -1.9354  1.5721 -0.7382
 6511TIP3    H240949   3.930   3.451  11.298  1.8162 -0.1093 -1.0835
 6512TIP3   OH240950   2.543   1.016   2.961  0.0201 -0.5248 -0.0034
 6512TIP3    H140951   2.507   1.105   2.952 -1.4278 -1.1233 -0.2799
 6512TIP3    H240952   2.638   1.029   2.965 -0.1865  1.0500  0.1276
 6513TIP3   OH240953   0.968   3.048   0.931 -0.7097  0.6696  0.0449
 6513TIP3    H140954   0.922   2.968   0.954 -1.5625  1.4030  0.9430
 6513TIP3    H240955   0.989   3.038   0.838 -1.2692 -0.3550  0.0192
 6514TIP3   OH240956   3.225   5.477  11.544 -1.0209 -0.2465 -0.1712
 6514TIP3    H140957   3.243   5.384  11.525  0.2067 -0.2137  0.7516
 6514TIP3    H240958   3.201   5.514  11.459  0.0969 -1.0578 -0.8605
 6515TIP3   OH240959   4.508   4.443  11.324  0.0509  0.1535 -0.2801
 6515TIP3    H140960   4.598   4.424  11.348 -0.4088  0.2007  1.4968
 6515TIP3    H240961   4.498   4.403  11.237  2.4809  2.2521 -1.5940
 6516TIP3   OH240962   3.494   4.742   5.258  0.0041 -0.6611 -0.0251
 6516TIP3    H140963   3.512   4.663   5.308  0.3011 -0.1739  0.6498
 6516TIP3    H240964   3.565   4.802   5.282  0.4578 -0.6014 -1.4300
 6517TIP3   OH240965   2.140   3.559  14.869 -0.4980  0.4070  0.5943
 6517TIP3    H140966   2.193   3.616  14.814  0.2184 -1.1234 -0.3077
 6517TIP3    H240967   2.203   3.514  14.925 -1.1482  1.2529  2.0501
 6518TIP3   OH240968   2.516   5.456   5.038 -0.3881  0.2198 -0.3542
 6518TIP3    H140969   2.555   5.486   5.120  2.4739 -1.8595 -0.8379
 6518TIP3    H240970   2.562   5.507   4.971 -1.9362  1.1290 -0.7371
 6519TIP3   OH240971   6.358   2.311  15.260  0.0438  0.0735 -0.1490
 6519TIP3    H140972   6.279   2.321  15.207 -0.6332 -0.2011  0.7928
 6519TIP3    H240973   6.327   2.272  15.342  1.2802 -0.8727 -0.1123
 6520TIP3   OH240974   3.287   0.558   1.808  0.6837 -0.2151 -0.2616
 6520TIP3    H140975   3.346   0.485   1.829 -0.0956 -0.9133 -0.4891
 6520TIP3    H240976   3.203   0.517   1.792  0.3156  0.7158 -0.7320
 6521TIP3   OH240977   4.200   2.274  14.259 -0.2162 -0.2917  0.1402
 6521TIP3    H140978   4.210   2.181  14.241  0.2690 -0.7887  2.7743
 6521TIP3    H240979   4.123   2.300  14.207 -0.2596 -2.0919 -0.7474
 6522TIP3   OH240980   4.545   5.000   4.515  0.8096  0.0465 -0.3992
 6522TIP3    H140981   4.521   4.908   4.516  1.1996 -0.0527 -0.2547
 6522TIP3    H240982   4.603   5.011   4.590 -3.5762  1.5629  3.0146
 6523TIP3   OH240983   0.086   5.923   1.445  0.3419  0.3062 -0.2224
 6523TIP3    H140984   0.056   5.844   1.399  1.7653 -0.1955 -0.2997
 6523TIP3    H240985   0.038   5.922   1.527  1.9467 -1.8439  0.7308
 6524TIP3   OH240986   5.208   3.192   3.532  0.1167  0.2238 -0.5328
 6524TIP3    H140987   5.175   3.123   3.590  0.1155 -0.0277 -0.8303
 6524TIP3    H240988   5.289   3.157   3.496 -0.1012  0.1996 -1.0117
 6525TIP3   OH240989   0.570   4.266   4.493 -0.2110  0.1627 -0.0351
 6525TIP3    H140990   0.530   4.243   4.577  1.2453  1.7295  1.1104
 6525TIP3    H240991   0.525   4.346   4.466  0.4921  0.6107  0.1016
 6526TIP3   OH240992   4.121   0.880   0.123 -0.7170 -0.1182  0.3793
 6526TIP3    H140993   4.155   0.790   0.123 -1.5626 -0.4641 -1.1150
 6526TIP3    H240994   4.036   0.874   0.167 -0.5977  0.0160  0.6261
 6527TIP3   OH240995   5.228   4.606   4.455  0.3692  0.6316 -0.3847
 6527TIP3    H140996   5.137   4.612   4.482  0.1431 -2.7667 -0.1198
 6527TIP3    H240997   5.231   4.532   4.394  2.7970  1.1835 -1.0140
 6528TIP3   OH240998   2.343   2.223  14.696 -0.0605 -0.1347 -0.1122
 6528TIP3    H140999   2.381   2.282  14.631  0.8607  0.7757  1.2199
 6528TIP3    H241000   2.311   2.281  14.765  1.4503 -1.1900  1.5409
 6529TIP3   OH241001   0.067   1.165  15.532  0.2177  0.1503 -0.0364
 6529TIP3    H141002   0.100   1.079  15.506  0.2438 -0.3648  1.6106
 6529TIP3    H241003  -0.017   1.173  15.487  0.9619 -0.0287 -1.4913
 6530TIP3   OH241004   6.163   1.699  12.681 -0.3921  0.0363 -0.3282
 6530TIP3    H141005   6.152   1.745  12.598  0.7286  0.1499 -0.4168
 6530TIP3    H241006   6.219   1.756  12.734  0.4177 -0.8905 -0.1789
 6531TIP3   OH241007   0.521   2.712  14.113 -0.1181 -0.2007  0.1305
 6531TIP3    H141008   0.539   2.796  14.154  2.7639 -0.7585  0.1268
 6531TIP3    H241009   0.483   2.659  14.183 -0.6166  0.6378  0.5070
 6532TIP3   OH241010   1.009   4.453  15.932 -0.1820 -0.1396 -0.8042
 6532TIP3    H141011   0.990   4.360  15.944  0.7465  0.0965  3.3696
 6532TIP3    H241012   1.071   4.474  16.002  0.2150  3.4535 -2.1204
 6533TIP3   OH241013   0.842   0.003   5.238  0.3842  0.9067 -0.3005
 6533TIP3    H141014   0.921  -0.040   5.207  0.3196  0.8524 -0.3903
 6533TIP3    H241015   0.870   0.052   5.316 -0.6121 -3.4854  3.0157
 6534TIP3   OH241016   3.385   0.503   1.053  0.5193  0.3944  0.3995
 6534TIP3    H141017   3.321   0.458   0.998  0.1152  2.4339 -0.8317
 6534TIP3    H241018   3.334   0.534   1.128  0.7421 -0.9102  1.1039
 6535TIP3   OH241019   6.000   0.459   4.866 -1.2676  0.3332 -0.2190
 6535TIP3    H141020   5.951   0.505   4.935 -1.8595  0.5532 -0.7823
 6535TIP3    H241021   6.052   0.528   4.824 -1.6461  0.3727 -0.6268
 6536TIP3   OH241022   2.294   6.004   4.669 -0.1909 -1.0675 -0.1983
 6536TIP3    H141023   2.329   5.918   4.690  0.5275 -0.4551  1.1518
 6536TIP3    H241024   2.371   6.060   4.660 -0.7232 -0.1522  0.8028
 6537TIP3   OH241025   4.385   1.549   2.245  0.2871 -0.4982  0.2544
 6537TIP3    H141026   4.346   1.462   2.246  0.9299 -0.7854  1.4062
 6537TIP3    H241027   4.479   1.533   2.235  0.7446 -0.0955  3.4780
 6538TIP3   OH241028   3.618   4.543   0.322  0.6793 -0.5233  0.4466
 6538TIP3    H141029   3.565   4.617   0.351  0.9320 -0.1592 -0.0206
 6538TIP3    H241030   3.558   4.491   0.268  0.5028 -0.6701  0.7739
 6539TIP3   OH241031   6.317   6.238  13.127  0.6644 -0.0019 -0.3190
 6539TIP3    H141032   6.359   6.260  13.210  0.8053 -0.2344 -0.3267
 6539TIP3    H241033   6.366   6.162  13.095  0.2522 -0.2612 -0.3367
 6540TIP3   OH241034   6.229   1.853   3.361 -0.2275  0.0211  0.2244
 6540TIP3    H141035   6.242   1.840   3.267 -2.3711 -2.6644  0.2175
 6540TIP3    H241036   6.316   1.845   3.399  0.2249 -2.2975 -1.2359
 6541TIP3   OH241037   4.650   4.032   5.740  0.4377 -0.2851 -0.4730
 6541TIP3    H141038   4.561   4.061   5.761 -0.2446 -2.2328 -0.6395
 6541TIP3    H241039   4.672   4.080   5.659 -0.3835  0.3132 -0.3469
 6542TIP3   OH241040   2.909   2.757   4.729  0.2710 -0.3258 -0.0208
 6542TIP3    H141041   2.892   2.851   4.726 -0.7446 -0.3005  3.6028
 6542TIP3    H241042   3.004   2.750   4.741  0.2115  0.2961  0.8603
 6543TIP3   OH241043   3.934   0.725   3.577 -0.5746 -0.3398 -0.7511
 6543TIP3    H141044   3.944   0.793   3.644  0.1962 -1.6411  0.4747
 6543TIP3    H241045   3.857   0.676   3.604 -1.3105  0.2105 -1.8057
 6544TIP3   OH241046   1.350   1.659   0.929  0.1113  0.2669 -0.2083
 6544TIP3    H141047   1.280   1.595   0.944 -0.0464  0.3081 -0.7541
 6544TIP3    H241048   1.317   1.715   0.859  0.7769  0.1572 -0.6179
 6545TIP3   OH241049   5.113   0.062  12.881  0.0224 -0.0620  0.1091
 6545TIP3    H141050   5.189   0.017  12.843 -0.5716 -1.0549  0.0708
 6545TIP3    H241051   5.058   0.085  12.806 -0.0868 -0.0435  0.1953
 6546TIP3   OH241052   4.405   0.587  13.129 -0.3195 -0.1999  0.5197
 6546TIP3    H141053   4.333   0.611  13.070 -0.1087 -1.1086 -0.1190
 6546TIP3    H241054   4.484   0.615  13.082 -0.1446 -1.0290  0.3009
 6547TIP3   OH241055   3.881   4.005   1.450  0.3103 -0.9352  0.6101
 6547TIP3    H141056   3.803   3.995   1.504  0.4439  2.3172  1.5190
 6547TIP3    H241057   3.914   4.093   1.471  2.7105 -1.2056 -1.7041
 6548TIP3   OH241058   6.424   5.301   3.542  0.7995 -0.3738  0.4394
 6548TIP3    H141059   6.515   5.276   3.557  0.3091 -2.5511 -0.0135
 6548TIP3    H241060   6.380   5.218   3.522 -0.9752  0.8450 -0.8269
 6549TIP3   OH241061   0.470   2.798   0.099 -0.7646 -0.6302  0.4140
 6549TIP3    H141062   0.484   2.889   0.127 -0.6088 -0.0610 -1.4840
 6549TIP3    H241063   0.558   2.763   0.087 -0.8426 -0.5016 -0.5392
 6550TIP3   OH241064   4.182   3.815   0.147  0.2179 -0.0233  0.0769
 6550TIP3    H141065   4.225   3.798   0.231  1.4085  2.9127  0.1109
 6550TIP3    H241066   4.209   3.741   0.092  3.9570  0.7835  0.6606
 6551TIP3   OH241067   1.754   4.471   3.274 -0.4361  0.7280  0.2565
 6551TIP3    H141068   1.694   4.535   3.314 -3.4568 -3.2770  2.4579
 6551TIP3    H241069   1.798   4.430   3.349 -0.8030 -1.8759 -0.9250
 6552TIP3   OH241070   2.038   0.090  16.080 -1.1185 -0.1019 -0.1581
 6552TIP3    H141071   2.029   0.020  16.145  0.2781 -0.5456 -0.4332
 6552TIP3    H241072   1.955   0.089  16.033 -1.8281 -0.3399  1.0607
 6553TIP3   OH241073   1.024   6.295  14.604  0.4073 -0.0358  0.0224
 6553TIP3    H141074   1.099   6.248  14.568  0.8541  1.1674 -0.6698
 6553TIP3    H241075   1.032   6.285  14.699 -0.6141 -2.9996 -0.1699
 6554TIP3   OH241076   0.090   1.038  14.475 -0.2404  0.0235  0.4864
 6554TIP3    H141077   0.020   1.012  14.535 -1.0496 -0.3296 -0.5885
 6554TIP3    H241078   0.058   1.011  14.388  0.6090  1.1247 -0.1789
 6555TIP3   OH241079   0.491   3.870   4.298  0.0201  0.5321 -0.2267
 6555TIP3    H141080   0.558   3.938   4.309 -0.3923  0.8677  0.2902
 6555TIP3    H241081   0.498   3.817   4.378 -0.2548  0.5065 -0.2198
 6556TIP3   OH241082   1.886   1.860  14.245  0.4058 -0.1025  0.1039
 6556TIP3    H141083   1.962   1.917  14.255  0.1104  0.2502  0.3257
 6556TIP3    H241084   1.811   1.917  14.257  0.0529 -0.0001 -2.2353
 6557TIP3   OH241085   6.351   2.477   0.324 -0.3672  0.1096  0.3928
 6557TIP3    H141086   6.324   2.464   0.415 -3.0899 -1.8398 -0.6289
 6557TIP3    H241087   6.323   2.566   0.304 -0.7799  0.1500  1.1231
 6558TIP3   OH241088   5.258   0.259  15.760  0.1351  0.1352 -0.1673
 6558TIP3    H141089   5.315   0.283  15.688  1.6954 -0.6618  0.7755
 6558TIP3    H241090   5.232   0.169  15.741 -1.0923  0.6070 -0.7634
 6559TIP3   OH241091   2.199   3.678   3.491  0.5155  0.1129 -0.2094
 6559TIP3    H141092   2.159   3.663   3.577  0.2963 -0.7499 -0.4581
 6559TIP3    H241093   2.293   3.669   3.505  0.5216  0.5760  0.0590
 6560TIP3   OH241094   4.895   6.101  14.135  0.6174 -0.3126 -0.1677
 6560TIP3    H141095   4.825   6.050  14.175 -0.6215  1.6731  0.3053
 6560TIP3    H241096   4.959   6.114  14.205  0.7596 -0.9004 -0.1890
 6561TIP3   OH241097   6.174   4.856  13.211 -0.0525  0.1648  0.2183
 6561TIP3    H141098   6.237   4.878  13.143 -0.5605  0.4754 -0.1562
 6561TIP3    H241099   6.203   4.906  13.288  1.9582 -2.0686  0.9837
 6562TIP3   OH241100   4.145   0.143   0.522 -0.2675 -0.0384  0.1145
 6562TIP3    H141101   4.205   0.215   0.504  2.0259 -1.8814  0.2536
 6562TIP3    H241102   4.197   0.080   0.572 -1.9561 -2.2160 -0.7915
 6563TIP3   OH241103   1.664   3.472   2.891  0.0759 -0.0901 -0.3819
 6563TIP3    H141104   1.573   3.482   2.864 -0.1296 -0.5517  0.1475
 6563TIP3    H241105   1.695   3.396   2.843 -0.0905 -0.4986  0.1579
 6564TIP3   OH241106   2.997   5.166  12.908 -0.4867 -0.0330 -0.3595
 6564TIP3    H141107   3.027   5.189  12.996 -1.1031 -0.7519  0.0478
 6564TIP3    H241108   3.072   5.182  12.851 -0.0126  0.2117  0.3378
 6565TIP3   OH241109   5.143   1.932  11.133 -0.1177 -0.0847 -0.0789
 6565TIP3    H141110   5.052   1.901  11.138 -0.7790  1.8039  0.0863
 6565TIP3    H241111   5.182   1.904  11.215 -1.2250  1.1092  0.8719
 6566TIP3   OH241112   1.588   5.234   0.232 -0.0094  0.5257 -0.1278
 6566TIP3    H141113   1.613   5.146   0.205 -1.4731  0.0291  0.0436
 6566TIP3    H241114   1.570   5.226   0.326  0.9636  1.2691  0.1259
 6567TIP3   OH241115   4.224   0.119  11.500 -0.3113  0.1756 -0.0869
 6567TIP3    H141116   4.297   0.057  11.502 -1.1461 -0.7848  2.0428
 6567TIP3    H241117   4.237   0.168  11.419  3.1706  0.6112  0.6215
 6568TIP3   OH241118   4.140   4.085   4.265 -0.6987  0.5681  0.0283
 6568TIP3    H141119   4.076   4.026   4.226 -0.2290  0.1170 -0.0599
 6568TIP3    H241120   4.108   4.099   4.354  0.0214 -1.0853  0.5716
 6569TIP3   OH241121   4.789   3.096   0.120 -0.1294 -0.1283  0.0999
 6569TIP3    H141122   4.734   3.061   0.050  1.6052 -0.2188 -1.2523
 6569TIP3    H241123   4.776   3.037   0.193 -2.3126  0.2118  0.0253
 6570TIP3   OH241124   6.162   4.659   0.591 -0.1911  0.2397 -0.3198
 6570TIP3    H141125   6.104   4.734   0.575 -1.8944 -1.3401 -1.6758
 6570TIP3    H241126   6.188   4.669   0.683 -1.7260  1.5834  0.0022
 6571TIP3   OH241127   4.922   1.757  12.374 -0.0434 -0.2468 -0.1099
 6571TIP3    H141128   5.000   1.795  12.333  0.5833 -1.7200 -0.3007
 6571TIP3    H241129   4.946   1.667  12.393 -1.5598 -0.5921  0.2409
 6572TIP3   OH241130   3.287   4.591   1.160  0.7822  0.4543  0.2803
 6572TIP3    H141131   3.351   4.561   1.096  2.2274  0.0886  1.8663
 6572TIP3    H241132   3.314   4.549   1.242  0.2308  2.5828  1.5794
 6573TIP3   OH241133   3.713   3.084   2.595 -0.5449 -0.3329  0.5198
 6573TIP3    H141134   3.688   3.019   2.530 -0.3329 -0.8299  0.9365
 6573TIP3    H241135   3.808   3.078   2.600 -0.5421 -0.1465  0.7177
 6574TIP3   OH241136   2.546   0.628   5.376 -0.1295 -0.2475  0.3306
 6574TIP3    H141137   2.463   0.582   5.390 -0.5572  0.8781  1.5944
 6574TIP3    H241138   2.602   0.599   5.448 -0.2681  0.8539  0.9041
 6575TIP3   OH241139   3.122   5.001   0.193 -0.5353 -0.2017  0.2239
 6575TIP3    H141140   3.209   5.041   0.202 -1.1685  1.3037 -0.1337
 6575TIP3    H241141   3.092   4.988   0.282 -0.8304  1.3052  0.3571
 6576TIP3   OH241142   4.603   6.390  16.009 -0.1901  0.5015  0.0540
 6576TIP3    H141143   4.620   6.481  16.035 -1.1524  0.7695 -0.2052
 6576TIP3    H241144   4.525   6.365  16.059  1.0596 -0.7586  1.3949
 6577TIP3   OH241145   4.936   0.386  11.343 -0.0774  0.5516 -0.2177
 6577TIP3    H141146   4.842   0.399  11.336 -0.8237 -4.1608 -0.9409
 6577TIP3    H241147   4.969   0.399  11.253 -0.4899 -0.4295 -0.5202
 6578TIP3   OH241148   0.639   1.168  10.730 -0.2927  0.2103 -0.3407
 6578TIP3    H141149   0.587   1.213  10.797 -1.6230  0.2313 -1.3832
 6578TIP3    H241150   0.711   1.229  10.711  0.3861  0.0016  1.4046
 6579TIP3   OH241151   6.091   1.648  16.488 -0.1810  0.8938 -0.4828
 6579TIP3    H141152   6.055   1.660  16.576  0.2300  1.2980 -0.3671
 6579TIP3    H241153   6.176   1.691  16.491 -0.9153  2.4552 -1.6036
 6580TIP3   OH241154   4.108   0.808   2.373 -0.9044 -0.2150 -0.0125
 6580TIP3    H141155   4.131   0.758   2.451 -1.7328  1.6564  1.4785
 6580TIP3    H241156   4.051   0.750   2.323 -1.1953 -1.0802  1.2869
 6581TIP3   OH241157   5.872   5.022  16.425 -0.0381 -0.0912 -0.2453
 6581TIP3    H141158   5.823   4.940  16.416  1.8172 -1.1301 -1.0982
 6581TIP3    H241159   5.916   5.014  16.509  0.1102  0.0287 -0.3129
 6582TIP3   OH241160   5.913   4.981   5.691  0.4539  0.3313 -0.4327
 6582TIP3    H141161   5.968   5.025   5.756 -1.1631  1.3120  0.3092
 6582TIP3    H241162   5.867   4.913   5.740  1.0305 -0.5101 -1.0522
 6583TIP3   OH241163   0.877   0.572  16.569  0.4991  0.9634  0.6651
 6583TIP3    H141164   0.944   0.510  16.597 -0.2233 -0.7955 -1.3070
 6583TIP3    H241165   0.796   0.539  16.607  0.0302  0.3689 -0.8054
 6584TIP3   OH241166   6.050   5.507  15.158  0.0197 -0.6713  0.1622
 6584TIP3    H141167   5.982   5.526  15.222 -0.0547 -1.0722  0.2023
 6584TIP3    H241168   6.095   5.430  15.192  0.4661 -0.4344  0.1129
 6585TIP3   OH241169   5.977   2.780  16.979  0.0238 -0.2204 -0.2127
 6585TIP3    H141170   6.045   2.844  17.001  1.2374 -1.2141 -1.0414
 6585TIP3    H241171   5.993   2.758  16.887 -2.2809  0.5636 -0.8356
 6586TIP3   OH241172   5.318   2.681  12.513  0.2382  0.1329 -0.7090
 6586TIP3    H141173   5.248   2.745  12.525 -0.4606 -1.0194  1.6060
 6586TIP3    H241174   5.378   2.695  12.586 -0.0029 -1.9204 -0.0798
 6587TIP3   OH241175   4.485   2.872  13.533  0.0382  0.0171  0.1633
 6587TIP3    H141176   4.485   2.861  13.628  1.3868 -1.0726  0.0543
 6587TIP3    H241177   4.574   2.849  13.507 -0.6822 -0.9353 -1.5084
 6588TIP3   OH241178   2.163   5.964  14.627  0.1837  0.1709 -0.6906
 6588TIP3    H141179   2.178   6.000  14.539  1.6520  0.8006 -0.1976
 6588TIP3    H241180   2.067   5.963  14.636  0.0608  2.9166 -1.1573
 6589TIP3   OH241181   1.197   3.796  16.022 -0.2700 -0.2979 -0.2951
 6589TIP3    H141182   1.216   3.839  16.105 -1.6323 -0.1862 -0.0318
 6589TIP3    H241183   1.265   3.828  15.962  0.7630 -0.4486  0.7883
 6590TIP3   OH241184   1.600   0.554   3.679  0.1689  0.1789  0.1600
 6590TIP3    H141185   1.566   0.490   3.616  0.5218 -1.6515  1.7717
 6590TIP3    H241186   1.596   0.508   3.763 -1.1268  2.8828  1.6212
 6591TIP3   OH241187   5.491   0.842  15.689  0.3311 -0.5557 -0.5574
 6591TIP3    H141188   5.574   0.890  15.684  0.7456 -0.6144  3.8459
 6591TIP3    H241189   5.427   0.908  15.716 -0.7579 -0.8755 -2.2871
 6592TIP3   OH241190   0.994   5.721   6.457  0.4469 -0.2854 -0.0707
 6592TIP3    H141191   0.912   5.744   6.500 -0.3554  0.0784 -1.7633
 6592TIP3    H241192   0.984   5.753   6.367  2.7285  0.4110 -0.1014
 6593TIP3   OH241193   5.963   5.994  10.611  0.1880 -0.0371  0.1015
 6593TIP3    H141194   5.901   5.989  10.537  1.7336 -1.6264 -1.1216
 6593TIP3    H241195   6.049   6.001  10.569  1.1090 -1.2874  1.7659
 6594TIP3   OH241196   0.352   3.827   6.355 -0.3559  0.1550  0.7641
 6594TIP3    H141197   0.277   3.798   6.303  0.1363  1.8887 -1.0142
 6594TIP3    H241198   0.345   3.923   6.356  0.5796  0.2199  2.5098
 6595TIP3   OH241199   0.154   0.644   1.132  0.1252 -0.0497 -0.2275
 6595TIP3    H141200   0.105   0.618   1.210 -0.6089  0.4460 -0.5223
 6595TIP3    H241201   0.217   0.573   1.119  0.1013 -0.2444  0.6856
 6596TIP3   OH241202   3.929   6.191   2.022  0.2502 -0.0319 -0.2697
 6596TIP3    H141203   4.024   6.192   2.032  0.2403  0.8824 -0.2290
 6596TIP3    H241204   3.909   6.272   1.974 -0.5973  0.2468  0.5301
 6597TIP3   OH241205   1.538   1.297   2.073 -0.4914  0.5588 -0.4237
 6597TIP3    H141206   1.545   1.383   2.031  0.4445 -0.0049 -1.4678
 6597TIP3    H241207   1.628   1.277   2.101 -0.4787 -0.6152 -1.2780
 6598TIP3   OH241208   1.169   2.570   5.209 -0.7965  0.0117 -0.4625
 6598TIP3    H141209   1.203   2.541   5.125 -2.3187 -2.0011 -0.4260
 6598TIP3    H241210   1.226   2.643   5.234  2.4056 -2.1178 -1.2009
 6599TIP3   OH241211   2.444   4.608  15.070 -0.2377  0.0716 -0.2771
 6599TIP3    H141212   2.351   4.625  15.051 -0.1769  0.7184  0.0034
 6599TIP3    H241213   2.485   4.599  14.984 -0.5344 -0.0679 -0.4038
 6600TIP3   OH241214   1.061   3.558   4.932 -0.6530  0.5382  0.5891
 6600TIP3    H141215   1.147   3.522   4.911 -0.5005  1.2659 -0.0614
 6600TIP3    H241216   1.080   3.646   4.965 -1.1698  0.8283  0.1156
 6601TIP3   OH241217   1.945   3.193   4.866  0.1491 -0.1529  0.6771
 6601TIP3    H141218   1.990   3.109   4.875  1.2396  0.4325  0.6444
 6601TIP3    H241219   2.014   3.258   4.866 -0.6400  0.6955 -0.1851
 6602TIP3   OH241220   3.202   3.080  13.495 -0.3192 -0.1542 -0.4669
 6602TIP3    H141221   3.132   3.125  13.448 -1.1177 -0.0893  0.7419
 6602TIP3    H241222   3.283   3.112  13.455 -1.0022 -1.8400 -3.3312
 6603TIP3   OH241223   0.408   6.783   2.609  0.0305  0.2150 -0.0164
 6603TIP3    H141224   0.462   6.845   2.658  2.3379 -1.8722  0.2122
 6603TIP3    H241225   0.457   6.767   2.528 -0.2441 -1.6918  0.1774
 6604TIP3   OH241226   2.436   6.569   1.943  0.2202  0.0456 -0.5048
 6604TIP3    H141227   2.473   6.657   1.942  0.4338  0.0093  1.2500
 6604TIP3    H241228   2.342   6.583   1.944  0.2518  0.3306  1.3208
 6605TIP3   OH241229   6.637   1.225   1.126  0.0832 -0.3137 -0.5107
 6605TIP3    H141230   6.562   1.260   1.077 -0.1608 -2.9695 -2.1155
 6605TIP3    H241231   6.603   1.208   1.213 -0.7344  0.0625 -0.7506
 6606TIP3   OH241232   6.639   0.003  15.151  0.1814 -0.4237  0.3309
 6606TIP3    H141233   6.731  -0.021  15.142 -0.0101 -1.7616  1.7757
 6606TIP3    H241234   6.641   0.093  15.182  0.9643  0.1819 -1.4045
 6607TIP3   OH241235   0.712   0.865   2.424  0.0572  0.3916  0.1863
 6607TIP3    H141236   0.729   0.772   2.413  0.2213  0.4166  0.2317
 6607TIP3    H241237   0.771   0.908   2.362  1.1337  0.5423  1.3001
 6608TIP3   OH241238   5.786   4.584  13.001 -0.1275  0.4803  0.0717
 6608TIP3    H141239   5.798   4.527  13.077 -2.8818  2.0043  1.7667
 6608TIP3    H241240   5.824   4.668  13.028 -0.3068  0.7714 -0.5769
 6609TIP3   OH241241   3.625   2.887   3.541  0.0603 -0.3330 -0.0349
 6609TIP3    H141242   3.596   2.922   3.626  0.1161  0.1284 -0.2052
 6609TIP3    H241243   3.711   2.849   3.560  0.5174  0.6476 -0.0869
 6610TIP3   OH241244   0.236   2.371  11.013 -0.1993 -0.6770  0.4139
 6610TIP3    H141245   0.165   2.388  10.952 -0.0440 -0.2501  0.3519
 6610TIP3    H241246   0.209   2.414  11.094  0.5090  0.4700  0.0543
 6611TIP3   OH241247   6.005   4.124   4.322  0.4569  0.0860 -0.1111
 6611TIP3    H141248   6.060   4.196   4.292  1.7540 -1.0151 -0.4603
 6611TIP3    H241249   6.044   4.097   4.405  1.8504 -2.1340 -1.4270
 6612TIP3   OH241250   0.424   0.221   0.261 -0.2181  0.2124  0.2399
 6612TIP3    H141251   0.483   0.148   0.242  0.2579  0.9879 -1.3538
 6612TIP3    H241252   0.352   0.181   0.310  1.0148 -0.9609  1.1306
 6613TIP3   OH241253   1.788   5.902  11.404 -0.2867  0.0905 -0.4116
 6613TIP3    H141254   1.788   5.931  11.495  1.3427 -1.8792  0.2523
 6613TIP3    H241255   1.695   5.893  11.383 -0.6853  0.3221  1.1453
 6614TIP3   OH241256   0.146   5.985   0.331  0.2626  0.1235  0.4884
 6614TIP3    H141257   0.082   5.974   0.260  2.2876  0.0485 -1.4004
 6614TIP3    H241258   0.104   6.045   0.392 -1.9066 -0.5044 -0.3278
 6615TIP3   OH241259   3.295   4.960  10.900 -0.2335  0.0076 -0.2992
 6615TIP3    H141260   3.330   4.880  10.861  0.6287  0.4885 -0.5225
 6615TIP3    H241261   3.269   5.014  10.825  0.0750  0.3259 -0.1818
 6616TIP3   OH241262   0.179   1.257   6.227 -0.9621 -0.6316 -0.2858
 6616TIP3    H141263   0.216   1.231   6.143 -0.1841 -1.2338  0.2328
 6616TIP3    H241264   0.250   1.304   6.272 -0.6973 -2.0446  0.8270
 6617TIP3   OH241265   2.280   5.370  11.284 -0.3828 -0.5163  0.2381
 6617TIP3    H141266   2.316   5.380  11.196 -0.2704  0.1800  0.3580
 6617TIP3    H241267   2.236   5.453  11.302  1.0165 -0.0250  1.4751
 6618TIP3   OH241268   4.577   1.228   2.631 -0.7518  0.1894  0.8988
 6618TIP3    H141269   4.584   1.239   2.726 -1.7020  0.1326  0.9791
 6618TIP3    H241270   4.585   1.133   2.618  2.8049  0.4676  0.6064
 6619TIP3   OH241271   3.826   0.145   3.605 -0.3979 -0.2269 -0.1646
 6619TIP3    H141272   3.879   0.080   3.652 -0.9532  0.9934  2.2110
 6619TIP3    H241273   3.735   0.118   3.622 -0.6562  1.6508  1.6102
 6620TIP3   OH241274   0.642   0.847   0.316  0.0206 -0.1905  0.3452
 6620TIP3    H141275   0.653   0.941   0.333 -0.3241 -0.1820  0.5372
 6620TIP3    H241276   0.547   0.835   0.309  0.1385 -0.2377 -1.3383
 6621TIP3   OH241277   6.113   4.033  14.066 -0.4832  0.3776  0.3019
 6621TIP3    H141278   6.126   3.955  14.013 -0.1343 -0.5463  1.7427
 6621TIP3    H241279   6.082   4.001  14.150 -0.1190  1.7702  0.9836
 6622TIP3   OH241280   5.763   3.394   0.334  0.1631 -0.2157 -0.3711
 6622TIP3    H141281   5.832   3.442   0.288 -0.3281  0.6166 -0.2487
 6622TIP3    H241282   5.742   3.449   0.409  0.8946 -1.5262  0.8000
 6623TIP3   OH241283   3.255   6.123   4.165 -0.0857  0.1872 -0.3009
 6623TIP3    H141284   3.194   6.050   4.177 -0.0492  0.1892 -0.0923
 6623TIP3    H241285   3.251   6.171   4.247 -1.1678  1.2298 -0.9534
 6624TIP3   OH241286   3.024   6.072  11.698 -0.1491  0.1099 -0.0286
 6624TIP3    H141287   2.956   6.116  11.749 -0.1996 -1.3503  1.2272
 6624TIP3    H241288   3.009   6.100  11.608 -0.8556  1.7529  0.5813
 6625TIP3   OH241289   5.477   1.719   3.930 -0.5146 -0.5378 -0.1289
 6625TIP3    H141290   5.434   1.640   3.963 -1.4592  0.4598  1.0931
 6625TIP3    H241291   5.405   1.773   3.897 -0.0823  0.6288  0.8056
 6626TIP3   OH241292   1.258   0.639  14.952  0.4488  0.6136  0.0294
 6626TIP3    H141293   1.174   0.653  14.997  0.4100  1.1893 -0.2167
 6626TIP3    H241294   1.242   0.669  14.863  0.8461  0.4846 -0.0845
 6627TIP3   OH241295   4.013   6.230   1.401 -0.5623  0.2308 -0.1940
 6627TIP3    H141296   3.987   6.172   1.329 -2.5117  1.0627 -0.2000
 6627TIP3    H241297   3.999   6.178   1.480  0.9612 -0.4628 -0.3746
 6628TIP3   OH241298   6.090   1.194   2.422  0.7983 -0.4194 -0.5081
 6628TIP3    H141299   6.159   1.184   2.356  1.1396 -0.1369 -0.1974
 6628TIP3    H241300   6.019   1.239   2.376  1.7658  1.4443 -0.1783
 6629TIP3   OH241301   5.879   1.829   4.266 -0.4639 -0.3295  0.0383
 6629TIP3    H141302   5.827   1.828   4.185 -0.2420  0.6900 -0.1206
 6629TIP3    H241303   5.814   1.831   4.336 -0.6547 -0.9256 -0.1122
 6630TIP3   OH241304   6.638   1.376  13.776 -0.3498 -0.0087  0.3627
 6630TIP3    H141305   6.694   1.365  13.700  0.7264  2.7139  0.7125
 6630TIP3    H241306   6.553   1.402  13.740 -0.4582 -0.8474  0.0031
 6631TIP3   OH241307   0.218   1.927   0.286 -0.0342  0.2731 -0.2456
 6631TIP3    H141308   0.243   1.886   0.203  2.6053  0.4337  0.4397
 6631TIP3    H241309   0.260   1.874   0.353 -2.0359  0.2395  1.0280
 6632TIP3   OH241310   2.969   4.006  15.570 -0.1436  0.7346  0.1673
 6632TIP3    H141311   2.954   3.929  15.625 -2.1569  0.6844 -0.3963
 6632TIP3    H241312   2.959   3.973  15.480  2.5779  0.9181 -0.2496
 6633TIP3   OH241313   0.795   4.317  12.908  0.0121 -0.0747 -0.0139
 6633TIP3    H141314   0.867   4.321  12.845  0.5775  0.8626  0.6711
 6633TIP3    H241315   0.741   4.393  12.888  0.7088  0.7604  1.2269
 6634TIP3   OH241316   1.345   1.565  12.669  0.0367  0.4557  0.0033
 6634TIP3    H141317   1.350   1.525  12.756  1.8040 -0.4649 -0.5126
 6634TIP3    H241318   1.409   1.636  12.671 -2.4851  2.8287  0.6308
 6635TIP3   OH241319   3.151   0.917  13.231 -0.8776 -0.1053 -0.9454
 6635TIP3    H141320   3.070   0.884  13.269  0.6473 -0.9687  1.7100
 6635TIP3    H241321   3.218   0.854  13.259  0.8686  1.1193 -2.2396
 6636TIP3   OH241322   0.067   6.589   2.707  0.4347 -0.2113  0.5288
 6636TIP3    H141323   0.159   6.563   2.705  0.7217  0.7235  1.2388
 6636TIP3    H241324   0.064   6.669   2.655 -0.3924 -1.4541 -1.3944
 6637TIP3   OH241325   5.670   3.874  11.384 -0.8420  0.1704 -0.0311
 6637TIP3    H141326   5.654   3.948  11.442 -2.3835  1.3023 -1.8311
 6637TIP3    H241327   5.755   3.892  11.344  1.3237 -1.7607  3.4908
 6638TIP3   OH241328   6.033   5.801   4.679  0.8602 -0.8815 -0.1423
 6638TIP3    H141329   5.937   5.810   4.684  1.0891  2.4176 -0.6495
 6638TIP3    H241330   6.049   5.711   4.707 -2.2117 -0.6820  2.7539
 6639TIP3   OH241331   4.856   2.346  15.494  0.1173  0.5541 -0.1496
 6639TIP3    H141332   4.763   2.351  15.516  0.3056  0.0711  0.7526
 6639TIP3    H241333   4.875   2.430  15.452 -0.5361  0.9815  0.4093
 6640TIP3   OH241334   2.609   6.775   6.282 -0.2470 -0.1946 -0.8033
 6640TIP3    H141335   2.556   6.717   6.336  0.3328  0.2139  0.2284
 6640TIP3    H241336   2.682   6.801   6.339 -0.4076  1.4110 -1.2993
 6641TIP3   OH241337   1.867   3.698   5.971  0.2233 -0.2030 -0.0976
 6641TIP3    H141338   1.927   3.772   5.962  0.1231  0.1116  1.6946
 6641TIP3    H241339   1.792   3.722   5.917  1.0122  0.1258 -1.0653
 6642TIP3   OH241340   5.018   5.708  16.368 -0.4061 -0.2881  0.7084
 6642TIP3    H141341   4.939   5.754  16.396  0.3343  2.0702 -0.9299
 6642TIP3    H241342   5.088   5.772  16.380  0.7392 -1.1878 -0.9767
 6643TIP3   OH241343   4.012   0.746   1.725  0.4458 -0.0595 -0.0352
 6643TIP3    H141344   4.028   0.753   1.631  0.1351  0.0988 -0.0794
 6643TIP3    H241345   4.017   0.652   1.743  0.4273 -0.0984 -0.2271
 6644TIP3   OH241346   1.364   6.571   5.657  0.1265 -0.3604  0.4769
 6644TIP3    H141347   1.326   6.549   5.571  0.1982 -0.4369  0.4651
 6644TIP3    H241348   1.397   6.660   5.647  0.3820 -0.4690  0.3415
 6645TIP3   OH241349   0.314   4.011   5.894  0.5352 -0.1903 -0.3710
 6645TIP3    H141350   0.316   4.106   5.901  1.7314 -0.2124 -0.2513
 6645TIP3    H241351   0.221   3.988   5.901 -0.0559  1.1617 -3.1010
 6646TIP3   OH241352   3.905   3.471   0.064 -0.1839 -0.3109 -0.4507
 6646TIP3    H141353   3.922   3.494   0.156  0.0458 -0.6198 -0.4155
 6646TIP3    H241354   3.881   3.554   0.023  0.9310  0.0569 -0.3879
 6647TIP3   OH241355   1.281   5.863  15.295 -0.1712 -0.1620  0.1328
 6647TIP3    H141356   1.209   5.925  15.298  0.8005  1.0315 -0.6570
 6647TIP3    H241357   1.360   5.917  15.289  0.8471 -1.4165  1.5671
 6648TIP3   OH241358   2.435   4.216   4.508  0.0898 -0.0312 -0.0240
 6648TIP3    H141359   2.383   4.208   4.428  0.8532  0.4869 -0.5865
 6648TIP3    H241360   2.509   4.272   4.483 -0.0670  0.7732  1.2451
 6649TIP3   OH241361   4.161   0.426   1.556  0.0258  0.7576  0.0612
 6649TIP3    H141362   4.195   0.467   1.476  0.9606  2.1643  1.1472
 6649TIP3    H241363   4.118   0.346   1.526  3.4879 -0.6174 -1.4801
 6650TIP3   OH241364   2.019   5.287  15.214  0.6947 -0.5422 -0.0286
 6650TIP3    H141365   2.071   5.267  15.136  0.5619  2.2033 -0.8876
 6650TIP3    H241366   2.081   5.328  15.274  0.2578 -0.3523  0.2916
 6651TIP3   OH241367   6.557   2.584  16.232 -0.7113  0.3062  0.0499
 6651TIP3    H141368   6.547   2.507  16.288 -1.0192  0.4104  0.1370
 6651TIP3    H241369   6.594   2.549  16.150 -0.5921  0.1080  0.1896
 6652TIP3   OH241370   0.753   1.988   0.666  0.6727  0.5580  0.0496
 6652TIP3    H141371   0.711   1.945   0.740  0.6863  1.8886  0.8482
 6652TIP3    H241372   0.838   1.945   0.657  0.2595 -0.2882  0.1560
 6653TIP3   OH241373   1.502   6.350  14.640  0.1295 -0.1226 -0.1011
 6653TIP3    H141374   1.462   6.424  14.594  1.3655  0.9667  0.5511
 6653TIP3    H241375   1.524   6.385  14.727  0.3100 -1.3846  0.3715
 6654TIP3   OH241376   0.950   6.316   3.501 -0.0077  0.2253  0.3174
 6654TIP3    H141377   0.997   6.300   3.419  0.8192  0.7564  0.6734
 6654TIP3    H241378   0.858   6.312   3.478  0.2217  1.5242 -0.8629
 6655TIP3   OH241379   2.001   5.009  15.573 -0.3717  0.0632 -0.1600
 6655TIP3    H141380   1.965   4.984  15.658 -0.4029  0.1233 -0.1552
 6655TIP3    H241381   2.074   4.949  15.559 -1.2443 -0.8646 -0.7487
 6656TIP3   OH241382   6.687   2.767   1.303 -0.0530  0.0258 -0.1876
 6656TIP3    H141383   6.667   2.831   1.234  0.0610 -0.0302 -0.2726
 6656TIP3    H241384   6.670   2.682   1.261  1.4625 -0.0799 -0.6241
 6657TIP3   OH241385   6.245   0.186   5.307 -0.3198  0.2686 -0.4683
 6657TIP3    H141386   6.224   0.251   5.239  0.2638  0.6473 -0.2952
 6657TIP3    H241387   6.339   0.170   5.295 -0.3863 -0.2615 -0.2632
 6658TIP3   OH241388   0.289   5.134  11.113  0.3867 -1.0287  0.2419
 6658TIP3    H141389   0.245   5.097  11.036  0.9811 -1.1853 -0.0236
 6658TIP3    H241390   0.217   5.165  11.169  0.0165  1.3655 -1.4939
 6659TIP3   OH241391   3.885   4.227   3.882  0.5755  0.0481  0.2674
 6659TIP3    H141392   3.911   4.316   3.858 -0.2895  0.3987  0.6026
 6659TIP3    H241393   3.959   4.172   3.857  1.0207  0.8381 -0.1445
 6660TIP3   OH241394   4.134   4.059  16.199  0.1563  0.0179  0.5887
 6660TIP3    H141395   4.155   4.151  16.213 -0.1154  0.1390  0.2151
 6660TIP3    H241396   4.055   4.043  16.251 -0.9735  0.5200 -0.9247
 6661TIP3   OH241397   1.046   5.143   3.660 -0.3008 -0.4284  0.0108
 6661TIP3    H141398   0.968   5.184   3.697  0.2895  1.0932 -0.4152
 6661TIP3    H241399   1.109   5.140   3.732  0.8468  2.5304 -0.8062
 6662TIP3   OH241400   4.816   4.391   5.019 -0.0594 -0.1343 -0.1822
 6662TIP3    H141401   4.850   4.381   5.108  0.4860  0.5215 -0.3157
 6662TIP3    H241402   4.793   4.302   4.992  0.8428 -0.4794  0.1815
 6663TIP3   OH241403   6.058   4.119   2.297 -0.1304 -0.1619  0.5399
 6663TIP3    H141404   6.015   4.094   2.379 -1.9577  1.6210  0.1589
 6663TIP3    H241405   6.084   4.210   2.311  0.3048 -0.1186 -0.5644
 6664TIP3   OH241406   1.037   5.847  14.411  0.3308  0.7309 -0.0071
 6664TIP3    H141407   1.009   5.759  14.438 -2.0464  1.9279  1.5856
 6664TIP3    H241408   1.131   5.839  14.398  0.4130 -1.6786  1.7464
 6665TIP3   OH241409   0.581   6.184  12.339  0.3080  0.0307  1.0767
 6665TIP3    H141410   0.500   6.198  12.387 -0.1261 -0.3641  0.4668
 6665TIP3    H241411   0.631   6.122  12.392  0.2125  0.2691  1.4482
 6666TIP3   OH241412   4.828   0.950  16.868  0.1272  0.1769  0.2777
 6666TIP3    H141413   4.771   0.941  16.792  1.0247 -0.0347 -0.3769
 6666TIP3    H241414   4.908   0.990  16.833  1.2165 -1.5298  0.7780
 6667TIP3   OH241415   0.237   3.135   0.553 -0.3909  0.0883 -0.3835
 6667TIP3    H141416   0.281   3.211   0.589 -0.4994 -0.1681  0.3115
 6667TIP3    H241417   0.303   3.091   0.499 -0.1700  0.3736 -0.3437
 6668TIP3   OH241418   1.915   1.343  14.304  0.0744 -0.5034  0.0818
 6668TIP3    H141419   2.002   1.314  14.332  0.7256  1.2087 -0.0783
 6668TIP3    H241420   1.863   1.343  14.383  0.8629  0.6215  0.6239
 6669TIP3   OH241421   4.610   4.839  13.645  0.4785  0.4957 -0.3372
 6669TIP3    H141422   4.516   4.824  13.658  1.0075 -0.8431  2.2813
 6669TIP3    H241423   4.625   4.929  13.674  0.4023 -0.1005  1.5835
 6670TIP3   OH241424   4.400   2.975   6.132 -0.0298  0.3768 -0.0838
 6670TIP3    H141425   4.426   2.885   6.148  2.3718  0.9348 -0.6854
 6670TIP3    H241426   4.375   3.008   6.219  0.1303 -0.5396  0.3193
 6671TIP3   OH241427   3.271   3.338   2.084 -0.1198  0.2764  0.5408
 6671TIP3    H141428   3.246   3.299   2.168 -0.5068 -0.1461  0.2325
 6671TIP3    H241429   3.189   3.372   2.048  0.1439  0.9799  0.6058
 6672TIP3   OH241430   1.367   2.347   4.297  0.0196  0.1022 -0.3344
 6672TIP3    H141431   1.353   2.281   4.365  0.5056  0.2789 -0.0647
 6672TIP3    H241432   1.312   2.421   4.323 -0.4058 -0.1296 -0.5556
 6673TIP3   OH241433   5.695   2.227  14.862  0.0099 -0.1358 -0.2381
 6673TIP3    H141434   5.777   2.275  14.870 -0.2150 -0.2036  3.0487
 6673TIP3    H241435   5.720   2.135  14.859  0.0866 -0.1232  0.0530
 6674TIP3   OH241436   1.194   2.931   5.289 -0.2714 -0.2684  0.2123
 6674TIP3    H141437   1.273   2.982   5.273 -1.2897  1.5103  0.7095
 6674TIP3    H241438   1.213   2.880   5.368  0.8620 -0.9128 -0.4655
 6675TIP3   OH241439   3.605   4.017   2.736  0.1467  0.1331  0.0708
 6675TIP3    H141440   3.528   4.069   2.713 -0.6911 -0.9610  0.3692
 6675TIP3    H241441   3.626   4.045   2.825 -1.0222 -0.8723  0.6807
 6676TIP3   OH241442   0.104   1.158  11.217 -0.2484  0.6759 -0.1099
 6676TIP3    H141443   0.019   1.191  11.187 -0.3909 -0.3045 -0.8136
 6676TIP3    H241444   0.168   1.217  11.177 -0.6280  1.9458  1.1400
 6677TIP3   OH241445   3.485   3.600   2.828 -0.1731  0.0793 -0.6061
 6677TIP3    H141446   3.518   3.621   2.740  1.3053  0.0725 -0.0770
 6677TIP3    H241447   3.491   3.505   2.834  3.2664  0.2922  0.7804
 6678TIP3   OH241448   2.225   3.188  14.381  0.2783  0.1055  0.0838
 6678TIP3    H141449   2.130   3.179  14.391  0.1720  0.8008 -0.2667
 6678TIP3    H241450   2.236   3.232  14.297  0.7671  2.7614  1.4912
 6679TIP3   OH241451   4.039   2.241   5.929 -0.0582 -0.4789 -0.2684
 6679TIP3    H141452   4.016   2.217   5.839 -0.0234 -1.4567 -0.0223
 6679TIP3    H241453   4.076   2.329   5.921 -4.9716  1.7039 -0.5007
 6680TIP3   OH241454   0.710   1.584   3.596  0.0342  0.4570 -0.0162
 6680TIP3    H141455   0.735   1.674   3.617  2.7039 -0.0774 -0.7120
 6680TIP3    H241456   0.737   1.533   3.673  1.2850 -0.1723 -0.8637
 6681TIP3   OH241457   1.823   1.698   1.199  0.3407 -0.2256  0.0039
 6681TIP3    H141458   1.857   1.775   1.246 -0.2116  0.2783 -0.4266
 6681TIP3    H241459   1.893   1.633   1.207  0.7218  0.2462  0.5564
 6682TIP3   OH241460   3.720   2.455  13.562  0.6973  0.1661 -0.5485
 6682TIP3    H141461   3.710   2.362  13.584  1.1237  0.3559  0.4853
 6682TIP3    H241462   3.762   2.493  13.640  0.3399  1.2625 -0.8931
 6683TIP3   OH241463   2.905   6.638   3.196 -0.3151  0.2907 -0.3525
 6683TIP3    H141464   2.980   6.608   3.248  0.5902  2.1522 -0.5357
 6683TIP3    H241465   2.829   6.598   3.237  0.7899 -1.7174 -0.2187
 6684TIP3   OH241466   3.613   2.477  14.791 -0.0884 -0.2907 -0.2967
 6684TIP3    H141467   3.613   2.381  14.794 -1.3762 -0.2494  1.1589
 6684TIP3    H241468   3.555   2.504  14.862  2.0686  1.6216  0.8367
 6685TIP3   OH241469   5.462   3.900  12.141 -0.6068  0.2429 -0.3956
 6685TIP3    H141470   5.535   3.943  12.097 -0.5376  2.0413  1.3874
 6685TIP3    H241471   5.384   3.943  12.107 -0.7794 -0.7615 -1.3067
 6686TIP3   OH241472   0.655   0.686  12.348 -0.0151  0.6178 -0.3060
 6686TIP3    H141473   0.636   0.703  12.255 -0.7943  0.8680 -0.1078
 6686TIP3    H241474   0.610   0.603  12.366  1.2579 -0.1347 -0.4883
 6687TIP3   OH241475   3.326   2.046  13.249 -0.1211  0.1374  0.2609
 6687TIP3    H141476   3.307   2.139  13.262 -3.9110 -0.7525  1.7519
 6687TIP3    H241477   3.276   2.022  13.171  1.9208 -0.3925 -0.9225
 6688TIP3   OH241478   1.622   2.115  13.639  0.2381  0.0720  0.4684
 6688TIP3    H141479   1.615   2.210  13.642  1.9716  0.2945 -1.5334
 6688TIP3    H241480   1.532   2.085  13.623  0.1498  1.5854 -2.2580
 6689TIP3   OH241481   1.887   1.298  13.039 -0.7454  0.2763  0.1062
 6689TIP3    H141482   1.912   1.386  13.066 -1.3733  0.3272  0.5283
 6689TIP3    H241483   1.801   1.309  12.997 -0.0422  0.1197 -1.4088
 6690TIP3   OH241484   2.395   0.343   0.790 -0.2040  0.2972 -0.3675
 6690TIP3    H141485   2.472   0.296   0.824 -1.8888 -2.1269  0.2151
 6690TIP3    H241486   2.368   0.292   0.714 -0.6867  1.7037 -1.1517
 6691TIP3   OH241487   4.179   2.592  15.266 -0.2439 -0.1749 -0.0070
 6691TIP3    H141488   4.134   2.624  15.344 -1.2633 -0.0467 -0.6348
 6691TIP3    H241489   4.134   2.636  15.193  0.9892  0.0556 -0.6395
 6692TIP3   OH241490   5.956   1.838   2.764 -0.0098  0.0040 -0.2277
 6692TIP3    H141491   5.995   1.833   2.677 -0.1181 -3.1594 -0.1315
 6692TIP3    H241492   5.966   1.750   2.801 -4.1820 -0.0005  1.1488
 6693TIP3   OH241493   1.886   5.445   4.281  0.2946  0.0682 -0.0021
 6693TIP3    H141494   1.872   5.474   4.371 -1.1256 -2.3744  0.6119
 6693TIP3    H241495   1.798   5.447   4.242  0.3760 -1.9184 -0.3546
 6694TIP3   OH241496   2.698   5.299  13.069 -0.2036 -0.3694 -0.4359
 6694TIP3    H141497   2.667   5.304  13.160  0.7671 -1.7701 -0.0023
 6694TIP3    H241498   2.715   5.205  13.056 -0.3435 -0.1706 -2.0710
 6695TIP3   OH241499   4.051   6.164   5.167  0.3735 -0.2701  0.0220
 6695TIP3    H141500   3.983   6.169   5.100  1.2609  0.3816 -0.8404
 6695TIP3    H241501   4.080   6.255   5.179  0.6315 -0.4579  0.8636
 6696TIP3   OH241502   3.205   4.366   2.376 -0.3243  0.3275  0.2669
 6696TIP3    H141503   3.297   4.350   2.353  0.0993  1.3395  1.2143
 6696TIP3    H241504   3.190   4.309   2.452  0.0818  1.5790  1.2952
 6697TIP3   OH241505   4.160   3.173   3.694 -0.3707 -0.1433  0.4393
 6697TIP3    H141506   4.175   3.239   3.626  1.2405 -0.8385  0.0735
 6697TIP3    H241507   4.178   3.089   3.650 -1.7854 -0.7746  1.0582
 6698TIP3   OH241508   2.745   0.377   3.464  0.5653  0.0998  0.0451
 6698TIP3    H141509   2.802   0.313   3.423 -1.3613 -1.3182 -0.4748
 6698TIP3    H241510   2.728   0.442   3.396 -2.3993 -2.0990 -1.4150
 6699TIP3   OH241511   0.793   0.959  10.659 -0.5874 -0.6326 -0.7502
 6699TIP3    H141512   0.736   1.031  10.684  0.3958 -0.5758  1.5345
 6699TIP3    H241513   0.734   0.893  10.623 -1.7487  0.5022 -0.9585
 6700TIP3   OH241514   2.499   3.836   4.212 -0.1458  0.0769 -0.0220
 6700TIP3    H141515   2.470   3.879   4.131 -0.2560 -1.2182 -0.6936
 6700TIP3    H241516   2.490   3.742   4.193 -0.9630 -0.2269  1.7897
 6701TIP3   OH241517   5.560   4.954  15.453 -0.0943 -0.1856  0.6623
 6701TIP3    H141518   5.620   4.939  15.380  1.4487  3.4955  1.0729
 6701TIP3    H241519   5.474   4.962  15.413  0.8045  2.3026 -0.8738
 6702TIP3   OH241520   2.023   3.682  16.342  0.4448 -0.2888  0.2759
 6702TIP3    H141521   2.022   3.586  16.338  1.2414 -0.2981  0.1531
 6702TIP3    H241522   2.039   3.702  16.434 -0.4873 -0.2655  0.4302
 6703TIP3   OH241523   4.884   4.810  16.237  0.1553  0.1631 -0.3682
 6703TIP3    H141524   4.963   4.861  16.249  1.3287 -1.5179 -0.7322
 6703TIP3    H241525   4.899   4.760  16.156 -1.7750  0.7181 -1.1121
 6704TIP3   OH241526   1.884   0.911   2.531  0.3259  0.4159 -0.2418
 6704TIP3    H141527   1.880   0.891   2.437  2.2660 -0.4807 -0.1468
 6704TIP3    H241528   1.970   0.950   2.543  0.3461 -0.0913  1.2972
 6705TIP3   OH241529   6.600   4.122  11.219 -0.4941  0.2721 -0.1967
 6705TIP3    H141530   6.560   4.176  11.287 -1.6308 -0.4082 -0.3199
 6705TIP3    H241531   6.528   4.098  11.161  0.5949  1.6029 -2.1964
 6706TIP3   OH241532   4.666   2.655  13.483  0.5294  0.5364  0.1199
 6706TIP3    H141533   4.697   2.569  13.510 -0.1121  0.3361  0.2150
 6706TIP3    H241534   4.725   2.680  13.412 -0.6872 -0.9708 -1.4451
 6707TIP3   OH241535   3.021   2.838   3.084  0.7342 -0.9601  0.0020
 6707TIP3    H141536   2.978   2.767   3.132 -1.7342  0.2053 -0.4272
 6707TIP3    H241537   2.996   2.825   2.993  0.1981  0.4640 -0.0754
 6708TIP3   OH241538   6.261   4.508  16.717  0.3226 -0.0279 -0.1018
 6708TIP3    H141539   6.220   4.430  16.680 -0.0938  0.4548 -0.6633
 6708TIP3    H241540   6.339   4.475  16.763  1.4526 -0.5192 -2.3042
 6709TIP3   OH241541   2.341   0.223  11.759 -0.1434  0.2355 -0.3235
 6709TIP3    H141542   2.328   0.142  11.808 -1.6140  0.3393 -0.5284
 6709TIP3    H241543   2.255   0.265  11.758  0.4814  1.5454 -0.6771
 6710TIP3   OH241544   2.599   3.426   3.129  0.0946  0.1018 -0.2684
 6710TIP3    H141545   2.631   3.377   3.205 -0.1836  0.2390 -0.0602
 6710TIP3    H241546   2.657   3.502   3.124  1.0746 -0.6898 -1.1157
 6711TIP3   OH241547   4.888   3.927   2.676 -0.6382  0.4502 -0.0567
 6711TIP3    H141548   4.813   3.982   2.698 -1.5866  0.4313 -3.0175
 6711TIP3    H241549   4.855   3.868   2.607  1.2280 -1.6819  0.8173
 6712TIP3   OH241550   6.311   4.676   4.089 -0.3649  0.7845 -0.2596
 6712TIP3    H141551   6.339   4.664   4.180 -0.4298  1.4666 -0.1455
 6712TIP3    H241552   6.249   4.750   4.093  1.9545  2.8423 -1.3056
 6713TIP3   OH241553   3.306   0.400  16.851  0.3897 -0.4937  0.2357
 6713TIP3    H141554   3.351   0.341  16.911 -1.0960  0.2826  2.1545
 6713TIP3    H241555   3.356   0.481  16.855  0.6909 -0.6587 -0.1193
 6714TIP3   OH241556   2.330   1.648  15.520  0.8886  0.1445  0.0361
 6714TIP3    H141557   2.311   1.554  15.520 -1.8290  0.6278  2.9213
 6714TIP3    H241558   2.255   1.687  15.474  1.4060  1.0231 -0.0630
 6715TIP3   OH241559   4.372   3.404   0.347 -0.3734 -0.0179 -0.0010
 6715TIP3    H141560   4.300   3.359   0.391  0.2153 -1.3149 -0.3145
 6715TIP3    H241561   4.379   3.360   0.262  0.0440  0.8624 -0.4288
 6716TIP3   OH241562   1.677   6.758  11.991  0.2845 -0.2707  0.3958
 6716TIP3    H141563   1.754   6.758  11.935  1.4243 -0.9700  1.9521
 6716TIP3    H241564   1.700   6.702  12.065 -2.0285 -1.2216  0.4460
 6717TIP3   OH241565   1.678   0.726  16.090 -0.3835 -0.0418  0.2570
 6717TIP3    H141566   1.651   0.646  16.136 -0.6523 -1.5549 -2.4634
 6717TIP3    H241567   1.611   0.791  16.113 -1.4738 -1.2742  0.5978
 6718TIP3   OH241568   1.126   2.045   3.003  0.3943  0.1314 -0.5764
 6718TIP3    H141569   1.031   2.042   3.012  0.4721 -1.2928 -0.0113
 6718TIP3    H241570   1.158   1.999   3.080  1.5864  1.5749 -0.1916
 6719TIP3   OH241571   5.294   4.463   0.492  0.0153 -0.2878 -0.2025
 6719TIP3    H141572   5.320   4.408   0.566  0.3465 -0.6552 -0.5918
 6719TIP3    H241573   5.283   4.402   0.419 -1.3210 -0.0535 -0.2059
 6720TIP3   OH241574   4.339   4.873  16.106  0.2301  0.0427 -0.5901
 6720TIP3    H141575   4.316   4.811  16.037  2.2535  0.2989 -1.5219
 6720TIP3    H241576   4.366   4.953  16.060  1.5026  0.2560  0.4793
 6721TIP3   OH241577   1.158   5.583  12.218 -0.1598  0.2611 -0.5974
 6721TIP3    H141578   1.212   5.523  12.269  1.2902  2.1060  0.1403
 6721TIP3    H241579   1.111   5.634  12.283 -2.1135 -0.6991 -1.2309
 6722TIP3   OH241580   2.011   4.608   3.320  0.0899  0.6133  0.2845
 6722TIP3    H141581   1.989   4.567   3.236 -0.2181  1.0396  0.1567
 6722TIP3    H241582   1.928   4.645   3.351  0.3394  1.0199  0.4697
 6723TIP3   OH241583   6.528   4.621   2.617  0.2786  0.3501 -0.8883
 6723TIP3    H141584   6.472   4.604   2.693 -0.0447  1.6752 -0.8211
 6723TIP3    H241585   6.588   4.547   2.615  0.2466  0.2580  0.6245
 6724TIP3   OH241586   1.402   6.480  12.070 -0.3692 -0.4973 -0.4664
 6724TIP3    H141587   1.436   6.400  12.029  0.8989  0.4357 -1.2804
 6724TIP3    H241588   1.316   6.492  12.030 -0.1868 -0.9657 -1.0077
 6725TIP3   OH241589   6.424   2.000  14.423  0.6227  0.5195 -0.4260
 6725TIP3    H141590   6.444   1.912  14.393  0.9725  1.7440 -4.1859
 6725TIP3    H241591   6.330   2.010  14.408  0.5021  0.6132  0.4125
 6726TIP3   OH241592   6.039   0.985   4.806 -0.0649  0.0516  0.3854
 6726TIP3    H141593   6.043   1.080   4.797  1.6048 -0.2124 -2.0490
 6726TIP3    H241594   6.064   0.969   4.897  0.4274  1.8990  0.6025
 6727TIP3   OH241595   0.451   5.881  14.215 -0.3607 -0.2625 -0.1610
 6727TIP3    H141596   0.518   5.903  14.281 -1.6650  1.2499  0.6877
 6727TIP3    H241597   0.413   5.799  14.247  0.2616 -0.4956 -0.0082
 6728TIP3   OH241598   2.258   1.536  12.429  0.5660 -0.0220  0.1914
 6728TIP3    H141599   2.322   1.502  12.367 -0.3404 -0.4037 -0.5382
 6728TIP3    H241600   2.178   1.546  12.379  0.1409  0.8070  1.0111
 6729TIP3   OH241601   6.182   5.099   1.020 -0.5687  0.1679  0.0308
 6729TIP3    H141602   6.229   5.022   0.990  0.3086 -0.7777  3.6043
 6729TIP3    H241603   6.105   5.065   1.064  0.0046  1.2540  1.9592
 6730TIP3   OH241604   6.450   0.008  15.798 -0.2849 -0.3712  0.6331
 6730TIP3    H141605   6.362  -0.030  15.792 -0.6577  0.5646 -0.1695
 6730TIP3    H241606   6.504  -0.060  15.838 -0.9599 -1.6604 -0.6016
 6731TIP3   OH241607   3.835   0.465  12.074  0.0231  0.2317 -0.0123
 6731TIP3    H141608   3.843   0.560  12.083  0.4189  0.0865  1.2635
 6731TIP3    H241609   3.748   0.445  12.107  1.1549 -0.2032  2.8520
 6732TIP3   OH241610   0.278   5.960  10.708  0.2588 -0.4119 -0.0348
 6732TIP3    H141611   0.328   5.939  10.629  2.3115 -0.7111  1.3027
 6732TIP3    H241612   0.338   6.013  10.760 -1.8033  1.5039  0.4391
 6733TIP3   OH241613   5.940   4.722   6.386 -0.1738  0.3705  0.3216
 6733TIP3    H141614   6.008   4.758   6.329 -0.7677 -0.8886 -1.1943
 6733TIP3    H241615   5.980   4.721   6.473  1.2927  0.8367 -0.3390
 6734TIP3   OH241616   3.494   3.172  10.892  0.0926  0.5233 -0.0421
 6734TIP3    H141617   3.454   3.236  10.834 -2.7809  0.0403  1.2974
 6734TIP3    H241618   3.462   3.196  10.980  1.7096 -0.6909  0.8979
 6735TIP3   OH241619   5.908   3.469  16.575  0.0163  0.1468 -0.1829
 6735TIP3    H141620   5.979   3.406  16.590 -1.3164 -1.0887  0.9994
 6735TIP3    H241621   5.855   3.465  16.655 -0.1328  2.7248 -0.1075
 6736TIP3   OH241622   3.377   4.225  16.943 -0.2469 -0.0775 -0.1332
 6736TIP3    H141623   3.398   4.170  17.018 -0.5052  0.3960  0.2887
 6736TIP3    H241624   3.457   4.275  16.926 -0.9546  1.5993  1.3622
 6737TIP3   OH241625   5.924   2.560   3.311 -0.2900 -0.0795 -0.5175
 6737TIP3    H141626   5.960   2.625   3.371  1.6907 -0.1925 -1.5185
 6737TIP3    H241627   5.865   2.507   3.365 -0.0586  1.0249  0.8556
 6738TIP3   OH241628   5.432   5.321  10.843 -0.6340 -0.3665  0.2096
 6738TIP3    H141629   5.373   5.360  10.779  0.0251 -0.4854 -0.4714
 6738TIP3    H241630   5.471   5.396  10.888  1.1353 -0.1990 -1.5514
 6739TIP3   OH241631   1.745   4.805  16.409  0.1221  0.3947  0.5329
 6739TIP3    H141632   1.800   4.727  16.421 -0.6181 -0.1972  0.1693
 6739TIP3    H241633   1.807   4.877  16.397  0.8106 -0.4204 -0.8919
 6740TIP3   OH241634   2.937   0.795   4.524 -0.1765  0.2635 -0.5996
 6740TIP3    H141635   2.961   0.868   4.581  0.9935 -0.3315 -0.3114
 6740TIP3    H241636   2.928   0.720   4.582  0.3405 -0.1990 -1.1048
 6741TIP3   OH241637   3.169   2.506  14.750  0.3338  0.1241  0.0316
 6741TIP3    H141638   3.141   2.477  14.663 -1.3324 -0.0821  0.6074
 6741TIP3    H241639   3.090   2.497  14.804  1.6255 -0.6824  1.7978
 6742TIP3   OH241640   5.652   0.096  14.618  0.1663 -0.2414  0.8240
 6742TIP3    H141641   5.698   0.124  14.697  3.0430  0.4463 -1.0352
 6742TIP3    H241642   5.710   0.032  14.577 -1.1207 -0.3214 -0.9468
 6743TIP3   OH241643   5.142   3.132   1.026 -0.3803  0.0682  0.1445
 6743TIP3    H141644   5.193   3.058   1.057  0.0876  0.1705 -0.3779
 6743TIP3    H241645   5.195   3.209   1.045 -0.6600  0.2349  0.2626
 6744TIP3   OH241646   5.273   1.033  11.154 -0.2033  0.0320 -0.4170
 6744TIP3    H141647   5.272   1.095  11.227 -0.4044  0.6626 -0.9508
 6744TIP3    H241648   5.366   1.018  11.137 -0.1480 -0.7280  0.4681
 6745TIP3   OH241649   2.746   1.087   2.585 -0.4420  0.1218 -0.1311
 6745TIP3    H141650   2.657   1.094   2.619 -0.4047 -0.4458  0.0911
 6745TIP3    H241651   2.801   1.125   2.654 -0.3809 -0.8832  0.3736
 6746TIP3   OH241652   3.113   3.127   3.004 -0.3763 -0.3061 -0.1574
 6746TIP3    H141653   3.123   3.035   3.030 -0.4183 -0.1241  0.5198
 6746TIP3    H241654   3.146   3.130   2.915  0.6266 -0.7783  0.1882
 6747TIP3   OH241655   5.150   5.001   2.440 -0.0611  0.3323  0.1396
 6747TIP3    H141656   5.088   5.016   2.511  2.5059  0.2545  2.5083
 6747TIP3    H241657   5.137   4.909   2.416  1.2097 -0.6115  2.7925
 6748TIP3   OH241658   3.045   1.450   5.851 -0.2043  0.3140  0.4978
 6748TIP3    H141659   2.982   1.404   5.906 -0.5114  0.4848  0.2910
 6748TIP3    H241660   3.074   1.524   5.904 -0.1798  0.2373  0.5917
 6749TIP3   OH241661   2.567   3.778  13.450  0.3898  0.1432 -0.0258
 6749TIP3    H141662   2.524   3.693  13.451  4.4925 -2.0725 -1.2569
 6749TIP3    H241663   2.585   3.797  13.543 -0.2047 -0.5173  0.2283
 6750TIP3   OH241664   4.463   2.538   3.317  0.4048  0.3834 -0.3845
 6750TIP3    H141665   4.501   2.591   3.247  1.1308 -0.7213 -0.8445
 6750TIP3    H241666   4.529   2.470   3.334 -0.1566  0.1080  0.7506
 6751TIP3   OH241667   0.261   1.827  11.931  0.1468 -0.3482  0.0809
 6751TIP3    H141668   0.207   1.870  11.997 -0.8762 -1.0725 -0.2571
 6751TIP3    H241669   0.304   1.899  11.884 -3.9825  0.5829 -2.5815
 6752TIP3   OH241670   0.508   3.400  15.589  0.1505  0.6462 -0.0796
 6752TIP3    H141671   0.413   3.385  15.594  0.0885  0.7686 -0.8817
 6752TIP3    H241672   0.527   3.403  15.496  1.1254 -0.4703  0.0728
 6753TIP3   OH241673   6.758   3.183   4.674  0.0504 -0.2732  0.5187
 6753TIP3    H141674   6.811   3.228   4.609 -3.1718  3.5704  0.3450
 6753TIP3    H241675   6.766   3.238   4.753 -3.9030  0.7384  0.3252
 6754TIP3   OH241676   6.587   4.210  12.011  0.0852 -0.0063 -0.7437
 6754TIP3    H141677   6.491   4.215  12.003  0.1002  0.7162 -0.5270
 6754TIP3    H241678   6.611   4.131  11.964 -0.7059 -0.6374 -0.1083
 6755TIP3   OH241679   4.823   0.988   0.340  0.1530 -0.0501  0.0397
 6755TIP3    H141680   4.878   0.992   0.419 -1.3493 -2.1419  1.2359
 6755TIP3    H241681   4.877   0.943   0.275  1.0816  0.9151  0.1270
 6756TIP3   OH241682   2.976   4.843  10.660 -0.3190  0.6779  0.4990
 6756TIP3    H141683   2.994   4.936  10.651 -1.8989  1.1765  2.0098
 6756TIP3    H241684   2.894   4.830  10.611  0.3387 -0.0932 -0.4088
 6757TIP3   OH241685   3.957   2.116   6.322 -0.1375 -0.1028 -0.1446
 6757TIP3    H141686   4.013   2.053   6.368 -0.1569  0.1129  0.1745
 6757TIP3    H241687   3.981   2.201   6.359 -1.7624 -0.1701  1.1003
 6758TIP3   OH241688   4.224   1.789   0.186 -0.2058  0.4489 -0.0381
 6758TIP3    H141689   4.240   1.703   0.225  0.7952  0.3730 -0.5936
 6758TIP3    H241690   4.129   1.796   0.180 -0.3140 -0.2788  0.7666
 6759TIP3   OH241691   0.439   2.217   3.731 -0.5430 -0.1489  0.4651
 6759TIP3    H141692   0.405   2.231   3.819  1.4295 -0.1695  1.2583
 6759TIP3    H241693   0.361   2.209   3.676 -1.8000  1.6390  1.9125
 6760TIP3   OH241694   6.188   0.645  16.414  0.6402  0.3907  0.0923
 6760TIP3    H141695   6.229   0.559  16.414  1.3442  0.6844 -2.1062
 6760TIP3    H241696   6.234   0.695  16.481  1.5842 -0.3330 -0.0112
 6761TIP3   OH241697   5.348   3.412  10.813 -0.2835 -0.1480 -0.2060
 6761TIP3    H141698   5.340   3.351  10.740 -3.0444  0.7237 -0.6640
 6761TIP3    H241699   5.398   3.485  10.777  2.2017 -1.6444  0.0769
 6762TIP3   OH241700   0.265   6.480   0.508  0.2276  0.2277 -0.0109
 6762TIP3    H141701   0.218   6.418   0.453  2.3976 -1.9069  0.4121
 6762TIP3    H241702   0.243   6.454   0.598  1.0211  0.1348  0.1654
 6763TIP3   OH241703   5.022   4.302  15.198 -0.1781 -0.2181 -0.2050
 6763TIP3    H141704   5.078   4.367  15.156 -0.4764  0.7411  0.8485
 6763TIP3    H241705   5.074   4.269  15.271 -0.2212 -0.7960 -0.4339
 6764TIP3   OH241706   1.617   6.299  16.520  0.2871  0.4404 -0.0203
 6764TIP3    H141707   1.702   6.343  16.520 -0.0285  1.0566 -1.9115
 6764TIP3    H241708   1.554   6.369  16.504 -0.2445 -0.5974 -2.7276
 6765TIP3   OH241709   4.848   3.083   2.678 -0.0746 -0.2617 -0.6645
 6765TIP3    H141710   4.903   3.061   2.604 -1.4954 -1.9164 -1.2721
 6765TIP3    H241711   4.812   3.169   2.658  1.7763  0.5531 -0.5408
 6766TIP3   OH241712   4.486   2.419  14.685  0.2780 -0.0913 -0.1805
 6766TIP3    H141713   4.453   2.398  14.597 -2.1452 -1.8158  1.0781
 6766TIP3    H241714   4.435   2.495  14.712  0.4625 -0.0360  0.0106
 6767TIP3   OH241715   3.436   3.754   5.551  0.3922  0.1662 -0.6003
 6767TIP3    H141716   3.417   3.811   5.476  3.9500  1.7142 -0.3868
 6767TIP3    H241717   3.377   3.785   5.620 -0.2152  1.2054 -1.5679
 6768TIP3   OH241718   6.649   4.053  16.837 -0.4631 -0.1712 -0.6669
 6768TIP3    H141719   6.639   4.073  16.930  1.2235 -0.4875 -0.4009
 6768TIP3    H241720   6.743   4.055  16.822 -0.6967 -0.5192 -2.2904
 6769TIP3   OH241721   0.404   5.190   4.391  0.0321 -0.0238 -0.1672
 6769TIP3    H141722   0.383   5.279   4.364 -1.6414 -0.1195  0.7596
 6769TIP3    H241723   0.396   5.191   4.487  1.8381 -0.7186  0.0160
 6770TIP3   OH241724   4.629   2.855  17.110  0.0045 -0.9348 -0.0968
 6770TIP3    H141725   4.662   2.940  17.081 -1.7916  0.3454  1.5154
 6770TIP3    H241726   4.603   2.810  17.030  0.8828  0.0653 -0.9524
 6771TIP3   OH241727   3.168   4.366   0.370 -0.0219  0.8445  0.0561
 6771TIP3    H141728   3.219   4.444   0.348 -1.2220  2.1140  1.7248
 6771TIP3    H241729   3.230   4.294   0.359  1.2586  2.0640 -0.9452
 6772TIP3   OH241730   2.682   3.097  12.529  0.5920 -0.0156  0.3512
 6772TIP3    H141731   2.665   3.180  12.574  3.2019  1.4417 -1.2102
 6772TIP3    H241732   2.776   3.097  12.514  0.1725 -1.7237 -2.6541
 6773TIP3   OH241733   4.781   4.048  14.271  0.4838  0.5503 -0.3658
 6773TIP3    H141734   4.752   3.962  14.240 -1.3563  0.5308  1.3236
 6773TIP3    H241735   4.871   4.055  14.241  1.1196 -2.5628  0.6659
 6774TIP3   OH241736   1.716   0.149   0.969  0.4826  1.0051 -0.6015
 6774TIP3    H141737   1.711   0.063   0.929 -0.0371  0.0487  1.4411
 6774TIP3    H241738   1.797   0.187   0.937  1.0299 -0.5084 -1.0109
 6775TIP3   OH241739   2.837   4.535  13.722  0.3008 -0.0535  0.1492
 6775TIP3    H141740   2.770   4.516  13.657 -0.0720 -1.7830  1.0128
 6775TIP3    H241741   2.835   4.460  13.782  1.6882  0.7750  1.2756
 6776TIP3   OH241742   2.598   0.941  10.835  0.6366 -0.0330  0.4454
 6776TIP3    H141743   2.583   0.997  10.759 -0.7378  0.4242  1.0207
 6776TIP3    H241744   2.686   0.906  10.823  1.4145  2.0177 -0.0929
 6777TIP3   OH241745   0.889   5.159   0.742  0.2490  0.6475 -0.0411
 6777TIP3    H141746   0.984   5.151   0.731  0.0900 -0.5394 -0.6128
 6777TIP3    H241747   0.868   5.245   0.706  0.7270 -0.2601 -2.5827
 6778TIP3   OH241748   4.947   3.553  14.363 -0.0396  0.2715  0.4467
 6778TIP3    H141749   4.885   3.621  14.390  3.1695  2.5375  2.4330
 6778TIP3    H241750   4.947   3.557  14.268 -2.1591  0.9202  0.4461
 6779TIP3   OH241751   4.310   3.576   5.773 -0.1384  0.0045  0.2528
 6779TIP3    H141752   4.306   3.490   5.815  0.6032 -0.8973 -1.4471
 6779TIP3    H241753   4.365   3.562   5.696 -4.0168  0.7562 -2.8474
 6780TIP3   OH241754   3.557   6.089  10.994  0.3026  0.3051  0.1329
 6780TIP3    H141755   3.543   6.184  10.996 -0.5290  0.1676  2.8837
 6780TIP3    H241756   3.478   6.054  10.954  0.9777  0.8225 -1.6740
 6781TIP3   OH241757   1.208   2.621   1.303 -0.2450 -0.3523 -0.4955
 6781TIP3    H141758   1.281   2.648   1.358  0.3782 -2.2654 -0.3631
 6781TIP3    H241759   1.145   2.582   1.363 -0.0278 -1.4751 -0.9718
 6782TIP3   OH241760   4.232   4.011   1.125  0.1774 -0.0283  0.4735
 6782TIP3    H141761   4.136   4.019   1.121 -0.0512 -1.9130  1.4991
 6782TIP3    H241762   4.249   3.987   1.216  1.6966  0.9859  0.4655
 6783TIP3   OH241763   3.013   0.125  13.253  0.5073  0.6023 -0.4594
 6783TIP3    H141764   2.922   0.142  13.228 -0.2251 -0.7712  1.2373
 6783TIP3    H241765   3.037   0.201  13.305 -0.5676 -0.2909  1.3835
 6784TIP3   OH241766   3.043   1.794  12.515 -0.0462  0.2109  0.7942
 6784TIP3    H141767   2.966   1.848  12.533  0.2373  1.1712 -0.8270
 6784TIP3    H241768   3.010   1.704  12.515 -1.1509  0.6133  0.1706
 6785TIP3   OH241769   0.960   6.465   6.214 -0.6378  0.2084  0.0237
 6785TIP3    H141770   0.982   6.417   6.134 -0.1799  2.1154 -1.0388
 6785TIP3    H241771   0.991   6.554   6.197  0.7564  0.3109  2.9113
 6786TIP3   OH241772   3.100   4.452   3.957 -0.1654  0.1502 -0.3021
 6786TIP3    H141773   3.129   4.467   3.867  0.1835 -1.2837 -0.4438
 6786TIP3    H241774   3.011   4.418   3.948  0.4273 -1.4354 -0.1831
 6787TIP3   OH241775   0.665   4.060   3.555  0.0535 -0.1109 -0.7486
 6787TIP3    H141776   0.736   4.124   3.559  1.6521 -1.8685 -0.4110
 6787TIP3    H241777   0.641   4.044   3.646 -0.6156  0.3049 -0.8510
 6788TIP3   OH241778   1.885   0.613  10.897  0.0774  0.1485  0.1364
 6788TIP3    H141779   1.815   0.650  10.844  0.0555 -0.4154 -0.2275
 6788TIP3    H241780   1.918   0.687  10.948 -4.2115 -0.4569  4.1985
 6789TIP3   OH241781   1.085   3.644   4.615  0.0050 -0.3182 -0.3531
 6789TIP3    H141782   1.125   3.596   4.688  2.5949  0.0131 -1.4779
 6789TIP3    H241783   1.065   3.576   4.550 -2.3673 -0.6222  0.6384
 6790TIP3   OH241784   6.053   4.671   2.295  0.2479  0.6349 -0.4535
 6790TIP3    H141785   6.053   4.755   2.250  0.0298  0.0398 -1.5881
 6790TIP3    H241786   6.145   4.645   2.298  0.6314  2.1961  2.3674
 6791TIP3   OH241787   3.170   5.214   1.584  0.6011  0.8583 -0.1346
 6791TIP3    H141788   3.135   5.272   1.516  1.5003  0.9613 -0.5186
 6791TIP3    H241789   3.165   5.127   1.546 -0.0480  0.7738  0.1481
 6792TIP3   OH241790   5.043   6.283   3.145  0.0696  0.1846  0.4705
 6792TIP3    H141791   5.053   6.221   3.073  0.9720 -2.1812  2.5706
 6792TIP3    H241792   4.985   6.351   3.111 -0.8859 -1.7770 -1.9127
 6793TIP3   OH241793   1.129   4.831   2.741  0.0524 -0.1342  0.6591
 6793TIP3    H141794   1.146   4.883   2.819  1.1720 -0.6947  0.7916
 6793TIP3    H241795   1.163   4.744   2.761  1.0509 -0.0841 -0.7243
 6794TIP3   OH241796   3.614   3.393   1.838  0.6299  0.1987  0.4187
 6794TIP3    H141797   3.526   3.431   1.841  0.6409  0.4524 -1.6493
 6794TIP3    H241798   3.672   3.467   1.823  1.0873 -0.1094  0.6423
 6795TIP3   OH241799   5.820   6.168  16.386  0.4754  0.0988  0.0918
 6795TIP3    H141800   5.873   6.191  16.462  0.8464  0.0245 -0.1423
 6795TIP3    H241801   5.880   6.172  16.312  0.2914 -0.5524 -0.1004
 6796TIP3   OH241802   4.262   3.964  12.148  0.5209  0.2417 -0.4974
 6796TIP3    H141803   4.213   4.001  12.221  1.3850  0.4386 -0.0063
 6796TIP3    H241804   4.197   3.952  12.079 -0.6466 -1.5329  0.8748
 6797TIP3   OH241805   1.058   1.211   0.573 -0.0238  0.3477 -0.6640
 6797TIP3    H141806   0.995   1.156   0.619  0.2020  1.8181  1.5217
 6797TIP3    H241807   1.086   1.159   0.498 -1.0282 -1.8408  0.4288
 6798TIP3   OH241808   3.978   1.484   4.021 -0.0263  0.1062 -0.1854
 6798TIP3    H141809   3.888   1.517   4.015 -0.4084 -1.0872 -1.1621
 6798TIP3    H241810   4.027   1.556   4.063 -1.3076  0.9804 -0.1540
 6799TIP3   OH241811   5.384   1.448  15.213 -0.3899  0.1334 -0.3907
 6799TIP3    H141812   5.312   1.485  15.162 -0.1782  1.4485  0.2282
 6799TIP3    H241813   5.378   1.493  15.297 -0.2489 -1.4308  0.4738
 6800TIP3   OH241814   3.518   1.890  12.056 -0.0509  0.0802  0.3165
 6800TIP3    H141815   3.553   1.802  12.042 -0.3086  0.3899 -2.6905
 6800TIP3    H241816   3.574   1.929  12.123  1.0178 -1.8161  0.5392
 6801TIP3   OH241817   2.650   1.322   4.138 -0.1264  0.3885  0.3615
 6801TIP3    H141818   2.694   1.265   4.200  1.9716  0.1175 -1.3321
 6801TIP3    H241819   2.702   1.403   4.138 -2.4621  1.9512  1.9588
 6802TIP3   OH241820   5.827   1.025   0.671 -0.5525  0.2117 -0.1115
 6802TIP3    H141821   5.789   1.107   0.701  2.6594  2.4425 -1.8694
 6802TIP3    H241822   5.921   1.032   0.691  0.1228 -2.1594 -2.0849
 6803TIP3   OH241823   2.895   4.407   6.158 -0.2304  1.0504  0.3731
 6803TIP3    H141824   2.926   4.343   6.223 -0.8668 -0.4601 -0.7947
 6803TIP3    H241825   2.974   4.454   6.132  0.4942 -0.2572  0.1585
 6804TIP3   OH241826   1.543   4.668   4.391 -0.7833 -0.4233 -0.4220
 6804TIP3    H141827   1.552   4.702   4.480 -0.7462 -0.0405 -0.5732
 6804TIP3    H241828   1.512   4.742   4.340  0.2408 -0.3567 -0.9488
 6805TIP3   OH241829   0.682   5.377  12.062  0.5162 -0.0712 -0.3487
 6805TIP3    H141830   0.595   5.392  12.100  0.3359  0.8391 -1.1047
 6805TIP3    H241831   0.741   5.430  12.115  0.1282  1.9897 -1.9092
 6806TIP3   OH241832   1.833   5.116   4.401 -0.0266 -0.2319 -0.0819
 6806TIP3    H141833   1.849   5.151   4.313 -0.0245  1.0326  0.4057
 6806TIP3    H241834   1.916   5.129   4.447 -0.2095 -0.3402  0.2808
 6807TIP3   OH241835   1.988   6.704   6.347  0.1531 -0.5064 -0.5822
 6807TIP3    H141836   2.003   6.752   6.266 -2.6173  0.0850 -0.7874
 6807TIP3    H241837   2.076   6.678   6.376  1.1642 -1.4273 -4.1617
 6808TIP3   OH241838   3.378   0.496  12.464  0.0402 -0.0990 -0.7330
 6808TIP3    H141839   3.384   0.401  12.474 -0.3296 -0.3504 -2.7337
 6808TIP3    H241840   3.289   0.512  12.433 -0.3700  1.0396  0.9621
 6809TIP3   OH241841   1.083   5.720  16.782 -0.0260 -0.2321 -0.0223
 6809TIP3    H141842   1.075   5.711  16.687 -0.6964 -1.2619  0.1280
 6809TIP3    H241843   1.133   5.801  16.794 -0.4705  0.2347 -1.2364
 6810TIP3   OH241844   2.826   2.344  12.777 -0.6429  0.0739  0.2716
 6810TIP3    H141845   2.909   2.353  12.732 -0.7522  1.7572  0.3895
 6810TIP3    H241846   2.813   2.249  12.785  1.0271 -0.1988 -0.1548
 6811TIP3   OH241847   2.495   1.675   5.393  0.7324 -0.4066 -0.1453
 6811TIP3    H141848   2.484   1.605   5.328 -1.6599 -0.5571  0.3618
 6811TIP3    H241849   2.558   1.639   5.456  0.2566 -1.7430 -0.4106
 6812TIP3   OH241850   5.222   5.653   6.141 -0.0740 -0.0068 -0.7369
 6812TIP3    H141851   5.133   5.635   6.111 -0.6790  1.7590 -0.1078
 6812TIP3    H241852   5.248   5.731   6.092 -0.4670  1.9422  2.0103
 6813TIP3   OH241853   6.582   4.283  10.815  0.5827  0.0118  0.3367
 6813TIP3    H141854   6.505   4.302  10.761 -0.2413 -1.6288  0.9123
 6813TIP3    H241855   6.640   4.235  10.757  0.9331  0.7286  0.0814
 6814TIP3   OH241856   6.661   0.209   5.057  0.5129 -0.6224  0.0032
 6814TIP3    H141857   6.590   0.151   5.084  0.0042 -0.1353 -0.2888
 6814TIP3    H241858   6.740   0.164   5.086  0.0832 -1.1170  0.4266
 6815TIP3   OH241859   4.346   3.621  12.540  0.3953 -0.2091  0.2468
 6815TIP3    H141860   4.393   3.704  12.527  0.2482  0.1508  1.9459
 6815TIP3    H241861   4.271   3.627  12.481  2.0549 -0.4977 -1.9881
 6816TIP3   OH241862   4.997   6.678  14.275  0.2061  0.6531  0.1226
 6816TIP3    H141863   5.046   6.756  14.302  0.0044  0.7304  0.2737
 6816TIP3    H241864   4.970   6.697  14.185 -1.0256  1.3525  0.6294
 6817TIP3   OH241865   0.081   4.505   1.507 -0.4334  0.7658  0.0758
 6817TIP3    H141866  -0.009   4.518   1.476 -1.1028 -0.6299  1.3686
 6817TIP3    H241867   0.127   4.471   1.431 -1.3452  0.2157 -0.2501
 6818TIP3   OH241868   1.770   3.162  12.026  0.1263  0.0984 -0.0573
 6818TIP3    H141869   1.825   3.150  11.949  2.0715 -1.5633  1.5636
 6818TIP3    H241870   1.682   3.140  11.995  0.9646 -1.1195 -1.6712
 6819TIP3   OH241871   1.638   5.631   3.205 -0.4142  0.1485  0.1920
 6819TIP3    H141872   1.637   5.675   3.120 -1.9851 -1.2060 -0.5006
 6819TIP3    H241873   1.642   5.703   3.269 -2.1038  1.2832 -0.9373
 6820TIP3   OH241874   5.350   2.775   5.456  0.1748  0.6634  0.8708
 6820TIP3    H141875   5.409   2.705   5.485  1.0111  1.2481  0.6105
 6820TIP3    H241876   5.335   2.828   5.535 -0.9035 -0.1116  1.1982
 6821TIP3   OH241877   5.014   6.161   3.982  0.4998 -0.8331 -0.6932
 6821TIP3    H141878   4.926   6.143   3.950 -0.2327  0.9370  0.2310
 6821TIP3    H241879   5.035   6.247   3.946  0.8439 -0.1554  1.0857
 6822TIP3   OH241880   5.062   3.030   0.072 -0.5771 -0.2765  0.5624
 6822TIP3    H141881   4.967   3.025   0.086 -0.9375 -0.5299 -1.7429
 6822TIP3    H241882   5.075   3.114   0.029  0.4031  0.2697  1.8994
 6823TIP3   OH241883   6.421   4.147  12.627 -0.1298  0.1750  0.2124
 6823TIP3    H141884   6.334   4.185  12.629 -0.8397 -1.2942 -1.4469
 6823TIP3    H241885   6.406   4.053  12.638  1.0535 -0.3127 -1.9910
 6824TIP3   OH241886   6.508   4.128   0.908  0.1557 -0.5146  0.1209
 6824TIP3    H141887   6.454   4.172   0.973  0.1848  1.1401 -0.9402
 6824TIP3    H241888   6.552   4.059   0.957 -0.4903  0.1302  1.6688
 6825TIP3   OH241889   0.205   5.464   1.239 -0.6537  0.1578  0.4305
 6825TIP3    H141890   0.160   5.446   1.156 -0.4558  1.4431  0.0301
 6825TIP3    H241891   0.200   5.559   1.248 -3.6386 -0.1949  3.5681
 6826TIP3   OH241892   3.795   3.184  15.897  0.0250  0.4332 -0.2229
 6826TIP3    H141893   3.886   3.155  15.908  0.7731  1.4696 -3.1013
 6826TIP3    H241894   3.793   3.271  15.935 -0.2248 -0.2941  1.4412
 6827TIP3   OH241895   1.951   3.598   1.565 -0.0744  0.1552  0.5115
 6827TIP3    H141896   1.905   3.594   1.649  0.8949 -3.6939  0.9577
 6827TIP3    H241897   1.882   3.601   1.499 -0.8672  1.2129  1.3803
 6828TIP3   OH241898   2.056   5.700  12.199 -0.1784 -1.0822  0.1012
 6828TIP3    H141899   2.140   5.664  12.228 -0.1833 -1.2688 -0.1159
 6828TIP3    H241900   2.079   5.778  12.148 -0.1729 -0.7235  0.6471
 6829TIP3   OH241901   5.904   2.750  15.004 -0.5067 -0.2686  0.1702
 6829TIP3    H141902   5.856   2.702  14.937 -0.6889  0.2314 -0.0618
 6829TIP3    H241903   5.993   2.715  14.999 -0.9653 -1.5966  0.9871
 6830TIP3   OH241904   5.763   4.091   4.767 -0.2368 -0.1994  0.3499
 6830TIP3    H141905   5.782   4.133   4.683  1.5786 -2.3334 -0.3570
 6830TIP3    H241906   5.730   4.162   4.822 -0.4192  1.4602 -1.8243
 6831TIP3   OH241907   6.725   2.218  11.336 -0.0849 -0.3308 -0.0422
 6831TIP3    H141908   6.672   2.288  11.297 -1.0436 -1.7458 -1.3346
 6831TIP3    H241909   6.706   2.222  11.430 -0.6467  0.7088 -0.1987
 6832TIP3   OH241910   0.983   0.160  13.745  0.4157 -0.2790 -0.0152
 6832TIP3    H141911   0.968   0.250  13.718 -0.9890 -0.8611 -1.2763
 6832TIP3    H241912   1.079   0.150  13.744  0.5202  0.6299 -1.8552
 6833TIP3   OH241913   4.726   6.499   2.115  0.2410 -0.3511 -0.0775
 6833TIP3    H141914   4.751   6.486   2.023 -0.1730 -0.5863 -0.1590
 6833TIP3    H241915   4.790   6.562   2.148 -0.8978  1.4138 -1.1307
 6834TIP3   OH241916   6.112   1.845  10.885 -0.2394  0.2013 -0.0421
 6834TIP3    H141917   6.085   1.788  10.813 -1.1089  0.8328 -0.2205
 6834TIP3    H241918   6.208   1.844  10.880 -0.2712 -0.3128 -0.7716
 6835TIP3   OH241919   6.483   1.297  16.279 -0.2604  0.1062 -0.0188
 6835TIP3    H141920   6.413   1.362  16.282 -1.0889 -0.8148  1.0188
 6835TIP3    H241921   6.463   1.237  16.351  0.7426 -1.0459 -0.6852
 6836TIP3   OH241922   1.854   5.582   4.541 -0.1703  0.1812 -0.0834
 6836TIP3    H141923   1.818   5.637   4.610  0.4558  0.8988 -0.3112
 6836TIP3    H241924   1.949   5.588   4.553 -0.0435  0.6500 -1.2573
 6837TIP3   OH241925   0.249   0.327   4.321  0.6510 -0.4999  0.2804
 6837TIP3    H141926   0.170   0.324   4.267  0.4828  0.2046  0.4805
 6837TIP3    H241927   0.277   0.236   4.327 -0.3156 -0.7963  0.4575
 6838TIP3   OH241928   0.582   3.380  13.757  0.1351  0.1132  0.3954
 6838TIP3    H141929   0.503   3.362  13.809  0.0263 -2.2397 -0.5159
 6838TIP3    H241930   0.560   3.347  13.670  1.4213  1.2633 -0.3688
 6839TIP3   OH241931   0.590   3.583  15.810  0.2226  0.1046 -0.3580
 6839TIP3    H141932   0.502   3.608  15.839  0.2745 -2.6773  2.3808
 6839TIP3    H241933   0.576   3.516  15.744  0.2730 -1.0610  0.7976
 6840TIP3   OH241934   6.655   1.326   3.231  0.3103 -0.3579  0.6168
 6840TIP3    H141935   6.715   1.396   3.255 -0.7986 -0.0014  2.3849
 6840TIP3    H241936   6.709   1.247   3.230  1.0592  0.1478  0.9605
 6841TIP3   OH241937   6.741   2.490  15.397  0.1686 -0.0263  0.4485
 6841TIP3    H141938   6.753   2.432  15.472  0.6638  0.2450  0.5892
 6841TIP3    H241939   6.709   2.572  15.435  1.8976  0.6298  0.5653
 6842TIP3   OH241940   0.341   2.812   1.969 -0.2436  0.2913  1.1872
 6842TIP3    H141941   0.426   2.778   1.939 -0.0684  1.2558  0.5526
 6842TIP3    H241942   0.360   2.902   1.997 -1.5584  1.4975 -1.5819
 6843TIP3   OH241943   1.351   5.845  13.992 -0.0068 -0.3310  0.4952
 6843TIP3    H141944   1.432   5.818  14.035  0.2093  0.6623  0.7263
 6843TIP3    H241945   1.283   5.790  14.031  0.6780 -1.8344 -0.3648
 6844TIP3   OH241946   6.662   0.001  13.805  0.0970 -0.1272 -0.1236
 6844TIP3    H141947   6.696   0.008  13.715  0.0258  0.3728 -0.1143
 6844TIP3    H241948   6.579   0.048  13.802  0.9275  1.4332  0.6291
 6845TIP3   OH241949   0.194   3.397  15.868  0.2520 -0.2107 -0.8046
 6845TIP3    H141950   0.158   3.427  15.785  1.4832  0.6414 -1.0538
 6845TIP3    H241951   0.259   3.464  15.892  0.3879 -0.7837  0.5070
 6846TIP3   OH241952   0.670   0.192  12.697  0.2529  0.4793 -0.7240
 6846TIP3    H141953   0.687   0.121  12.758  1.5399  0.4533 -1.0946
 6846TIP3    H241954   0.578   0.182  12.674 -0.3199  0.6631  1.4151
 6847TIP3   OH241955   3.159   6.691   4.004  0.3106  0.0771 -0.3075
 6847TIP3    H141956   3.115   6.652   4.079  1.2920 -0.3499  0.0503
 6847TIP3    H241957   3.163   6.620   3.939 -0.9621  0.5809 -0.9533
 6848TIP3   OH241958   5.321   0.322   6.240  0.3117  0.2346 -0.0802
 6848TIP3    H141959   5.333   0.239   6.193  0.9844  0.1968  0.1502
 6848TIP3    H241960   5.346   0.302   6.331  1.2061  0.8736 -0.1758
 6849TIP3   OH241961   3.557   5.414   4.680  0.1818 -0.0737  0.4964
 6849TIP3    H141962   3.533   5.459   4.599 -1.1456  0.3390  1.1131
 6849TIP3    H241963   3.476   5.375   4.712  1.5891 -4.6255 -1.0065
 6850TIP3   OH241964   1.716   1.878  15.542  0.3801  0.2870 -0.1161
 6850TIP3    H141965   1.702   1.897  15.635  0.4012 -1.0309  0.1568
 6850TIP3    H241966   1.706   1.963  15.499  1.3275  1.0725  1.1947
 6851TIP3   OH241967   4.116   4.553   5.661  0.3648  0.2104  1.1201
 6851TIP3    H141968   4.177   4.607   5.711  0.0972 -0.7110  2.4519
 6851TIP3    H241969   4.129   4.465   5.694  0.3081 -0.4405 -0.5712
 6852TIP3   OH241970   0.719   1.099   5.187  0.5845 -0.4049  0.9192
 6852TIP3    H141971   0.731   1.046   5.265  0.4221 -2.4717 -0.4048
 6852TIP3    H241972   0.665   1.045   5.129  1.3072  0.7594 -0.9144
 6853TIP3   OH241973   4.147   4.930   4.214 -0.4876  0.1624 -0.1452
 6853TIP3    H141974   4.055   4.945   4.233 -0.4121  0.1897  0.1952
 6853TIP3    H241975   4.179   5.014   4.180 -1.1429 -0.4761 -2.4889
 6854TIP3   OH241976   5.419   3.849   4.269 -0.0746 -0.1797 -0.0857
 6854TIP3    H141977   5.346   3.797   4.304 -0.4594  1.6205  1.8767
 6854TIP3    H241978   5.379   3.902   4.200 -0.5948  0.6205  0.8165
 6855TIP3   OH241979   3.003   4.294   4.469 -0.0276  0.1605  0.3559
 6855TIP3    H141980   2.960   4.358   4.411 -0.5138 -0.4940 -0.0198
 6855TIP3    H241981   3.067   4.251   4.413  2.1223  2.1029  1.2798
 6856TIP3   OH241982   3.496   6.121   3.559  0.4087 -0.3011 -0.5947
 6856TIP3    H141983   3.458   6.114   3.472 -1.0989 -0.4718  0.0653
 6856TIP3    H241984   3.421   6.123   3.619  1.2991  2.3567  0.5416
 6857TIP3   OH241985   2.114   1.122   1.622 -0.4345 -0.0832 -0.0761
 6857TIP3    H141986   2.122   1.161   1.709  1.3220 -2.7075  0.9795
 6857TIP3    H241987   2.070   1.038   1.636  2.1609 -1.7150 -1.3286
 6858TIP3   OH241988   3.822   0.233  13.050  0.0707  0.1487 -0.2631
 6858TIP3    H141989   3.774   0.164  13.096 -0.8735 -0.6796 -2.4305
 6858TIP3    H241990   3.889   0.186  13.000 -0.1083  0.8452 -1.1776
 6859TIP3   OH241991   6.056   0.538  13.154  0.2908  0.1550  0.1493
 6859TIP3    H141992   5.983   0.478  13.165  0.8852 -0.4239  0.9971
 6859TIP3    H241993   6.111   0.496  13.087  0.2372  0.2208  0.0624
 6860TIP3   OH241994   0.879   3.067  16.756  0.3391 -0.1266  0.1236
 6860TIP3    H141995   0.821   3.097  16.686  1.1955 -0.5141 -0.7640
 6860TIP3    H241996   0.932   2.998  16.715  0.5853 -0.6171  1.2577
 6861TIP3   OH241997   3.359   3.067   5.633  0.7317  0.4271  0.3611
 6861TIP3    H141998   3.390   2.978   5.616 -0.2970  0.3304 -1.0274
 6861TIP3    H241999   3.350   3.071   5.728 -3.4288 -2.4311  0.2323
 6862TIP3   OH242000   5.867   1.755  12.453 -0.4700  0.4652 -0.3689
 6862TIP3    H142001   5.790   1.771  12.398 -1.1720  0.8983  0.7225
 6862TIP3    H242002   5.833   1.753  12.542  0.9137  1.6073  0.2097
 6863TIP3   OH242003   1.716   2.900   0.257 -0.0284  0.4508  0.9597
 6863TIP3    H142004   1.653   2.957   0.212 -0.5635  0.1734  1.3441
 6863TIP3    H242005   1.732   2.828   0.196 -0.1265  0.4939  0.8837
 6864TIP3   OH242006   4.795   6.760  15.747  0.0706 -0.2329  0.5911
 6864TIP3    H142007   4.705   6.779  15.772 -0.0882 -0.2379  0.0317
 6864TIP3    H242008   4.814   6.675  15.785 -0.1365 -0.1977  0.7703
 6865TIP3   OH242009   1.373   5.756   4.646  0.1539  0.5853  0.2585
 6865TIP3    H142010   1.446   5.709   4.686 -0.0339  1.0082  1.1110
 6865TIP3    H242011   1.415   5.819   4.588  0.4666  0.7377  0.6451
 6866TIP3   OH242012   4.041   3.306   1.679  0.0248 -0.0974 -0.2691
 6866TIP3    H142013   4.090   3.227   1.702 -1.1360 -0.1129  2.3103
 6866TIP3    H242014   4.105   3.362   1.636  1.3601 -1.6481 -0.3470
 6867TIP3   OH242015   1.573   6.512   4.098  0.3227  0.2307  0.5930
 6867TIP3    H142016   1.488   6.480   4.128 -0.0069  1.4220  0.9734
 6867TIP3    H242017   1.637   6.455   4.141 -0.2674 -0.4758  0.5439
 6868TIP3   OH242018   5.754   4.029  14.815 -0.0010  0.4677  0.0735
 6868TIP3    H142019   5.824   3.995  14.871 -0.2440  1.1765  0.8006
 6868TIP3    H242020   5.736   3.957  14.753  0.4695 -0.1944  0.6992
 6869TIP3   OH242021   0.390   3.500  15.299  0.4360  0.1014 -0.3276
 6869TIP3    H142022   0.472   3.460  15.329 -0.7127 -0.1026  2.7812
 6869TIP3    H242023   0.356   3.440  15.233  0.7831 -1.9978  1.3294
 6870TIP3   OH242024   2.819   3.774   3.075 -0.4381 -0.2508  0.2079
 6870TIP3    H142025   2.855   3.752   3.161 -1.8154  1.0423  1.1305
 6870TIP3    H242026   2.880   3.839   3.041 -0.6200  0.2317  0.7869
 6871TIP3   OH242027   0.321   4.060  11.258  0.1006 -0.3511 -0.1702
 6871TIP3    H142028   0.339   4.060  11.164  0.3496 -2.9707 -0.1725
 6871TIP3    H242029   0.236   4.102  11.266 -0.7386 -1.6872 -1.7746
 6872TIP3   OH242030   6.601   3.216  14.020 -0.1858 -0.3227 -0.0582
 6872TIP3    H142031   6.604   3.121  14.031  2.4855 -0.1246  1.2653
 6872TIP3    H242032   6.622   3.230  13.927  0.1935 -0.9949 -0.0779
 6873TIP3   OH242033   2.129   4.627   4.902  0.1431  0.2076  0.8308
 6873TIP3    H142034   2.140   4.680   4.823 -0.9906 -0.1043  0.4471
 6873TIP3    H242035   2.038   4.642   4.928 -0.0759 -1.2785  0.9205
 6874TIP3   OH242036   2.532   5.163  13.770  0.1608 -0.2092 -0.8318
 6874TIP3    H142037   2.617   5.196  13.740  0.4251 -0.5010 -0.4064
 6874TIP3    H242038   2.526   5.192  13.861  0.4798 -1.4997 -0.3918
 6875TIP3   OH242039   0.809   4.593   2.872  0.4380  0.2796  0.4432
 6875TIP3    H142040   0.883   4.611   2.930  1.4538  0.4433 -0.8500
 6875TIP3    H242041   0.826   4.648   2.795 -2.7065  2.7279  1.4144
 6876TIP3   OH242042   6.326   6.407  15.687  0.5089 -0.5712  0.7467
 6876TIP3    H142043   6.242   6.394  15.643  0.0596 -0.8224  1.6671
 6876TIP3    H242044   6.371   6.473  15.634 -0.6573  0.2575  0.7719
 6877TIP3   OH242045   6.045   4.323  13.701  0.3325  0.2897  0.0444
 6877TIP3    H142046   6.095   4.254  13.744  0.1300  0.7252  1.0092
 6877TIP3    H242047   6.093   4.403  13.722  0.6335  0.4289 -1.1685
 6878TIP3   OH242048   5.584   6.453   1.125  0.2999 -0.0083  0.1259
 6878TIP3    H142049   5.568   6.479   1.216  2.1480 -0.7842  0.6763
 6878TIP3    H242050   5.676   6.474   1.109 -0.6138  2.4516 -2.3684
 6879TIP3   OH242051   4.212   6.499  12.493 -0.4177  0.4139  0.2767
 6879TIP3    H142052   4.134   6.520  12.544  0.6963  2.6197  1.1673
 6879TIP3    H242053   4.182   6.496  12.403 -1.4267  1.9749  0.5350
 6880TIP3   OH242054   0.696   2.792  11.865 -0.3702  0.2310  0.3394
 6880TIP3    H142055   0.732   2.737  11.935 -3.4060 -1.5636  0.5563
 6880TIP3    H242056   0.664   2.870  11.909  0.1028  0.2957  0.5764
 6881TIP3   OH242057   0.409   6.163   5.974 -0.2883 -0.4155 -1.0377
 6881TIP3    H142058   0.395   6.069   5.979  0.7888 -0.4981  0.9546
 6881TIP3    H242059   0.491   6.173   5.926  1.3934 -0.7047  1.6241
 6882TIP3   OH242060   4.083   0.717  13.964  0.4252  0.0919  0.1814
 6882TIP3    H142061   4.113   0.627  13.970  0.6111 -0.0871 -2.9862
 6882TIP3    H242062   4.161   0.768  13.944  0.3694  1.0392  2.1798
 6883TIP3   OH242063   4.562   0.328  13.693 -0.2160 -0.3179  0.5122
 6883TIP3    H142064   4.509   0.399  13.657  0.3305  0.5531  1.4243
 6883TIP3    H242065   4.619   0.301  13.621 -0.6931 -0.0990  0.0510
 6884TIP3   OH242066   5.837   0.621  15.880  0.0678 -0.6318 -0.1216
 6884TIP3    H142067   5.896   0.569  15.934  0.9703  0.8118  0.3125
 6884TIP3    H242068   5.753   0.575  15.886  0.8148 -1.9620  0.3365
 6885TIP3   OH242069   2.588   0.670   5.097  0.2752 -0.5283  0.0687
 6885TIP3    H142070   2.578   0.639   5.187  1.7884 -0.1494  0.3822
 6885TIP3    H242071   2.595   0.590   5.044 -0.9639 -0.7536  0.2420
 6886TIP3   OH242072   1.487   5.451   4.651 -0.3124  0.0512  0.5792
 6886TIP3    H142073   1.530   5.494   4.725 -0.5943 -1.1005  1.4372
 6886TIP3    H242074   1.558   5.429   4.591  0.2046 -0.9686  1.5353
 6887TIP3   OH242075   1.066   3.496  12.721  0.1874  0.2721 -0.0654
 6887TIP3    H142076   1.073   3.580  12.767  0.1363  1.4720 -2.1946
 6887TIP3    H242077   0.976   3.494  12.689 -0.3037 -1.3582  1.3388
 6888TIP3   OH242078   5.763   1.914   0.628 -0.1219 -0.0718  0.5910
 6888TIP3    H142079   5.674   1.916   0.665 -0.1264 -1.3488  0.6724
 6888TIP3    H242080   5.799   2.000   0.649 -1.9399  1.1199 -0.9403
 6889TIP3   OH242081   0.589   3.681  16.414 -0.4779 -0.2693 -0.0161
 6889TIP3    H142082   0.594   3.642  16.327 -1.2988  0.1278 -0.2481
 6889TIP3    H242083   0.511   3.737  16.411  0.2692  0.8348  0.5274
 6890TIP3   OH242084   3.819   5.283  13.012  0.7171 -0.3865  0.4409
 6890TIP3    H142085   3.781   5.367  12.987  0.4648 -0.8701 -0.8244
 6890TIP3    H242086   3.781   5.220  12.951 -1.2289 -1.8969  3.0816
 6891TIP3   OH242087   1.281   2.537  13.891 -0.1839 -0.8824  0.0692
 6891TIP3    H142088   1.214   2.539  13.960 -0.9193  0.5669 -0.6521
 6891TIP3    H242089   1.239   2.582  13.817  1.7402  0.4516 -0.2366
 6892TIP3   OH242090   6.769   1.357  13.542 -0.0317 -0.4585  0.5411
 6892TIP3    H142091   6.710   1.356  13.467  1.1672  3.1001 -0.5528
 6892TIP3    H242092   6.835   1.423  13.520  3.5699 -3.2939  2.3227
 6893TIP3   OH242093   0.980   3.508  12.304 -0.4605 -0.3066 -0.6147
 6893TIP3    H142094   0.943   3.427  12.337  0.3244  0.0166  1.1448
 6893TIP3    H242095   0.934   3.577  12.352 -0.6429  0.2606 -1.5942
 6894TIP3   OH242096   1.742   5.209   3.574 -0.3127  0.2091 -0.0329
 6894TIP3    H142097   1.826   5.255   3.570  0.0887 -0.3507  1.6753
 6894TIP3    H242098   1.685   5.265   3.625 -0.8389  0.3471 -0.7601
 6895TIP3   OH242099   1.951   5.971  12.374 -0.5013  0.2332 -0.6629
 6895TIP3    H142100   1.976   5.879  12.365 -1.9364 -0.2954  0.5655
 6895TIP3    H242101   1.856   5.971  12.362 -0.4939  1.5780 -0.7638
 6896TIP3   OH242102   0.555   4.103  15.431  0.2765  0.0511  0.0688
 6896TIP3    H142103   0.575   4.010  15.443 -1.0669 -0.1273  0.9595
 6896TIP3    H242104   0.461   4.109  15.443  0.1249  1.2874 -1.6192
 6897TIP3   OH242105   0.209   0.034  11.683 -0.5011  0.2428 -0.5395
 6897TIP3    H142106   0.155   0.038  11.604 -1.0240  1.4052 -0.1291
 6897TIP3    H242107   0.296   0.010  11.650 -0.1385  3.1011 -1.7594
 6898TIP3   OH242108   5.047   5.383  12.720  0.3032  0.3227  0.5744
 6898TIP3    H142109   5.035   5.324  12.795  0.3999 -1.9559 -1.1616
 6898TIP3    H242110   4.959   5.415  12.700  0.3460  1.3662  1.9683
 6899TIP3   OH242111   0.870   0.734   0.983  0.0560 -0.0688  0.4351
 6899TIP3    H142112   0.822   0.670   0.931  0.4415 -0.5871  0.7084
 6899TIP3    H242113   0.931   0.773   0.921 -0.8305  0.7069  0.0525
 6900TIP3   OH242114   3.302   5.642   2.065  0.2193 -0.1151 -0.4180
 6900TIP3    H142115   3.272   5.714   2.010 -0.9895  0.5390  1.0811
 6900TIP3    H242116   3.273   5.665   2.153  3.9074 -0.1359  0.8837
 6901TIP3   OH242117   1.546   5.618  12.571  0.0178  0.2953 -0.2785
 6901TIP3    H142118   1.590   5.572  12.642 -0.2817 -1.1742 -1.0299
 6901TIP3    H242119   1.456   5.584  12.572 -0.5214  1.6985 -0.1255
 6902TIP3   OH242120   3.156   5.835  15.020  0.7798 -0.2820 -0.2588
 6902TIP3    H142121   3.199   5.860  15.102  1.2922 -0.0076 -0.6056
 6902TIP3    H242122   3.072   5.798  15.047 -0.9281  3.6962  0.2096
 6903TIP3   OH242123   5.281   6.419   0.814  0.1081  0.1915 -0.0713
 6903TIP3    H142124   5.253   6.506   0.842 -1.2542 -0.0016 -0.8124
 6903TIP3    H242125   5.263   6.363   0.890 -0.4081  0.2797 -0.1303
 6904TIP3   OH242126   4.771   5.214  16.596  0.0652  0.0485 -0.4942
 6904TIP3    H142127   4.794   5.300  16.560 -0.2767  0.9412  1.3355
 6904TIP3    H242128   4.676   5.217  16.604 -0.1263 -1.2081 -2.0977
 6905TIP3   OH242129   0.411   5.849  13.477  0.4482 -0.5989 -0.2680
 6905TIP3    H142130   0.447   5.902  13.548  0.0952  0.1891 -0.6715
 6905TIP3    H242131   0.351   5.788  13.520 -0.2950  0.3452  0.0437
 6906TIP3   OH242132   5.005   1.397   3.740  0.0734  0.4387 -0.0631
 6906TIP3    H142133   4.953   1.389   3.820  0.5836 -0.4376  0.1826
 6906TIP3    H242134   5.044   1.484   3.745 -1.2642  1.0601 -0.1900
 6907TIP3   OH242135   3.567   5.977  11.758 -0.1458 -0.0879 -0.5360
 6907TIP3    H142136   3.497   5.967  11.694 -1.0111 -1.0382  0.5490
 6907TIP3    H242137   3.626   5.904  11.741  0.0308  0.1045 -0.7522
 6908TIP3   OH242138   3.178   0.918  11.175  0.1169 -0.1369  0.2061
 6908TIP3    H142139   3.188   0.977  11.250 -1.2746  1.5625 -0.9150
 6908TIP3    H242140   3.237   0.953  11.109  0.0575 -0.6068 -0.0985
 6909TIP3   OH242141   3.049   1.830   1.711  0.9578  0.0490 -0.4873
 6909TIP3    H142142   3.109   1.900   1.684  0.1170  0.5717 -1.0047
 6909TIP3    H242143   3.094   1.787   1.784  1.2044  1.5288  0.2472
 6910TIP3   OH242144   1.297   5.800   0.289 -0.0474  0.0929  0.0238
 6910TIP3    H142145   1.234   5.729   0.300 -0.8170  0.7842  0.1009
 6910TIP3    H242146   1.331   5.788   0.200 -1.3217  0.5434 -0.5302
 6911TIP3   OH242147   5.758   4.306  14.941  0.3977 -0.6562  0.4417
 6911TIP3    H142148   5.741   4.236  14.878 -0.1104 -1.6007  1.6084
 6911TIP3    H242149   5.688   4.297  15.005  0.5949  0.6483  0.8451
 6912TIP3   OH242150   5.119   6.765   3.840 -0.0592 -0.1499 -0.1944
 6912TIP3    H142151   5.073   6.834   3.889  0.5573  1.4039 -1.7520
 6912TIP3    H242152   5.206   6.762   3.879  0.0459  0.2425 -0.3995
 6913TIP3   OH242153   1.275   0.687   6.607  0.0221 -0.1692 -0.2257
 6913TIP3    H142154   1.215   0.680   6.681 -1.0743 -0.0771 -1.0914
 6913TIP3    H242155   1.281   0.597   6.573 -0.2869 -0.0294 -0.6525
 6914TIP3   OH242156   0.842   5.669  15.856 -0.2687  0.1914 -0.2903
 6914TIP3    H142157   0.764   5.614  15.843  0.6736 -1.0473 -0.7012
 6914TIP3    H242158   0.906   5.611  15.896 -0.1334  1.6790  1.7302
 6915TIP3   OH242159   5.634   3.105  17.004 -0.4716 -0.4531 -0.5548
 6915TIP3    H142160   5.670   3.092  17.092  0.2642 -0.1076 -0.8018
 6915TIP3    H242161   5.607   3.197  17.003 -0.7054 -0.5220 -0.6136
 6916TIP3   OH242162   6.696   6.295  14.840 -0.1148 -0.0552 -0.2642
 6916TIP3    H142163   6.781   6.257  14.863 -0.6498  0.2828  2.4171
 6916TIP3    H242164   6.652   6.226  14.790  0.6624 -1.3028  0.7434
 6917TIP3   OH242165   2.284   0.380   5.205  0.2791 -0.4391  0.4761
 6917TIP3    H142166   2.326   0.353   5.286  1.1959  0.2584  0.2395
 6917TIP3    H242167   2.210   0.433   5.233  1.3990  0.9495  0.8371
 6918TIP3   OH242168   3.682   1.564  14.668  0.4038  0.0887 -0.5142
 6918TIP3    H142169   3.761   1.585  14.617  0.9454  0.5380  0.4993
 6918TIP3    H242170   3.610   1.583  14.608  0.9257  3.4490 -0.2049
 6919TIP3   OH242171   6.244   1.714  11.142 -0.1263  0.5753  0.2617
 6919TIP3    H142172   6.316   1.724  11.080  0.2322  0.5963  0.6808
 6919TIP3    H242173   6.271   1.643  11.200  0.6074  2.1399  1.8765
 6920TIP3   OH242174   6.582   1.376  13.316  0.1267 -0.3637 -0.4387
 6920TIP3    H142175   6.563   1.287  13.345  2.6698 -0.7118  0.3197
 6920TIP3    H242176   6.510   1.399  13.258 -1.5937 -2.1601  0.9466
 6921TIP3   OH242177   0.888   6.417   5.351  0.3663  0.1823  0.1151
 6921TIP3    H142178   0.799   6.413   5.385  0.6483 -0.0691  0.8461
 6921TIP3    H242179   0.890   6.497   5.297 -0.1278  0.5227  0.5923
 6922TIP3   OH242180   0.947   2.865  12.259  0.4892  0.1990 -0.1898
 6922TIP3    H142181   1.028   2.898  12.220  0.3440  1.5591  0.5949
 6922TIP3    H242182   0.919   2.936  12.318 -0.9685 -0.4840 -0.0383
 6923TIP3   OH242183   3.623   3.322   0.344  0.0738  0.0324  0.4270
 6923TIP3    H142184   3.577   3.403   0.368  0.2957  0.7744 -1.5713
 6923TIP3    H242185   3.698   3.319   0.403  0.4043  1.6233  0.1118
 6924TIP3   OH242186   2.176   5.781   3.642  0.3582 -0.4255 -0.0044
 6924TIP3    H142187   2.210   5.708   3.590  0.0839  0.8771 -2.0573
 6924TIP3    H242188   2.081   5.767   3.644  0.3630 -0.4427  0.1014
 6925TIP3   OH242189   5.538   1.699  16.036  0.0437 -0.1122 -0.0165
 6925TIP3    H142190   5.484   1.769  16.072 -0.3327  0.1849 -1.1427
 6925TIP3    H242191   5.545   1.635  16.107  0.7684  1.2567  1.1725
 6926TIP3   OH242192   2.874   6.240   5.736  0.7375 -0.2194 -0.0466
 6926TIP3    H142193   2.830   6.156   5.726 -0.7995  0.3360  1.6972
 6926TIP3    H242194   2.931   6.228   5.813 -0.1062  0.5521  0.7160
 6927TIP3   OH242195   0.504   4.981   2.327 -0.0013 -0.3262  0.1221
 6927TIP3    H142196   0.506   4.894   2.368 -1.3261 -1.4653 -2.0897
 6927TIP3    H242197   0.571   4.976   2.258 -2.8589 -1.1042 -2.7347
 6928TIP3   OH242198   5.480   6.497  15.383  0.0349  0.1265  0.4245
 6928TIP3    H142199   5.436   6.417  15.353 -0.7119  0.5537  0.3510
 6928TIP3    H242200   5.557   6.466  15.430  1.7970 -0.5581 -2.7578
 6929TIP3   OH242201   2.702   0.524   1.897 -0.2356 -0.0746 -0.4803
 6929TIP3    H142202   2.752   0.523   1.979 -3.0959  0.4030  1.3716
 6929TIP3    H242203   2.757   0.571   1.835  2.6566 -1.8040  0.7226
 6930TIP3   OH242204   6.056   3.171  16.342 -0.0982  0.2797  0.2238
 6930TIP3    H142205   6.128   3.142  16.286 -0.4933  0.9897 -0.6793
 6930TIP3    H242206   6.043   3.263  16.318 -0.6325  0.4434  1.1041
 6931TIP3   OH242207   2.191   1.734  16.918 -0.1996 -0.6993 -0.4158
 6931TIP3    H142208   2.250   1.794  16.874 -0.4274 -0.2155 -0.0617
 6931TIP3    H242209   2.249   1.672  16.963  0.0373 -1.2393 -1.4338
 6932TIP3   OH242210   1.378   0.673   3.260  0.0600 -0.1417  0.3867
 6932TIP3    H142211   1.318   0.603   3.285  0.9772 -0.4993  1.6363
 6932TIP3    H242212   1.410   0.708   3.343  2.9003 -1.1255 -0.2194
 6933TIP3   OH242213   0.913   5.801  11.318  0.3477  0.1598 -0.0936
 6933TIP3    H142214   0.898   5.878  11.372  0.5587  0.5691 -0.6124
 6933TIP3    H242215   0.939   5.836  11.233  0.9020 -0.4869 -0.2002
 6934TIP3   OH242216   4.995   2.373   5.241  0.1540  0.4795 -0.0087
 6934TIP3    H142217   5.063   2.419   5.192  1.1481 -0.2169  0.6944
 6934TIP3    H242218   5.043   2.309   5.294 -1.2299 -1.7592 -1.3805
 6935TIP3   OH242219   2.326   1.631  16.267 -0.7886 -0.2785 -0.2321
 6935TIP3    H142220   2.279   1.550  16.287  0.1636 -1.0454 -1.0470
 6935TIP3    H242221   2.259   1.699  16.272 -1.4255 -1.0060  1.2735
 6936TIP3   OH242222   0.486   5.317   3.259 -0.7599  0.0006  0.1381
 6936TIP3    H142223   0.406   5.308   3.207 -0.8420  0.3718  0.1982
 6936TIP3    H242224   0.540   5.243   3.233 -0.8354  0.1382 -0.4130
 6937TIP3   OH242225   5.164   0.195   7.015  0.8074 -0.0557 -0.6312
 6937TIP3    H142226   5.070   0.199   6.998  0.6915  0.5678  0.0949
 6937TIP3    H242227   5.175   0.240   7.099  1.9640  1.4965 -1.5808
 6938TIP3   OH242228   3.806   6.585   4.171 -0.0387  0.2299  0.2523
 6938TIP3    H142229   3.844   6.646   4.107  3.7361 -1.9388  0.2883
 6938TIP3    H242230   3.744   6.533   4.120  0.4872  0.7220 -0.9189
 6939TIP3   OH242231   3.343   2.101  11.774 -0.1032  0.3757 -0.4047
 6939TIP3    H142232   3.278   2.033  11.792  1.8126 -1.3425  0.0696
 6939TIP3    H242233   3.291   2.173  11.737 -2.2470 -1.0454 -0.2724
 6940TIP3   OH242234   3.336   1.395   4.629  0.5836  0.1952  0.2123
 6940TIP3    H142235   3.259   1.349   4.594 -0.5740  1.4636  1.0344
 6940TIP3    H242236   3.368   1.338   4.699  2.2576 -1.8248 -2.1232
 6941TIP3   OH242237   1.581   3.492  11.157  0.2774  0.0622  0.1434
 6941TIP3    H142238   1.554   3.549  11.084  2.0383  2.0361  0.9646
 6941TIP3    H242239   1.532   3.524  11.232  0.9836  0.2666  0.5259
 6942TIP3   OH242240   6.573   6.605   1.446 -0.5284 -0.6203 -0.9713
 6942TIP3    H142241   6.597   6.630   1.535  0.9600 -0.8996 -1.2807
 6942TIP3    H242242   6.581   6.686   1.396 -0.1626 -0.7174 -1.0772
 6943TIP3   OH242243   0.259   0.711  10.750 -0.3637 -0.2825  0.1010
 6943TIP3    H142244   0.267   0.745  10.839 -1.1234 -0.7793  0.3599
 6943TIP3    H242245   0.293   0.781  10.694 -1.1445  0.5615  0.6836
 6944TIP3   OH242246   1.408   3.226   4.927  0.6517  0.2210  0.0814
 6944TIP3    H142247   1.498   3.218   4.955  1.0274  0.0417 -1.1299
 6944TIP3    H242248   1.407   3.190   4.838 -0.4610  0.8665 -0.1827
 6945TIP3   OH242249   6.340   4.917  11.076  0.0207  0.1602  0.1105
 6945TIP3    H142250   6.328   4.983  11.007  1.2297 -0.7021 -0.9569
 6945TIP3    H242251   6.409   4.953  11.131  2.8063 -1.4820 -2.1616
 6946TIP3   OH242252   6.298   4.476  11.331  0.4364 -0.0631 -0.2036
 6946TIP3    H142253   6.207   4.498  11.349  0.4109  0.2513 -0.6879
 6946TIP3    H242254   6.346   4.558  11.347  0.7719 -0.4770  0.9830
 6947TIP3   OH242255   4.438   0.025  13.632 -0.2822 -0.5003 -0.0163
 6947TIP3    H142256   4.382   0.100  13.649 -2.6197 -1.6770 -2.0808
 6947TIP3    H242257   4.504   0.058  13.571 -1.1530 -0.0358 -0.7255
 6948TIP3   OH242258   3.306   2.803   3.155  0.2791  0.1915  0.5056
 6948TIP3    H142259   3.215   2.790   3.127  0.8072 -1.5281 -0.5031
 6948TIP3    H242260   3.349   2.838   3.077  0.9581 -1.1405  0.2678
 6949TIP3   OH242261   5.365   4.020  11.687  0.3351 -0.0797 -0.2586
 6949TIP3    H142262   5.403   4.099  11.724  0.0865 -0.6964  1.3516
 6949TIP3    H242263   5.327   4.048  11.604  0.9724  1.3077 -0.0950
 6950TIP3   OH242264   3.611   1.625   3.484 -0.1514 -0.1657  0.2087
 6950TIP3    H142265   3.611   1.717   3.510  3.7638  0.2513 -0.9778
 6950TIP3    H242266   3.532   1.615   3.431 -0.7281  2.4454  0.5072
 6951TIP3   OH242267   0.191   4.261   3.400 -0.5781  0.3802  0.0067
 6951TIP3    H142268   0.186   4.165   3.393  1.2984  0.2174  0.4538
 6951TIP3    H242269   0.277   4.283   3.363 -1.2964  1.9820 -0.7720
 6952TIP3   OH242270   4.437   0.897  14.628 -0.2548 -0.4908 -0.2301
 6952TIP3    H142271   4.441   0.805  14.602 -1.0860 -0.6392  0.1633
 6952TIP3    H242272   4.498   0.904  14.701 -0.0501 -0.6881 -0.3815
 6953TIP3   OH242273   0.380   6.683   1.545 -0.5263 -0.3596  0.5965
 6953TIP3    H142274   0.358   6.751   1.482 -1.7760  1.3466  2.8313
 6953TIP3    H242275   0.440   6.725   1.606 -0.4784 -1.5709  1.3970
 6954TIP3   OH242276   2.308   3.639   0.897  0.3124  0.1018 -0.3597
 6954TIP3    H142277   2.365   3.706   0.860  1.2710 -0.9021 -0.7316
 6954TIP3    H242278   2.343   3.557   0.863 -0.9340 -0.5757 -0.0225
 6955TIP3   OH242279   5.463   4.440   5.494 -0.4044  0.1601 -0.2968
 6955TIP3    H142280   5.500   4.363   5.536 -3.1675  0.0201  2.0817
 6955TIP3    H242281   5.434   4.410   5.408  2.1942 -0.4090 -1.0147
 6956TIP3   OH242282   5.652   4.915  13.239 -0.6511 -0.1579 -0.0401
 6956TIP3    H142283   5.713   4.949  13.174 -2.0899  0.9545 -0.8438
 6956TIP3    H242284   5.683   4.826  13.256  1.8520  0.7664  0.4431
 6957TIP3   OH242285   5.928   5.339   1.823 -0.8088  0.7183 -0.4714
 6957TIP3    H142286   5.947   5.281   1.897 -1.2315  0.2506 -0.7249
 6957TIP3    H242287   5.948   5.426   1.855  0.7549  0.3362 -0.4051
 6958TIP3   OH242288   6.055   5.548  14.057 -0.0235 -0.4882  0.4639
 6958TIP3    H142289   6.135   5.512  14.019  0.0869 -0.0034  0.2266
 6958TIP3    H242290   6.044   5.500  14.139  0.1138 -1.0614  0.1536
 6959TIP3   OH242291   0.232   2.529  15.612  0.1670 -0.2542  0.0097
 6959TIP3    H142292   0.266   2.563  15.695 -0.6019 -1.0980  0.6736
 6959TIP3    H242293   0.170   2.461  15.637 -0.0964 -0.4957 -1.2610
 6960TIP3   OH242294   2.392   5.989   1.326 -0.5651 -0.2534  0.1696
 6960TIP3    H142295   2.478   5.963   1.295  0.2849  0.3396  1.9560
 6960TIP3    H242296   2.375   5.931   1.401 -1.5051 -0.0380  0.1310
 6961TIP3   OH242297   4.699   2.325   1.400 -0.3919  0.3158  0.5594
 6961TIP3    H142298   4.675   2.233   1.411 -0.9644  0.3689 -0.1954
 6961TIP3    H242299   4.617   2.368   1.375  0.4161  0.5593 -1.7676
 6962TIP3   OH242300   1.113   4.968   2.419  0.2765  0.5078 -0.5588
 6962TIP3    H142301   1.017   4.961   2.413  0.3850  0.6357 -3.4196
 6962TIP3    H242302   1.142   4.877   2.425 -0.0327  0.4966  1.0093
 6963TIP3   OH242303   4.634   0.771  14.902 -0.6591  0.6256 -0.0658
 6963TIP3    H142304   4.690   0.696  14.917  1.4227  2.2648  0.6862
 6963TIP3    H242305   4.678   0.822  14.834 -0.6127  2.4969  1.2964
 6964TIP3   OH242306   0.824   4.260  11.754 -0.1811 -0.1250 -0.0657
 6964TIP3    H142307   0.781   4.216  11.681 -2.4664 -0.3658  1.3638
 6964TIP3    H242308   0.823   4.196  11.825  0.5624  0.6494  0.6591
 6965TIP3   OH242309   0.807   2.467  14.327 -0.1840 -0.1669  0.0054
 6965TIP3    H142310   0.820   2.561  14.328  0.6941 -0.2862  0.1250
 6965TIP3    H242311   0.894   2.431  14.310 -0.1425 -1.0358  1.9563
 6966TIP3   OH242312   0.825   4.664  17.129  0.4476 -0.2796 -0.1872
 6966TIP3    H142313   0.855   4.737  17.183  0.1840  0.3554 -0.8968
 6966TIP3    H242314   0.848   4.586  17.180  0.9245  0.2834  0.4748
 6967TIP3   OH242315   2.654   3.715  16.588  0.1061 -0.7177  0.1986
 6967TIP3    H142316   2.727   3.654  16.602  0.6937 -0.1238 -0.2093
 6967TIP3    H242317   2.689   3.800  16.616 -0.2861 -0.3534 -0.4088
 6968TIP3   OH242318   0.644   0.356  15.502  0.1153  0.3238 -0.0615
 6968TIP3    H142319   0.707   0.319  15.441 -0.6172  2.7919 -2.4587
 6968TIP3    H242320   0.584   0.284  15.522 -0.0491 -0.3877 -2.8700
 6969TIP3   OH242321   6.322   4.858  15.769  0.5023 -0.0794 -0.2990
 6969TIP3    H142322   6.400   4.901  15.735 -0.2494  1.4063 -0.2017
 6969TIP3    H242323   6.263   4.853  15.694  0.0820  0.2534  0.0081
 6970TIP3   OH242324   5.375   0.967   2.900  0.1172  0.9897 -0.3964
 6970TIP3    H142325   5.390   0.879   2.934  0.3882  1.6569  1.2532
 6970TIP3    H242326   5.457   0.990   2.856  0.5700  0.9856  0.4456
 6971TIP3   OH242327   5.389   6.294   3.245  0.1098 -0.2592  0.4157
 6971TIP3    H142328   5.450   6.368   3.253  0.4933 -0.4623 -0.6246
 6971TIP3    H242329   5.312   6.321   3.296  0.3879  0.7059  0.3307
 6972TIP3   OH242330   0.653   5.771   5.239  0.5935  0.7133  0.8186
 6972TIP3    H142331   0.660   5.686   5.282  3.3219  0.7217  0.4988
 6972TIP3    H242332   0.743   5.805   5.239 -0.2688  3.0943 -0.0633
 6973TIP3   OH242333   2.215   5.496  15.265 -0.7522  0.2540  0.1632
 6973TIP3    H142334   2.221   5.590  15.245 -2.1451  0.7360  1.8731
 6973TIP3    H242335   2.304   5.463  15.250 -0.6062  1.5367 -1.9083
 6974TIP3   OH242336   5.638   4.999  11.574 -0.0205 -0.0721  0.0959
 6974TIP3    H142337   5.566   4.950  11.534  0.7364 -0.1771 -1.1752
 6974TIP3    H242338   5.651   5.074  11.515 -0.6597  1.2536  1.6032
 6975TIP3   OH242339   1.269   5.796   2.460  0.1771  0.3286 -0.2118
 6975TIP3    H142340   1.264   5.891   2.451  0.1172  0.2509 -0.9917
 6975TIP3    H242341   1.179   5.766   2.446  0.0081  0.2332  1.0014
 6976TIP3   OH242342   5.208   2.135  15.991  0.0694  0.9056  0.4419
 6976TIP3    H142343   5.113   2.148  15.988 -0.1178 -0.5165 -0.7071
 6976TIP3    H242344   5.221   2.048  15.952  1.7528  0.6152  1.5872
 6977TIP3   OH242345   3.604   1.119   3.341 -0.0765 -0.4182  0.1976
 6977TIP3    H142346   3.682   1.159   3.302  0.2764  2.2474  3.3221
 6977TIP3    H242347   3.638   1.045   3.391  0.4570  0.4151  1.1146
 6978TIP3   OH242348   5.576   5.470  14.186  0.4858  0.3372 -0.0297
 6978TIP3    H142349   5.489   5.491  14.219  0.7109  0.1961  0.6486
 6978TIP3    H242350   5.634   5.478  14.261  0.8701 -0.8103 -0.1804
 6979TIP3   OH242351   0.360   6.002  14.782  0.4427  0.8508  0.1426
 6979TIP3    H142352   0.279   5.988  14.733 -0.8306  1.8043  1.9321
 6979TIP3    H242353   0.389   5.913  14.804 -0.9526  0.5406  0.8179
 6980TIP3   OH242354   2.854   4.527  13.273  0.2511  0.2715 -0.2090
 6980TIP3    H142355   2.908   4.481  13.338 -0.2476 -0.3991 -0.2558
 6980TIP3    H242356   2.876   4.485  13.190 -1.5375 -1.1330  0.0022
 6981TIP3   OH242357   0.849   6.359  15.361  0.0592 -0.1138  0.2708
 6981TIP3    H142358   0.889   6.389  15.279  0.5915 -0.6050  0.3496
 6981TIP3    H242359   0.887   6.415  15.428  0.3378 -0.3393  0.3000
 6982TIP3   OH242360   3.646   2.589   4.753  0.1983  0.3213 -0.0225
 6982TIP3    H142361   3.630   2.672   4.796  0.8556 -0.0233  0.9141
 6982TIP3    H242362   3.561   2.563   4.718 -0.6699 -0.0441  2.2508
 6983TIP3   OH242363   2.617   4.074   0.514  0.2061  0.7739 -0.0332
 6983TIP3    H142364   2.704   4.101   0.544  0.6807  0.1880 -0.8773
 6983TIP3    H242365   2.579   4.026   0.588  0.6337  0.9450  0.2972
 6984TIP3   OH242366   0.905   5.841   5.529 -0.5072 -0.1650 -0.2172
 6984TIP3    H142367   0.996   5.839   5.557 -0.5210 -1.3696 -0.2525
 6984TIP3    H242368   0.908   5.819   5.435 -0.9289 -1.4244  0.0527
 6985TIP3   OH242369   2.220   4.431   1.053  0.0229  0.2594 -0.0339
 6985TIP3    H142370   2.199   4.503   0.994  0.8176  1.8271  1.5561
 6985TIP3    H242371   2.312   4.445   1.076 -0.2401 -0.3930  1.4743
 6986TIP3   OH242372   3.461   0.395  14.165  0.2536 -0.2247  0.1296
 6986TIP3    H142373   3.514   0.427  14.238  0.7049  0.3731 -0.4607
 6986TIP3    H242374   3.381   0.364  14.207  0.6618 -0.2375  0.9243
 6987TIP3   OH242375   0.423   6.613   4.292 -0.3222  0.2980  0.3937
 6987TIP3    H142376   0.454   6.696   4.328  0.4948  0.1799 -0.0244
 6987TIP3    H242377   0.495   6.552   4.308  0.4962  0.4977 -2.3592
 6988TIP3   OH242378   2.610   2.343   1.167  0.1937  0.1371 -0.1474
 6988TIP3    H142379   2.570   2.429   1.153  1.1657  0.3664 -1.7335
 6988TIP3    H242380   2.583   2.291   1.091 -0.9936 -1.2086  1.1757
 6989TIP3   OH242381   1.809   4.435  12.687  0.5683 -0.1838 -0.2058
 6989TIP3    H142382   1.868   4.499  12.646 -1.0146  1.5512  0.1490
 6989TIP3    H242383   1.735   4.428  12.627  0.2608 -0.9402  0.2500
 6990TIP3   OH242384   2.580   5.633  14.217 -0.1487 -0.1340  0.0033
 6990TIP3    H142385   2.514   5.700  14.204  1.7747  1.2991 -2.9277
 6990TIP3    H242386   2.656   5.680  14.251  1.1986 -0.7800 -2.0064
 6991TIP3   OH242387   6.185   6.051  16.077 -0.0883 -0.1858 -0.3362
 6991TIP3    H142388   6.208   6.091  15.993  0.9311  0.1699  0.1008
 6991TIP3    H242389   6.090   6.040  16.073 -0.0128 -0.4541 -1.6529
 6992TIP3   OH242390   3.717   4.802  16.269  0.1198 -0.0020 -0.2504
 6992TIP3    H142391   3.706   4.891  16.237  0.5834  0.0206 -0.3528
 6992TIP3    H242392   3.751   4.812  16.358 -0.3168 -0.0718 -0.0755
 6993TIP3   OH242393   5.641   5.639  15.586  0.2795 -0.2519  0.3148
 6993TIP3    H142394   5.554   5.620  15.622  0.5602 -0.0047  1.1161
 6993TIP3    H242395   5.695   5.565  15.614  0.7898  0.5352  1.4222
 6994TIP3   OH242396   5.382   0.740   4.537  0.1008  0.4076 -0.0526
 6994TIP3    H142397   5.447   0.687   4.583 -0.9857 -0.1201  0.8936
 6994TIP3    H242398   5.345   0.682   4.471 -0.6734  0.1597  0.5956
 6995TIP3   OH242399   4.009   1.265  12.022 -0.7032 -0.0288 -0.4544
 6995TIP3    H142400   3.976   1.264  11.932 -2.9486  1.2144  0.3070
 6995TIP3    H242401   4.028   1.357  12.039  2.8844 -0.6384 -0.6934
 6996TIP3   OH242402   0.423   4.220   3.160  0.1408  0.7065 -0.1449
 6996TIP3    H142403   0.508   4.259   3.140  1.2983 -1.6923 -0.0467
 6996TIP3    H242404   0.444   4.143   3.212 -2.0603 -0.3170 -0.7256
 6997TIP3   OH242405   5.865   2.083   3.860 -0.4707  0.0957 -0.0444
 6997TIP3    H142406   5.847   2.089   3.954 -2.3752  1.5894 -0.4732
 6997TIP3    H242407   5.806   2.015   3.828 -1.4235  1.1205 -0.5090
 6998TIP3   OH242408   3.590   0.976  12.860  0.4746  0.1208 -0.4341
 6998TIP3    H142409   3.659   1.024  12.905  0.3946 -0.2134  0.0473
 6998TIP3    H242410   3.568   1.031  12.785 -0.4648  1.4364  0.7741
 6999TIP3   OH242411   5.690   0.503  16.424  0.7057  0.0131  0.0971
 6999TIP3    H142412   5.753   0.560  16.379  1.5218 -1.0126 -0.0819
 6999TIP3    H242413   5.618   0.561  16.449  1.8747  1.2665  0.5942
 7000TIP3   OH242414   0.502   5.352  13.555  1.1909  0.5830 -0.6377
 7000TIP3    H142415   0.587   5.359  13.598  1.5070 -0.4923 -1.0642
 7000TIP3    H242416   0.521   5.369  13.463  0.8634  0.7970 -0.6665
 7001TIP3   OH242417   1.785   4.351  15.891  0.4378 -0.0977 -0.8898
 7001TIP3    H142418   1.771   4.365  15.797  2.4523  0.9598 -1.0497
 7001TIP3    H242419   1.870   4.308  15.896 -0.3075 -1.4650  0.3847
 7002TIP3   OH242420   5.944   0.225  12.604  0.4285  0.0628 -0.1982
 7002TIP3    H142421   5.972   0.155  12.663 -0.8755 -0.0289  0.3142
 7002TIP3    H242422   5.975   0.197  12.518  1.8490 -0.0695  0.3486
 7003TIP3   OH242423   2.941   0.706   0.113  0.1129  0.7008  0.6227
 7003TIP3    H142424   2.999   0.777   0.140  0.0388  0.7832  0.5662
 7003TIP3    H242425   2.992   0.657   0.048  1.4114 -1.2216  3.0008
 7004TIP3   OH242426   3.491   1.216   1.449 -0.1356  0.2689  0.1765
 7004TIP3    H142427   3.496   1.309   1.427 -0.8244 -0.3875 -2.9693
 7004TIP3    H242428   3.582   1.187   1.457  0.1503  0.6738 -1.4090
 7005TIP3   OH242429   0.331   0.051  16.904 -0.1435 -0.0601 -0.0125
 7005TIP3    H142430   0.422   0.065  16.930 -0.0364 -1.0918  0.1721
 7005TIP3    H242431   0.304   0.136  16.867  1.3426 -0.1766 -1.4651
 7006TIP3   OH242432   3.961   0.170   1.161 -0.0996 -0.3143  0.0961
 7006TIP3    H142433   4.045   0.134   1.133  0.2775  0.0252  0.7894
 7006TIP3    H242434   3.902   0.151   1.088  0.7874  0.2274 -0.7666
 7007TIP3   OH242435   2.608   1.808  15.479 -0.1206 -0.3446  0.0237
 7007TIP3    H142436   2.652   1.776  15.558  0.0621 -0.5651 -0.1689
 7007TIP3    H242437   2.535   1.747  15.466  0.2154 -0.6690 -0.3314
 7008TIP3   OH242438   3.791   2.282  14.394 -0.3022  0.0695 -0.3820
 7008TIP3    H142439   3.715   2.338  14.376 -1.0481 -1.1321 -1.0645
 7008TIP3    H242440   3.776   2.204  14.341  1.7997  0.1195 -1.0811
 7009TIP3   OH242441   1.080   4.378   6.303  0.0904  0.1376 -0.1961
 7009TIP3    H142442   1.139   4.451   6.286  0.1716 -0.2183 -1.5529
 7009TIP3    H242443   1.134   4.313   6.347 -0.3930  1.5296  2.5307
 7010TIP3   OH242444   3.883   4.860   5.604  0.3646 -0.5205  0.1625
 7010TIP3    H142445   3.816   4.798   5.576  1.4369 -2.3893  1.6016
 7010TIP3    H242446   3.956   4.847   5.543  0.0269  0.3687 -0.4298
 7011TIP3   OH242447   5.589   3.656   4.518 -0.2098 -0.4662  0.1308
 7011TIP3    H142448   5.673   3.612   4.510  0.2636  0.0556  1.9628
 7011TIP3    H242449   5.611   3.747   4.540 -1.1734  0.6590 -3.2307
 7012TIP3   OH242450   0.133   2.638  14.617 -0.2742 -0.5491  0.3351
 7012TIP3    H142451   0.096   2.719  14.583  0.3918 -1.2992 -2.3066
 7012TIP3    H242452   0.117   2.642  14.712 -1.8717  1.7907  0.0142
 7013TIP3   OH242453   5.958   6.222  14.909  0.3819  0.6370 -0.4887
 7013TIP3    H142454   6.029   6.160  14.925 -1.6283 -1.5618  0.1677
 7013TIP3    H242455   5.953   6.273  14.991  1.3379  0.9761 -0.6316
 7014TIP3   OH242456   3.040   1.734  13.863 -0.0100  0.3474  0.0976
 7014TIP3    H142457   2.994   1.738  13.779  0.4518  1.6546 -0.0987
 7014TIP3    H242458   2.979   1.687  13.921 -0.2796 -0.6689 -0.9832
 7015TIP3   OH242459   2.234   6.666   4.094 -0.0863  0.5498  0.3123
 7015TIP3    H142460   2.145   6.700   4.110 -0.5194 -0.8745  0.9817
 7015TIP3    H242461   2.223   6.603   4.023  0.6641  1.4878 -0.6663
 7016TIP3   OH242462   1.974   6.232  13.006 -0.1307  0.2913  0.1617
 7016TIP3    H142463   1.917   6.309  13.011 -1.3851 -0.7322  2.3182
 7016TIP3    H242464   2.046   6.252  13.066 -1.3507 -0.8711  2.0925
 7017TIP3   OH242465   4.515   0.030   1.245 -0.1662  0.1111  0.3275
 7017TIP3    H142466   4.517   0.109   1.299  0.0993 -0.1561  0.7045
 7017TIP3    H242467   4.470  -0.035   1.298  1.2401 -0.5423  0.7620
 7018TIP3   OH242468   0.201   2.982   5.692 -0.4909  0.0558 -0.4807
 7018TIP3    H142469   0.263   2.917   5.660  1.1839  1.7122 -0.6896
 7018TIP3    H242470   0.196   2.965   5.787 -0.6000 -0.7922 -0.6295
 7019TIP3   OH242471   3.507   0.873   4.857  0.3504 -0.2364  0.3015
 7019TIP3    H142472   3.445   0.880   4.784  0.0285 -0.3735  0.5559
 7019TIP3    H242473   3.467   0.807   4.915  0.9840 -0.6914  0.2239
 7020TIP3   OH242474   6.728   3.155  14.797 -0.0789 -0.3629 -0.3727
 7020TIP3    H142475   6.734   3.076  14.850 -0.3292  0.5797  1.0946
 7020TIP3    H242476   6.818   3.171  14.768  0.0882 -0.7927 -0.1008
 7021TIP3   OH242477   2.702   0.101  14.160  0.7981 -0.5686  0.3471
 7021TIP3    H142478   2.740   0.032  14.106  0.8184  0.5411 -1.0955
 7021TIP3    H242479   2.726   0.182  14.115 -0.0409  0.3283  1.4963
 7022TIP3   OH242480   5.214   6.218   0.211 -0.7396  0.1730  0.1539
 7022TIP3    H142481   5.213   6.305   0.170 -0.2716  1.6240  3.0848
 7022TIP3    H242482   5.126   6.183   0.194 -0.7486  0.9590 -1.5307
 7023TIP3   OH242483   4.241   5.673   1.573 -0.7739 -0.4441 -0.0423
 7023TIP3    H142484   4.319   5.636   1.531 -1.3556  0.6833 -2.2230
 7023TIP3    H242485   4.229   5.758   1.530 -0.4758  1.5481  3.6267
 7024TIP3   OH242486   2.715   3.895   0.296  0.3618 -0.2507 -0.5579
 7024TIP3    H142487   2.673   3.956   0.357 -0.3462 -1.2721 -0.0085
 7024TIP3    H242488   2.642   3.851   0.252  0.8556 -1.0874 -0.5555
 7025TIP3   OH242489   4.590   2.821  13.784  0.1253 -0.0677  0.0856
 7025TIP3    H142490   4.586   2.797  13.876 -2.0294 -0.3271 -0.0631
 7025TIP3    H242491   4.675   2.865  13.774 -0.9306  2.7867  2.8838
 7026TIP3   OH242492   0.700   6.121   3.660 -0.1719  0.0786 -0.1403
 7026TIP3    H142493   0.691   6.210   3.693  2.7340  0.5930 -0.6850
 7026TIP3    H242494   0.793   6.111   3.639 -0.6094 -2.7571 -1.0043
 7027TIP3   OH242495   0.923   2.066  13.480 -0.2463  0.2099 -0.2222
 7027TIP3    H142496   0.933   2.048  13.387 -1.1559 -1.2783 -0.0426
 7027TIP3    H242497   0.973   1.998  13.524 -0.6512  0.3012  0.3931
 7028TIP3   OH242498   0.286   0.781   1.684 -0.6069  0.1101 -0.6399
 7028TIP3    H142499   0.376   0.803   1.709  0.0546 -0.9910 -2.0203
 7028TIP3    H242500   0.283   0.793   1.589 -0.3992 -4.8634 -1.4041
 7029TIP3   OH242501   3.505   3.123   3.267  0.4599 -0.1743  0.2968
 7029TIP3    H142502   3.423   3.081   3.291 -0.4343  0.6107 -1.2754
 7029TIP3    H242503   3.571   3.053   3.270 -0.2326 -0.7811  1.6569
 7030TIP3   OH242504   3.711   5.810   5.714 -0.1113  0.0990  1.3865
 7030TIP3    H142505   3.629   5.860   5.721  0.0464  0.4522  0.7859
 7030TIP3    H242506   3.775   5.874   5.684  0.1505 -0.4139  0.8547
 7031TIP3   OH242507   2.743   2.150   4.403  0.3833  0.1630  0.9912
 7031TIP3    H142508   2.706   2.237   4.415  0.9725  0.5432  0.0556
 7031TIP3    H242509   2.676   2.090   4.438 -1.5454  0.7733 -1.5109
 7032TIP3   OH242510   5.232   4.007  16.035  0.3526  0.5664 -0.4871
 7032TIP3    H142511   5.290   3.944  16.077 -1.0678 -0.7949 -0.4902
 7032TIP3    H242512   5.277   4.091  16.043  2.2652 -0.4351 -0.4471
 7033TIP3   OH242513   0.222   6.011   2.839 -0.0949 -0.0488 -0.0877
 7033TIP3    H142514   0.201   5.937   2.895 -1.1322 -0.8720 -1.5355
 7033TIP3    H242515   0.146   6.069   2.846 -0.5835 -0.5336 -1.2393
 7034TIP3   OH242516   3.955   2.863  13.811  0.5376 -0.0773  0.2723
 7034TIP3    H142517   4.007   2.926  13.761  1.8850 -1.8102 -0.5793
 7034TIP3    H242518   3.942   2.789  13.751 -0.0782 -1.0706  1.5943
 7035TIP3   OH242519   1.802   6.461  15.098  0.5427 -0.1680 -0.5622
 7035TIP3    H142520   1.806   6.462  15.194 -0.9372  0.0218 -0.4829
 7035TIP3    H242521   1.846   6.541  15.071 -1.4872  1.2213  0.0953
 7036TIP3   OH242522   6.506   0.865  16.081 -0.6675  0.0354 -0.4581
 7036TIP3    H142523   6.593   0.874  16.041 -0.6011 -1.2054 -0.6136
 7036TIP3    H242524   6.472   0.782  16.045 -1.1415 -0.4319  1.0543
 7037TIP3   OH242525   1.845   1.201  16.602 -0.3815  0.6499 -0.2247
 7037TIP3    H142526   1.807   1.281  16.565 -0.4000  0.5176 -0.4907
 7037TIP3    H242527   1.778   1.169  16.663 -0.0576  1.2501  0.4523
 7038TIP3   OH242528   3.045   5.524  13.548  0.0348  0.3083  0.1171
 7038TIP3    H142529   3.079   5.594  13.604  0.4895  0.5823 -0.4897
 7038TIP3    H242530   3.013   5.458  13.609 -1.9896  1.7978  0.7432
 7039TIP3   OH242531   2.221   4.998   2.575 -0.3195  0.1749  0.6717
 7039TIP3    H142532   2.191   4.970   2.662 -1.8276 -0.5212 -0.0512
 7039TIP3    H242533   2.158   5.065   2.549  0.3606  0.6636  0.2684
 7040TIP3   OH242534   1.600   1.567   2.556 -0.1175 -0.4404  0.4971
 7040TIP3    H142535   1.666   1.631   2.581  0.7400  0.5835 -3.8310
 7040TIP3    H242536   1.618   1.490   2.610  1.2828  1.6001  3.0365
 7041TIP3   OH242537   3.671   5.302  15.248 -0.7694  0.3667 -0.2669
 7041TIP3    H142538   3.753   5.255  15.237 -0.8084  0.2609 -0.1046
 7041TIP3    H242539   3.661   5.352  15.167 -1.5554 -1.1613 -1.1295
 7042TIP3   OH242540   4.694   0.724  10.722  0.0801  0.6038  0.2707
 7042TIP3    H142541   4.688   0.763  10.809  0.4348 -0.6934  0.8806
 7042TIP3    H242542   4.743   0.788  10.671 -1.6459  2.1900  0.5351
 7043TIP3   OH242543   1.076   0.120   2.178 -0.6305 -0.9224 -0.0758
 7043TIP3    H142544   1.058   0.202   2.132  1.5049 -0.5468 -0.2914
 7043TIP3    H242545   1.116   0.147   2.260  0.2327 -1.7498 -0.2157
 7044TIP3   OH242546   2.277   4.966  15.536 -0.0775 -0.2701 -0.1274
 7044TIP3    H142547   2.330   4.982  15.458 -3.4130 -0.4867 -2.5759
 7044TIP3    H242548   2.304   4.879  15.566  1.9055  0.2095 -0.4942
 7045TIP3   OH242549   2.404   0.987  16.297 -0.0353  0.2290 -0.1129
 7045TIP3    H142550   2.402   0.963  16.389 -1.7948  1.6012  0.2376
 7045TIP3    H242551   2.408   1.083  16.298  1.0159  0.2133 -1.4684
 7046TIP3   OH242552   3.117   3.956   2.445  0.4006  0.3235  0.4916
 7046TIP3    H142553   3.209   3.938   2.460 -1.1363 -6.7034  3.5286
 7046TIP3    H242554   3.106   3.951   2.350  2.9593  0.5818  0.1549
 7047TIP3   OH242555   6.409   0.029  13.981 -0.0641 -0.2231 -0.3646
 7047TIP3    H142556   6.470   0.102  13.992 -0.7894  0.3149  0.1455
 7047TIP3    H242557   6.394  -0.003  14.069 -1.9893  0.8706 -0.2686
 7048TIP3   OH242558   1.847   2.707   2.722  0.5045  0.1664  0.1847
 7048TIP3    H142559   1.786   2.770   2.684 -0.0596 -0.2976  0.3095
 7048TIP3    H242560   1.847   2.727   2.816  0.1345 -0.1740  0.2601
 7049TIP3   OH242561   0.035   6.485  16.149  0.2114  0.3023 -0.0354
 7049TIP3    H142562   0.113   6.475  16.203 -0.1812 -0.9933  0.3076
 7049TIP3    H242563   0.036   6.409  16.092 -0.5242  0.5622 -0.3963
 7050TIP3   OH242564   5.737   5.585   2.066  0.0386  0.0920 -0.1231
 7050TIP3    H142565   5.709   5.513   2.009 -1.2925 -0.7555  1.5659
 7050TIP3    H242566   5.833   5.580   2.066 -0.0493 -2.0812  0.4631
 7051TIP3   OH242567   2.954   1.384  15.116 -0.0637 -0.6894 -0.3000
 7051TIP3    H142568   2.878   1.439  15.134  1.1484  0.2216  2.2362
 7051TIP3    H242569   3.030   1.438  15.137  1.2470 -2.3236 -0.6407
 7052TIP3   OH242570   1.044   4.073   1.011 -0.2166 -0.0001 -0.0280
 7052TIP3    H142571   1.027   3.998   1.067  0.8084  0.1721  0.5250
 7052TIP3    H242572   1.127   4.108   1.042  1.1132 -0.7758 -2.6156
 7053TIP3   OH242573   0.750   1.240  16.682  0.0464 -0.3459  0.2999
 7053TIP3    H142574   0.803   1.162  16.694  1.3147  0.3828 -0.4828
 7053TIP3    H242575   0.799   1.310  16.726  1.0462  0.8490 -2.5967
 7054TIP3   OH242576   1.423   5.259   1.591 -0.0721 -0.3379  0.0987
 7054TIP3    H142577   1.390   5.298   1.510 -2.6598  1.5981  2.0056
 7054TIP3    H242578   1.510   5.297   1.602  0.1222 -0.2901 -1.5596
 7055TIP3   OH242579   1.234   6.443  12.392  0.6918 -0.0862  0.1018
 7055TIP3    H142580   1.241   6.480  12.480  1.7643 -0.0345  0.0077
 7055TIP3    H242581   1.275   6.508  12.336  0.5528 -0.3926 -0.3570
 7056TIP3   OH242582   5.159   3.215   6.108  0.4576  0.2799  0.1733
 7056TIP3    H142583   5.208   3.148   6.156  0.7522  0.9736  0.8571
 7056TIP3    H242584   5.180   3.297   6.153 -2.1414  0.4580  1.0961
 7057TIP3   OH242585   3.376   3.516  13.768 -0.5168 -0.6116  0.0682
 7057TIP3    H142586   3.316   3.464  13.715  0.2624 -0.8923 -0.5291
 7057TIP3    H242587   3.392   3.462  13.846 -0.4620 -0.8485 -0.1084
 7058TIP3   OH242588   0.001   0.232   6.631 -0.5486  0.5086 -0.2588
 7058TIP3    H142589   0.089   0.268   6.630 -0.6468  0.7401 -1.2665
 7058TIP3    H242590  -0.048   0.286   6.569  0.1434 -3.4729 -4.5066
 7059TIP3   OH242591   0.699   6.130  11.887  0.6502  0.1248 -0.4990
 7059TIP3    H142592   0.755   6.118  11.810  1.9450 -0.6384  0.5411
 7059TIP3    H242593   0.756   6.174  11.951  0.4870 -1.9029  1.0714
 7060TIP3   OH242594   6.748   0.214  12.043 -0.0179  0.2606 -0.0190
 7060TIP3    H142595   6.818   0.269  12.007 -0.0249  0.0465 -0.3712
 7060TIP3    H242596   6.696   0.189  11.966  1.1631 -1.9035 -0.1400
 7061TIP3   OH242597   2.973   3.557  17.112 -1.0080  0.0131  0.0611
 7061TIP3    H142598   2.984   3.646  17.146 -2.7480  0.2931 -0.0394
 7061TIP3    H242599   2.893   3.562  17.058 -1.3119 -1.6841  0.3227
 7062TIP3   OH242600   6.464   4.270   5.538  0.1439 -0.6062  0.1982
 7062TIP3    H142601   6.483   4.259   5.445  2.3424  1.8892  0.2683
 7062TIP3    H242602   6.534   4.327   5.570 -1.7512  0.3437  2.9134
 7063TIP3   OH242603   3.102   3.391   2.312 -0.3386 -0.2083  0.0687
 7063TIP3    H142604   3.117   3.481   2.282 -0.5731 -0.4265 -0.7180
 7063TIP3    H242605   3.174   3.373   2.372  0.5695 -0.0263 -0.9560
 7064TIP3   OH242606   6.416   0.002  16.523  0.3352  0.1404 -0.5616
 7064TIP3    H142607   6.368   0.009  16.441  1.3509 -0.1046 -1.1746
 7064TIP3    H242608   6.501   0.041  16.506  0.7897 -0.5024  0.1860
 7065TIP3   OH242609   3.687   2.274  15.682  0.3774 -0.5086  0.5011
 7065TIP3    H142610   3.762   2.323  15.649 -0.2277  0.6993  0.9258
 7065TIP3    H242611   3.637   2.337  15.734 -1.4745 -1.0315 -0.6080
 7066TIP3   OH242612   5.295   5.053  10.790  0.0536  0.2221 -0.8956
 7066TIP3    H142613   5.322   5.034  10.700 -1.7489  1.8857 -1.7952
 7066TIP3    H242614   5.333   5.139  10.809  0.6395 -0.2297  0.0412
 7067TIP3   OH242615   2.441   3.171   2.757 -0.4145  0.2394 -0.1327
 7067TIP3    H142616   2.418   3.259   2.789  0.0747  1.0356 -1.8739
 7067TIP3    H242617   2.362   3.119   2.772 -0.2184  0.5651  2.2883
 7068TIP3   OH242618   1.127   5.123  12.814 -0.7242 -1.0519 -0.4673
 7068TIP3    H142619   1.064   5.193  12.830  0.1270 -0.3653 -0.0854
 7068TIP3    H242620   1.154   5.135  12.723  0.6187  0.1135  0.0646
 7069TIP3   OH242621   0.627   2.499   5.270  0.1281  0.0912 -0.0698
 7069TIP3    H142622   0.721   2.503   5.290 -0.0769 -0.2530  1.0115
 7069TIP3    H242623   0.612   2.569   5.207  0.9472  0.7364  0.4524
 7070TIP3   OH242624   4.479   5.538   4.765 -0.6512  0.1035 -0.4018
 7070TIP3    H142625   4.442   5.474   4.825 -2.2136  0.6660 -0.7496
 7070TIP3    H242626   4.482   5.620   4.815  1.6090 -0.2735  0.1371
 7071TIP3   OH242627   5.735   3.960   1.700  0.0711  0.8399  0.4113
 7071TIP3    H142628   5.689   4.002   1.772 -0.7516 -0.5132  0.6786
 7071TIP3    H242629   5.681   3.979   1.623 -0.8227 -0.5159  0.6827
 7072TIP3   OH242630   2.431   4.566   3.509 -0.1805  0.0364  0.3464
 7072TIP3    H142631   2.503   4.612   3.551 -0.3948  2.4468 -1.7591
 7072TIP3    H242632   2.472   4.512   3.441  0.0323 -2.6450  2.5318
 7073TIP3   OH242633   3.820   3.490   3.182 -0.1603 -0.1521  0.2126
 7073TIP3    H142634   3.865   3.524   3.104 -0.7074 -1.9034 -0.8936
 7073TIP3    H242635   3.822   3.563   3.244  3.0279  0.2855 -0.2857
 7074TIP3   OH242636   6.723   3.801  16.174 -0.4703  0.0181 -0.1496
 7074TIP3    H142637   6.651   3.823  16.116  0.2410  0.2843 -0.9360
 7074TIP3    H242638   6.680   3.770  16.254 -1.4521  0.9206 -0.3172
 7075TIP3   OH242639   1.735   2.667  16.987  0.1826 -0.5989 -0.6753
 7075TIP3    H142640   1.748   2.591  17.044  0.2959 -0.3629 -0.3826
 7075TIP3    H242641   1.822   2.706  16.979  0.5233 -1.6972 -2.5387
 7076TIP3   OH242642   1.247   6.634   4.157 -0.0886  0.1678  0.3941
 7076TIP3    H142643   1.176   6.657   4.097  1.0935 -0.3067 -1.2008
 7076TIP3    H242644   1.303   6.575   4.107  2.5040  2.0785  0.9539
 7077TIP3   OH242645   2.189   3.637  15.413 -0.0909  0.3536 -0.0660
 7077TIP3    H142646   2.227   3.554  15.441  0.3260  0.6229  0.1737
 7077TIP3    H242647   2.259   3.701  15.427 -0.4378  0.7574 -0.1755
 7078TIP3   OH242648   3.783   1.596  15.290 -0.2069 -0.2649  0.0664
 7078TIP3    H142649   3.806   1.631  15.376 -1.9031  1.1517 -0.0332
 7078TIP3    H242650   3.803   1.502  15.297  2.9074  0.4009  0.8437
 7079TIP3   OH242651   6.620   0.388  12.899  0.0965 -0.3509 -0.2208
 7079TIP3    H142652   6.639   0.295  12.884  1.1677 -0.0685 -0.7043
 7079TIP3    H242653   6.634   0.400  12.993  0.1602 -0.6339 -0.1912
 7080TIP3   OH242654   0.523   4.411   5.204 -0.5994 -0.1729 -0.0391
 7080TIP3    H142655   0.553   4.502   5.208  2.0633 -0.9939 -0.4002
 7080TIP3    H242656   0.508   4.386   5.295 -2.6507  1.0156 -0.0240
 7081TIP3   OH242657   0.496   3.678   4.491  0.1371 -0.1557  0.2291
 7081TIP3    H142658   0.557   3.615   4.530  1.7029  0.4391 -1.1848
 7081TIP3    H242659   0.418   3.673   4.546  2.0548  0.2931  3.1291
 7082TIP3   OH242660   6.103   4.728  14.516 -0.4405  0.2364 -0.5942
 7082TIP3    H142661   6.178   4.681  14.551 -0.6550 -0.8858 -1.6284
 7082TIP3    H242662   6.139   4.783  14.446 -0.1767  1.7184  0.6631
 7083TIP3   OH242663   6.156   2.581   2.416  0.9142  0.0468  0.1568
 7083TIP3    H142664   6.062   2.582   2.395  0.7838  0.8632  0.7684
 7083TIP3    H242665   6.199   2.604   2.335  0.5704  0.0165 -0.0366
 7084TIP3   OH242666   6.002   4.227  11.460  0.6257 -0.0125 -0.5071
 7084TIP3    H142667   6.046   4.298  11.413 -0.2411  1.3447  0.6692
 7084TIP3    H242668   5.927   4.205  11.405  1.0538 -0.2045 -1.0157
 7085TIP3   OH242669   2.446   6.760  11.635  0.1916 -0.3117 -0.4846
 7085TIP3    H142670   2.420   6.847  11.606  2.4627  0.2532 -0.8709
 7085TIP3    H242671   2.367   6.707  11.623 -0.5616  1.1675 -2.3668
 7086TIP3   OH242672   2.897   0.419   3.123 -0.3133  0.2065  0.1013
 7086TIP3    H142673   2.889   0.375   3.039 -0.0404  1.5119 -0.6132
 7086TIP3    H242674   2.968   0.481   3.112 -2.2378  2.5154  0.3460
 7087TIP3   OH242675   6.170   5.570   2.358 -0.4077 -0.3476 -0.1592
 7087TIP3    H142676   6.250   5.523   2.384 -0.6609  0.5851  2.5168
 7087TIP3    H242677   6.194   5.616   2.278  0.8100 -2.4832 -1.0672
 7088TIP3   OH242678   5.501   0.321  11.956  0.2568  0.2768  0.7852
 7088TIP3    H142679   5.436   0.306  12.025  0.2259  0.9406  0.9077
 7088TIP3    H242680   5.513   0.235  11.915 -0.2082  0.0125  1.1920
 7089TIP3   OH242681   1.510   4.553   0.078 -0.5034  0.1782  0.5079
 7089TIP3    H142682   1.415   4.560   0.086 -0.8565 -1.1435 -2.1450
 7089TIP3    H242683   1.527   4.461   0.058  1.3376  0.3831  0.9828
 7090TIP3   OH242684   0.274   5.023   5.545  0.5800  0.6486 -0.3116
 7090TIP3    H142685   0.282   4.941   5.497  0.8855  0.6265 -0.2221
 7090TIP3    H242686   0.252   5.088   5.478 -0.7010  0.3099 -0.2408
 7091TIP3   OH242687   1.699   2.695   6.677 -0.5971 -0.1803 -0.4328
 7091TIP3    H142688   1.680   2.611   6.719 -1.2331  1.2364  2.2040
 7091TIP3    H242689   1.794   2.703   6.681 -0.3577 -1.6349 -2.4665
 7092TIP3   OH242690   2.886   2.466  13.009  0.0378 -0.3540 -0.3781
 7092TIP3    H142691   2.828   2.426  13.073 -0.6798  1.3664  0.0677
 7092TIP3    H242692   2.879   2.409  12.932 -1.9490 -0.3885 -0.1956
 7093TIP3   OH242693   4.452   3.154  12.539 -0.6026 -0.0088  0.3042
 7093TIP3    H142694   4.441   3.106  12.457 -1.1255 -2.3164  1.6887
 7093TIP3    H242695   4.461   3.087  12.605 -0.5858  1.8268  2.2154
 7094TIP3   OH242696   6.761   0.846  11.961  0.0964  0.2414 -0.4342
 7094TIP3    H142697   6.775   0.937  11.936 -0.4012  0.3094 -0.4626
 7094TIP3    H242698   6.809   0.837  12.044  2.9841 -0.3772 -2.0766
 7095TIP3   OH242699   6.607   5.824  15.070  0.7443 -0.6528 -0.3977
 7095TIP3    H142700   6.612   5.741  15.118  0.6213 -1.4611 -1.7596
 7095TIP3    H242701   6.695   5.861  15.076  0.4883 -0.2651  1.2666
 7096TIP3   OH242702   5.369   0.101  16.883  0.0386  0.0298  0.2727
 7096TIP3    H142703   5.403   0.153  16.956 -1.7409  1.7550 -0.0879
 7096TIP3    H242704   5.294   0.054  16.919  1.1298 -1.6754  0.3746
 7097TIP3   OH242705   3.270   1.489  12.878  0.5502  0.9157 -0.1354
 7097TIP3    H142706   3.322   1.548  12.823 -1.3061  2.1517 -0.6191
 7097TIP3    H242707   3.188   1.536  12.892 -0.2965 -0.8301  0.9395
 7098TIP3   OH242708   2.833   2.770   0.112  0.2225 -0.4740  0.1259
 7098TIP3    H142709   2.757   2.778   0.169 -0.2556  0.1704 -0.5939
 7098TIP3    H242710   2.860   2.860   0.094 -0.2558 -0.6327 -1.4866
 7099TIP3   OH242711   3.665   3.539   4.219  0.1257 -0.3561  0.0668
 7099TIP3    H142712   3.749   3.504   4.250  1.2296  1.7409 -0.5084
 7099TIP3    H242713   3.627   3.581   4.296  0.1839 -0.2009  0.0103
 7100TIP3   OH242714   3.215   3.707  12.306  0.0086 -0.5512 -0.4275
 7100TIP3    H142715   3.220   3.619  12.270  0.5472 -0.9900  0.6996
 7100TIP3    H242716   3.191   3.694  12.398  1.2986  0.4175  0.0583
 7101TIP3   OH242717   6.198   6.713  15.713  0.6657 -0.1885  0.2483
 7101TIP3    H142718   6.115   6.665  15.703 -0.4036  1.7379 -0.4914
 7101TIP3    H242719   6.185   6.766  15.791  1.9836 -1.3352  1.2715
 7102TIP3   OH242720   5.648   4.509  11.780  0.1253  0.2664 -0.5067
 7102TIP3    H142721   5.599   4.590  11.794 -0.6172 -0.2290 -0.2094
 7102TIP3    H242722   5.717   4.511  11.846 -0.2469  0.3805 -0.1204
 7103TIP3   OH242723   0.822   0.540   3.132 -1.1905  0.1636 -0.3664
 7103TIP3    H142724   0.736   0.528   3.092 -0.4872 -0.6036 -1.7285
 7103TIP3    H242725   0.877   0.574   3.061 -0.2454  0.1353  0.3352
 7104TIP3   OH242726   2.092   4.680  11.836  0.0524  0.3073  0.2222
 7104TIP3    H142727   2.178   4.688  11.878  0.0935  2.5964 -0.2446
 7104TIP3    H242728   2.106   4.618  11.764  1.0272 -0.2460  0.8878
 7105TIP3   OH242729   5.125   6.782  15.710 -0.5958  0.2161  0.1719
 7105TIP3    H142730   5.077   6.752  15.633 -1.7606 -0.0980  1.0096
 7105TIP3    H242731   5.163   6.703  15.747 -2.3174 -0.0128  1.4641
 7106TIP3   OH242732   3.117   2.345   1.896  0.6316 -0.0579 -0.0532
 7106TIP3    H142733   3.120   2.337   1.801  0.7599  0.0286 -0.0560
 7106TIP3    H242734   3.194   2.298   1.927  1.9727  2.0165 -0.1207
 7107TIP3   OH242735   3.452   6.294  12.494  0.0872  1.0616 -0.4976
 7107TIP3    H142736   3.503   6.232  12.442 -0.0092  0.9978 -0.5139
 7107TIP3    H242737   3.463   6.378  12.449 -0.6931  0.8437 -1.1108
 7108TIP3   OH242738   4.798   0.631   4.655 -0.4066  0.0242 -0.7209
 7108TIP3    H142739   4.835   0.677   4.580  0.1469  0.2830 -0.2937
 7108TIP3    H242740   4.717   0.591   4.622 -0.6624  0.9357 -1.2131
 7109TIP3   OH242741   3.455   3.910  13.617  0.3066  0.2241 -0.3959
 7109TIP3    H142742   3.412   3.869  13.542  0.3257 -0.3392 -0.1026
 7109TIP3    H242743   3.456   3.842  13.684 -0.1430  0.8680  0.2812
 7110TIP3   OH242744   1.379   1.957  13.944  0.4441 -0.2331 -0.7162
 7110TIP3    H142745   1.310   2.003  13.992 -0.5230 -0.2385 -2.0973
 7110TIP3    H242746   1.456   2.015  13.951  0.0666  0.1815  0.0729
 7111TIP3   OH242747   0.581   6.747  14.509  0.0216 -0.3423 -0.3480
 7111TIP3    H142748   0.568   6.842  14.508 -0.9586 -0.4877 -1.1103
 7111TIP3    H242749   0.675   6.736  14.494  0.5528  0.5775  2.0699
 7112TIP3   OH242750   2.689   3.208   1.081  0.0230  0.0715 -0.8021
 7112TIP3    H142751   2.747   3.146   1.125 -1.0425 -1.6670 -1.7555
 7112TIP3    H242752   2.741   3.244   1.009  1.3959  2.0550  1.1464
 7113TIP3   OH242753   6.096   2.919   2.697 -0.1816 -0.2912  0.2316
 7113TIP3    H142754   6.029   2.865   2.654  0.3616 -2.8159  2.4051
 7113TIP3    H242755   6.047   2.979   2.752 -0.7467 -0.2671 -0.2943
 7114TIP3   OH242756   2.541   5.252   2.810 -0.0327  0.2193  0.2682
 7114TIP3    H142757   2.526   5.292   2.895 -0.1334 -1.1739  0.9330
 7114TIP3    H242758   2.577   5.165   2.831 -1.0919 -0.5632 -1.0825
 7115TIP3   OH242759   4.607   6.401  11.866  0.2457  0.1259 -0.4084
 7115TIP3    H142760   4.681   6.392  11.926  1.4397 -0.7589 -1.9915
 7115TIP3    H242761   4.602   6.318  11.819 -0.5250  0.8756 -1.7063
 7116TIP3   OH242762   1.774   6.154  15.084 -0.6418  0.0474  0.1732
 7116TIP3    H142763   1.810   6.173  15.171 -2.2591 -0.6168  1.0017
 7116TIP3    H242764   1.694   6.207  15.079  1.2306  2.8489 -2.3222
 7117TIP3   OH242765   2.638   0.499   4.400 -0.3224 -0.8887  0.0188
 7117TIP3    H142766   2.548   0.473   4.417 -0.7913 -0.5149 -1.7324
 7117TIP3    H242767   2.631   0.568   4.334  1.1610  0.2813  1.0639
 7118TIP3   OH242768   5.585   0.340   2.192  0.5100 -0.3658 -0.0678
 7118TIP3    H142769   5.624   0.392   2.121  2.1953  0.2666  1.2966
 7118TIP3    H242770   5.644   0.266   2.202 -0.4857 -1.1951 -0.2340
 7119TIP3   OH242771   1.757   2.041  12.259  0.0149  0.0832  0.8470
 7119TIP3    H142772   1.723   1.957  12.227 -0.2644  0.5588 -0.1346
 7119TIP3    H242773   1.808   2.076  12.186 -1.0195  1.4046  0.7278
 7120TIP3   OH242774   1.923   0.555  13.398  0.4138  0.0719  0.2995
 7120TIP3    H142775   1.889   0.602  13.474  0.1874  1.4396 -0.6319
 7120TIP3    H242776   1.994   0.610  13.366 -0.7836  0.4990 -1.6515
 7121TIP3   OH242777   2.469   5.489   5.460  0.2612  0.2959 -1.0213
 7121TIP3    H142778   2.389   5.438   5.451  0.4670 -0.4258  0.9900
 7121TIP3    H242779   2.540   5.425   5.444  0.4677  0.6458 -1.5215
 7122TIP3   OH242780   6.392   3.811  16.330  0.0581 -0.0657 -0.1402
 7122TIP3    H142781   6.313   3.768  16.364 -0.7511 -0.3100 -2.2351
 7122TIP3    H242782   6.464   3.758  16.364 -0.7801 -1.0491  0.1461
 7123TIP3   OH242783   4.740   5.897   4.081 -0.9316  0.8556 -0.0238
 7123TIP3    H142784   4.710   5.913   4.171  1.3010  1.8045  0.5700
 7123TIP3    H242785   4.783   5.979   4.055 -0.0379 -0.0148 -1.3538
 7124TIP3   OH242786   2.856   4.808   1.561 -0.4868  0.0422  0.2344
 7124TIP3    H142787   2.842   4.763   1.645 -1.5738  0.5961  0.3616
 7124TIP3    H242788   2.768   4.831   1.532 -0.2184 -1.2800 -1.7069
 7125TIP3   OH242789   2.758   4.352  13.040  0.2128  0.1078  0.1604
 7125TIP3    H142790   2.697   4.418  13.007  2.7973  2.5134  0.0070
 7125TIP3    H242791   2.818   4.335  12.967 -0.6146 -2.7582  0.0598
 7126TIP3   OH242792   5.557   3.045   5.492  0.3570  0.6663  0.0251
 7126TIP3    H142793   5.623   2.988   5.532  1.6600  2.4801  0.5423
 7126TIP3    H242794   5.535   3.002   5.409  2.1498  0.0065 -0.1363
 7127TIP3   OH242795   0.692   1.476   3.320 -0.3973 -0.2842  0.9683
 7127TIP3    H142796   0.721   1.524   3.398 -0.2805  0.5005  0.4396
 7127TIP3    H242797   0.700   1.384   3.346  1.4516 -0.0728  1.2582
 7128TIP3   OH242798   5.705   1.064  17.216 -0.1410  0.2395 -0.0807
 7128TIP3    H142799   5.779   1.118  17.245  0.6359  0.3428 -2.2266
 7128TIP3    H242800   5.669   1.029  17.298  0.2729  2.7620  1.2569
 7129TIP3   OH242801   4.981   5.704   6.476 -0.0019  0.2535  0.4401
 7129TIP3    H142802   4.929   5.753   6.540 -0.4863  0.9078 -0.4514
 7129TIP3    H242803   4.931   5.710   6.395  0.2950 -1.1184  0.1454
 7130TIP3   OH242804   6.051   2.703   0.605  0.5928 -0.3412 -0.3669
 7130TIP3    H142805   5.958   2.680   0.603  0.3950  0.4644 -0.7342
 7130TIP3    H242806   6.052   2.799   0.607  1.3801 -0.3751  2.3375
 7131TIP3   OH242807   5.770   4.305   1.868  0.0265 -0.2164 -0.6307
 7131TIP3    H142808   5.728   4.382   1.829  1.4340  0.8139 -0.1500
 7131TIP3    H242809   5.758   4.316   1.962  1.6824  0.2770 -0.4710
 7132TIP3   OH242810   2.564   0.640   1.341  0.1299  0.4753  0.5460
 7132TIP3    H142811   2.517   0.717   1.309  1.4340  1.2377  0.4036
 7132TIP3    H242812   2.530   0.624   1.429 -0.1754  1.1889  0.5563
 7133TIP3   OH242813   6.402   3.539  15.764  0.0718  0.3533 -0.1161
 7133TIP3    H142814   6.458   3.581  15.700  0.4804  1.2924  0.8337
 7133TIP3    H242815   6.363   3.465  15.718  0.0379  1.2580 -1.5451
 7134TIP3   OH242816   5.489   0.261   0.905 -0.8152  0.2414  0.3052
 7134TIP3    H142817   5.572   0.240   0.862 -1.0431  0.0605 -0.0494
 7134TIP3    H242818   5.490   0.210   0.986 -0.1960  0.9093  0.7188
 7135TIP3   OH242819   3.140   4.473   2.101  0.2878 -0.0411  0.6240
 7135TIP3    H142820   3.055   4.510   2.078  0.2220  0.5903  1.8537
 7135TIP3    H242821   3.125   4.426   2.183  1.1758  0.2799  0.9748
 7136TIP3   OH242822   3.979   4.477   6.256 -0.4163  0.0526  0.1635
 7136TIP3    H142823   3.896   4.431   6.258 -0.8810  0.8825  0.5886
 7136TIP3    H242824   3.955   4.570   6.247  0.4265  0.3661  0.9928
 7137TIP3   OH242825   3.386   3.959   2.506  0.3768 -0.4169  0.2042
 7137TIP3    H142826   3.447   4.033   2.509 -3.0808  2.5500  0.0657
 7137TIP3    H242827   3.389   3.922   2.595  1.5912  0.3361  0.4818
 7138TIP3   OH242828   5.610   2.513  16.928  0.1937  0.0331  0.0083
 7138TIP3    H142829   5.594   2.495  16.835  0.3112 -0.8502  0.1584
 7138TIP3    H242830   5.632   2.606  16.931  0.6155 -0.0318 -0.9012
 7139TIP3   OH242831   4.944   2.988  11.355 -0.1849  0.3349 -0.0404
 7139TIP3    H142832   4.958   2.944  11.439 -0.6588  1.5346  0.6763
 7139TIP3    H242833   4.854   2.966  11.331  0.1871 -0.6033 -0.5992
 7140TIP3   OH242834   3.958   4.113  10.688 -0.0932  0.0975  0.0529
 7140TIP3    H142835   3.972   4.116  10.593  0.3889  1.3700  0.1471
 7140TIP3    H242836   4.044   4.133  10.726 -0.3389 -0.1425  0.7449
 7141TIP3   OH242837   1.350   3.487   0.589 -0.2039  0.6517  0.4002
 7141TIP3    H142838   1.269   3.535   0.574 -0.4397 -0.3549 -1.6542
 7141TIP3    H242839   1.349   3.466   0.683 -1.4932  2.0841  0.7268
 7142TIP3   OH242840   6.664   2.068  16.657 -0.3941 -0.6626  0.7439
 7142TIP3    H142841   6.664   1.992  16.716  0.7276 -0.1825  1.3840
 7142TIP3    H242842   6.635   2.141  16.712  0.4180 -0.2554  0.6314
 7143TIP3   OH242843   3.117   4.846   5.291 -0.2537  0.2530 -0.1009
 7143TIP3    H142844   3.044   4.907   5.287 -2.0818 -1.8862 -0.5498
 7143TIP3    H242845   3.123   4.809   5.203 -0.8485 -2.0260  0.7633
 7144TIP3   OH242846   6.349   6.479  14.243 -0.0069  0.3391 -0.5093
 7144TIP3    H142847   6.345   6.441  14.330  1.9870 -0.6940 -0.8459
 7144TIP3    H242848   6.329   6.572  14.256 -0.0757  0.1179  0.9833
 7145TIP3   OH242849   3.966   1.255  15.830  0.0726  0.3541 -0.1275
 7145TIP3    H142850   4.042   1.223  15.879 -0.6361  1.0451  1.4525
 7145TIP3    H242851   3.903   1.280  15.897 -1.4331  0.1050 -1.4192
 7146TIP3   OH242852   2.532   1.771   0.928  0.3115  0.2316  0.2140
 7146TIP3    H142853   2.491   1.704   0.874  0.3207 -0.5247  1.1452
 7146TIP3    H242854   2.510   1.853   0.884  1.3157 -0.4421 -1.5969
 7147TIP3   OH242855   3.637   3.477  10.838  0.4209 -0.3045  0.7596
 7147TIP3    H142856   3.690   3.405  10.872  0.5087  0.7648  2.9882
 7147TIP3    H242857   3.588   3.508  10.914  0.4611  2.0521 -0.1450
 7148TIP3   OH242858   5.930   4.705  16.251 -0.2389 -0.4270 -0.2540
 7148TIP3    H142859   5.844   4.722  16.290  0.0486  0.0885  0.1669
 7148TIP3    H242860   5.981   4.665  16.321 -0.1473 -0.7811 -0.5181
 7149TIP3   OH242861   2.319   4.102  15.697  0.4943  0.0107  0.0501
 7149TIP3    H142862   2.289   4.099  15.788 -2.6954 -0.2469 -0.9393
 7149TIP3    H242863   2.259   4.043  15.651  0.9419  1.4984 -2.4973
 7150TIP3   OH242864   1.502   5.130  15.410 -0.2692  0.2837 -0.1177
 7150TIP3    H142865   1.474   5.217  15.382  0.1778  0.2768 -0.5904
 7150TIP3    H242866   1.576   5.108  15.352  0.0730 -0.1114  0.4629
 7151TIP3   OH242867   6.279   2.018  16.224  0.0078 -0.0017 -0.7131
 7151TIP3    H142868   6.198   2.053  16.261 -0.6520 -1.5838 -0.6215
 7151TIP3    H242869   6.252   1.942  16.173  1.4089 -0.4328 -0.8567
 7152TIP3   OH242870   5.866   4.219   1.630  0.2570 -0.1357 -0.2398
 7152TIP3    H142871   5.844   4.214   1.723  0.1514 -1.2863 -0.3235
 7152TIP3    H242872   5.786   4.249   1.588 -0.2509 -1.3467 -0.1650
 7153TIP3   OH242873   2.048   2.968  12.845 -0.4110 -0.2604  0.0349
 7153TIP3    H142874   2.067   2.877  12.870 -1.3152 -0.6253 -0.5747
 7153TIP3    H242875   1.955   2.968  12.825 -0.9840  1.4232  2.5705
 7154TIP3   OH242876   5.417   2.376   4.373 -0.2358 -0.2265 -0.4558
 7154TIP3    H142877   5.341   2.326   4.400  1.7018 -2.0223  1.8304
 7154TIP3    H242878   5.417   2.453   4.430 -0.5757 -0.0041 -0.7549
 7155TIP3   OH242879   1.603   0.229   0.118 -0.3284 -0.0217 -0.0627
 7155TIP3    H142880   1.547   0.155   0.138 -0.2780 -0.3246 -1.0207
 7155TIP3    H242881   1.543   0.299   0.092 -0.2541 -0.4212 -1.3243
 7156TIP3   OH242882   5.570   0.983   2.688  0.4187 -0.0537 -0.3272
 7156TIP3    H142883   5.546   1.075   2.693 -3.4183 -0.9448 -0.6616
 7156TIP3    H242884   5.579   0.966   2.594  2.1220  0.1865 -0.2196
 7157TIP3   OH242885   4.628   2.781  15.380 -0.2904  0.2433 -0.7854
 7157TIP3    H142886   4.700   2.719  15.365  0.0189  0.7440 -1.4276
 7157TIP3    H242887   4.659   2.862  15.341  0.4376  1.5685  2.4452
 7158TIP3   OH242888   1.114   4.512   5.520  0.3223 -0.5533 -0.3180
 7158TIP3    H142889   1.042   4.460   5.483 -0.3065 -0.4116  0.6905
 7158TIP3    H242890   1.136   4.467   5.601 -0.2065  0.7215  0.5485
 7159TIP3   OH242891   0.010   2.059   1.152 -0.0911 -0.6633  0.0700
 7159TIP3    H142892   0.069   2.011   1.094 -0.4395  0.1576 -0.9877
 7159TIP3    H242893   0.064   2.129   1.188 -0.4274  0.1555 -0.9840
 7160TIP3   OH242894   3.818   4.636   3.975 -0.0586 -0.1936 -0.4223
 7160TIP3    H142895   3.772   4.587   4.044  0.7224 -0.5725 -0.1691
 7160TIP3    H242896   3.767   4.716   3.964 -0.1613 -0.1192  0.6148
 7161TIP3   OH242897   4.684   0.925   3.566 -0.1647 -0.3169 -0.1377
 7161TIP3    H142898   4.748   0.981   3.522 -0.0246  0.5520  1.1049
 7161TIP3    H242899   4.669   0.852   3.507  2.0530 -0.5766 -0.3965
 7162TIP3   OH242900   3.081   1.499   2.777  0.0914 -0.3227 -0.6600
 7162TIP3    H142901   2.993   1.531   2.797 -0.5971 -1.9777 -0.9328
 7162TIP3    H242902   3.091   1.513   2.683 -0.7988 -2.2679 -1.0578
 7163TIP3   OH242903   5.176   0.280  13.056 -0.0012  0.7431 -0.4405
 7163TIP3    H142904   5.180   0.362  13.008  0.6150  1.4606  0.7980
 7163TIP3    H242905   5.178   0.212  12.989 -0.1177  1.7314 -1.4553
 7164TIP3   OH242906   5.845   4.784  12.536 -0.1488 -0.2793 -0.1548
 7164TIP3    H142907   5.882   4.711  12.586 -1.8052 -1.7897 -1.0305
 7164TIP3    H242908   5.771   4.814  12.589  0.9397  1.2525  0.5333
 7165TIP3   OH242909   1.175   0.208  11.405 -0.5282  0.2746 -0.6007
 7165TIP3    H142910   1.138   0.268  11.470  1.8389  2.2869 -1.0354
 7165TIP3    H242911   1.105   0.195  11.341 -1.1969  2.3185 -0.3123
 7166TIP3   OH242912   5.856   5.067   3.467  0.0499  0.4681 -0.2980
 7166TIP3    H142913   5.816   5.154   3.456  0.9560  0.9589  0.2646
 7166TIP3    H242914   5.940   5.085   3.509  1.6449 -0.3850 -3.0240
 7167TIP3   OH242915   0.780   2.107  14.496 -0.1612  0.1792 -0.2610
 7167TIP3    H142916   0.775   2.202  14.510 -1.1835  0.1000 -0.0433
 7167TIP3    H242917   0.707   2.072  14.547 -0.3260 -0.6511 -1.0633
 7168TIP3   OH242918   2.916   4.687  11.633  0.2210  0.6879  0.0654
 7168TIP3    H142919   2.863   4.686  11.553  0.6024  0.8092 -0.1938
 7168TIP3    H242920   2.904   4.601  11.671  0.3885  0.4723 -0.3611
 7169TIP3   OH242921   4.885   0.829   1.984  0.1715 -0.0399  0.9361
 7169TIP3    H142922   4.855   0.773   1.912 -1.1972 -2.0282  2.9928
 7169TIP3    H242923   4.941   0.894   1.941  0.2398 -1.7824 -1.7783
 7170TIP3   OH242924   2.187   2.592  11.868 -0.4538 -0.2144 -0.2148
 7170TIP3    H142925   2.134   2.597  11.948 -0.6539 -1.5579 -0.2389
 7170TIP3    H242926   2.231   2.676  11.863 -1.0261  0.1689  0.9089
 7171TIP3   OH242927   2.636   2.287  11.932  0.2539 -0.2815  0.3128
 7171TIP3    H142928   2.635   2.357  11.867  0.6836  0.4121  1.0338
 7171TIP3    H242929   2.601   2.211  11.887 -3.4380  1.2270  0.4591
 7172TIP3   OH242930   4.819   0.269  16.281 -0.2020  0.1584 -0.2054
 7172TIP3    H142931   4.835   0.345  16.225  3.1784  0.0956  0.5460
 7172TIP3    H242932   4.820   0.194  16.221 -0.8676  0.4616 -0.5971
 7173TIP3   OH242933   5.912   1.988   3.441 -0.0469  0.2359 -0.0874
 7173TIP3    H142934   5.951   2.023   3.361  1.8934 -1.4111  0.0991
 7173TIP3    H242935   5.977   2.005   3.510 -0.0293 -1.6667  0.4150
 7174TIP3   OH242936   2.068   2.665  12.958 -0.2030  0.3784  0.1902
 7174TIP3    H142937   2.005   2.600  12.989 -0.1236 -0.5354 -1.4855
 7174TIP3    H242938   2.153   2.624  12.975 -0.1236  0.5155  0.1174
 7175TIP3   OH242939   6.056   1.892  17.109  0.0921  0.2455 -0.6395
 7175TIP3    H142940   5.968   1.879  17.146  1.0685 -0.5284  1.4980
 7175TIP3    H242941   6.068   1.987  17.109 -0.3612  0.3060 -0.0081
 7176TIP3   OH242942   4.929   2.036  10.821 -0.5065  0.1829 -0.0603
 7176TIP3    H142943   4.905   1.949  10.852  2.2148 -1.0907 -1.4389
 7176TIP3    H242944   4.866   2.094  10.865  0.1575 -2.0086  4.1071
 7177TIP3   OH242945   5.379   4.995   4.917 -0.0216  0.1434 -0.0353
 7177TIP3    H142946   5.296   5.019   4.957 -0.7033 -2.0400 -0.0476
 7177TIP3    H242947   5.387   4.901   4.934  1.2098 -0.1810 -2.2440
 7178TIP3   OH242948   2.444   1.409  11.860  0.3428 -0.1724  0.3614
 7178TIP3    H142949   2.437   1.490  11.809 -1.4813 -2.3961 -3.1230
 7178TIP3    H242950   2.353   1.383  11.878  0.9235 -0.7203  2.7343
 7179TIP3   OH242951   4.200   5.247   1.049 -0.2944 -0.0260 -0.3311
 7179TIP3    H142952   4.188   5.263   0.955 -1.0307  2.1396  0.1090
 7179TIP3    H242953   4.147   5.169   1.066 -0.2582 -0.3707 -1.6775
 7180TIP3   OH242954   0.192   5.128   0.662 -0.1080  0.1767 -0.5464
 7180TIP3    H142955   0.282   5.094   0.666 -0.1624  0.0024 -0.7924
 7180TIP3    H242956   0.190   5.180   0.582 -0.6045 -0.9200 -1.2569
 7181TIP3   OH242957   6.051   3.984   0.004  0.6408 -0.0087 -0.1027
 7181TIP3    H142958   6.124   4.043   0.021  1.9928 -1.0268 -2.1285
 7181TIP3    H242959   6.088   3.914  -0.050 -2.0329 -0.0605 -1.9837
 7182TIP3   OH242960   5.976   1.529  12.122 -0.1997  0.0854  0.4785
 7182TIP3    H142961   6.009   1.458  12.178  0.9067 -1.5459 -2.1267
 7182TIP3    H242962   6.043   1.596  12.127 -0.4005  0.2164  1.5703
 7183TIP3   OH242963   1.904   4.326   1.590 -0.4259 -0.1621  0.6008
 7183TIP3    H142964   1.940   4.242   1.618 -0.9977 -0.9368 -0.9454
 7183TIP3    H242965   1.967   4.391   1.622  0.4286 -1.2315  1.1114
 7184TIP3   OH242966   1.428   3.476   3.724 -0.3493 -0.1319  0.0591
 7184TIP3    H142967   1.417   3.387   3.692 -1.1277  0.1659 -0.5185
 7184TIP3    H242968   1.523   3.488   3.730 -0.2453 -1.5684  1.7895
 7185TIP3   OH242969   0.010   6.192   0.759 -0.3755  0.5591 -0.0238
 7185TIP3    H142970  -0.064   6.251   0.749 -0.6677 -0.1991 -2.5427
 7185TIP3    H242971   0.082   6.236   0.713 -0.6698 -1.1061 -2.1814
 7186TIP3   OH242972   2.328   6.683   0.323 -0.7195  0.2601  0.3600
 7186TIP3    H142973   2.267   6.700   0.395 -2.9611  0.4930 -1.5633
 7186TIP3    H242974   2.328   6.587   0.314 -2.4369  0.3612 -0.9824
 7187TIP3   OH242975   0.504   5.131   2.924 -0.3950 -0.3288  0.1019
 7187TIP3    H142976   0.454   5.058   2.887  0.8389 -0.6322 -1.0109
 7187TIP3    H242977   0.439   5.187   2.965 -1.3612 -2.1304  1.0918
 7188TIP3   OH242978   3.295   2.357  12.507  0.0004  0.3650  0.2729
 7188TIP3    H142979   3.287   2.452  12.497  0.3117  0.3264 -0.3454
 7188TIP3    H242980   3.388   2.342  12.523 -0.5775  0.5406  4.6585
 7189TIP3   OH242981   0.024   0.137   1.205  0.2595 -0.0459  0.4536
 7189TIP3    H142982  -0.062   0.099   1.220 -0.0540 -0.4888 -2.2096
 7189TIP3    H242983   0.021   0.223   1.246 -1.1625 -0.4195  1.1163
 7190TIP3   OH242984   2.702   1.213   3.191 -0.1033  0.1568  0.6406
 7190TIP3    H142985   2.794   1.205   3.167 -0.0733  0.4408  0.6505
 7190TIP3    H242986   2.654   1.200   3.109 -0.0966 -0.8853  0.8053
 7191TIP3   OH242987   0.404   6.439  10.545 -0.1878 -0.0521  0.0964
 7191TIP3    H142988   0.451   6.513  10.583 -0.0409 -0.8339  1.4821
 7191TIP3    H242989   0.461   6.409  10.474  0.2757  0.4825  0.2367
 7192TIP3   OH242990   3.190   3.122   2.268 -0.1005 -0.1830 -0.1067
 7192TIP3    H142991   3.122   3.076   2.218 -0.3325  0.0734 -0.0314
 7192TIP3    H242992   3.262   3.059   2.274  0.3477  0.1630 -1.6559
 7193TIP3   OH242993   1.878   5.795   4.001 -0.2652  0.2078 -0.3394
 7193TIP3    H142994   1.783   5.792   4.010 -0.1285  1.2075  1.8593
 7193TIP3    H242995   1.905   5.704   4.004 -1.0023  0.0218  1.1789
 7194TIP3   OH242996   3.059   0.913  12.959 -0.3635  0.6452  0.4449
 7194TIP3    H142997   3.085   0.904  13.051 -1.3867 -1.0453  0.5824
 7194TIP3    H242998   3.126   0.971  12.921  0.2383  1.1188  2.1675
 7195TIP3   OH242999   2.448   6.093   2.668 -0.8352  0.0729 -0.4099
 7195TIP3    H143000   2.499   6.150   2.725 -1.7193  2.3199 -1.7924
 7195TIP3    H243001   2.503   6.082   2.590 -1.4534  0.5763 -0.9221
 7196TIP3   OH243002   3.229   5.455  15.325 -0.4377 -0.0052  0.0908
 7196TIP3    H143003   3.197   5.367  15.347 -0.2329  0.1380  0.9708
 7196TIP3    H243004   3.322   5.452  15.344 -0.6575  0.7823  1.3527
 7197TIP3   OH243005   6.239   3.076  16.166  0.3530 -0.2631 -0.1017
 7197TIP3    H143006   6.309   3.044  16.222  0.9433 -1.5080 -1.5517
 7197TIP3    H243007   6.246   3.025  16.086 -1.0451  0.8885 -0.9845
 7198TIP3   OH243008   6.561   0.743   0.848  0.3133 -0.3340  0.2999
 7198TIP3    H143009   6.573   0.661   0.897  3.0891  0.4019  0.9280
 7198TIP3    H243010   6.558   0.716   0.756 -2.1533 -1.4390  0.6500
 7199TIP3   OH243011   4.556   0.888  12.971  0.1657  0.4880  0.2218
 7199TIP3    H143012   4.607   0.871  13.051  0.3989  0.9855  0.1780
 7199TIP3    H243013   4.531   0.801  12.940 -2.2148  0.3539  2.3170
 7200TIP3   OH243014   2.404   1.414  14.129 -0.4131  0.3680  0.0827
 7200TIP3    H143015   2.441   1.337  14.171 -1.2643  0.8735  1.7831
 7200TIP3    H243016   2.385   1.474  14.201  0.3235  2.2050 -1.2308
 7201TIP3   OH243017   1.289   6.266  13.593 -0.0756  0.2086  0.0474
 7201TIP3    H143018   1.374   6.309  13.589  0.9890 -1.7933  0.2920
 7201TIP3    H243019   1.302   6.194  13.655 -2.2758  0.5792  0.9606
 7202TIP3   OH243020   3.638   4.804  14.042 -0.1382 -0.7400  0.3442
 7202TIP3    H143021   3.665   4.722  14.001  1.3640 -0.4650  0.7646
 7202TIP3    H243022   3.690   4.810  14.122 -0.2254  0.6194  0.3189
 7203TIP3   OH243023   1.702   6.702  13.157  0.2431 -0.0615  0.4143
 7203TIP3    H143024   1.620   6.664  13.127 -0.5108  0.7357  1.4537
 7203TIP3    H243025   1.745   6.632  13.205  0.4395 -0.6498 -0.6004
 7204TIP3   OH243026   1.413   0.992   1.199  0.2690  0.3368  0.6000
 7204TIP3    H143027   1.381   1.041   1.275 -3.0633 -0.7514 -0.0254
 7204TIP3    H243028   1.393   0.901   1.220  1.7349 -0.2471 -0.4757
 7205TIP3   OH243029   3.119   5.671   5.716 -0.2148 -0.7641  0.0212
 7205TIP3    H143030   3.204   5.648   5.678 -0.1946 -0.7688  0.0701
 7205TIP3    H243031   3.137   5.748   5.770 -0.7253  0.9054 -2.1003
 7206TIP3   OH243032   0.354   4.151  10.995  0.2283 -0.2408  0.0981
 7206TIP3    H143033   0.292   4.206  10.948 -1.2526  0.0097  2.2780
 7206TIP3    H243034   0.342   4.063  10.958  0.4818  0.3055 -1.3095
 7207TIP3   OH243035   2.415   4.384  11.809  0.3565  0.0219  0.0151
 7207TIP3    H143036   2.353   4.354  11.742 -0.9391  2.1956  0.1910
 7207TIP3    H243037   2.499   4.391  11.763  0.0725 -1.1641 -0.6906
 7208TIP3   OH243038   2.997   3.964  10.564 -0.3860 -0.4726 -0.0887
 7208TIP3    H143039   2.983   3.886  10.510  1.0749  0.0155 -1.1674
 7208TIP3    H243040   2.930   4.026  10.535  1.8160  0.6447 -2.9805
 7209TIP3   OH243041   0.481   6.231   1.264  0.1686  0.5052 -0.5554
 7209TIP3    H143042   0.406   6.280   1.297 -0.6606 -0.2063 -1.3547
 7209TIP3    H243043   0.447   6.185   1.187  0.8065 -1.7306  0.4800
 7210TIP3   OH243044   3.327   5.109  14.525 -0.1859  0.4134  0.1915
 7210TIP3    H143045   3.284   5.188  14.559 -1.3038 -0.6334  1.2490
 7210TIP3    H243046   3.305   5.041  14.589 -1.2360 -1.3166 -1.9652
 7211TIP3   OH243047   4.028   2.245  16.837 -0.6284 -0.0539 -0.6283
 7211TIP3    H143048   4.058   2.284  16.755  1.9665 -0.3533  0.1237
 7211TIP3    H243049   3.970   2.174  16.809 -1.0994  0.8939 -2.1408
 7212TIP3   OH243050   1.324   4.430   4.453 -0.6443 -0.6617  0.5152
 7212TIP3    H143051   1.345   4.385   4.372 -2.0886 -1.0956  0.3738
 7212TIP3    H243052   1.409   4.451   4.491  0.0469 -0.4614 -1.0970
 7213TIP3   OH243053   5.693   3.970   6.026  0.4127 -0.0708  0.4586
 7213TIP3    H143054   5.671   3.888   6.070  0.5228 -0.2032  0.2670
 7213TIP3    H243055   5.760   4.010   6.081  2.7041 -1.6255 -1.0847
 7214TIP3   OH243056   4.943   3.357   5.986  0.6773 -0.2228  0.5481
 7214TIP3    H143057   4.953   3.278   5.933 -0.4619 -0.1467  0.2146
 7214TIP3    H243058   5.002   3.343   6.060 -0.0889 -1.7220  0.8900
 7215TIP3   OH243059   1.066   1.583  12.342  0.1785  0.7060  0.0768
 7215TIP3    H143060   1.065   1.678  12.326 -0.7035  0.8012  0.6350
 7215TIP3    H243061   1.087   1.545  12.257  1.3946  1.4400  0.0416
 7216TIP3   OH243062   5.859   5.165   5.437 -0.5224  0.6334 -0.7330
 7216TIP3    H143063   5.911   5.120   5.370  0.7701 -0.2297  0.8468
 7216TIP3    H243064   5.860   5.106   5.512 -0.7220  2.2925  0.5853
 7217TIP3   OH243065   0.116   4.875   0.109  0.1592  0.2627  0.0276
 7217TIP3    H143066   0.021   4.868   0.107 -0.2121  2.8616  3.2831
 7217TIP3    H243067   0.137   4.934   0.036 -0.6227 -0.7494 -1.0405
 7218TIP3   OH243068   1.412   6.145   1.658  0.2095 -0.0482  0.1540
 7218TIP3    H143069   1.350   6.094   1.606  0.2681 -0.4962  0.5236
 7218TIP3    H243070   1.367   6.229   1.672  0.1829  0.0604 -0.5899
 7219TIP3   OH243071   4.442   3.567  13.349 -0.0484 -0.2151  0.4284
 7219TIP3    H143072   4.393   3.485  13.341 -0.8398  0.4304 -1.8638
 7219TIP3    H243073   4.377   3.631  13.377 -0.3512  0.4526 -1.7236
 7220TIP3   OH243074   3.759   2.517   2.034  0.2411  0.4809 -0.3220
 7220TIP3    H143075   3.841   2.535   2.080 -1.1024  2.6417  1.3512
 7220TIP3    H243076   3.727   2.603   2.007 -1.0624 -0.3981 -1.6561
 7221TIP3   OH243077   5.078   3.363  16.690 -0.3887  0.1572 -0.0710
 7221TIP3    H143078   5.170   3.356  16.717 -0.2785 -1.2038 -0.7705
 7221TIP3    H243079   5.079   3.431  16.622  0.1946 -0.1985 -0.4291
 7222TIP3   OH243080   1.040   3.470   1.050 -0.0330  0.2253 -0.0256
 7222TIP3    H143081   0.971   3.467   1.117 -0.6218  1.3320 -0.5665
 7222TIP3    H243082   1.116   3.430   1.091 -0.0490  1.8966  1.6991
 7223TIP3   OH243083   4.799   5.456   6.246  0.1780 -0.6187 -0.1855
 7223TIP3    H143084   4.723   5.407   6.278 -0.0350 -0.8109 -0.9913
 7223TIP3    H243085   4.773   5.548   6.254 -0.0864 -0.6813 -0.3477
 7224TIP3   OH243086   3.805   4.088   1.772  0.3467  0.1635 -0.0004
 7224TIP3    H143087   3.722   4.051   1.742  0.0933  1.0205 -0.3622
 7224TIP3    H243088   3.859   4.011   1.793 -0.0134 -0.4118 -1.1636
 7225TIP3   OH243089   2.506   2.877  12.591  0.1454 -0.2421 -0.6410
 7225TIP3    H143090   2.570   2.943  12.565 -0.8806  1.4227  0.9617
 7225TIP3    H243091   2.456   2.859  12.512  0.1797  1.1955 -1.0003
 7226TIP3   OH243092   4.538   0.907   0.638 -0.0041 -0.9205  0.1502
 7226TIP3    H143093   4.595   0.831   0.624 -2.0035 -2.3523 -0.4922
 7226TIP3    H243094   4.478   0.905   0.563  0.2233  1.6157 -0.1402
 7227TIP3   OH243095   5.709   5.989   3.422 -0.4305  0.2190  0.6238
 7227TIP3    H143096   5.800   6.010   3.401  0.0230 -0.6510  1.7064
 7227TIP3    H243097   5.661   6.011   3.342  0.8672 -0.3105 -0.3198
 7228TIP3   OH243098   0.508   4.815  16.117 -0.2549 -0.0676 -0.2398
 7228TIP3    H143099   0.493   4.732  16.070 -0.1563  0.2651 -0.8614
 7228TIP3    H243100   0.425   4.832  16.162 -1.1302  0.7905 -2.1410
 7229TIP3   OH243101   1.065   1.166   5.900  0.4391 -0.0925 -0.1277
 7229TIP3    H143102   1.159   1.179   5.910  0.2169  0.0554  1.8007
 7229TIP3    H243103   1.037   1.236   5.842  1.5157 -0.1659 -0.7547
 7230TIP3   OH243104   1.694   1.371  11.461 -0.3855  0.1040 -0.1979
 7230TIP3    H143105   1.657   1.371  11.549 -0.6151 -1.2335 -0.2873
 7230TIP3    H243106   1.785   1.343  11.472 -0.1344  0.8885 -0.2722
 7231TIP3   OH243107   2.539   4.672  11.268  0.1952 -0.0858 -0.1000
 7231TIP3    H143108   2.501   4.610  11.206  0.1499  1.3422 -1.5454
 7231TIP3    H243109   2.465   4.722  11.301  0.1860 -1.0354  1.3449
 7232TIP3   OH243110   2.740   3.648  16.031 -0.3558 -0.2925 -0.3404
 7232TIP3    H143111   2.691   3.606  16.102  2.6344 -0.6358  1.5858
 7232TIP3    H243112   2.696   3.732  16.019 -2.5631 -1.3567  0.0613
 7233TIP3   OH243113   6.005   2.224  16.772 -0.0468  0.4999 -0.3622
 7233TIP3    H143114   6.066   2.194  16.839  0.9697  2.3307 -0.4365
 7233TIP3    H243115   5.945   2.282  16.818  1.0792  2.3181 -1.1148
 7234TIP3   OH243116   1.671   1.977  12.872 -0.3492  0.3960 -0.1210
 7234TIP3    H143117   1.677   2.047  12.937 -0.8718  0.6235 -0.3134
 7234TIP3    H243118   1.760   1.943  12.865 -0.1014  1.0056  0.0147
 7235TIP3   OH243119   4.477   5.232   1.640 -0.8209  0.0506 -0.4652
 7235TIP3    H143120   4.401   5.272   1.683 -2.2879 -2.1976 -0.8559
 7235TIP3    H243121   4.458   5.138   1.642  2.8053 -0.7198  1.0034
 7236TIP3   OH243122   1.361   6.545  15.160 -0.1863  0.0348  0.1927
 7236TIP3    H143123   1.348   6.631  15.200 -0.1563  0.2382 -0.2328
 7236TIP3    H243124   1.393   6.564  15.072  1.4103 -0.4383  0.6607
 7237TIP3   OH243125   1.331   4.756  16.599  0.5853 -0.1087 -0.3704
 7237TIP3    H143126   1.314   4.810  16.675 -2.4177 -0.4717 -0.6885
 7237TIP3    H243127   1.374   4.814  16.536  0.2730  1.0328  0.4686
 7238TIP3   OH243128   1.034   4.054   4.038 -0.1121  0.4564  0.1438
 7238TIP3    H143129   1.082   3.983   3.996 -0.9208 -0.2530  0.4199
 7238TIP3    H243130   0.990   4.100   3.966  0.2997  0.5950 -0.0188
 7239TIP3   OH243131   1.515   3.600  17.196 -0.4133 -0.5025 -0.1283
 7239TIP3    H143132   1.600   3.577  17.157  0.5524  0.8073  1.1784
 7239TIP3    H243133   1.525   3.690  17.227 -1.5572 -1.0720  2.0288
 7240TIP3   OH243134   4.197   5.550  11.514 -0.2306  0.6286  0.8704
 7240TIP3    H143135   4.280   5.571  11.472 -1.0275  1.5208 -0.3299
 7240TIP3    H243136   4.175   5.629  11.564 -0.3540  0.4116  1.1558
 7241TIP3   OH243137   1.886   3.319   1.470  0.4985  0.0113 -0.5222
 7241TIP3    H143138   1.821   3.389   1.464  0.9207  0.3880 -0.7368
 7241TIP3    H243139   1.970   3.363   1.455  0.9100 -0.2907  0.8864
 7242TIP3   OH243140   2.481   0.680  11.679 -0.4375  0.2655  0.2504
 7242TIP3    H143141   2.506   0.599  11.722 -0.1447 -0.1070 -0.6074
 7242TIP3    H243142   2.530   0.679  11.596 -0.9505  0.9874 -0.0648
 7243TIP3   OH243143   6.514   4.438  16.275 -0.3254 -0.6138  0.1835
 7243TIP3    H143144   6.424   4.432  16.308 -0.3475  0.1130  0.2471
 7243TIP3    H243145   6.568   4.437  16.353 -0.3378  0.2061  0.2045
 7244TIP3   OH243146   2.058   0.312  13.756 -0.4475  0.2032  0.7410
 7244TIP3    H143147   2.004   0.309  13.677 -0.1617 -1.1774  0.5926
 7244TIP3    H243148   2.019   0.247  13.814 -0.8397  1.4277  1.8713
 7245TIP3   OH243149   4.292   6.359   2.152 -0.5812  0.0585 -0.1849
 7245TIP3    H143150   4.276   6.312   2.070 -1.4700  0.7980 -0.4398
 7245TIP3    H243151   4.302   6.290   2.218 -1.9790 -0.4907 -0.5365
 7246TIP3   OH243152   5.884   0.432  11.685 -0.0190 -0.1398  0.4363
 7246TIP3    H143153   5.791   0.437  11.663 -0.0982  0.0173  0.7986
 7246TIP3    H243154   5.928   0.479  11.614 -0.2225 -0.1331  0.3109
 7247TIP3   OH243155   5.604   1.321  12.646 -0.1193  0.3227 -0.1852
 7247TIP3    H143156   5.511   1.334  12.666  0.5533  1.0017  2.7199
 7247TIP3    H243157   5.617   1.366  12.563 -2.3716  0.2518 -0.6162
 7248TIP3   OH243158   6.629   4.649   1.463  0.2154  0.2174  0.1338
 7248TIP3    H143159   6.567   4.674   1.532  1.8017  2.1505  0.9319
 7248TIP3    H243160   6.574   4.630   1.388 -1.4064  1.2438  1.0111
 7249TIP3   OH243161   3.332   4.180  16.229 -0.3204 -0.3364 -0.2849
 7249TIP3    H143162   3.425   4.158  16.219 -0.6193 -1.4797 -0.6600
 7249TIP3    H243163   3.332   4.267  16.269  0.9096 -0.9772  1.1554
 7250TIP3   OH243164   4.242   5.774  13.265  0.0103  0.8294 -0.4260
 7250TIP3    H143165   4.254   5.866  13.240 -0.8174  1.3984  1.1734
 7250TIP3    H243166   4.322   5.751  13.312 -0.1191  1.0015 -0.1134
 7251TIP3   OH243167   0.899   0.960   2.262 -0.0435 -0.5787 -0.3666
 7251TIP3    H143168   0.847   0.924   2.189  1.8448 -1.2513 -1.4215
 7251TIP3    H243169   0.962   1.019   2.219  0.6996 -0.5309  0.7793
 7252TIP3   OH243170   4.732   5.648  14.957 -0.3323  0.2041 -0.0815
 7252TIP3    H143171   4.799   5.604  15.009  0.8541 -0.3248 -1.9766
 7252TIP3    H243172   4.730   5.738  14.990  2.4564  0.6620 -1.0157
 7253TIP3   OH243173   1.478   1.730  13.464  0.2197 -0.2594  0.0830
 7253TIP3    H143174   1.426   1.805  13.492  2.6393  1.5466 -0.1222
 7253TIP3    H243175   1.494   1.681  13.544  0.2669  0.5043  0.5451
 7254TIP3   OH243176   3.279   0.170  16.497  0.1195  0.6006  0.3117
 7254TIP3    H143177   3.287   0.076  16.514  0.4154  0.8251  1.4633
 7254TIP3    H243178   3.351   0.210  16.545 -0.5810  1.5057  0.6367
 7255TIP3   OH243179   0.066   0.598  12.842  0.0901 -0.3297 -0.7792
 7255TIP3    H143180   0.107   0.514  12.865  0.5551 -0.0945 -0.7311
 7255TIP3    H243181  -0.025   0.577  12.824  0.3472 -0.9501 -1.3800
 7256TIP3   OH243182   1.414   0.545   5.319  0.2139 -0.7176  0.3572
 7256TIP3    H143183   1.431   0.458   5.283 -0.5382 -0.1469 -1.4428
 7256TIP3    H243184   1.408   0.602   5.242  0.4011  0.8752  1.4992
 7257TIP3   OH243185   2.305   6.522   6.302  0.5182  0.2390 -0.1565
 7257TIP3    H143186   2.368   6.455   6.328 -1.2497 -0.7568  1.7240
 7257TIP3    H243187   2.263   6.486   6.224  0.2843 -0.3943  0.2564
 7258TIP3   OH243188   3.051   3.581  15.003 -0.1911 -0.1217  0.2011
 7258TIP3    H143189   3.145   3.567  15.018 -0.1656 -1.9864 -1.3937
 7258TIP3    H243190   3.044   3.595  14.909 -1.3105  2.1410  0.5829
 7259TIP3   OH243191   3.735   0.181  17.236 -0.2084  0.1892 -0.4421
 7259TIP3    H143192   3.784   0.184  17.318 -1.8485  1.2839  0.5333
 7259TIP3    H243193   3.721   0.088  17.218  2.3447 -0.1373 -0.8367
 7260TIP3   OH243194   6.133   5.375   4.511 -0.7676  0.4776  0.1194
 7260TIP3    H143195   6.184   5.427   4.448 -0.1448 -0.1240  0.1277
 7260TIP3    H243196   6.060   5.432   4.535 -0.8512  0.8241 -0.9323
 7261TIP3   OH243197   2.301   3.780  15.797  0.6754 -0.3895 -0.0566
 7261TIP3    H143198   2.382   3.793  15.746 -0.7070 -0.2409 -2.2841
 7261TIP3    H243199   2.232   3.815  15.741 -0.6949  1.6897  2.8600
 7262TIP3   OH243200   1.246   5.233   2.055 -0.2408  0.4322 -0.0654
 7262TIP3    H143201   1.151   5.242   2.056 -0.3190 -0.3499  2.3919
 7262TIP3    H243202   1.276   5.299   1.992 -2.4216  0.2903 -1.3001
 7263TIP3   OH243203   2.446   5.723  14.967  0.4123  0.2051  0.6844
 7263TIP3    H143204   2.415   5.783  14.899 -0.9002  1.8520  2.6806
 7263TIP3    H243205   2.528   5.762  14.996  0.9222 -0.4483  0.1546
 7264TIP3   OH243206   1.686   5.793   2.662  0.3418 -0.2607 -0.3727
 7264TIP3    H143207   1.759   5.796   2.724  0.5769  0.5901 -0.6876
 7264TIP3    H243208   1.712   5.728   2.597  0.9164  0.1963 -0.6054
 7265TIP3   OH243209   2.508   5.187  16.388 -0.1262 -0.4332  0.5953
 7265TIP3    H143210   2.487   5.152  16.474 -0.0221 -0.7780  0.4800
 7265TIP3    H243211   2.601   5.213  16.394 -0.2100 -0.1481  0.6898
 7266TIP3   OH243212   6.451   5.715   0.294 -0.0067 -0.1823  0.1352
 7266TIP3    H143213   6.459   5.780   0.365  2.1012  0.1354 -0.3475
 7266TIP3    H243214   6.478   5.633   0.334  0.7568 -0.0856 -0.1709
 7267TIP3   OH243215   5.247   4.868   0.272  0.5883 -0.1591  0.0395
 7267TIP3    H143216   5.172   4.928   0.265 -1.3241 -2.2960  1.2563
 7267TIP3    H243217   5.278   4.858   0.183 -0.7510  0.5717 -0.5355
 7268TIP3   OH243218   2.552   1.291  14.837  0.1436 -0.3335 -0.3029
 7268TIP3    H143219   2.639   1.269  14.871  0.1216 -0.8546 -0.5735
 7268TIP3    H243220   2.517   1.207  14.808 -0.9409 -0.3230  0.9442
 7269TIP3   OH243221   6.042   1.502   1.874 -0.1898  0.0375 -0.3919
 7269TIP3    H143222   6.078   1.589   1.888  0.7568 -0.4439  0.1902
 7269TIP3    H243223   6.112   1.452   1.833 -1.0904 -0.1606 -1.7405
 7270TIP3   OH243224   6.613   5.795   4.407  0.1380 -0.0513 -0.2043
 7270TIP3    H143225   6.523   5.794   4.438  0.4956  0.4594  0.8610
 7270TIP3    H243226   6.660   5.850   4.469  1.0315  0.3363 -1.1962
 7271TIP3   OH243227   4.730   5.901   0.691 -0.1562 -0.4948  0.7096
 7271TIP3    H143228   4.761   5.812   0.676  0.3081 -0.4719  1.5463
 7271TIP3    H243229   4.780   5.955   0.630 -0.4029 -0.7988  0.2375
 7272TIP3   OH243230   5.054   3.271  14.692 -0.1551 -0.3644 -0.5993
 7272TIP3    H143231   5.073   3.291  14.600 -0.2058 -2.7840 -1.1829
 7272TIP3    H243232   5.000   3.192  14.688  0.6974 -1.0901  1.5331
 7273TIP3   OH243233   4.057   1.729  13.656  0.2725 -0.4578  0.5728
 7273TIP3    H143234   4.083   1.691  13.573 -0.8975  0.5866 -0.3002
 7273TIP3    H243235   3.997   1.800  13.632 -0.3752 -0.3877  2.3212
 7274TIP3   OH243236   0.358   4.262  16.484 -0.3445 -0.1092  0.6556
 7274TIP3    H143237   0.290   4.252  16.418  1.2398 -0.8143 -0.8951
 7274TIP3    H243238   0.334   4.342  16.531 -2.1366 -0.2616  0.0325
 7275TIP3   OH243239   3.334   5.736  11.931  0.2751 -0.8160 -0.4812
 7275TIP3    H143240   3.359   5.728  11.839  0.3131 -1.1456 -0.4406
 7275TIP3    H243241   3.239   5.728  11.931  0.3883 -2.2991 -0.3251
 7276TIP3   OH243242   0.115   0.826  13.274 -0.3551 -1.2914  0.3192
 7276TIP3    H143243   0.149   0.910  13.306 -0.3277 -1.2894  0.2846
 7276TIP3    H243244   0.154   0.815  13.188 -1.7623 -0.4791 -0.4471
 7277TIP3   OH243245   3.778   6.743   1.824 -0.4851  0.0522 -0.1232
 7277TIP3    H143246   3.761   6.812   1.760  1.5491 -0.9132 -1.7758
 7277TIP3    H243247   3.788   6.789   1.907 -2.0235  1.4532 -0.6927
 7278TIP3   OH243248   1.661   1.122   5.562  0.0539  0.2520  0.1656
 7278TIP3    H143249   1.718   1.178   5.509  1.5878 -0.7980  0.6733
 7278TIP3    H243250   1.583   1.110   5.509  1.4969 -0.6757 -1.8049
 7279TIP3   OH243251   2.257   0.823  12.057 -0.6403 -1.0187 -0.7132
 7279TIP3    H143252   2.252   0.755  12.125 -0.4259  0.3872  0.7461
 7279TIP3    H243253   2.348   0.819  12.027 -0.5992 -1.3234 -0.5581
 7280TIP3   OH243254   5.685   0.424  15.579  0.4424  0.3266  0.4196
 7280TIP3    H143255   5.753   0.491  15.574  1.1959 -0.1988  3.0345
 7280TIP3    H243256   5.687   0.393  15.669 -0.7414 -2.3616 -0.4058
 7281TIP3   OH243257   5.925   1.269  15.383  0.0086  0.4586 -0.2397
 7281TIP3    H143258   5.843   1.314  15.400  0.7451  2.1713 -1.1174
 7281TIP3    H243259   5.926   1.256  15.288  0.8065  0.5867 -0.2559
 7282TIP3   OH243260   0.277   0.592   2.587  0.5159 -0.1021  0.2308
 7282TIP3    H143261   0.353   0.633   2.546  0.3756 -0.6141 -0.5729
 7282TIP3    H243262   0.231   0.550   2.514 -0.0905 -0.4967  0.8325
 7283TIP3   OH243263   3.971   5.177   4.525 -0.2448  0.0001 -0.7109
 7283TIP3    H143264   3.983   5.271   4.537  0.7455 -0.1264 -0.6125
 7283TIP3    H243265   3.984   5.163   4.432 -1.1514  0.0592 -0.8509
 7284TIP3   OH243266   0.044   2.079   2.523 -0.1723  0.0895  0.1331
 7284TIP3    H143267   0.088   2.151   2.566  0.9989 -0.3232 -0.3563
 7284TIP3    H243268  -0.006   2.120   2.452  0.3817  0.4263 -0.0603
 7285TIP3   OH243269   4.168   2.658   2.747 -0.2258  0.2922 -0.4746
 7285TIP3    H143270   4.093   2.603   2.724 -0.3339  0.7048 -1.1205
 7285TIP3    H243271   4.156   2.677   2.840 -1.2027  0.7741 -0.6903
 7286TIP3   OH243272   2.741   6.498   3.380  0.0602 -0.1664  0.1039
 7286TIP3    H143273   2.736   6.553   3.459  1.0685 -1.4632  1.1107
 7286TIP3    H243274   2.650   6.484   3.355 -0.2212  1.6615  0.0395
 7287TIP3   OH243275   2.268   2.858  14.108  0.4282 -0.0902  0.1113
 7287TIP3    H143276   2.248   2.790  14.043 -1.4538 -1.2508  1.8515
 7287TIP3    H243277   2.341   2.823  14.158  2.3190  1.0924 -1.7540
 7288TIP3   OH243278   1.015   3.991  16.514  0.0522  0.9758  0.7272
 7288TIP3    H143279   1.104   3.976  16.546  0.3717  0.7083 -0.2518
 7288TIP3    H243280   1.013   4.085  16.494 -0.3051  1.2427  1.9726
 7289TIP3   OH243281   1.933   6.437  14.600 -0.0920 -0.2654 -0.5850
 7289TIP3    H143282   1.860   6.382  14.571  0.1292 -0.1082 -1.4571
 7289TIP3    H243283   1.971   6.471  14.519  0.7362 -0.0701 -0.1201
 7290TIP3   OH243284   5.464   3.521  13.202 -0.4271 -0.1323 -0.4506
 7290TIP3    H143285   5.457   3.594  13.140  0.2808  0.6888  0.4128
 7290TIP3    H243286   5.395   3.536  13.266 -0.2581 -0.1937 -0.2513
 7291TIP3   OH243287   6.113   4.783   2.988  0.0366  0.0860  0.6902
 7291TIP3    H143288   6.067   4.814   3.066  0.9991 -1.0259  1.7118
 7291TIP3    H243289   6.119   4.688   3.000  1.7735  0.1061  0.1214
 7292TIP3   OH243290   2.080   4.074   1.397 -0.4143  0.1817  0.1544
 7292TIP3    H143291   2.159   4.047   1.350 -0.5006 -0.9081  0.6346
 7292TIP3    H243292   2.066   4.165   1.369  0.4459  0.0654 -0.6875
 7293TIP3   OH243293   5.510   6.014   0.509  0.2169  0.3400 -0.3697
 7293TIP3    H143294   5.583   5.975   0.461  0.3834  0.5395 -0.2748
 7293TIP3    H243295   5.473   6.077   0.448  0.8113  1.0380 -0.0070
 7294TIP3   OH243296   0.400   0.090  14.036 -0.0537  0.1157  0.7310
 7294TIP3    H143297   0.449   0.035  14.097 -1.5171  0.3592  2.1482
 7294TIP3    H243298   0.335   0.031  13.998  0.0240  0.2694  0.3605
 7295TIP3   OH243299   3.214   4.341   5.572  0.0711 -0.1386  0.0181
 7295TIP3    H143300   3.294   4.313   5.527  0.7136 -1.3215  1.8411
 7295TIP3    H243301   3.189   4.422   5.528  1.2877 -0.6892 -1.7301
 7296TIP3   OH243302   0.265   5.749   1.242  0.4825 -0.0306 -0.3352
 7296TIP3    H143303   0.186   5.734   1.294 -0.4311  0.5732 -1.5115
 7296TIP3    H243304   0.326   5.791   1.303  0.5102 -1.9939  1.0238
 7297TIP3   OH243305   4.874   3.397  10.848 -0.0006  0.5350 -0.5790
 7297TIP3    H143306   4.796   3.440  10.884  1.0622  1.0973  1.1180
 7297TIP3    H243307   4.931   3.469  10.822  0.1955  0.1278 -1.2637
 7298TIP3   OH243308   3.854   0.399  17.123  0.6533  0.2513  0.9727
 7298TIP3    H143309   3.819   0.315  17.153  1.3239 -0.1032  0.7582
 7298TIP3    H243310   3.798   0.465  17.165 -0.6256 -0.3161  0.2163
 7299TIP3   OH243311   5.246   1.896   3.958  0.0184 -0.3968  0.2137
 7299TIP3    H143312   5.270   1.985   3.982  0.1686 -0.2274 -0.5376
 7299TIP3    H243313   5.226   1.853   4.041  1.0552  0.0096  0.6825
 7300TIP3   OH243314   5.963   2.223  17.126  0.5189 -0.1285  0.1819
 7300TIP3    H143315   6.055   2.219  17.149  0.1733 -3.0670  1.3878
 7300TIP3    H243316   5.926   2.290  17.183  1.8053  0.6537  0.0893
 7301TIP3   OH243317   0.076   4.556   3.290 -0.0826  0.5235  0.1293
 7301TIP3    H143318   0.075   4.513   3.375  0.7828 -0.7334 -0.4753
 7301TIP3    H243319   0.162   4.534   3.253 -0.1006  1.7770 -0.6992
 7302TIP3   OH243320   0.905   5.507   5.419 -0.3178  0.1211 -0.2094
 7302TIP3    H143321   0.966   5.480   5.350 -0.1594 -1.0874  0.3887
 7302TIP3    H243322   0.823   5.463   5.397 -0.1686 -0.5620  0.5485
 7303TIP3   OH243323   1.037   3.774   0.204 -0.1948 -0.1193 -0.1917
 7303TIP3    H143324   1.119   3.728   0.188 -0.1608 -0.7287  1.6475
 7303TIP3    H243325   1.050   3.860   0.163  0.3999 -1.0717 -2.0792
 7304TIP3   OH243326   0.116   3.489  15.104 -0.0034 -0.2394 -0.0025
 7304TIP3    H143327   0.087   3.477  15.195  0.3054 -0.4628  0.0675
 7304TIP3    H243328   0.038   3.519  15.058  0.2637  1.6031  0.6993
 7305TIP3   OH243329   5.273   3.009  14.679 -0.0319 -0.6479  0.4268
 7305TIP3    H143330   5.330   3.053  14.615 -0.0147  0.9986  1.5350
 7305TIP3    H243331   5.188   3.051  14.669 -0.2441 -0.9552  0.9034
 7306TIP3   OH243332   1.937   4.104  15.112  0.1559  0.0066  0.7770
 7306TIP3    H143333   1.859   4.156  15.128 -0.2086  0.2686 -1.6843
 7306TIP3    H243334   1.905   4.024  15.071  1.1815  0.2264 -0.4823
 7307TIP3   OH243335   5.836   1.908  13.606  0.6027  0.0917  0.1219
 7307TIP3    H143336   5.895   1.929  13.533  0.2774 -0.5778 -0.3300
 7307TIP3    H243337   5.750   1.898  13.565  0.5665 -1.1163  0.4805
 7308TIP3   OH243338   2.586   3.252  14.524  0.0515 -0.3347  0.6318
 7308TIP3    H143339   2.530   3.311  14.473  0.6941 -1.4029 -1.3671
 7308TIP3    H243340   2.537   3.171  14.531  0.8290 -0.8686 -0.0598
 7309TIP3   OH243341   6.038   3.948  14.334  0.7588  1.1818  1.1207
 7309TIP3    H143342   5.994   3.962  14.418  0.0161 -0.9011  1.1251
 7309TIP3    H243343   6.020   3.856  14.313 -0.1495  1.9934 -1.9283
 7310TIP3   OH243344   2.895   0.294   2.894 -0.7312 -0.0994 -0.3387
 7310TIP3    H143345   2.965   0.233   2.918 -2.2584 -2.4709 -1.7187
 7310TIP3    H243346   2.902   0.302   2.799 -3.8436 -2.3464 -0.8246
 7311TIP3   OH243347   5.078   0.381  16.630  0.0050  0.0929  0.1575
 7311TIP3    H143348   5.049   0.407  16.542 -1.0385  0.6552  0.6496
 7311TIP3    H243349   4.999   0.390  16.684  0.0399 -2.4369  0.7121
 7312TIP3   OH243350   0.164   0.635  16.203 -0.2489 -0.1685  1.0768
 7312TIP3    H143351   0.252   0.642  16.239 -0.1757  1.0692  0.6896
 7312TIP3    H243352   0.173   0.663  16.111 -1.0143 -0.1273  1.0089
 7313TIP3   OH243353   4.682   0.202   5.314 -0.1471  0.5472  0.4118
 7313TIP3    H143354   4.672   0.267   5.384  0.0016  1.6392 -0.5703
 7313TIP3    H243355   4.727   0.249   5.244  0.7351 -0.8575  0.0117
 7314TIP3   OH243356   5.865   3.357  17.080  0.4467  0.5404 -0.0251
 7314TIP3    H143357   5.834   3.344  16.991 -0.7029 -0.6214  0.5416
 7314TIP3    H243358   5.854   3.451  17.096  0.9186  0.7989 -1.1894
 7315TIP3   OH243359   2.748   1.027   3.889  0.3473  0.1380 -0.2961
 7315TIP3    H143360   2.826   1.031   3.943  0.6404  0.8185 -0.7640
 7315TIP3    H243361   2.729   0.933   3.881  0.0303  0.0449  1.3392
 7316TIP3   OH243362   5.700   5.635   0.418 -0.4982  0.2053 -0.4416
 7316TIP3    H143363   5.615   5.648   0.376  0.1677  1.1268 -1.5299
 7316TIP3    H243364   5.680   5.590   0.500 -2.0114  0.2481 -0.7794
 7317TIP3   OH243365   6.401   6.470  16.375  0.4343  0.8840 -0.2073
 7317TIP3    H143366   6.409   6.508  16.463  2.8715 -0.1199  0.0566
 7317TIP3    H243367   6.445   6.385  16.382 -1.0645 -0.0557 -1.9150
 7318TIP3   OH243368   1.857   0.694   4.735 -0.1002 -0.4670 -0.6950
 7318TIP3    H143369   1.907   0.656   4.807  0.3980  1.5736  0.0775
 7318TIP3    H243370   1.923   0.743   4.684 -0.9020  0.3231 -0.9878
 7319TIP3   OH243371   1.990   1.629   5.174  0.0013 -0.0142  0.4036
 7319TIP3    H143372   2.065   1.585   5.214  0.7082 -0.4592 -1.3584
 7319TIP3    H243373   2.013   1.722   5.175 -0.1254  0.0048  1.3160
 7320TIP3   OH243374   2.201   3.090   4.655  0.0475  0.4055  0.2714
 7320TIP3    H143375   2.283   3.116   4.614 -0.3292  1.8610  0.3933
 7320TIP3    H243376   2.136   3.151   4.620 -0.6680  0.3141  1.4024
 7321TIP3   OH243377   3.462   2.876  11.374  0.1258 -0.3081 -0.0945
 7321TIP3    H143378   3.431   2.884  11.464  1.9637  0.6429  0.4671
 7321TIP3    H243379   3.414   2.800  11.339 -0.8267 -0.4966  1.5657
 7322TIP3   OH243380   6.141   4.360   4.280  0.8277 -0.0963  0.4306
 7322TIP3    H143381   6.083   4.395   4.212  1.0071 -0.2601  0.1914
 7322TIP3    H243382   6.223   4.406   4.266  0.3790  1.0662  1.5797
 7323TIP3   OH243383   4.559   2.497   0.581 -0.5104  0.2457 -0.4709
 7323TIP3    H143384   4.476   2.509   0.627 -0.2599 -1.9801  0.6165
 7323TIP3    H243385   4.551   2.551   0.503 -1.7386  2.5053  1.1732
 7324TIP3   OH243386   1.763   1.036   6.188 -0.2657 -0.3874 -0.0919
 7324TIP3    H143387   1.837   0.976   6.195  0.1838  0.3793  1.9854
 7324TIP3    H243388   1.796   1.108   6.135 -0.0279 -0.8097 -0.5221
 7325TIP3   OH243389   6.388   0.081  13.610  0.2828  0.3252 -0.5415
 7325TIP3    H143390   6.322   0.022  13.574  0.6292 -0.6398  0.4051
 7325TIP3    H243391   6.455   0.087  13.542  0.3929 -0.6047 -0.5216
 7326TIP3   OH243392   3.163   1.746   5.034 -0.0347 -0.5944  0.5024
 7326TIP3    H143393   3.154   1.838   5.008 -2.7327 -0.6456  1.1183
 7326TIP3    H243394   3.173   1.749   5.129  1.9236 -0.8603  0.3308
 7327TIP3   OH243395   5.643   0.266  10.560  0.2740 -0.4433  0.0777
 7327TIP3    H143396   5.635   0.322  10.482 -1.2056 -0.6773  0.0556
 7327TIP3    H243397   5.713   0.205  10.538  0.4221  0.0132 -0.7548
 7328TIP3   OH243398   6.443   1.034  13.049  0.3620  0.4291 -0.5066
 7328TIP3    H143399   6.465   1.024  13.142  1.3993  0.0975 -0.7780
 7328TIP3    H243400   6.440   0.944  13.016 -0.8527  0.5070 -0.6024
 7329TIP3   OH243401   5.298   3.876  11.318 -0.5573  0.0208 -0.2423
 7329TIP3    H143402   5.368   3.915  11.265  0.8506 -1.2701  0.6287
 7329TIP3    H243403   5.291   3.786  11.285 -1.2184 -0.1121  0.2598
 7330TIP3   OH243404   3.080   6.505   4.269 -0.5272 -0.5513 -0.5700
 7330TIP3    H143405   3.029   6.458   4.335 -1.2854  1.6448  0.4644
 7330TIP3    H243406   3.030   6.494   4.188 -1.0580 -0.9442 -0.1930
 7331TIP3   OH243407   2.520   0.455  17.193  0.6929 -0.3707 -0.2711
 7331TIP3    H143408   2.586   0.506  17.241  0.7622 -0.8837  0.1854
 7331TIP3    H243409   2.559   0.442  17.106  0.9076 -0.1022 -0.2193
 7332TIP3   OH243410   1.067   2.494  11.545  0.0058 -0.1027  0.5044
 7332TIP3    H143411   1.034   2.503  11.634 -0.2706 -2.1978  0.6422
 7332TIP3    H243412   1.162   2.503  11.554 -0.1281  0.9679  0.8292
 7333TIP3   OH243413   0.985   1.186  15.058 -0.4418 -0.5231  0.0725
 7333TIP3    H143414   1.011   1.278  15.059  0.2930 -0.7319  1.5227
 7333TIP3    H243415   1.065   1.139  15.035 -0.8698 -0.8030 -0.8948
 7334TIP3   OH243416   1.403   2.004  11.561  0.7478 -0.3886  0.1296
 7334TIP3    H143417   1.369   1.914  11.555  0.2274 -0.4051  2.7116
 7334TIP3    H243418   1.463   2.001  11.635  0.8785  1.3672  0.0991
 7335TIP3   OH243419   2.687   4.280   1.125  0.2862 -0.3216 -0.1240
 7335TIP3    H143420   2.762   4.281   1.184  1.3004 -0.2823 -1.3817
 7335TIP3    H243421   2.687   4.192   1.087 -0.5700 -0.4650  0.1954
 7336TIP3   OH243422   1.585   4.891  15.904 -0.5534  0.9903 -0.2402
 7336TIP3    H143423   1.656   4.885  15.968 -0.9554  2.8644  0.4159
 7336TIP3    H243424   1.525   4.820  15.927  1.3391 -0.9839 -1.1489
 7337TIP3   OH243425   6.371   3.767   0.291 -0.1798  0.1517  0.2485
 7337TIP3    H143426   6.454   3.786   0.335  0.3866 -0.7989 -0.4035
 7337TIP3    H243427   6.322   3.850   0.295  0.0745  0.2309  2.1937
 7338TIP3   OH243428   0.484   5.298   4.922  0.0505 -0.2383  0.0940
 7338TIP3    H143429   0.562   5.281   4.974  0.6674  1.2361 -0.3276
 7338TIP3    H243430   0.443   5.374   4.964  0.2454  0.6056 -1.1984
 7339TIP3   OH243431   0.466   5.190  10.852 -0.3139  0.2129  0.3408
 7339TIP3    H143432   0.398   5.215  10.789  0.4309  0.7617 -0.2427
 7339TIP3    H243433   0.425   5.121  10.905 -1.6289  1.1314  0.5471
 7340TIP3   OH243434   0.919   1.883  16.078  0.1823  0.3257 -0.0695
 7340TIP3    H143435   0.868   1.920  16.150  0.8945 -0.9115  1.1011
 7340TIP3    H243436   0.888   1.793  16.071  0.2454  0.3855 -1.2038
 7341TIP3   OH243437   5.399   0.492  15.877 -0.0240 -0.1785  0.2000
 7341TIP3    H143438   5.341   0.420  15.851  0.7938 -0.9467  0.4864
 7341TIP3    H243439   5.390   0.497  15.972 -0.6411  0.5847  0.1029
 7342TIP3   OH243440   2.090   5.590  11.321  0.5148  0.0718  0.6054
 7342TIP3    H143441   2.014   5.553  11.365  0.4131  0.3519  0.6608
 7342TIP3    H243442   2.063   5.677  11.294 -0.5477 -1.2798 -2.9700
 7343TIP3   OH243443   5.535   4.486   1.272 -0.5498 -0.0141 -0.1630
 7343TIP3    H143444   5.582   4.519   1.196 -2.7873  1.6885 -0.8534
 7343TIP3    H243445   5.488   4.409   1.240 -1.1450  0.4493 -0.4203
 7344TIP3   OH243446   2.532   2.185  14.933 -0.1533  1.0742  0.0268
 7344TIP3    H143447   2.614   2.233  14.941 -0.1629  0.9879  0.6556
 7344TIP3    H243448   2.468   2.240  14.978 -0.0507  0.1979  1.2596
 7345TIP3   OH243449   3.864   1.177  16.870 -0.6324 -0.6650 -0.2170
 7345TIP3    H143450   3.823   1.142  16.791 -0.1081  0.6454 -1.0972
 7345TIP3    H243451   3.797   1.167  16.938 -1.5426 -0.6972 -1.1021
 7346TIP3   OH243452   5.176   5.268  14.214 -0.0865 -0.5524 -0.1127
 7346TIP3    H143453   5.096   5.281  14.266 -0.2482 -2.3724  0.1299
 7346TIP3    H243454   5.222   5.198  14.260  1.5189  0.2909 -0.4284
 7347TIP3   OH243455   4.644   5.888   5.968  0.4064 -0.3693 -0.6333
 7347TIP3    H143456   4.730   5.876   6.007  0.6816  1.3066 -0.6805
 7347TIP3    H243457   4.592   5.814   6.000  1.3338 -0.3899  0.8526
 7348TIP3   OH243458   2.630   3.256  16.500  0.0225 -0.2949 -0.2080
 7348TIP3    H143459   2.718   3.218  16.502  0.0217 -0.2712  0.1583
 7348TIP3    H243460   2.644   3.348  16.479 -0.0219 -0.6468 -1.9191
 7349TIP3   OH243461   1.270   5.576   1.794  0.3894 -0.2103 -1.2248
 7349TIP3    H143462   1.331   5.547   1.862 -1.4020 -1.1730  0.0157
 7349TIP3    H243463   1.269   5.504   1.730  1.5312  0.3825 -1.9242
 7350TIP3   OH243464   5.470   1.511   3.645 -0.0761  0.0747  0.7253
 7350TIP3    H143465   5.491   1.452   3.718  0.7074  0.5708  0.9060
 7350TIP3    H243466   5.539   1.577   3.647  2.2912 -2.0967 -2.9048
 7351TIP3   OH243467   1.171   4.350   3.479 -0.7250 -0.1319 -0.0133
 7351TIP3    H143468   1.157   4.355   3.574  2.1366 -1.7553  0.5409
 7351TIP3    H243469   1.117   4.277   3.451 -1.8670  0.5807  0.2796
 7352TIP3   OH243470   4.357   5.318   4.894  0.3005 -0.0465  0.8369
 7352TIP3    H143471   4.335   5.257   4.823  0.7038  1.8484 -0.9843
 7352TIP3    H243472   4.442   5.289   4.925  1.8028  1.2476 -1.9453
 7353TIP3   OH243473   1.256   5.414  11.417 -0.3582  0.0184 -0.2093
 7353TIP3    H143474   1.197   5.363  11.363  1.1581 -2.1728  0.1529
 7353TIP3    H243475   1.334   5.360  11.426  1.1201  2.1861  0.5919
 7354TIP3   OH243476   3.468   1.813  13.038  0.0529  0.3794  0.6580
 7354TIP3    H143477   3.411   1.845  13.108  0.1290  2.7168 -0.2842
 7354TIP3    H243478   3.431   1.850  12.958  1.3133 -0.3137 -0.2718
 7355TIP3   OH243479   5.690   6.035   4.163  0.5916 -0.5724 -0.4495
 7355TIP3    H143480   5.628   5.964   4.144 -0.7839 -0.0311  1.8624
 7355TIP3    H243481   5.636   6.114   4.166  1.4637 -0.0112  1.0748
 7356TIP3   OH243482   2.158   5.596   1.770 -0.2133 -0.3305 -0.0971
 7356TIP3    H143483   2.093   5.666   1.772  0.8018  0.6281 -0.2453
 7356TIP3    H243484   2.142   5.550   1.688 -0.0575  0.5354 -0.6161
 7357TIP3   OH243485   2.333   0.552   1.069 -0.1363 -0.8036 -0.2428
 7357TIP3    H143486   2.328   0.642   1.036  1.0693  0.2829  2.3302
 7357TIP3    H243487   2.426   0.529   1.058 -0.1682 -1.2127  0.3703
 7358TIP3   OH243488   1.688   3.499   1.479  0.1408  0.0852 -0.8491
 7358TIP3    H143489   1.617   3.468   1.422  0.3229  0.0768 -1.0694
 7358TIP3    H243490   1.648   3.569   1.531 -0.1726 -0.2692 -0.6097
 7359TIP3   OH243491   3.678   5.277  14.601  0.3799  0.4908 -0.1083
 7359TIP3    H143492   3.657   5.279  14.508  1.1951  0.1090 -0.3053
 7359TIP3    H243493   3.697   5.185  14.620  1.1053  0.6995  0.2255
 7360TIP3   OH243494   0.205   0.103   2.902 -1.0027  0.4699 -0.4279
 7360TIP3    H143495   0.179   0.144   2.985 -2.8660  0.6508 -1.0686
 7360TIP3    H243496   0.291   0.066   2.920 -1.3268  0.5897  1.5625
 7361TIP3   OH243497   5.766   3.191   1.518  0.3256 -0.4788  0.0496
 7361TIP3    H143498   5.842   3.134   1.521  1.7200  1.3167 -0.3187
 7361TIP3    H243499   5.789   3.259   1.455 -0.9486  0.9625  1.0808
 7362TIP3   OH243500   5.130   1.041  11.473  0.2594 -0.2862 -0.1111
 7362TIP3    H143501   5.186   0.964  11.481  0.0547 -0.1497  2.8971
 7362TIP3    H243502   5.184   1.106  11.427  1.5284 -1.1498  0.1495
 7363TIP3   OH243503   2.478   0.185  13.870  0.3514 -0.2946 -0.8344
 7363TIP3    H143504   2.451   0.094  13.886  0.1341 -0.1181 -0.1864
 7363TIP3    H243505   2.542   0.178  13.798  0.4075 -0.9707 -0.7278
 7364TIP3   OH243506   1.568   1.244  17.156  0.1071 -0.1664  0.5861
 7364TIP3    H143507   1.656   1.239  17.194 -0.2479 -1.0381  1.3229
 7364TIP3    H243508   1.580   1.292  17.074  1.2631 -0.2535  0.6882
 7365TIP3   OH243509   0.965   4.680   3.084  0.1425 -0.1639  0.5896
 7365TIP3    H143510   1.029   4.750   3.073 -0.0048  0.4473  3.3567
 7365TIP3    H243511   1.013   4.609   3.126 -0.8815  0.2156  2.4730
 7366TIP3   OH243512   4.649   3.379  16.614 -0.2809 -0.1083 -0.3901
 7366TIP3    H143513   4.720   3.395  16.676  1.6962 -0.3634 -2.5301
 7366TIP3    H243514   4.640   3.461  16.566 -0.9964 -0.2908 -0.5848
 7367TIP3   OH243515   1.127   6.466   0.651 -0.1508  0.1066 -0.0155
 7367TIP3    H143516   1.168   6.392   0.697 -0.1095 -0.2790 -0.6747
 7367TIP3    H243517   1.199   6.529   0.640  0.1307 -0.3193 -0.6397
 7368TIP3   OH243518   5.766   2.526  12.055  0.1017  0.1701 -0.0104
 7368TIP3    H143519   5.784   2.440  12.016 -1.0004 -0.9023  1.7386
 7368TIP3    H243520   5.676   2.546  12.030 -0.2429 -0.0238  1.0186
 7369TIP3   OH243521   2.359   5.690   4.366  0.9695  0.7674  0.0989
 7369TIP3    H143522   2.357   5.623   4.435  1.4881  1.7940  1.1195
 7369TIP3    H243523   2.267   5.705   4.344  0.8285  0.0276  0.1592
 7370TIP3   OH243524   5.661   0.333   6.213 -0.5039 -0.0815 -0.0572
 7370TIP3    H143525   5.568   0.345   6.233  0.1107  0.5628  2.7071
 7370TIP3    H243526   5.685   0.412   6.164 -1.6490 -0.8014 -1.8384
 7371TIP3   OH243527   1.099   2.549  15.357 -0.9661 -0.4898 -0.4608
 7371TIP3    H143528   1.028   2.521  15.300 -1.5496  0.6289 -0.3039
 7371TIP3    H243529   1.100   2.486  15.429 -2.6145  0.2150  0.1843
 7372TIP3   OH243530   0.376   5.801   2.454  0.2648 -0.2654  0.1167
 7372TIP3    H143531   0.352   5.887   2.487  1.7839 -0.1483  0.9333
 7372TIP3    H243532   0.383   5.746   2.532 -2.0132 -1.4912 -0.4790
 7373TIP3   OH243533   0.958   6.397  10.953  0.3169  0.1660  0.4013
 7373TIP3    H143534   1.040   6.444  10.942  0.4540 -0.1836 -0.1242
 7373TIP3    H243535   0.981   6.319  11.003  0.2866  0.1215  0.3462
 7374TIP3   OH243536   4.880   3.036   5.060 -0.2818 -0.1970  0.0424
 7374TIP3    H143537   4.790   3.054   5.085 -0.2570 -1.6691  1.2676
 7374TIP3    H243538   4.889   3.076   4.973 -2.3163 -0.6165 -0.3902
 7375TIP3   OH243539   2.907   6.252   4.868  0.3242 -0.1122 -0.4024
 7375TIP3    H143540   2.965   6.209   4.931 -0.1726 -0.0629  0.0887
 7375TIP3    H243541   2.836   6.287   4.921  0.4342  0.8258 -0.8700
 7376TIP3   OH243542   5.000   0.242   0.699  0.1269  0.5480 -0.2013
 7376TIP3    H143543   4.979   0.155   0.665  0.9336  0.8675 -1.5386
 7376TIP3    H243544   5.096   0.244   0.700  0.1143  1.1322  0.6180
 7377TIP3   OH243545   0.435   3.272  16.160  0.4159  0.3111  0.3825
 7377TIP3    H143546   0.350   3.274  16.115 -0.6353 -0.1252  2.3139
 7377TIP3    H243547   0.414   3.292  16.251  2.0791 -2.2700  1.3642
 7378TIP3   OH243548   2.179   1.162   4.993  0.5605  0.3161  0.3324
 7378TIP3    H143549   2.236   1.231   4.958  1.0649 -1.0847 -1.7231
 7378TIP3    H243550   2.239   1.098   5.032  0.2184  0.2036  0.6749
 7379TIP3   OH243551   0.445   4.128  14.578 -0.1317  0.0325 -0.1417
 7379TIP3    H143552   0.475   4.219  14.586 -0.0624 -0.0987  1.1647
 7379TIP3    H243553   0.512   4.077  14.623 -0.9246 -0.5302  0.3998
 7380TIP3   OH243554   4.276   2.963  14.924 -0.2841  0.6067  0.5012
 7380TIP3    H143555   4.182   2.953  14.912 -0.2345 -0.6091  1.0808
 7380TIP3    H243556   4.296   2.910  15.001  0.6809  1.8548  1.1331
 7381TIP3   OH243557   6.033   5.753   3.897 -0.4828 -0.3789 -0.2077
 7381TIP3    H143558   6.020   5.829   3.953 -0.9189  0.2881 -1.2090
 7381TIP3    H243559   5.967   5.762   3.829  1.3505 -0.1015 -1.9733
 7382TIP3   OH243560   3.004   0.741   0.655 -0.1412  0.2797  0.2193
 7382TIP3    H143561   2.958   0.694   0.585 -1.7926 -0.2154  1.5824
 7382TIP3    H243562   3.096   0.732   0.634 -0.5128 -1.9509 -0.5922
 7383TIP3   OH243563   3.241   0.356  15.618 -0.0252 -0.2388 -0.0536
 7383TIP3    H143564   3.281   0.442  15.614 -1.0937  0.3062  0.7252
 7383TIP3    H243565   3.310   0.296  15.590  0.5020  0.9260 -1.3336
 7384TIP3   OH243566   0.529   2.976   4.666  0.3897  1.0404 -0.0392
 7384TIP3    H143567   0.508   3.025   4.745 -2.0411  1.7277 -1.0756
 7384TIP3    H243568   0.463   2.907   4.661  0.4889  1.0198 -1.4861
 7385TIP3   OH243569   3.105   6.187   0.500 -0.7084  0.8106  0.0773
 7385TIP3    H143570   3.049   6.118   0.465 -0.3563  0.6415 -0.1575
 7385TIP3    H243571   3.102   6.257   0.435 -0.1161  0.5278 -0.2522
 7386TIP3   OH243572   1.223   2.939   2.922 -0.2236  0.4151  0.1610
 7386TIP3    H143573   1.214   2.848   2.894 -2.3286  0.1588  1.5455
 7386TIP3    H243574   1.225   2.989   2.840  0.1317 -0.7932 -0.5822
 7387TIP3   OH243575   1.390   6.130  13.000 -0.3593 -0.0536  0.1282
 7387TIP3    H143576   1.328   6.182  12.949 -1.2651 -0.5303  0.7327
 7387TIP3    H243577   1.376   6.159  13.091  1.3863  0.9510  0.1002
 7388TIP3   OH243578   4.626   5.286   2.205 -0.6791 -0.1542 -0.3912
 7388TIP3    H143579   4.580   5.334   2.274  0.9538  0.8811  0.0030
 7388TIP3    H243580   4.595   5.327   2.124  0.2638  1.1902 -0.0812
 7389TIP3   OH243581   0.780   2.592  14.733 -0.4664  0.3580 -0.3679
 7389TIP3    H143582   0.759   2.671  14.782  0.5522  0.4298 -0.0551
 7389TIP3    H243583   0.838   2.621  14.663 -1.9054  0.2596 -1.6424
 7390TIP3   OH243584   3.896   2.842   3.555  0.4774  0.5437  0.6627
 7390TIP3    H143585   3.978   2.871   3.594  0.9641 -0.6973  0.6040
 7390TIP3    H243586   3.923   2.786   3.481 -0.4190  1.1453 -0.1304
 7391TIP3   OH243587   6.400   5.462   4.067 -0.7319 -0.1331  0.3205
 7391TIP3    H143588   6.397   5.557   4.055  0.6615  0.0360  1.1357
 7391TIP3    H243589   6.493   5.440   4.062 -1.2835 -1.9573 -3.4246
 7392TIP3   OH243590   2.182   5.653   5.874  0.7986 -0.0595  0.2805
 7392TIP3    H143591   2.263   5.698   5.852  1.2831 -0.6113  0.9364
 7392TIP3    H243592   2.204   5.561   5.876  0.5222 -0.1059  1.9630
 7393TIP3   OH243593   0.351   2.141  16.568  0.2542 -0.2092  0.2888
 7393TIP3    H143594   0.377   2.222  16.613  2.1026 -0.7183  0.2036
 7393TIP3    H243595   0.344   2.076  16.638  0.4896 -0.3802  0.1519
 7394TIP3   OH243596   6.052   1.753  13.686  0.2586 -0.2744 -0.2566
 7394TIP3    H143597   6.107   1.812  13.738  0.7599 -0.8878 -0.0929
 7394TIP3    H243598   5.968   1.798  13.680  1.3165  1.5708 -2.1064
 7395TIP3   OH243599   4.076   1.177  14.929  0.3816 -0.1302 -0.1970
 7395TIP3    H143600   4.002   1.118  14.939  1.3034 -1.1566  0.7170
 7395TIP3    H243601   4.125   1.142  14.854 -0.2232  0.7530 -1.0263
 7396TIP3   OH243602   6.546   4.739   2.185  0.0379  0.1614  0.4541
 7396TIP3    H143603   6.506   4.817   2.148 -2.0364 -1.7998 -1.5588
 7396TIP3    H243604   6.543   4.753   2.280 -3.1798  1.1831  0.2506
 7397TIP3   OH243605   6.524   1.322  14.413 -0.1050 -0.3477 -0.5954
 7397TIP3    H143606   6.550   1.256  14.476  0.0756  0.1194 -0.1746
 7397TIP3    H243607   6.433   1.342  14.434 -0.3097 -0.8138 -1.0351
 7398TIP3   OH243608   6.590   6.573  12.069  0.0916  0.3555  0.2095
 7398TIP3    H143609   6.677   6.534  12.069  0.4558  1.1640 -0.0289
 7398TIP3    H243610   6.554   6.549  12.155  0.7718  0.5181  0.5449
 7399TIP3   OH243611   0.409   6.665  12.308 -0.1884 -0.1929 -0.3095
 7399TIP3    H143612   0.491   6.703  12.340 -0.5704  0.5891 -0.2403
 7399TIP3    H243613   0.436   6.587  12.260  0.4832 -0.7920  1.0083
 7400TIP3   OH243614   3.410   3.799   1.687  0.0724 -0.0054 -0.1643
 7400TIP3    H143615   3.380   3.807   1.778  0.5546  2.4230 -0.1703
 7400TIP3    H243616   3.400   3.706   1.666 -2.3052 -0.1868  1.5807
 7401TIP3   OH243617   2.245   3.840   2.361 -0.0392 -0.8319 -0.3648
 7401TIP3    H143618   2.339   3.848   2.374 -0.1719  0.8852 -0.2145
 7401TIP3    H243619   2.230   3.878   2.274 -0.8174  0.8916  0.4936
 7402TIP3   OH243620   6.065   1.480  13.847  0.2852  0.0345 -0.1129
 7402TIP3    H143621   6.002   1.521  13.787  0.7941  1.3878  0.2523
 7402TIP3    H243622   6.011   1.439  13.914 -0.3622 -3.0932 -2.4486
 7403TIP3   OH243623   4.652   6.486   3.955  0.4144  0.1213  0.6441
 7403TIP3    H143624   4.577   6.427   3.968 -0.1905  0.4969 -1.0253
 7403TIP3    H243625   4.679   6.471   3.864 -0.1389  2.8351 -0.0192
 7404TIP3   OH243626   6.450   2.160   2.162 -0.6651 -0.3965  0.1557
 7404TIP3    H143627   6.490   2.179   2.246 -0.7187 -1.7515  0.4949
 7404TIP3    H243628   6.495   2.081   2.130  0.5331  1.0640 -1.8835
 7405TIP3   OH243629   5.809   0.263   1.853 -0.1650  0.2319  0.4521
 7405TIP3    H143630   5.719   0.233   1.847 -0.7445  2.1544 -0.8104
 7405TIP3    H243631   5.812   0.342   1.799  2.0633  0.6626  1.1494
 7406TIP3   OH243632   3.548   3.981   1.541 -1.0898  0.5991 -0.1697
 7406TIP3    H143633   3.564   3.918   1.611 -0.1468  2.5644  1.4341
 7406TIP3    H243634   3.453   3.982   1.531 -1.1894 -0.1481  0.6283
 7407TIP3   OH243635   6.608   0.294   1.579  0.0230  0.5079 -0.0697
 7407TIP3    H143636   6.620   0.226   1.645 -0.3640  1.7954  1.3336
 7407TIP3    H243637   6.517   0.322   1.589  0.1741  1.2175 -0.6649
 7408TIP3   OH243638   1.880   4.821  16.682 -0.6117 -0.2173 -0.3702
 7408TIP3    H143639   1.925   4.878  16.619  0.3422 -1.1045 -0.5076
 7408TIP3    H243640   1.947   4.759  16.710 -1.6107 -1.2001 -0.1315
 7409TIP3   OH243641   6.762   0.616  15.477  0.8522  0.2949 -0.1654
 7409TIP3    H143642   6.740   0.563  15.400 -2.5208 -1.1364  1.6703
 7409TIP3    H243643   6.719   0.700  15.462 -1.1456 -0.5218  0.8034
 7410TIP3   OH243644   4.221   5.390   5.532 -0.0777 -0.2547 -0.4224
 7410TIP3    H143645   4.171   5.324   5.483 -1.8781 -0.1187  1.1603
 7410TIP3    H243646   4.155   5.454   5.559  1.3431  1.1623 -0.2284
 7411TIP3   OH243647   2.371   1.256  11.216  0.1703  0.4953 -0.1460
 7411TIP3    H143648   2.325   1.323  11.165 -0.3247  0.6294  0.4760
 7411TIP3    H243649   2.371   1.179  11.159 -1.3934  0.2962  0.0940
 7412TIP3   OH243650   4.870   5.929  11.312 -0.5496 -0.4013 -0.3997
 7412TIP3    H143651   4.958   5.899  11.289 -0.2834 -0.8202  1.1474
 7412TIP3    H243652   4.845   5.987  11.240  0.6163 -0.9973 -1.3089
 7413TIP3   OH243653   6.737   1.330  16.398 -0.2813  0.1943 -0.0219
 7413TIP3    H143654   6.751   1.277  16.319 -0.4387  2.6400 -1.7426
 7413TIP3    H243655   6.649   1.367  16.387 -0.5915 -0.0367  1.6548
 7414TIP3   OH243656   2.661   6.679   4.418  0.3343 -0.3181 -0.2190
 7414TIP3    H143657   2.668   6.707   4.327 -0.6338  0.8804  0.0801
 7414TIP3    H243658   2.735   6.722   4.462 -1.0057  1.5941  0.1903
 7415TIP3   OH243659   0.997   6.035  16.551 -0.2515 -0.1101  0.4584
 7415TIP3    H143660   0.916   6.012  16.505 -0.0276 -1.6355  0.7772
 7415TIP3    H243661   1.065   6.028  16.484 -0.5913  3.0401 -0.2758
 7416TIP3   OH243662   3.238   3.894  14.938  0.3889  0.4884 -0.8582
 7416TIP3    H143663   3.225   3.918  15.030 -1.5116 -2.8750 -0.1680
 7416TIP3    H243664   3.178   3.952  14.890 -0.1933  0.7950  0.2119
 7417TIP3   OH243665   1.689   4.387  13.973 -0.7261  0.4292  0.2029
 7417TIP3    H143666   1.626   4.349  13.912  1.0543 -0.6246 -1.0487
 7417TIP3    H243667   1.727   4.461  13.925 -0.8610  0.9332  0.8669
 7418TIP3   OH243668   4.798   1.275  16.129 -0.4348  0.0575 -0.4250
 7418TIP3    H143669   4.705   1.295  16.142 -0.0924  1.2935  0.2883
 7418TIP3    H243670   4.801   1.182  16.107 -1.8281 -0.0260 -0.2768
 7419TIP3   OH243671   5.141   5.489   5.150 -0.3751 -0.1943  0.1631
 7419TIP3    H143672   5.183   5.573   5.130 -0.6957 -0.2775 -0.8557
 7419TIP3    H243673   5.048   5.507   5.149 -0.3942 -0.1243  1.9494
 7420TIP3   OH243674   1.430   6.494  16.515  0.2679  0.2539  0.0311
 7420TIP3    H143675   1.421   6.579  16.472 -0.9192  0.0373 -0.1849
 7420TIP3    H243676   1.340   6.468  16.534  0.6815 -0.5044  0.9832
 7421TIP3   OH243677   4.851   1.601   0.754  0.1142 -0.2591 -0.4359
 7421TIP3    H143678   4.849   1.637   0.665  0.1338 -0.7462 -0.6336
 7421TIP3    H243679   4.932   1.634   0.792  0.4860 -0.6825 -0.8624
 7422TIP3   OH243680   2.883   1.895  10.891  0.5350  0.6787  0.2205
 7422TIP3    H143681   2.975   1.918  10.878  0.4093  1.6593  1.0330
 7422TIP3    H243682   2.835   1.961  10.841  0.2697 -0.0917 -0.5672
 7423TIP3   OH243683   2.099   3.086   2.749  0.8030 -0.9876 -0.0361
 7423TIP3    H143684   2.089   3.008   2.804 -0.7866  0.1021  1.2889
 7423TIP3    H243685   2.011   3.103   2.715  0.5188  1.7245  1.8339
 7424TIP3   OH243686   3.003   2.301   2.461 -0.3161  0.2886  0.1387
 7424TIP3    H143687   2.956   2.294   2.378 -0.4248 -0.5947  0.2697
 7424TIP3    H243688   3.086   2.257   2.446  0.7950  2.4391 -0.2963
 7425TIP3   OH243689   2.004   2.671   2.357 -0.4879  0.6735 -0.7785
 7425TIP3    H143690   1.966   2.587   2.329 -2.4412  1.5111 -0.7124
 7425TIP3    H243691   1.928   2.728   2.372  0.8176  2.5511 -1.1065
 7426TIP3   OH243692   1.519   3.712   4.985 -0.0236  0.0907  0.1507
 7426TIP3    H143693   1.583   3.782   4.975 -0.3266  0.3296 -0.1233
 7426TIP3    H243694   1.446   3.737   4.928  0.3348 -0.9909 -0.8026
 7427TIP3   OH243695   5.858   3.088  15.435  0.3228 -0.5274 -0.6226
 7427TIP3    H143696   5.839   3.064  15.345 -3.4596 -0.6808  0.1444
 7427TIP3    H243697   5.796   3.038  15.488  0.4773  1.7521  1.8672
 7428TIP3   OH243698   4.283   0.764   4.590 -0.1025  0.3048 -0.2549
 7428TIP3    H143699   4.291   0.742   4.498  2.0793 -0.6625  0.1519
 7428TIP3    H243700   4.271   0.680   4.634  0.1175  0.6497  0.4743
 7429TIP3   OH243701   6.296   6.411  14.516  0.0527 -0.0133 -0.4320
 7429TIP3    H143702   6.390   6.425  14.527 -0.3272  0.6792  2.3403
 7429TIP3    H243703   6.263   6.396  14.605 -2.2496 -1.6511 -1.5093
 7430TIP3   OH243704   0.137   6.065  12.060 -0.0682  0.2014  0.2740
 7430TIP3    H143705   0.159   6.109  11.978 -0.8195 -0.7478 -0.4486
 7430TIP3    H243706   0.146   5.972  12.040 -1.8145 -0.0982  0.8080
 7431TIP3   OH243707   6.195   0.451  12.930 -0.2218  0.2412 -0.4398
 7431TIP3    H143708   6.272   0.413  12.974  0.4823  2.7302  0.5516
 7431TIP3    H243709   6.210   0.434  12.837  1.9703  1.4289 -0.3309
 7432TIP3   OH243710   2.989   5.665  16.137 -0.1731 -0.3093  0.1321
 7432TIP3    H143711   2.965   5.635  16.049  2.0349  0.2280 -0.7071
 7432TIP3    H243712   2.918   5.723  16.163 -1.7830 -1.9597 -0.5076
 7433TIP3   OH243713   0.650   5.045   5.309 -0.4555  0.3781  0.0227
 7433TIP3    H143714   0.561   5.079   5.302 -0.9944 -1.1257 -0.8334
 7433TIP3    H243715   0.649   4.964   5.257  1.8500  1.2012 -1.4239
 7434TIP3   OH243716   0.718   2.921  14.339 -0.2443  0.3654  0.1925
 7434TIP3    H143717   0.675   2.836  14.350 -0.2725  0.4463  0.7633
 7434TIP3    H243718   0.668   2.979  14.396  0.3411  0.5620  0.5012
 7435TIP3   OH243719   5.886   0.181  15.784  0.4171 -0.0918  0.0231
 7435TIP3    H143720   5.911   0.089  15.770 -0.9636 -0.8973  2.6741
 7435TIP3    H243721   5.805   0.191  15.734 -0.7652 -1.0412  1.6892
 7436TIP3   OH243722   4.797   1.627  12.063  0.1239  0.5561 -0.2784
 7436TIP3    H143723   4.749   1.571  12.124  2.6501 -0.5314  0.7908
 7436TIP3    H243724   4.762   1.605  11.977 -0.9380 -0.5309  0.4128
 7437TIP3   OH243725   0.600   4.419   3.746 -0.0207  0.4886  0.0162
 7437TIP3    H143726   0.602   4.429   3.651  0.3723  1.0513  0.0838
 7437TIP3    H243727   0.687   4.444   3.775 -0.2201  0.5752  0.5543
 7438TIP3   OH243728   3.405   1.330   4.202 -0.2523 -0.6895 -0.3683
 7438TIP3    H143729   3.355   1.248   4.200  0.5574 -1.1895 -0.0110
 7438TIP3    H243730   3.389   1.369   4.116 -2.8962  0.1505  0.4249
 7439TIP3   OH243731   5.407   2.743   4.436 -0.0525 -0.0397  0.1591
 7439TIP3    H143732   5.452   2.757   4.352 -0.7138  1.4383  0.0428
 7439TIP3    H243733   5.440   2.813   4.493 -0.3027 -0.4889  0.8629
 7440TIP3   OH243734   3.834   6.130  15.006 -0.9150 -0.0960  0.1559
 7440TIP3    H143735   3.899   6.107  14.940 -1.8447 -1.5108 -0.2849
 7440TIP3    H243736   3.868   6.210  15.046  1.6432 -1.4003  0.6865
 7441TIP3   OH243737   2.509   6.682   3.837  0.1483 -0.4346 -0.5890
 7441TIP3    H143738   2.446   6.612   3.815 -0.6665  0.0314  0.2241
 7441TIP3    H243739   2.585   6.636   3.871  0.0406 -0.9821 -1.0744
 7442TIP3   OH243740   4.091   3.282  15.892 -0.0741 -0.1137 -0.2569
 7442TIP3    H143741   4.131   3.360  15.854 -2.1156  0.5962 -1.0437
 7442TIP3    H243742   4.093   3.217  15.823 -0.1769 -0.0957 -0.2778
 7443TIP3   OH243743   3.105   1.185  11.668 -0.4113  0.6823  0.0557
 7443TIP3    H143744   3.166   1.232  11.611 -0.4159  0.0035 -0.5177
 7443TIP3    H243745   3.155   1.166  11.747 -0.3901  1.5966  0.2688
 7444TIP3   OH243746   6.370   2.013  16.714  0.8632 -0.0601  0.3163
 7444TIP3    H143747   6.372   1.922  16.742 -1.0131 -0.9848 -2.3728
 7444TIP3    H243748   6.343   2.061  16.793  0.2874 -2.0118  1.3442
 7445TIP3   OH243749   0.885   4.256   5.058  0.0811 -0.1219  0.9185
 7445TIP3    H143750   0.832   4.209   5.122  0.6989  0.3935  1.8193
 7445TIP3    H243751   0.904   4.192   4.991 -2.3186 -0.1201  0.1927
 7446TIP3   OH243752   1.515   4.630   3.380 -0.1612  0.1803 -0.0122
 7446TIP3    H143753   1.446   4.568   3.406  0.5718 -0.4247  0.4877
 7446TIP3    H243754   1.490   4.712   3.422 -0.3870 -0.1246  0.4536
 7447TIP3   OH243755   6.517   2.177  12.334 -0.0114 -0.2435  0.3303
 7447TIP3    H143756   6.456   2.103  12.341  0.6250 -0.8710 -0.7453
 7447TIP3    H243757   6.460   2.254  12.337 -0.6688 -0.7623  1.6070
 7448TIP3   OH243758   5.674   0.796   6.827 -0.1389 -0.0841  0.3555
 7448TIP3    H143759   5.580   0.785   6.811 -0.3765  1.1301  0.8333
 7448TIP3    H243760   5.682   0.886   6.861  1.3769  0.4076 -1.2158
 7449TIP3   OH243761   6.709   2.249   6.266 -0.4891  0.0835 -0.5039
 7449TIP3    H143762   6.773   2.211   6.327  0.3472  1.2315 -0.6475
 7449TIP3    H243763   6.735   2.215   6.180  1.2833  2.2575 -0.8643
 7450TIP3   OH243764   2.847   6.171  16.583 -0.1341  0.3951 -0.3374
 7450TIP3    H143765   2.807   6.089  16.555  2.1386 -0.8720  0.0199
 7450TIP3    H243766   2.856   6.163  16.677  3.0314 -0.3230 -0.6682
 7451TIP3   OH243767   1.095   3.673  13.949 -0.6694  0.3659  0.2263
 7451TIP3    H143768   1.075   3.699  13.859  1.4610 -0.2263 -0.4575
 7451TIP3    H243769   1.115   3.755  13.994 -0.6157  0.5551 -0.1418
 7452TIP3   OH243770   2.732   1.728  15.698 -0.5356 -0.5622  0.0725
 7452TIP3    H143771   2.811   1.781  15.701 -0.9761  0.1896 -1.1956
 7452TIP3    H243772   2.762   1.642  15.668  0.0731 -0.8436  1.4483
 7453TIP3   OH243773   5.204   0.290   0.422  0.5975 -0.4076 -0.2021
 7453TIP3    H143774   5.215   0.269   0.515 -1.7163  1.3564  0.4964
 7453TIP3    H243775   5.216   0.206   0.377  0.4956 -1.5008  1.7811
 7454TIP3   OH243776   0.590   1.195   4.218  0.4060 -0.5892 -0.5532
 7454TIP3    H143777   0.623   1.160   4.135  2.2712  0.8678 -0.4700
 7454TIP3    H243778   0.645   1.155   4.285 -0.1472 -0.6550 -0.1370
 7455TIP3   OH243779   5.110   1.727  14.390  0.2404 -0.3258 -0.6476
 7455TIP3    H143780   5.034   1.738  14.332 -1.1466 -3.2513  0.4597
 7455TIP3    H243781   5.152   1.647  14.358  1.3805 -0.1260  0.3324
 7456TIP3   OH243782   2.833   4.758  17.189  0.3345 -0.0454  0.2971
 7456TIP3    H143783   2.892   4.741  17.262 -1.8321 -0.2408  2.0251
 7456TIP3    H243784   2.863   4.698  17.120  4.1338  2.0600 -0.0534
 7457TIP3   OH243785   0.144   4.529  15.531  0.1982  0.0458 -0.2257
 7457TIP3    H143786   0.120   4.620  15.549 -0.1792 -0.0266 -0.3691
 7457TIP3    H243787   0.184   4.499  15.613  0.0331  0.2423 -0.0717
 7458TIP3   OH243788   6.610   3.793  11.109  0.4514 -0.0217  0.1484
 7458TIP3    H143789   6.655   3.816  11.191  0.7348  2.1301 -0.5693
 7458TIP3    H243790   6.517   3.792  11.133  0.4988  1.0781  0.4066
 7459TIP3   OH243791   5.073   5.985  11.942  0.5216  0.4877  0.0480
 7459TIP3    H143792   5.140   5.993  11.873  1.4566  0.1814  0.9012
 7459TIP3    H243793   5.078   6.068  11.989 -2.0267  1.8145 -1.9066
 7460TIP3   OH243794   0.537   1.719   0.887  0.3610 -0.3832 -0.2793
 7460TIP3    H143795   0.546   1.812   0.905  1.1758 -0.0699 -2.1792
 7460TIP3    H243796   0.554   1.711   0.793 -0.2337 -2.3732 -0.2394
 7461TIP3   OH243797   2.287   1.396   5.191  0.2317 -0.2601  0.1436
 7461TIP3    H143798   2.241   1.383   5.108 -0.7646 -1.8609  0.9254
 7461TIP3    H243799   2.367   1.441   5.167 -1.1353  1.4058 -1.4090
 7462TIP3   OH243800   6.143   3.082   4.030 -0.2008 -0.9612 -0.3845
 7462TIP3    H143801   6.054   3.063   4.060  0.3650 -3.2536 -0.0060
 7462TIP3    H243802   6.199   3.050   4.101  0.9210  1.6751 -0.0165
 7463TIP3   OH243803   1.956   1.351   4.005  0.1190  0.2251  0.0410
 7463TIP3    H143804   1.965   1.392   4.091  1.3818  0.8652 -0.3808
 7463TIP3    H243805   1.882   1.291   4.014  1.0602 -0.6732  1.9346
 7464TIP3   OH243806   2.029   1.959   2.906 -0.0280 -0.3305 -0.3906
 7464TIP3    H143807   2.105   2.016   2.890 -1.0739  1.3060  0.3186
 7464TIP3    H243808   1.965   1.986   2.840 -1.3131  0.8090  1.2654
 7465TIP3   OH243809   6.234   3.435   3.492 -0.2728  0.1111 -0.3746
 7465TIP3    H143810   6.269   3.497   3.556 -0.9524  0.2674 -0.1561
 7465TIP3    H243811   6.158   3.479   3.454 -1.1524 -0.8415  0.2471
 7466TIP3   OH243812   1.068   2.558  17.120  0.6424  0.1887 -0.0053
 7466TIP3    H143813   1.113   2.491  17.171  0.4048 -0.7055 -0.9503
 7466TIP3    H243814   1.099   2.545  17.030 -1.9559 -0.8696 -0.7916
 7467TIP3   OH243815   3.312   4.806  13.885  0.3938 -0.0808  0.2280
 7467TIP3    H143816   3.337   4.797  13.977 -1.6733  0.4721  0.8591
 7467TIP3    H243817   3.255   4.731  13.867  0.6661 -0.1072 -0.5728
 7468TIP3   OH243818   1.841   4.103   1.122  0.1518 -0.1430 -0.1211
 7468TIP3    H143819   1.920   4.144   1.156  0.7624 -1.1238 -0.3417
 7468TIP3    H243820   1.794   4.174   1.078 -0.2975  0.9811  2.0855
 7469TIP3   OH243821   3.711   0.043   1.331 -0.0310  0.3446 -0.6095
 7469TIP3    H143822   3.722  -0.051   1.314  1.3690  0.0030  1.9619
 7469TIP3    H243823   3.773   0.085   1.271  3.2539 -0.7128  1.8845
 7470TIP3   OH243824   4.754   6.196  16.765 -0.0252 -0.0177 -0.4124
 7470TIP3    H143825   4.734   6.104  16.747  1.9485 -0.5988  0.2319
 7470TIP3    H243826   4.849   6.203  16.750 -0.0992  1.8277 -0.0948
 7471TIP3   OH243827   4.700   3.983  15.044  0.4794 -0.7198  0.0395
 7471TIP3    H143828   4.738   3.973  15.131  0.0139  2.4076  0.6766
 7471TIP3    H243829   4.615   3.940  15.050 -0.0471  0.4822  1.5215
 7472TIP3   OH243830   6.138   5.702  11.570  0.4005  0.2492  0.0344
 7472TIP3    H143831   6.060   5.715  11.517  0.6179  1.9691  0.1272
 7472TIP3    H243832   6.194   5.646  11.517 -1.0893 -1.4642  0.1853
 7473TIP3   OH243833   4.699   0.765  16.119  0.0186 -0.3597 -0.0443
 7473TIP3    H143834   4.634   0.732  16.180 -1.3330  0.8747 -0.7880
 7473TIP3    H243835   4.779   0.715  16.139 -0.7515 -0.8755  1.8223
 7474TIP3   OH243836   0.619   3.126  17.022  0.3158  0.8509  0.1010
 7474TIP3    H143837   0.677   3.202  17.026  1.5196 -0.1145  1.9520
 7474TIP3    H243838   0.556   3.140  17.093  0.7645 -0.0076  0.6915
 7475TIP3   OH243839   3.590   5.070   5.509 -0.0139  0.0902  0.0474
 7475TIP3    H143840   3.521   5.042   5.449 -2.6265  0.9931  2.5368
 7475TIP3    H243841   3.607   4.992   5.563 -1.0566  0.6811  1.2362
 7476TIP3   OH243842   1.944   4.637   3.879 -0.3427 -0.2585 -0.1251
 7476TIP3    H143843   2.008   4.615   3.811 -1.2690 -0.2124 -1.0202
 7476TIP3    H243844   1.867   4.583   3.858 -0.5467 -0.4215  1.0289
 7477TIP3   OH243845   6.095   1.633   4.572 -0.4083  0.2411 -0.2132
 7477TIP3    H143846   6.083   1.623   4.478 -0.4599 -0.4360 -0.1378
 7477TIP3    H243847   6.188   1.651   4.583 -0.5416  1.0841 -0.4538
 7478TIP3   OH243848   5.720   3.469  14.074  0.0328 -0.0615 -0.2075
 7478TIP3    H143849   5.770   3.389  14.087 -1.4978 -0.8454  0.9774
 7478TIP3    H243850   5.711   3.506  14.161 -0.6625  0.5558 -0.5403
 7479TIP3   OH243851   3.257   2.185   2.420  0.1169 -0.0008 -0.1505
 7479TIP3    H143852   3.263   2.161   2.327  2.1732  1.2121 -0.3454
 7479TIP3    H243853   3.305   2.116   2.466 -0.9664 -0.6423  0.0328
 7480TIP3   OH243854   3.633   1.840  14.267  0.3986  0.1362 -0.3649
 7480TIP3    H143855   3.643   1.911  14.330 -2.8728 -0.5659  1.0425
 7480TIP3    H243856   3.601   1.766  14.318  1.3155 -1.6326 -2.2429
 7481TIP3   OH243857   0.793   6.134  14.888  0.0624 -0.0427 -0.1900
 7481TIP3    H143858   0.732   6.163  14.956 -0.7040  0.5079 -1.1036
 7481TIP3    H243859   0.737   6.101  14.818  0.8735 -1.7482 -0.0695
 7482TIP3   OH243860   6.510   4.314  12.957 -0.3331 -0.4592  0.2257
 7482TIP3    H143861   6.423   4.290  12.989  1.2692 -3.4004  2.5635
 7482TIP3    H243862   6.527   4.253  12.885  0.4420 -0.9785  0.8419
 7483TIP3   OH243863   3.653   3.948   1.047 -0.8010  0.7427  0.1064
 7483TIP3    H143864   3.587   3.905   0.993  0.9285  0.0794 -1.5210
 7483TIP3    H243865   3.658   3.893   1.125 -1.0481 -0.0756 -0.4448
 7484TIP3   OH243866   0.180   0.556   3.840  0.0368  0.5837 -0.2069
 7484TIP3    H143867   0.156   0.464   3.849 -1.0958  0.7693 -1.1359
 7484TIP3    H243868   0.123   0.602   3.902 -0.7877  0.8446 -1.1389
 7485TIP3   OH243869   3.214   2.604   2.727 -0.7711  0.2491  0.0588
 7485TIP3    H143870   3.210   2.589   2.821 -1.2622  3.8933  0.7054
 7485TIP3    H243871   3.123   2.602   2.698 -0.6386 -0.6395 -0.3047
 7486TIP3   OH243872   4.279   3.779  11.450 -0.7588  0.7716  0.3353
 7486TIP3    H143873   4.298   3.688  11.470 -3.0791  0.3839  0.8716
 7486TIP3    H243874   4.362   3.825  11.467  0.0248 -0.9952  1.4606
 7487TIP3   OH243875   6.471   6.329  11.435 -0.0303  0.0480 -0.3928
 7487TIP3    H143876   6.521   6.410  11.420  1.5493 -1.0345 -1.0598
 7487TIP3    H243877   6.524   6.260  11.395 -1.1188 -1.3971  0.6146
 7488TIP3   OH243878   2.769   3.684   4.362 -0.1340  0.2132  0.1443
 7488TIP3    H143879   2.782   3.773   4.330  2.7917  0.5582  2.0882
 7488TIP3    H243880   2.697   3.692   4.426  0.5503  1.3144  0.7925
 7489TIP3   OH243881   2.700   5.502  12.073 -0.7674  0.8156 -0.1366
 7489TIP3    H143882   2.615   5.495  12.029 -1.4681 -0.9833  1.4399
 7489TIP3    H243883   2.713   5.596  12.085 -2.7535  1.0949 -0.0261
 7490TIP3   OH243884   0.157   4.422  12.713  0.3737  0.5528 -0.2814
 7490TIP3    H143885   0.062   4.412  12.719  0.4823 -0.6748 -0.4209
 7490TIP3    H243886   0.170   4.489  12.645 -0.4122  1.6860  0.6765
 7491TIP3   OH243887   2.050   2.218   2.681  0.3375  0.4470 -0.0054
 7491TIP3    H143888   2.057   2.174   2.596  0.5043  0.5306 -0.0345
 7491TIP3    H243889   2.007   2.301   2.661 -1.4977 -0.4028  0.2858
 7492TIP3   OH243890   4.049   2.042  11.098  0.1176  0.7834 -0.7372
 7492TIP3    H143891   4.143   2.059  11.094  0.4336 -0.9760 -1.2518
 7492TIP3    H243892   4.009   2.129  11.102  1.7971  1.5345  0.4955
 7493TIP3   OH243893   0.305   0.971  15.763  0.3002 -0.6804  0.5549
 7493TIP3    H143894   0.250   0.938  15.692  2.9955 -1.2223 -1.3857
 7493TIP3    H243895   0.266   1.056  15.786  0.1046  0.1381 -2.5137
 7494TIP3   OH243896   6.614   5.931   5.078  0.4263  0.3220 -0.2847
 7494TIP3    H143897   6.595   5.849   5.032 -0.1451 -0.2862  1.0413
 7494TIP3    H243898   6.638   5.905   5.166 -0.6536  1.6474  0.4168
 7495TIP3   OH243899   4.096   3.162   5.729  0.3594  0.2203 -0.5214
 7495TIP3    H143900   4.189   3.150   5.751  0.2687 -1.0129 -0.7571
 7495TIP3    H243901   4.076   3.251   5.758  1.2560  0.0007  0.8414
 7496TIP3   OH243902   5.674   4.928   1.743 -0.3283 -0.1395  0.3118
 7496TIP3    H143903   5.667   4.890   1.655  1.8904 -1.0276  0.4968
 7496TIP3    H243904   5.701   5.018   1.727 -1.7954  0.2655  0.0271
 7497TIP3   OH243905   2.553   4.676   0.528  0.8350 -0.5813 -0.4558
 7497TIP3    H143906   2.582   4.709   0.442  1.0897 -0.8034 -0.4594
 7497TIP3    H243907   2.513   4.591   0.508 -0.5033  0.0566 -0.5394
 7498TIP3   OH243908   6.420   3.029  14.977 -0.0495 -0.4621 -0.0732
 7498TIP3    H143909   6.508   3.006  14.948 -0.3742 -1.8850  0.0654
 7498TIP3    H243910   6.432   3.055  15.069  0.1314 -1.2635  0.1329
 7499TIP3   OH243911   1.884   1.258   0.940 -0.3236  0.2685  0.0637
 7499TIP3    H143912   1.797   1.281   0.908 -1.2845 -2.0162  0.9406
 7499TIP3    H243913   1.932   1.232   0.861 -1.5701 -1.8827 -0.0251
 7500TIP3   OH243914   0.415   2.159  14.413  0.2799  0.1157 -0.3605
 7500TIP3    H143915   0.408   2.252  14.390  0.4598  0.4919  1.0580
 7500TIP3    H243916   0.324   2.128  14.414  0.3351 -0.1334 -2.4510
 7501TIP3   OH243917   2.668   2.835   3.645  1.1451 -0.4684 -0.4682
 7501TIP3    H143918   2.760   2.849   3.622  1.0705  0.1697 -0.3886
 7501TIP3    H243919   2.631   2.923   3.649  0.6300 -0.7009 -0.0790
 7502TIP3   OH243920   5.908   0.299   0.268  0.1375 -0.1740  0.4371
 7502TIP3    H143921   5.854   0.367   0.309  1.1070  0.1812  1.1413
 7502TIP3    H243922   5.952   0.343   0.195  0.3052 -0.1908  0.5271
 7503TIP3   OH243923   1.844   1.453   3.574 -0.2675  0.1410  0.7973
 7503TIP3    H143924   1.917   1.483   3.628 -0.8412  1.9487  0.5984
 7503TIP3    H243925   1.885   1.402   3.504  0.8482  1.4167  0.5069
 7504TIP3   OH243926   3.312   2.843  16.526 -0.3073 -0.9017 -0.4570
 7504TIP3    H143927   3.250   2.890  16.582 -0.7501 -0.4827 -1.2929
 7504TIP3    H243928   3.366   2.793  16.587  1.4034  2.1248  0.5930
 7505TIP3   OH243929   0.417   0.789  14.878 -0.3708  0.2812 -0.2322
 7505TIP3    H143930   0.491   0.779  14.938 -0.2858  1.0098 -0.2085
 7505TIP3    H243931   0.342   0.806  14.936  0.2830  4.3090 -0.4304
 7506TIP3   OH243932   4.109   3.674  15.505  0.5615 -0.6174  0.0486
 7506TIP3    H143933   4.048   3.600  15.508  0.1433 -0.3256 -1.0434
 7506TIP3    H243934   4.119   3.701  15.597 -1.4151 -0.2823  0.1704
 7507TIP3   OH243935   5.662   0.367  16.855  0.1397  0.2890 -0.8471
 7507TIP3    H143936   5.714   0.296  16.894  1.6154  0.3214 -2.6701
 7507TIP3    H243937   5.619   0.326  16.780 -1.5327  0.5682 -0.0546
 7508TIP3   OH243938   2.026   1.929   1.851 -0.0809  0.0457 -0.1860
 7508TIP3    H143939   2.103   1.882   1.883  0.6810  1.1985 -0.3074
 7508TIP3    H243940   1.986   1.869   1.788  0.9799 -0.3676 -0.4798
 7509TIP3   OH243941   4.147   5.572  16.232 -0.0701 -0.4545  0.0408
 7509TIP3    H143942   4.087   5.545  16.302  1.0603 -1.3590  0.6779
 7509TIP3    H243943   4.155   5.495  16.177 -2.0692  0.6937 -1.9129
 7510TIP3   OH243944   6.326   6.070   3.992 -0.6670  0.3040 -0.6190
 7510TIP3    H143945   6.416   6.064   3.959 -0.6130 -0.5335 -0.3370
 7510TIP3    H243946   6.336   6.078   4.087 -0.8818  0.3687 -0.6021
 7511TIP3   OH243947   4.192   0.577  15.900 -0.0434 -0.7712 -0.4990
 7511TIP3    H143948   4.174   0.665  15.932 -0.2723 -1.5768  1.6619
 7511TIP3    H243949   4.153   0.575  15.813 -0.4347  1.1168 -0.3847
 7512TIP3   OH243950   5.177   5.367  10.712  0.1192  0.1793  0.2596
 7512TIP3    H143951   5.084   5.370  10.689 -0.3293  1.0752  2.1100
 7512TIP3    H243952   5.220   5.333  10.633 -1.8569 -0.9984 -0.3413
 7513TIP3   OH243953   5.305   0.071   2.175 -0.0042  0.7927 -0.3484
 7513TIP3    H143954   5.263   0.001   2.125 -0.7492  0.8417  0.1967
 7513TIP3    H243955   5.241   0.142   2.176  1.1367  1.8694 -1.7340
 7514TIP3   OH243956   2.190   3.697   5.347  0.0286  0.2495  0.5993
 7514TIP3    H143957   2.213   3.650   5.427 -0.1981 -3.1155 -1.2029
 7514TIP3    H243958   2.239   3.653   5.278 -0.7114  2.2937 -1.2954
 7515TIP3   OH243959   4.994   3.358  11.790 -0.2699 -0.2109 -0.1440
 7515TIP3    H143960   4.929   3.425  11.768 -0.2637 -0.3828 -0.6931
 7515TIP3    H243961   4.943   3.278  11.798  0.0548 -0.6194 -1.9732
 7516TIP3   OH243962   3.092   5.409  15.075 -0.1322 -0.1164 -0.0894
 7516TIP3    H143963   3.142   5.439  15.151  0.3235 -2.0439  0.3947
 7516TIP3    H243964   3.094   5.313  15.081 -0.5708 -0.2765 -2.2315
 7517TIP3   OH243965   5.295   1.338   1.033  0.7540 -0.3158  0.0597
 7517TIP3    H143966   5.269   1.284   0.959  0.5973  1.5177 -1.2310
 7517TIP3    H243967   5.214   1.356   1.080  0.0852  2.6256 -2.1088
 7518TIP3   OH243968   6.539   4.417   0.189  0.0362  0.4381 -0.1558
 7518TIP3    H143969   6.467   4.479   0.205 -0.0630  0.2433  0.1510
 7518TIP3    H243970   6.510   4.336   0.231  0.4641  0.3782  0.0213
 7519TIP3   OH243971   6.151   3.504   2.751 -0.2257 -0.2164  0.5562
 7519TIP3    H143972   6.179   3.545   2.669  1.8197  1.4253  2.0095
 7519TIP3    H243973   6.056   3.510   2.750 -0.1195  1.8403 -0.6871
 7520TIP3   OH243974   3.862   4.998  13.484 -0.2108 -0.0370 -0.7307
 7520TIP3    H143975   3.800   5.059  13.444 -0.3986  0.3534  0.1252
 7520TIP3    H243976   3.828   4.984  13.573  0.9462  0.2139 -0.2350
 7521TIP3   OH243977   6.659   2.825   5.464 -0.0821  0.5318  0.1997
 7521TIP3    H143978   6.668   2.830   5.559  1.6919 -0.6264  0.1126
 7521TIP3    H243979   6.631   2.735   5.447  0.3920  0.4955 -0.4201
 7522TIP3   OH243980   4.636   2.677   4.623  0.6250 -0.4602 -0.5690
 7522TIP3    H143981   4.657   2.754   4.570 -1.7783 -0.6606 -1.8756
 7522TIP3    H243982   4.559   2.702   4.673  0.5783 -1.5931 -0.0509
 7523TIP3   OH243983   4.788   1.760   5.852  0.4404  0.4628  0.0945
 7523TIP3    H143984   4.770   1.666   5.861  0.3899  0.5017  0.4067
 7523TIP3    H243985   4.868   1.773   5.902 -0.0396  0.7507  0.7887
 7524TIP3   OH243986   4.291   3.395  11.320 -0.2649 -0.7790 -0.4147
 7524TIP3    H143987   4.290   3.411  11.226  0.8897  0.6315 -0.2112
 7524TIP3    H243988   4.379   3.420  11.348 -0.2154 -2.2918  0.8614
 7525TIP3   OH243989   0.679   5.969  12.506  0.4844  0.1459  0.8045
 7525TIP3    H143990   0.619   5.895  12.500 -0.2791  0.6372  2.1883
 7525TIP3    H243991   0.745   5.941  12.570  2.2650 -0.7429 -1.3699
 7526TIP3   OH243992   3.470   0.477   5.240  0.0533  0.1414  0.1647
 7526TIP3    H143993   3.378   0.496   5.221  0.4447  1.1551 -0.8145
 7526TIP3    H243994   3.485   0.390   5.204 -0.2358  0.4496 -0.7214
 7527TIP3   OH243995   1.559   0.752  17.174  0.3448  0.1108  0.0689
 7527TIP3    H143996   1.564   0.775  17.267  1.7592  1.7848 -0.3843
 7527TIP3    H243997   1.648   0.723  17.153 -0.5041 -2.3653 -0.2705
 7528TIP3   OH243998   3.737   4.556  13.967  0.0124  0.6537  0.3111
 7528TIP3    H143999   3.778   4.596  13.890  0.6828 -0.3661  0.1174
 7528TIP3    H244000   3.668   4.500  13.931  0.9848 -0.6061  0.3620
 7529TIP3   OH244001   4.459   5.950  15.033  0.4463 -0.3517 -0.8867
 7529TIP3    H144002   4.478   6.036  14.994 -1.1977  0.6592  0.4384
 7529TIP3    H244003   4.380   5.921  14.987 -1.2896  0.6797  1.3553
 7530TIP3   OH244004   3.090   5.389   6.834  0.3167 -0.2838  0.4275
 7530TIP3    H144005   3.145   5.359   6.907 -0.3193 -0.9089  0.6609
 7530TIP3    H244006   3.003   5.355   6.855 -0.0176  0.1450 -0.2660
 7531TIP3   OH244007   6.006   5.946   0.320  0.4738  0.2061  0.3584
 7531TIP3    H144008   6.081   5.991   0.281  1.0406 -0.3797  0.7521
 7531TIP3    H244009   6.010   5.858   0.281 -0.8120  0.5928 -0.6619
 7532TIP3   OH244010   2.434   2.056  12.731 -0.0756  0.1571  0.4240
 7532TIP3    H144011   2.396   2.060  12.643 -0.3617  0.2781  0.5517
 7532TIP3    H244012   2.520   2.018  12.718 -0.3210 -0.3106  0.1545
 7533TIP3   OH244013   2.297   0.851   5.483  0.5052  0.8670  0.1511
 7533TIP3    H144014   2.315   0.868   5.391 -2.4887  0.1684 -0.6164
 7533TIP3    H244015   2.302   0.755   5.491 -1.3630  0.7597  0.2035
 7534TIP3   OH244016   5.781   0.290  12.247 -0.0213 -0.3311 -0.2473
 7534TIP3    H144017   5.706   0.293  12.187  0.8225  2.4916 -1.2560
 7534TIP3    H244018   5.741   0.276  12.333 -1.8315  1.8860 -0.6639
 7535TIP3   OH244019   1.096   5.263   4.447  0.7946  0.2193  0.3926
 7535TIP3    H144020   1.004   5.237   4.459  0.6241  0.8928  0.5953
 7535TIP3    H244021   1.096   5.358   4.463  1.4425  0.3046 -0.0815
 7536TIP3   OH244022   6.232   4.416  12.871 -0.0855 -0.7623 -0.3264
 7536TIP3    H144023   6.288   4.493  12.870 -2.2812  0.9005  0.4833
 7536TIP3    H244024   6.233   4.384  12.780  0.2085  0.6950 -0.8473
 7537TIP3   OH244025   0.915   3.509  17.185 -0.4313 -0.5393 -0.5378
 7537TIP3    H144026   0.933   3.505  17.279 -0.9316 -0.8772 -0.4572
 7537TIP3    H244027   0.866   3.590  17.173  0.1161 -0.2079 -0.5931
 7538TIP3   OH244028   2.777   0.052   2.297 -0.0268 -0.2750  0.9042
 7538TIP3    H144029   2.851   0.035   2.239 -1.0614 -1.4798 -0.0795
 7538TIP3    H244030   2.702   0.011   2.254 -1.2231  0.6642  2.0377
 7539TIP3   OH244031   5.413   5.257  14.645  0.7071 -0.4010  0.5424
 7539TIP3    H144032   5.426   5.188  14.710  0.5631 -0.5943  0.3649
 7539TIP3    H244033   5.454   5.224  14.565 -2.7614 -2.0127 -0.6693
 7540TIP3   OH244034   5.986   2.878   5.728 -0.1211 -0.2872 -0.2195
 7540TIP3    H144035   5.984   2.870   5.823 -5.2321  1.7227  0.0053
 7540TIP3    H244036   6.003   2.971   5.712 -0.0026 -0.4841 -1.2451
 7541TIP3   OH244037   4.428   5.474  15.808 -0.2750  0.2954 -0.2348
 7541TIP3    H144038   4.504   5.420  15.831 -0.1940  0.5269  0.0429
 7541TIP3    H244039   4.462   5.535  15.743 -0.2968  0.2036 -0.3321
 7542TIP3   OH244040   2.971   1.008  16.578 -0.1124 -0.2933 -0.9764
 7542TIP3    H144041   2.987   1.065  16.654  1.9847 -2.0586 -0.0404
 7542TIP3    H244042   3.009   1.056  16.504 -0.2946  0.4932 -0.5735
 7543TIP3   OH244043   3.393   3.302  17.220  0.0899  0.0443 -0.1429
 7543TIP3    H144044   3.366   3.393  17.231 -0.7884 -0.1588 -0.5638
 7543TIP3    H244045   3.489   3.305  17.222  0.1078  1.1737 -1.5806
 7544TIP3   OH244046   5.891   0.170  15.157 -0.1800  0.0399 -0.3815
 7544TIP3    H144047   5.856   0.259  15.163  1.8970  0.9834 -1.5229
 7544TIP3    H244048   5.942   0.160  15.237 -0.7525 -0.2920 -0.0560
 7545TIP3   OH244049   4.259   2.001  13.654  0.2581  0.0849  1.2721
 7545TIP3    H144050   4.235   2.080  13.703 -0.5196 -0.1773  1.3119
 7545TIP3    H244051   4.186   1.941  13.667  0.9335 -0.7200  1.3952
 7546TIP3   OH244052   2.933   0.871   5.498  0.9742  0.3683 -0.4829
 7546TIP3    H144053   2.884   0.841   5.421  0.1209  1.0750 -0.2243
 7546TIP3    H244054   2.868   0.877   5.568  1.7723 -0.3870  0.3347
 7547TIP3   OH244055   0.246   2.620  16.324 -0.4360  0.0936 -0.3312
 7547TIP3    H144056   0.264   2.586  16.411 -1.1309 -1.0593 -0.6195
 7547TIP3    H244057   0.154   2.644  16.326 -1.1072 -2.2327 -1.4531
 7548TIP3   OH244058   6.475   5.389  13.241 -0.5464 -0.1933  0.1226
 7548TIP3    H144059   6.397   5.433  13.209 -0.6795 -0.8170 -0.4255
 7548TIP3    H244060   6.532   5.383  13.164  0.5927  1.4303  0.8106
 7549TIP3   OH244061   4.634   0.621  12.951  0.2091 -0.4293  0.4402
 7549TIP3    H144062   4.632   0.547  12.890 -1.3852  0.6263 -0.8207
 7549TIP3    H244063   4.694   0.683  12.910  0.0463 -0.2061  0.5421
 7550TIP3   OH244064   2.596   5.595   4.215  0.6478  0.4053  0.2807
 7550TIP3    H144065   2.517   5.643   4.238  0.3025 -0.5732  1.1516
 7550TIP3    H244066   2.580   5.564   4.126 -0.1591 -0.2159  0.6348
 7551TIP3   OH244067   3.635   2.415  16.160  0.5093  0.1647 -0.8353
 7551TIP3    H144068   3.639   2.506  16.130 -0.5879 -0.3209 -2.5397
 7551TIP3    H244069   3.557   2.412  16.215 -0.4849 -0.1119 -2.2098
 7552TIP3   OH244070   1.747   2.659   6.328  0.5463 -0.1250  0.4773
 7552TIP3    H144071   1.745   2.646   6.233  0.5992 -0.8108  0.5658
 7552TIP3    H244072   1.730   2.572   6.364 -2.6136  0.6691  1.0747
 7553TIP3   OH244073   3.813   5.165  13.976  0.1242 -0.0018  0.7008
 7553TIP3    H144074   3.719   5.149  13.977  0.2959 -1.1221  0.6237
 7553TIP3    H244075   3.826   5.227  13.905 -0.6584  0.9050  1.3423
 7554TIP3   OH244076   1.568   1.412  11.715 -0.4349  0.1965 -0.5796
 7554TIP3    H144077   1.479   1.444  11.726 -0.4197 -0.0610  0.3352
 7554TIP3    H244078   1.566   1.322  11.748  0.0497  0.0218 -1.0129
 7555TIP3   OH244079   5.792   5.184   4.449 -0.9361  0.0191 -0.0525
 7555TIP3    H144080   5.831   5.097   4.448 -0.9165  0.0055  1.0321
 7555TIP3    H244081   5.845   5.236   4.388  0.5250 -0.1078  1.0877
 7556TIP3   OH244082   0.496   0.598  15.559  0.2859  0.1681  0.1544
 7556TIP3    H144083   0.590   0.612  15.570  0.4179 -0.5845  0.0031
 7556TIP3    H244084   0.486   0.503  15.555 -0.4733  0.2471  0.0942
 7557TIP3   OH244085   6.170   4.902  16.447  0.1368  0.1276 -0.5445
 7557TIP3    H144086   6.175   4.870  16.537 -2.3361  0.3771 -0.2801
 7557TIP3    H244087   6.112   4.841  16.403 -0.4549  1.2674 -1.3743
 7558TIP3   OH244088   1.753   5.379  11.809  0.1879  0.3070 -0.3769
 7558TIP3    H144089   1.742   5.370  11.904  1.0705 -1.1590 -0.3880
 7558TIP3    H244090   1.707   5.460  11.787 -0.1268  0.6066  1.2827
 7559TIP3   OH244091   2.074   3.413   0.130  0.0971 -0.2076 -0.3929
 7559TIP3    H144092   2.068   3.336   0.074 -2.7386 -0.4175  0.1238
 7559TIP3    H244093   2.019   3.393   0.205 -1.1218  2.5242 -0.5046
 7560TIP3   OH244094   4.666   5.093   5.150 -0.6462 -0.0271 -0.3652
 7560TIP3    H144095   4.653   5.185   5.125  1.8629  0.4673  0.0478
 7560TIP3    H244096   4.653   5.093   5.245 -0.2799 -0.0189 -0.3142
 7561TIP3   OH244097   0.657   5.151   0.361 -0.6276 -0.3743 -0.0874
 7561TIP3    H144098   0.701   5.236   0.370 -1.9970  0.2959  0.3858
 7561TIP3    H244099   0.713   5.091   0.410 -1.5419  0.9491  2.7236
 7562TIP3   OH244100   1.360   4.089   5.668  0.4143  0.1740 -0.0678
 7562TIP3    H144101   1.318   4.163   5.624  2.0502  0.5102 -1.1230
 7562TIP3    H244102   1.343   4.104   5.761 -0.5475  1.0669 -0.3767
 7563TIP3   OH244103   6.008   5.068  13.825  0.0977  0.1944  0.5682
 7563TIP3    H144104   6.072   5.074  13.896  2.6203  0.2310 -1.6098
 7563TIP3    H244105   5.970   4.981  13.833  2.7723 -1.0788  0.0513
 7564TIP3   OH244106   6.574   2.951   5.237  0.3271 -0.0716 -0.1952
 7564TIP3    H144107   6.626   2.960   5.157 -0.1637  1.1359 -0.3857
 7564TIP3    H244108   6.637   2.925   5.304  1.2827  1.7945 -0.3226
 7565TIP3   OH244109   1.979   1.071   4.395  0.1867  0.0336  0.5361
 7565TIP3    H144110   2.068   1.104   4.409  0.3666 -0.9527  1.8675
 7565TIP3    H244111   1.991   0.991   4.343  0.4259 -2.0444  3.6429
 7566TIP3   OH244112   4.884   4.679   5.953 -0.6528  0.1975 -0.3659
 7566TIP3    H144113   4.923   4.634   6.028 -1.4210  0.1696  0.0169
 7566TIP3    H244114   4.790   4.673   5.967 -0.8006  0.3435 -1.2473
 7567TIP3   OH244115   5.085   6.500   6.108  0.2898 -0.8018  0.2192
 7567TIP3    H144116   5.057   6.408   6.109 -0.5802 -0.5497 -0.6986
 7567TIP3    H244117   5.026   6.544   6.169  0.5548 -0.8053  0.4790
 7568TIP3   OH244118   3.402   4.170   2.751 -0.3683 -0.2737 -0.5414
 7568TIP3    H144119   3.322   4.138   2.792 -0.4873 -0.0686 -0.6119
 7568TIP3    H244120   3.376   4.250   2.705 -0.2552 -0.5515 -1.0949
 7569TIP3   OH244121   6.500   0.392   2.835 -0.1356  0.4042 -0.1156
 7569TIP3    H144122   6.469   0.301   2.844  2.4682 -0.5931 -0.8700
 7569TIP3    H244123   6.489   0.412   2.742  1.9869 -0.1828 -0.5190
 7570TIP3   OH244124   2.890   1.966  13.262 -0.3392  0.1336 -0.3599
 7570TIP3    H144125   2.963   1.969  13.201 -0.9468 -1.9031 -1.2392
 7570TIP3    H244126   2.912   2.030  13.330  2.8994 -1.4049  0.1199
 7571TIP3   OH244127   5.511   6.082   5.247  0.1099 -0.4934  0.3032
 7571TIP3    H144128   5.589   6.059   5.197  1.0596  1.6749  0.7119
 7571TIP3    H244129   5.540   6.152   5.306 -1.4869 -1.5312  2.4028
 7572TIP3   OH244130   2.313   1.246  16.816 -0.2250 -0.4765  0.4786
 7572TIP3    H144131   2.245   1.312  16.824  1.1114  0.9388  0.3122
 7572TIP3    H244132   2.311   1.219  16.724  0.4350  0.6692  0.1144
 7573TIP3   OH244133   0.945   6.093  14.345  0.1460 -0.1006  0.2403
 7573TIP3    H144134   0.951   6.003  14.375  1.3147 -0.6192 -1.5137
 7573TIP3    H244135   1.009   6.141  14.399  1.2079 -0.7602 -0.4159
 7574TIP3   OH244136   5.126   3.597  11.633 -0.4193 -0.1183  0.0998
 7574TIP3    H144137   5.163   3.521  11.588 -0.8268  0.1876 -0.7570
 7574TIP3    H244138   5.133   3.668  11.570 -3.0984 -0.2116 -0.3454
 7575TIP3   OH244139   3.328   1.144   3.249  0.3272 -0.0399 -0.1765
 7575TIP3    H144140   3.416   1.126   3.284  0.2049 -0.1287  0.0837
 7575TIP3    H244141   3.275   1.070   3.277  0.0621  0.2309  0.0459
 7576TIP3   OH244142   0.386   5.439  12.094  0.3762 -0.2771 -0.3636
 7576TIP3    H144143   0.297   5.464  12.118  0.5197  0.4300 -0.5561
 7576TIP3    H244144   0.420   5.514  12.044  2.1332  0.7371  2.2491
 7577TIP3   OH244145   1.580   4.611  15.257  0.7757 -0.7102  0.7200
 7577TIP3    H144146   1.570   4.605  15.352 -0.1048 -1.8456  0.5637
 7577TIP3    H244147   1.665   4.570  15.239  1.0966 -0.1920  1.0428
 7578TIP3   OH244148   2.077   5.770   2.089 -0.9302  0.5798 -0.0037
 7578TIP3    H144149   1.987   5.737   2.081 -1.2232  0.5655  2.9007
 7578TIP3    H244150   2.121   5.708   2.146  0.3196  1.7799  0.3777
 7579TIP3   OH244151   2.873   3.390  13.169 -0.7072  1.0068 -0.1460
 7579TIP3    H144152   2.871   3.334  13.092 -0.6137 -0.0114  0.5738
 7579TIP3    H244153   2.964   3.383  13.201 -1.5262 -1.1473  1.8768
 7580TIP3   OH244154   0.172   5.629  15.820  0.2222 -0.3226 -0.2020
 7580TIP3    H144155   0.182   5.587  15.905  0.1527  2.9084  1.4702
 7580TIP3    H244156   0.261   5.657  15.796 -0.1327  1.0219  0.0257
 7581TIP3   OH244157   2.402   4.611   2.107  0.3133  0.1485 -0.1178
 7581TIP3    H144158   2.310   4.634   2.098 -0.2854 -1.2098  2.0701
 7581TIP3    H244159   2.414   4.537   2.048  0.1704  0.7679 -0.9223
 7582TIP3   OH244160   1.559   1.248   4.205 -0.5474 -0.6022 -0.2214
 7582TIP3    H144161   1.503   1.233   4.281  0.6691  1.6121  1.1766
 7582TIP3    H244162   1.501   1.238   4.130 -1.8478 -2.4920  1.0021
 7583TIP3   OH244163   2.943   3.989  14.138  0.3446  0.3907 -0.6169
 7583TIP3    H144164   2.847   3.989  14.138  0.3324 -1.7058  0.9749
 7583TIP3    H244165   2.967   4.016  14.226  1.1804 -1.5865 -0.2113
 7584TIP3   OH244166   6.169   2.917   1.022 -0.9223 -0.1456  1.0123
 7584TIP3    H144167   6.219   2.928   1.103  1.8736 -0.4250 -0.6191
 7584TIP3    H244168   6.221   2.856   0.970 -1.6263  1.6294 -1.8415
 7585TIP3   OH244169   5.212   6.663   3.405  0.0886  0.1193  0.4347
 7585TIP3    H144170   5.117   6.651   3.412  0.5584 -3.2235  1.5568
 7585TIP3    H244171   5.233   6.636   3.316 -0.1319  2.0530 -0.2343
 7586TIP3   OH244172   5.415   2.090  17.065 -0.1790 -0.0725  0.2657
 7586TIP3    H144173   5.489   2.127  17.112  0.3738  0.3625 -0.9174
 7586TIP3    H244174   5.407   2.145  16.986  0.1923 -1.9769 -1.1398
 7587TIP3   OH244175   3.061   3.903   0.816  0.3022  0.4611 -0.0973
 7587TIP3    H144176   3.061   3.926   0.909  1.3724 -0.5722  0.1689
 7587TIP3    H244177   2.983   3.848   0.806 -0.3328  1.3490 -0.0049
 7588TIP3   OH244178   4.484   4.454  15.951  0.0139  0.1376 -0.3689
 7588TIP3    H144179   4.503   4.537  15.908 -3.1180  0.9868 -0.2397
 7588TIP3    H244180   4.538   4.455  16.030 -0.2604  2.2091 -0.1940
 7589TIP3   OH244181   5.300   1.379   0.098 -0.1644  0.1157 -0.5639
 7589TIP3    H144182   5.338   1.462   0.125 -0.9076  0.0471  0.7314
 7589TIP3    H244183   5.282   1.390   0.005  2.1804  0.4608 -0.9950
 7590TIP3   OH244184   2.526   4.882  15.971  0.2060 -0.0074  0.2615
 7590TIP3    H144185   2.463   4.832  16.022  0.5778 -3.4167 -2.4524
 7590TIP3    H244186   2.473   4.929  15.906  0.1809 -0.1906  0.1482
 7591TIP3   OH244187   3.365   6.726   6.354  0.1716  0.0767  0.3192
 7591TIP3    H144188   3.275   6.748   6.378  0.2944  0.3216  0.5574
 7591TIP3    H244189   3.364   6.631   6.340 -0.5627  0.3567 -1.6096
 7592TIP3   OH244190   2.336   3.868  15.445  0.2291  0.2255  0.3757
 7592TIP3    H144191   2.349   3.922  15.367  1.6045  0.8231  0.9938
 7592TIP3    H244192   2.413   3.886  15.499 -0.6627 -0.2558  1.8299
 7593TIP3   OH244193   5.925   4.939  14.188 -0.0000 -0.6777 -0.0652
 7593TIP3    H144194   5.981   5.012  14.215 -2.5011  1.4223 -0.3584
 7593TIP3    H244195   5.968   4.904  14.110  2.1595 -0.6705  1.0769
 7594TIP3   OH244196   2.302   5.257   0.448  0.0509 -0.7617  0.4244
 7594TIP3    H144197   2.255   5.175   0.436 -1.9211  0.2545  0.8818
 7594TIP3    H244198   2.249   5.322   0.403  1.2768  0.3639  0.5576
 7595TIP3   OH244199   4.269   5.403   3.882 -0.4148  0.1027  0.4051
 7595TIP3    H144200   4.262   5.386   3.788  0.4892 -0.3862  0.4180
 7595TIP3    H244201   4.363   5.404   3.899 -0.5554  0.9636  1.1653
 7596TIP3   OH244202   3.066   5.851   1.099  0.1904  0.1678  0.5992
 7596TIP3    H144203   3.124   5.906   1.152  2.0673 -1.7297  0.5574
 7596TIP3    H244204   3.092   5.870   1.009  1.2169 -1.1692  0.6035
 7597TIP3   OH244205   4.858   1.883   6.670  0.4432  0.2753  0.0816
 7597TIP3    H144206   4.842   1.943   6.744  0.8668  1.8237 -1.0702
 7597TIP3    H244207   4.779   1.828   6.667  0.3298  0.3302  1.5491
 7598TIP3   OH244208   4.594   5.661   5.747  0.1609  0.5482 -0.2921
 7598TIP3    H144209   4.555   5.700   5.825  1.6351 -0.8715  1.2055
 7598TIP3    H244210   4.528   5.673   5.678 -2.0696 -0.0311  1.6660
 7599TIP3   OH244211   5.303   6.171  16.560  0.6597 -0.0357 -0.1625
 7599TIP3    H144212   5.337   6.166  16.471  1.2245  0.6833  0.0123
 7599TIP3    H244213   5.375   6.206  16.612  0.5972 -1.1990  0.7262
 7600TIP3   OH244214   2.531   0.963  12.254 -0.0396  0.4525 -0.5129
 7600TIP3    H144215   2.543   1.014  12.333  3.3579 -0.7436 -0.1944
 7600TIP3    H244216   2.528   0.872  12.284  1.1581  0.0003 -1.7234
 7601TIP3   OH244217   5.746   2.835   1.192  0.0772 -0.3939 -0.1915
 7601TIP3    H144218   5.682   2.766   1.210 -0.3614 -0.5636 -2.2555
 7601TIP3    H244219   5.715   2.875   1.110  2.7259 -0.5959 -1.3271
 7602TIP3   OH244220   0.617   0.748  11.797 -0.3707 -0.2913 -0.4324
 7602TIP3    H144221   0.543   0.692  11.774 -1.1247  0.8590 -0.8887
 7602TIP3    H244222   0.657   0.771  11.713 -0.8637  0.8937 -0.3603
 7603TIP3   OH244223   0.303   3.201   3.318  0.3187 -0.3554  0.0198
 7603TIP3    H144224   0.251   3.174   3.394 -1.1484 -0.1288 -0.8733
 7603TIP3    H244225   0.359   3.126   3.299 -0.7797 -1.2003  0.0820
 7604TIP3   OH244226   4.906   0.272  10.629 -0.2810  0.2168 -0.0130
 7604TIP3    H144227   4.937   0.361  10.619  0.6127 -0.0060  0.7411
 7604TIP3    H244228   4.959   0.235  10.700 -2.6466  0.0340  1.7488
 7605TIP3   OH244229   3.624   0.366   1.145 -0.4505  0.1683  0.3496
 7605TIP3    H144230   3.640   0.295   1.084  1.5841  0.3677  0.6199
 7605TIP3    H244231   3.569   0.428   1.096 -1.0062 -0.8860 -0.3685
 7606TIP3   OH244232   0.607   1.109  13.888 -0.1847 -0.2429  0.6485
 7606TIP3    H144233   0.556   1.081  13.812 -0.1346 -0.4634  0.6937
 7606TIP3    H244234   0.572   1.058  13.961  0.4535 -0.7877  0.5786
 7607TIP3   OH244235   4.337   5.339   0.437  0.1100  0.0830  0.2890
 7607TIP3    H144236   4.317   5.260   0.387 -0.3172  1.3152 -1.5081
 7607TIP3    H244237   4.421   5.369   0.403  0.5666  0.0883  1.3897
 7608TIP3   OH244238   2.441   0.154  13.191 -0.4198  0.2421  0.3564
 7608TIP3    H144239   2.413   0.219  13.256 -1.7535  0.5236 -0.4780
 7608TIP3    H244240   2.373   0.087  13.194  0.2997 -0.4979  0.3041
 7609TIP3   OH244241   0.441   5.240   5.262  0.3020  0.3931  0.5778
 7609TIP3    H144242   0.348   5.221   5.274  0.2246  0.2201 -0.2487
 7609TIP3    H244243   0.443   5.318   5.206  0.6422 -0.5766 -0.8045
 7610TIP3   OH244244   4.977   2.479   1.054  0.0278  0.3893  0.5107
 7610TIP3    H144245   5.000   2.475   1.147 -0.4249  1.9440  0.7044
 7610TIP3    H244246   5.054   2.516   1.011  0.2439 -0.3451  0.2645
 7611TIP3   OH244247   0.086   0.960   4.291 -0.3105 -0.1643 -0.2033
 7611TIP3    H144248   0.044   1.044   4.312  2.7132  1.3792 -0.0113
 7611TIP3    H244249   0.082   0.910   4.372 -3.0208 -0.6400 -0.5883
 7612TIP3   OH244250   4.930   5.858  10.567  0.0914 -0.3781 -0.2395
 7612TIP3    H144251   4.998   5.864  10.634 -0.2960  0.0557  0.1195
 7612TIP3    H244252   4.943   5.772  10.527  0.9414 -0.2353 -0.2721
 7613TIP3   OH244253   5.379   0.933  15.104  0.3679  0.3478  0.0928
 7613TIP3    H144254   5.407   0.943  15.195 -0.5315 -2.1422  0.6922
 7613TIP3    H244255   5.454   0.964  15.053  2.3130 -1.4848  1.6800
 7614TIP3   OH244256   6.122   4.385  14.627  0.5232  0.6908 -0.8762
 7614TIP3    H144257   6.139   4.453  14.562  0.2789  1.8739  0.2754
 7614TIP3    H244258   6.174   4.410  14.704 -2.4356  1.6537  0.8971
 7615TIP3   OH244259   5.022   0.410  13.301  0.1287 -0.2515  0.4561
 7615TIP3    H144260   5.042   0.370  13.386  1.7982  0.7944  0.5702
 7615TIP3    H244261   5.048   0.345  13.236 -0.9752 -0.9774  0.7230
 7616TIP3   OH244262   6.532   0.058  14.871  0.1523 -0.1488  0.0186
 7616TIP3    H144263   6.453   0.014  14.837  0.9383 -0.4003 -1.5547
 7616TIP3    H244264   6.546   0.018  14.956 -1.5811  0.0990  0.4512
 7617TIP3   OH244265   1.477   0.181   5.320 -0.3829  0.2419  0.6938
 7617TIP3    H144266   1.405   0.131   5.358 -0.9724  1.1005  0.7280
 7617TIP3    H244267   1.464   0.175   5.226  2.0282 -3.2958  0.4603
 7618TIP3   OH244268   5.784   6.030  12.455  0.0858  0.6468  0.1265
 7618TIP3    H144269   5.703   6.034  12.505 -0.8189  1.0766 -1.3325
 7618TIP3    H244270   5.800   5.936  12.443 -0.2448  0.5622  0.3322
 7619TIP3   OH244271   0.419   3.167  17.197 -0.1204 -0.1027 -0.4307
 7619TIP3    H144272   0.342   3.124  17.233  1.7326 -2.2587  1.1137
 7619TIP3    H244273   0.409   3.259  17.221 -1.6570 -0.5470  0.6823
 7620TIP3   OH244274   6.323   5.491  13.984  0.0203 -0.3160 -0.2707
 7620TIP3    H144275   6.324   5.574  13.935 -0.4544  0.4285  0.9597
 7620TIP3    H244276   6.397   5.442  13.949  0.4534  0.7235 -0.8383
 7621TIP3   OH244277   3.828   2.491   0.225  0.5056  0.1061  0.0686
 7621TIP3    H144278   3.898   2.549   0.255 -1.0234  1.4051  1.1916
 7621TIP3    H244279   3.819   2.511   0.132  2.2319 -0.7337 -0.2996
 7622TIP3   OH244280   0.637   2.030  10.858 -0.0106  0.2661 -0.5764
 7622TIP3    H144281   0.628   1.942  10.894  1.7525  1.3770  2.7200
 7622TIP3    H244282   0.559   2.076  10.886 -0.1992  0.1990 -0.9883
 7623TIP3   OH244283   3.936   0.147  11.248 -0.8785  0.4490 -0.0945
 7623TIP3    H144284   4.024   0.184  11.244 -0.7478  0.0994 -0.4798
 7623TIP3    H244285   3.880   0.215  11.209 -0.6921  0.3998 -0.4500
 7624TIP3   OH244286   0.311   4.378  14.528  0.0019 -0.1854  0.2732
 7624TIP3    H144287   0.353   4.443  14.584  1.3241 -0.7005 -0.1066
 7624TIP3    H244288   0.320   4.296  14.576  0.8832 -0.5788 -0.5538
 7625TIP3   OH244289   3.955   1.656   6.045 -0.1106  0.0940  0.9360
 7625TIP3    H144290   3.977   1.720   6.113 -1.2764  0.1246  1.3022
 7625TIP3    H244291   3.899   1.592   6.090 -2.2092  0.9637 -0.3577
 7626TIP3   OH244292   0.873   4.486  16.902 -0.2289  0.1014 -0.3726
 7626TIP3    H144293   0.886   4.399  16.940  1.5707  0.4350 -0.1541
 7626TIP3    H244294   0.795   4.520  16.945 -1.8700 -2.0113 -1.6046
 7627TIP3   OH244295   3.456   4.840   0.271 -0.4045 -0.8965  0.5609
 7627TIP3    H144296   3.546   4.856   0.243 -0.1270 -1.6191  1.0255
 7627TIP3    H244297   3.411   4.811   0.191 -0.3825  0.0411  0.1983
 7628TIP3   OH244298   1.499   5.580   5.377 -0.1316  0.1841 -0.0858
 7628TIP3    H144299   1.589   5.599   5.405 -0.4941  0.8442  0.6413
 7628TIP3    H244300   1.493   5.484   5.383 -0.0749  0.2682  1.7760
 7629TIP3   OH244301   1.673   4.894  12.997 -0.5937 -0.1294 -0.8193
 7629TIP3    H144302   1.679   4.897  13.093 -1.6042  1.9891 -0.7738
 7629TIP3    H244303   1.759   4.863  12.968 -0.1589 -0.4558  0.7523
 7630TIP3   OH244304   6.677   6.319  11.115  0.4121  0.6193  0.5488
 7630TIP3    H144305   6.759   6.338  11.070  0.9652 -2.2080  0.3037
 7630TIP3    H244306   6.703   6.295  11.204 -0.2935  1.3662  0.9605
 7631TIP3   OH244307   3.320   6.406  17.147 -0.3482 -0.2977  0.3528
 7631TIP3    H144308   3.259   6.408  17.074  1.7093 -0.2027 -1.4021
 7631TIP3    H244309   3.277   6.456  17.216 -1.6110  1.0091 -1.3537
 7632TIP3   OH244310   3.345   0.334  12.737 -0.7787  0.1430 -0.4724
 7632TIP3    H144311   3.333   0.426  12.760 -0.2140  0.0850  0.0602
 7632TIP3    H244312   3.432   0.330  12.697 -0.7048 -0.2037 -0.2771
 7633TIP3   OH244313   1.250   5.996  15.846  0.3875  0.1192  0.2815
 7633TIP3    H144314   1.338   6.019  15.875  0.4470  1.7145 -1.0674
 7633TIP3    H244315   1.263   5.937  15.772  0.2491 -2.6219  2.3552
 7634TIP3   OH244316   2.802   1.160   4.394 -0.0779 -0.6004  0.4765
 7634TIP3    H144317   2.867   1.132   4.459  0.2408 -0.9647  0.0044
 7634TIP3    H244318   2.781   1.250   4.419  0.9536 -0.3185  0.3610
 7635TIP3   OH244319   4.573   2.050  12.015  0.1536  0.2584  0.0361
 7635TIP3    H144320   4.605   2.054  11.925  0.4317 -0.5305  0.0918
 7635TIP3    H244321   4.603   2.132  12.055 -0.1254  0.6881 -0.6347
 7636TIP3   OH244322   4.872   2.370   1.900  0.1097 -0.2298  0.3313
 7636TIP3    H144323   4.849   2.356   1.808 -0.7256 -0.5258  0.5767
 7636TIP3    H244324   4.961   2.338   1.908  0.1260 -0.3651 -0.3409
 7637TIP3   OH244325   5.367   3.422   3.658 -0.3190  0.7266  0.6107
 7637TIP3    H144326   5.449   3.432   3.610  0.4684  1.6793  2.1199
 7637TIP3    H244327   5.311   3.370   3.600  0.0351  3.1994 -2.0140
 7638TIP3   OH244328   4.420   4.924  13.112  0.0199 -0.2073  0.1068
 7638TIP3    H144329   4.396   4.893  13.200  0.3718  0.1887  0.3426
 7638TIP3    H244330   4.365   5.001  13.098  1.4536  0.9736  0.8357
 7639TIP3   OH244331   4.872   1.144   6.733  0.0346 -0.1358 -0.6051
 7639TIP3    H144332   4.869   1.138   6.828 -0.8047 -0.5103 -0.6505
 7639TIP3    H244333   4.891   1.055   6.704 -0.4607 -0.1771 -0.8116
 7640TIP3   OH244334   6.610   2.750  12.015  0.1252 -0.9321 -0.3995
 7640TIP3    H144335   6.671   2.823  12.001 -0.8441 -0.0793 -0.2146
 7640TIP3    H244336   6.524   2.791  12.020 -0.2525 -1.8931  1.4534
 7641TIP3   OH244337   0.890   6.107  12.893  0.1478  0.6450  0.1764
 7641TIP3    H144338   0.797   6.093  12.911  0.3515 -0.9753  0.0981
 7641TIP3    H244339   0.892   6.137  12.802 -0.4505  3.0534  0.9181
 7642TIP3   OH244340   3.563   1.399  15.121  0.0242  0.1289 -0.3649
 7642TIP3    H144341   3.605   1.404  15.035 -0.3422 -1.1654 -0.6214
 7642TIP3    H244342   3.545   1.490  15.143 -3.1722  0.3262 -3.3032
 7643TIP3   OH244343   3.261   1.290   2.232 -0.4462  0.5147  0.1597
 7643TIP3    H144344   3.235   1.208   2.189 -1.2464  0.0392  1.5050
 7643TIP3    H244345   3.290   1.263   2.319 -1.0392  1.6915  0.7363
 7644TIP3   OH244346   1.551   6.075   6.714 -0.5160  0.3084  0.0672
 7644TIP3    H144347   1.628   6.127   6.692 -0.5042  0.4516  0.4517
 7644TIP3    H244348   1.573   6.034   6.798 -0.7085  0.0473 -0.0070
 7645TIP3   OH244349   3.732   6.236   3.400  0.0304 -0.0255  0.4240
 7645TIP3    H144350   3.659   6.175   3.406  0.0467 -0.0397  0.4812
 7645TIP3    H244351   3.810   6.180   3.396 -0.1352 -0.0855 -2.7056
 7646TIP3   OH244352   4.190   4.833   0.075 -0.0334  0.0394  0.2691
 7646TIP3    H144353   4.137   4.913   0.081  0.1324  0.1970 -0.3634
 7646TIP3    H244354   4.248   4.848   0.001  0.6891 -0.2638  0.7694
 7647TIP3   OH244355   0.929   2.763  16.281 -0.5357  0.5389  0.2162
 7647TIP3    H144356   0.883   2.810  16.351 -2.2303  0.8101 -1.0537
 7647TIP3    H244357   0.983   2.699  16.328  0.9208  2.9319  1.9106
 7648TIP3   OH244358   2.156   6.291  12.229  0.5270 -0.9672 -0.3485
 7648TIP3    H144359   2.075   6.330  12.262 -0.2629 -2.3911 -0.5544
 7648TIP3    H244360   2.220   6.362  12.233 -1.6032  1.3325 -3.7145
 7649TIP3   OH244361   6.206   3.713  14.167 -0.8544 -0.0801  0.2513
 7649TIP3    H144362   6.243   3.778  14.108  2.2801  0.1943  2.4028
 7649TIP3    H244363   6.112   3.726  14.162 -0.4776  1.8754 -2.4249
 7650TIP3   OH244364   1.072   3.810  11.259  0.3086 -0.1976  0.0160
 7650TIP3    H144365   1.028   3.734  11.298 -1.0509  0.5831  0.0153
 7650TIP3    H244366   1.068   3.793  11.165 -1.6367  0.7439 -0.0931
 7651TIP3   OH244367   2.520   0.525  12.718 -0.2633  0.2758  0.4240
 7651TIP3    H144368   2.523   0.585  12.793  2.5532  0.5286  0.1882
 7651TIP3    H244369   2.545   0.440  12.755 -0.2057  0.1182  0.0256
 7652TIP3   OH244370   0.634   3.207  12.629  0.3118 -0.3862  0.3019
 7652TIP3    H144371   0.655   3.286  12.579  0.9886 -0.8816 -0.2148
 7652TIP3    H244372   0.545   3.184  12.603  0.8376 -0.9120 -1.0388
 7653TIP3   OH244373   3.006   2.580  11.146  0.7843  0.3650 -0.3263
 7653TIP3    H144374   3.077   2.533  11.102  0.3585 -0.2908 -0.3130
 7653TIP3    H244375   2.948   2.608  11.076 -0.3087 -1.3621 -0.1464
 7654TIP3   OH244376   2.880   0.187  17.094  0.3017 -0.8110 -0.1177
 7654TIP3    H144377   2.932   0.157  17.019  0.5879  0.2390 -0.3405
 7654TIP3    H244378   2.821   0.253  17.058 -0.3419 -1.1028  0.3753
 7655TIP3   OH244379   4.274   0.186  12.833  0.2211  0.3019  0.2134
 7655TIP3    H144380   4.316   0.119  12.887  2.4751  0.2188 -1.5670
 7655TIP3    H244381   4.192   0.146  12.804 -0.3164 -0.1949  2.3059
 7656TIP3   OH244382   0.943   3.234  14.898  0.3219 -0.2996 -0.1934
 7656TIP3    H144383   0.927   3.322  14.932  0.9269  0.4002 -1.6844
 7656TIP3    H244384   1.020   3.204  14.947  0.1283  0.0171  0.3049
 7657TIP3   OH244385   5.853   1.472   3.473  0.0404 -0.1258  0.1680
 7657TIP3    H144386   5.920   1.425   3.424 -0.9549 -0.3065 -1.0467
 7657TIP3    H244387   5.848   1.426   3.557  1.2758 -0.2362  0.1859
 7658TIP3   OH244388   5.776   6.448  14.547  0.4540 -0.6385  0.4169
 7658TIP3    H144389   5.757   6.517  14.611  1.7885  0.6428 -0.5128
 7658TIP3    H244390   5.696   6.441  14.495  1.0576  1.9641 -1.0048
 7659TIP3   OH244391   6.745   3.422   0.247 -0.1090  0.1655 -0.0356
 7659TIP3    H144392   6.756   3.328   0.260  1.3418  0.0531 -1.9767
 7659TIP3    H244393   6.650   3.436   0.256 -0.3864 -1.5197 -0.1063
 7660TIP3   OH244394   0.545   1.239  12.638 -0.0171 -0.1819  0.1832
 7660TIP3    H144395   0.507   1.161  12.679 -1.4064 -0.5001 -1.6393
 7660TIP3    H244396   0.481   1.309  12.655  0.0956  0.0199 -0.2143
 7661TIP3   OH244397   0.300   6.156   3.955 -0.4921 -0.4131  0.1022
 7661TIP3    H144398   0.261   6.082   3.909 -0.5075  0.3711 -1.1664
 7661TIP3    H244399   0.359   6.116   4.020 -0.1071 -1.5296 -0.9180
 7662TIP3   OH244400   2.917   1.482   0.413  0.0142 -0.6156  0.0438
 7662TIP3    H144401   3.004   1.471   0.375  0.5481  0.5864  0.8623
 7662TIP3    H244402   2.919   1.570   0.452 -1.5665 -0.5662  0.0663
 7663TIP3   OH244403   1.542   3.787   2.842 -0.7776  0.3810 -0.4478
 7663TIP3    H144404   1.564   3.822   2.928 -1.7808  0.3973 -0.1981
 7663TIP3    H244405   1.618   3.808   2.788  0.4737 -0.8564  0.7678
 7664TIP3   OH244406   4.751   2.005   2.051 -0.2712 -0.1771  0.2943
 7664TIP3    H144407   4.674   2.052   2.017 -1.1565 -1.5371  0.3470
 7664TIP3    H244408   4.714   1.940   2.111  0.8325 -1.6457 -0.5956
 7665TIP3   OH244409   2.848   0.107   5.256 -0.1030 -0.5953  0.2304
 7665TIP3    H144410   2.922   0.050   5.277  0.8673  1.0528  1.4625
 7665TIP3    H244411   2.886   0.174   5.199 -0.9044 -0.4128 -0.0864
 7666TIP3   OH244412   2.537   5.577  13.008  0.5999  0.5383 -0.4483
 7666TIP3    H144413   2.474   5.589  13.079  0.2350 -2.2671 -0.2434
 7666TIP3    H244414   2.488   5.600  12.929  0.1321  0.9127 -0.0543
 7667TIP3   OH244415   2.208   6.279   2.174 -0.0193 -0.4781 -0.2685
 7667TIP3    H144416   2.133   6.264   2.117  0.6403 -0.3786 -1.1777
 7667TIP3    H244417   2.273   6.321   2.117  0.7264 -0.5700  0.5077
 7668TIP3   OH244418   5.546   3.611   0.146  0.0419  0.5143  0.0475
 7668TIP3    H144419   5.484   3.637   0.077 -0.1019  0.4546  0.1526
 7668TIP3    H244420   5.548   3.515   0.140 -2.4009  0.2562  2.1936
 7669TIP3   OH244421   4.228   2.094  11.447  0.4501 -0.2577 -0.0465
 7669TIP3    H144422   4.185   2.144  11.516  0.1401  0.0365 -0.4519
 7669TIP3    H244423   4.274   2.159  11.394  1.1585 -0.5374  0.2097
 7670TIP3   OH244424   3.829   4.558  12.450 -0.3720  0.0253  0.3697
 7670TIP3    H144425   3.860   4.644  12.479  1.9018 -0.8873  0.7659
 7670TIP3    H244426   3.737   4.555  12.477 -0.1841  1.9213  1.2861
 7671TIP3   OH244427   2.778   4.900  15.997  0.1068  0.1053  0.6388
 7671TIP3    H144428   2.807   4.991  15.990 -0.9117  0.5670  2.1331
 7671TIP3    H244429   2.690   4.899  15.958  0.7431 -0.5919 -0.8342
 7672TIP3   OH244430   5.291   2.378  16.703 -0.1886  0.2036  0.3005
 7672TIP3    H144431   5.302   2.347  16.793  0.4267 -1.4798 -0.3328
 7672TIP3    H244432   5.198   2.366  16.685 -0.0838 -0.6908  0.2975
 7673TIP3   OH244433   0.738   2.514  15.106  0.3856  0.5325  0.1394
 7673TIP3    H144434   0.677   2.533  15.034 -0.2943 -2.6654 -0.2388
 7673TIP3    H244435   0.682   2.501  15.182  0.8415  0.6754  0.4979
 7674TIP3   OH244436   1.880   0.534   2.858 -0.5550 -0.2487  0.4153
 7674TIP3    H144437   1.901   0.483   2.780 -0.9427 -0.7881  0.6651
 7674TIP3    H244438   1.864   0.623   2.825  1.0082 -0.0667  0.0891
 7675TIP3   OH244439   4.952   5.492  13.141  0.1328 -0.3329 -0.1025
 7675TIP3    H144440   4.906   5.411  13.164 -1.0915  0.1141 -0.9178
 7675TIP3    H244441   5.036   5.462  13.105 -1.1138 -1.3595 -2.2441
 7676TIP3   OH244442   6.317   2.903   5.299  0.2251 -0.3433  0.2210
 7676TIP3    H144443   6.298   2.810   5.295  0.6086 -0.3687 -1.1674
 7676TIP3    H244444   6.407   2.911   5.266 -0.4043  0.6941 -1.2613
 7677TIP3   OH244445   3.819   3.312   0.536 -0.0248 -0.1931  0.0603
 7677TIP3    H144446   3.848   3.390   0.584 -0.2878  0.1989 -0.4100
 7677TIP3    H244447   3.828   3.240   0.599  0.7636  0.1249  0.3183
 7678TIP3   OH244448   1.277   4.656   1.149  0.1889 -0.2686 -0.3460
 7678TIP3    H144449   1.189   4.680   1.118 -0.1636 -0.6280  0.3549
 7678TIP3    H244450   1.264   4.572   1.194  1.2039 -1.2150 -1.7966
 7679TIP3   OH244451   0.783   6.545  16.608  0.4427 -0.2249  0.2220
 7679TIP3    H144452   0.757   6.611  16.543  0.2062  0.6321  1.1729
 7679TIP3    H244453   0.877   6.537  16.597 -0.0253 -2.8516 -2.7988
 7680TIP3   OH244454   4.150   3.893  13.929  0.2009 -0.6758 -0.1455
 7680TIP3    H144455   4.201   3.956  13.878  0.5027 -0.8851 -0.1088
 7680TIP3    H244456   4.130   3.938  14.011  1.2602 -0.9761  0.2826
 7681TIP3   OH244457   2.057   4.520  14.064 -0.7579 -0.1932 -0.5513
 7681TIP3    H144458   2.013   4.439  14.041 -0.7763 -0.1952 -0.5101
 7681TIP3    H244459   1.987   4.577  14.096 -0.7248 -0.2076 -0.4542
 7682TIP3   OH244460   2.222   6.054  14.346  0.0609 -0.0555  0.8857
 7682TIP3    H144461   2.150   6.111  14.374  1.0961  1.9571 -0.4430
 7682TIP3    H244462   2.298   6.112  14.341  0.9532 -1.3731 -1.3907
 7683TIP3   OH244463   5.879   2.814   2.532  0.0865  0.3002 -0.2793
 7683TIP3    H144464   5.806   2.784   2.478  0.4303  0.3092 -0.7546
 7683TIP3    H244465   5.897   2.741   2.591  0.3874 -0.1179 -0.8822
 7684TIP3   OH244466   1.874   5.027   0.414  0.7456  0.0055 -0.1450
 7684TIP3    H144467   1.891   4.938   0.384 -0.9830  0.0549 -1.3573
 7684TIP3    H244468   1.872   5.080   0.335 -1.4775  0.5443  0.2270
 7685TIP3   OH244469   5.753   1.835  11.048 -0.3902  0.3048  0.3106
 7685TIP3    H144470   5.683   1.770  11.057 -2.2154  2.3861  1.6085
 7685TIP3    H244471   5.718   1.899  10.986  0.1375  1.6418  1.3795
 7686TIP3   OH244472   6.003   0.467  16.091  0.0735 -0.3239  0.1004
 7686TIP3    H144473   5.965   0.381  16.071 -1.1732  0.3313 -0.3977
 7686TIP3    H244474   6.097   0.451  16.090 -0.0202 -1.0821 -3.0035
 7687TIP3   OH244475   2.989   0.938   1.903  0.3827  0.2358 -0.6117
 7687TIP3    H144476   3.057   0.873   1.886  1.0738  0.8672 -0.2817
 7687TIP3    H244477   3.036   1.014   1.937 -0.5682  0.3945  0.3874
 7688TIP3   OH244478   4.019   5.167   5.927  0.8702  0.2991 -0.1252
 7688TIP3    H144479   4.058   5.241   5.972  0.2899  1.1592 -1.0324
 7688TIP3    H244480   3.972   5.205   5.853  2.8914 -1.1617 -2.2499
 7689TIP3   OH244481   3.585   5.143  16.909  0.3375 -0.0714  0.1655
 7689TIP3    H144482   3.666   5.170  16.953  1.2430 -0.0397 -1.4680
 7689TIP3    H244483   3.543   5.225  16.884  0.5233 -0.1002 -0.2502
 7690TIP3   OH244484   6.448   0.102  15.466 -0.2494  0.3982 -1.0384
 7690TIP3    H144485   6.463   0.128  15.557 -0.2280  0.7978 -1.1580
 7690TIP3    H244486   6.397   0.173  15.429 -0.4247  0.1409 -1.2864
 7691TIP3   OH244487   5.439   0.114  10.964  0.1936  0.2103 -0.1083
 7691TIP3    H144488   5.361   0.124  11.020  0.6232 -0.9033  0.7052
 7691TIP3    H244489   5.504   0.073  11.021 -0.3501 -3.8995 -2.2342
 7692TIP3   OH244490   1.560   3.998  14.017 -0.1840 -0.1167  0.1825
 7692TIP3    H144491   1.539   3.905  14.022 -2.1936  0.2952 -0.4743
 7692TIP3    H244492   1.501   4.039  14.080  0.2347  0.7893 -0.0137
 7693TIP3   OH244493   2.837   4.516  11.037  0.1909 -0.5319 -0.0711
 7693TIP3    H144494   2.784   4.442  11.008 -1.2247  0.5559 -0.3671
 7693TIP3    H244495   2.895   4.534  10.963  0.2000 -1.0324 -0.1871
 7694TIP3   OH244496   3.791   5.533  14.464 -0.3087  0.1871 -0.9510
 7694TIP3    H144497   3.882   5.506  14.453 -0.2651  0.2741 -0.8096
 7694TIP3    H244498   3.751   5.464  14.517  0.0896  0.9534  0.3835
 7695TIP3   OH244499   2.429   6.460   4.171 -0.1462 -0.0890 -0.0273
 7695TIP3    H144500   2.387   6.380   4.203 -0.1023 -0.3496 -0.6261
 7695TIP3    H244501   2.357   6.523   4.164 -0.1518 -0.0174  0.6218
 7696TIP3   OH244502   4.662   1.747   4.246 -0.6217 -0.5266 -0.1754
 7696TIP3    H144503   4.686   1.833   4.211  1.5335 -0.9731  0.1272
 7696TIP3    H244504   4.743   1.696   4.240 -0.8329 -1.3454  3.2968
 7697TIP3   OH244505   0.450   3.156   4.871  0.3218 -0.3963  0.0844
 7697TIP3    H144506   0.380   3.215   4.844 -0.3575 -1.2791 -0.0955
 7697TIP3    H244507   0.505   3.209   4.929 -0.6398  0.2206  0.4343
 7698TIP3   OH244508   2.935   4.013   0.566 -0.0193 -0.2030 -0.3052
 7698TIP3    H144509   2.938   4.033   0.659 -0.0184  0.0057 -0.3490
 7698TIP3    H244510   2.994   3.939   0.555 -0.4194 -0.5555 -0.0586
 7699TIP3   OH244511   1.946   6.438  16.293 -0.3031 -0.1024  0.4064
 7699TIP3    H144512   1.972   6.355  16.253 -1.5591 -0.4288  0.2511
 7699TIP3    H244513   1.918   6.415  16.382  1.3494  0.4570  1.0945
 7700TIP3   OH244514   6.286   0.017  14.691 -0.1234  0.0895  0.1747
 7700TIP3    H144515   6.281  -0.073  14.722 -1.4245  0.3796  0.8494
 7700TIP3    H244516   6.198   0.052  14.705  0.4262  1.5227  0.1253
 7701TIP3   OH244517   3.143   4.730   1.887 -0.3051  0.0125 -0.5363
 7701TIP3    H144518   3.160   4.796   1.820 -0.8570  1.2191  0.4882
 7701TIP3    H244519   3.059   4.692   1.862  0.2192 -0.6209 -1.3694
 7702TIP3   OH244520   6.184   1.338  15.684 -0.1532  0.2370 -0.8099
 7702TIP3    H144521   6.216   1.325  15.773 -0.3722  1.8065 -0.4948
 7702TIP3    H244522   6.238   1.408  15.648  0.2986 -0.7507 -2.1191
 7703TIP3   OH244523   6.612   2.061  16.391  0.0464  1.0077  0.8223
 7703TIP3    H144524   6.699   2.093  16.368  0.8996 -1.5004  0.4193
 7703TIP3    H244525   6.607   2.071  16.486  1.5491 -0.6418  1.0989
 7704TIP3   OH244526   5.157   4.559   5.926  0.6668 -0.3657  0.0913
 7704TIP3    H144527   5.213   4.599   5.993  0.3251  1.1982 -0.5379
 7704TIP3    H244528   5.068   4.570   5.959  0.3335  2.2845 -1.5441
 7705TIP3   OH244529   5.585   6.019   1.332  0.0011 -0.4001  0.4191
 7705TIP3    H144530   5.670   6.035   1.373 -1.2228  1.1367  2.4260
 7705TIP3    H244531   5.545   5.951   1.387 -1.6068  1.5973  1.7774
 7706TIP3   OH244532   4.264   2.231   3.798 -0.1921  0.5597 -0.5486
 7706TIP3    H144533   4.194   2.282   3.757 -0.3256  1.1099  0.3440
 7706TIP3    H244534   4.300   2.290   3.865 -0.9240 -0.8259  1.0918
 7707TIP3   OH244535   5.495   3.102   1.452  0.6098 -0.6079  0.6269
 7707TIP3    H144536   5.572   3.154   1.474  0.7974 -0.9551  0.8081
 7707TIP3    H244537   5.436   3.113   1.526  0.2282  0.1420  0.2143
 7708TIP3   OH244538   5.793   1.893  16.859 -0.2877 -0.2544 -0.1862
 7708TIP3    H144539   5.715   1.850  16.894 -0.2180 -0.4359 -0.2481
 7708TIP3    H244540   5.859   1.823  16.855 -0.2646 -0.2120 -0.5805
 7709TIP3   OH244541   4.770   3.219  12.382  0.3099 -0.1076 -0.4966
 7709TIP3    H144542   4.738   3.132  12.359 -0.5610  0.2555 -0.7150
 7709TIP3    H244543   4.690   3.272  12.392  0.8742  1.0466 -1.9320
 7710TIP3   OH244544   1.764   0.650  12.252  0.0830  0.1190 -0.1134
 7710TIP3    H144545   1.781   0.723  12.312 -3.7228 -1.0112  2.5872
 7710TIP3    H244546   1.762   0.573  12.309 -0.9252 -1.3933 -2.1396
 7711TIP3   OH244547   2.585   4.194  15.723 -0.3875  0.3277 -0.2888
 7711TIP3    H144548   2.558   4.285  15.713  1.0116  0.6974 -0.8469
 7711TIP3    H244549   2.504   4.144  15.715 -1.4083  1.6112  1.6579
 7712TIP3   OH244550   2.692   0.443   4.942 -0.2494 -0.1136  0.0468
 7712TIP3    H144551   2.670   0.369   4.885 -0.2154 -0.3813  0.3800
 7712TIP3    H244552   2.728   0.509   4.883  0.6183 -0.7333 -0.1156
 7713TIP3   OH244553   5.484   1.525   1.177  0.1161 -0.1087 -0.0160
 7713TIP3    H144554   5.521   1.568   1.099  0.2153 -1.4578 -0.7234
 7713TIP3    H244555   5.410   1.475   1.143 -0.3441 -0.0510  0.8962
 7714TIP3   OH244556   0.200   4.486   3.898  0.0489  0.1970  0.5014
 7714TIP3    H144557   0.106   4.487   3.880  0.2354  0.1317 -0.4870
 7714TIP3    H244558   0.220   4.393   3.912  0.4143 -0.0986 -1.7538
 7715TIP3   OH244559   3.664   0.775  16.535 -0.0304  0.0583  0.7775
 7715TIP3    H144560   3.608   0.818  16.600 -0.4600 -1.0750  1.1721
 7715TIP3    H244561   3.726   0.724  16.587 -1.5741 -2.3814  0.3170
 7716TIP3   OH244562   4.277   5.784   5.891 -0.2007 -0.4814  0.0584
 7716TIP3    H144563   4.314   5.814   5.808  0.4853 -1.5536 -0.0203
 7716TIP3    H244564   4.351   5.744   5.937 -0.6947 -0.3535  0.9691
 7717TIP3   OH244565   1.287   6.257   5.298 -0.1903  0.9030 -0.0942
 7717TIP3    H144566   1.238   6.177   5.278 -1.3991  2.1817 -2.4504
 7717TIP3    H244567   1.364   6.253   5.241  1.2192  0.1052  1.8090
 7718TIP3   OH244568   2.758   2.793  12.417  0.4391  0.4932  0.3258
 7718TIP3    H144569   2.790   2.805  12.328  0.6263  2.5012  0.6400
 7718TIP3    H244570   2.686   2.731  12.409  0.5081  0.6142 -1.2108
 7719TIP3   OH244571   6.511   0.213  16.065  0.6890 -0.4168  0.3003
 7719TIP3    H144572   6.482   0.266  16.139 -1.8569  0.2107 -1.0892
 7719TIP3    H244573   6.444   0.144  16.056  0.0766  0.4306 -2.3223
 7720TIP3   OH244574   0.673   4.110  14.135 -0.2635  0.0893 -0.0763
 7720TIP3    H144575   0.685   4.189  14.083 -0.1581  1.0364  1.3658
 7720TIP3    H244576   0.762   4.083  14.158 -0.3442  0.1143  0.2653
 7721TIP3   OH244577   3.558   2.965   2.353  0.1968 -0.1570 -0.5366
 7721TIP3    H144578   3.490   2.928   2.297 -0.1677 -0.0067 -0.1951
 7721TIP3    H244579   3.550   2.918   2.436  0.3257  0.0571 -0.4003
 7722TIP3   OH244580   6.342   3.489  11.104  0.1774  0.1832 -0.7001
 7722TIP3    H144581   6.301   3.569  11.073 -0.7386 -0.4943 -1.2684
 7722TIP3    H244582   6.406   3.518  11.168 -0.4213  1.3348 -0.6118
 7723TIP3   OH244583   6.440   4.992   4.730  0.0847 -0.4655 -0.0863
 7723TIP3    H144584   6.367   5.047   4.703  0.2757 -0.3151 -0.2881
 7723TIP3    H244585   6.488   4.972   4.650  2.4411  2.5334  0.4840
 7724TIP3   OH244586   0.850   4.051   2.919 -0.3629  0.5209  0.1342
 7724TIP3    H144587   0.761   4.025   2.897 -0.4568  1.3749 -0.4917
 7724TIP3    H244588   0.851   4.053   3.015 -0.6185 -0.8392  0.1773
 7725TIP3   OH244589   0.451   6.565  13.412  0.2307  0.2135 -0.4398
 7725TIP3    H144590   0.413   6.503  13.350 -0.0978 -0.7613  0.7168
 7725TIP3    H244591   0.434   6.651  13.375  0.2084 -0.3726 -1.7933
 7726TIP3   OH244592   0.728   6.325   6.068 -0.4475  0.1852 -0.1069
 7726TIP3    H144593   0.782   6.276   6.006  0.2957  0.4525  0.3194
 7726TIP3    H244594   0.737   6.277   6.151 -1.8750 -0.4856 -0.3326
 7727TIP3   OH244595   3.850   4.005  13.169 -0.1368 -0.1873  0.5058
 7727TIP3    H144596   3.867   4.073  13.103  0.2251  0.2599  1.0609
 7727TIP3    H244597   3.807   4.051  13.241  0.5875 -0.4447  1.1117
 7728TIP3   OH244598   5.361   3.993  15.213  0.1338 -0.3874 -0.3134
 7728TIP3    H144599   5.341   3.974  15.122  0.4303 -0.5209 -0.3520
 7728TIP3    H244600   5.283   4.037  15.247  0.3560  0.4083 -0.8508
 7729TIP3   OH244601   0.221   3.989   0.640 -0.1408  0.2256 -0.4882
 7729TIP3    H144602   0.252   4.075   0.669  2.6474 -0.7760 -0.2930
 7729TIP3    H244603   0.191   3.945   0.720 -0.9991  0.7818 -0.5012
 7730TIP3   OH244604   0.520   1.875  16.236  0.1613  0.0751  0.5515
 7730TIP3    H144605   0.452   1.931  16.272  0.3929  0.4114  0.4728
 7730TIP3    H244606   0.523   1.800  16.295  0.7335  0.7507  1.4013
 7731TIP3   OH244607   4.767   1.476   0.220  0.1696 -0.1447  0.5192
 7731TIP3    H144608   4.738   1.398   0.266  1.5850 -0.1799  1.3700
 7731TIP3    H244609   4.842   1.448   0.168  0.0554  0.4207  0.0358
 7732TIP3   OH244610   4.370   3.594  16.767  0.0340  0.0305  0.6373
 7732TIP3    H144611   4.373   3.499  16.778  1.0188 -0.3135 -2.1773
 7732TIP3    H244612   4.442   3.626  16.822 -0.0770 -0.8729  1.3297
 7733TIP3   OH244613   1.231   2.885  14.404 -0.2720  0.3136 -0.4006
 7733TIP3    H144614   1.206   2.959  14.460 -3.3455 -1.6562  0.9268
 7733TIP3    H244615   1.287   2.831  14.460  1.1567  1.1041 -1.0490
 7734TIP3   OH244616   2.128   0.467  10.941 -0.0188  0.0152 -0.8108
 7734TIP3    H144617   2.183   0.503  10.872 -0.5343 -0.4455 -1.4690
 7734TIP3    H244618   2.046   0.516  10.935  1.1726  2.4745  1.8177
 7735TIP3   OH244619   4.089   2.018  15.718  0.4631 -0.3362 -0.4767
 7735TIP3    H144620   4.012   1.964  15.735  0.3116 -0.1222 -0.4746
 7735TIP3    H244621   4.056   2.108  15.724  0.6128 -0.2506 -0.9499
 7736TIP3   OH244622   5.540   2.233  12.078  0.0892  0.4745  0.2153
 7736TIP3    H144623   5.493   2.316  12.087  1.6603  1.3968  0.0580
 7736TIP3    H244624   5.608   2.251  12.013  1.3592 -0.5335  1.2476
 7737TIP3   OH244625   3.700   6.687   0.564  0.0016 -0.1927  0.0660
 7737TIP3    H144626   3.623   6.694   0.620 -1.0268 -1.5326 -1.1171
 7737TIP3    H244627   3.713   6.593   0.553  1.2788  0.0286 -0.4844
 7738TIP3   OH244628   5.569   4.321   5.202 -0.0027  0.4518 -0.2592
 7738TIP3    H144629   5.498   4.377   5.234 -0.5755 -1.2989  1.6572
 7738TIP3    H244630   5.648   4.363   5.236 -0.3813  0.4658  0.6379
 7739TIP3   OH244631   6.732   4.375  11.029  0.3470 -0.2914  0.0914
 7739TIP3    H144632   6.673   4.347  11.098 -0.4677  3.3955  1.0192
 7739TIP3    H244633   6.683   4.362  10.948 -1.5362  2.0339  0.7922
 7740TIP3   OH244634   5.527   2.539   3.515 -0.2887 -0.2554  0.2075
 7740TIP3    H144635   5.490   2.466   3.564 -1.2228 -0.2522 -0.4880
 7740TIP3    H244636   5.609   2.505   3.480 -1.0114 -1.1727 -0.6254
 7741TIP3   OH244637   1.498   0.519   2.387  0.4625 -0.3083  0.2288
 7741TIP3    H144638   1.517   0.440   2.437  1.9138  1.4667  2.5760
 7741TIP3    H244639   1.575   0.575   2.398 -0.4390  1.3784 -1.5557
 7742TIP3   OH244640   1.622   0.225  15.202 -0.4777 -0.1180  0.2327
 7742TIP3    H144641   1.682   0.161  15.240  0.0696 -0.1566 -0.6688
 7742TIP3    H244642   1.560   0.245  15.272 -0.7186 -1.6992  0.4912
 7743TIP3   OH244643   0.223   5.948  11.253 -0.1391 -0.4357  0.0792
 7743TIP3    H144644   0.304   5.937  11.203  0.3064  2.0674  0.1920
 7743TIP3    H244645   0.156   5.967  11.188 -0.3499 -1.0645  0.1103
 7744TIP3   OH244646   5.137   1.024   2.339  0.5717 -0.3981 -0.1939
 7744TIP3    H144647   5.180   0.947   2.301 -0.2761 -0.9725 -0.0145
 7744TIP3    H244648   5.126   1.002   2.431  2.1057  0.7585  0.2915
 7745TIP3   OH244649   3.751   6.457   3.017  0.4815  0.2386  0.7503
 7745TIP3    H144650   3.725   6.459   3.109  1.4943 -2.2299  1.1544
 7745TIP3    H244651   3.787   6.369   3.005  0.7076  0.6555 -1.9206
 7746TIP3   OH244652   0.312   2.342   0.368 -0.3133 -0.2155 -0.7486
 7746TIP3    H144653   0.249   2.277   0.337  0.5651 -0.5670 -1.8207
 7746TIP3    H244654   0.314   2.408   0.299  0.9457 -0.5086 -0.9995
 7747TIP3   OH244655   4.269   4.186   5.145 -0.0284 -0.2198  0.0881
 7747TIP3    H144656   4.249   4.223   5.231  2.4090  0.3616  0.4311
 7747TIP3    H244657   4.364   4.174   5.145 -0.2399 -2.3239 -1.6950
 7748TIP3   OH244658   1.025   5.490  16.701 -0.3998 -0.0109 -0.2233
 7748TIP3    H144659   1.045   5.519  16.612  2.6550 -0.2509  0.3491
 7748TIP3    H244660   1.027   5.570  16.753 -1.7019  0.0569 -0.2524
 7749TIP3   OH244661   6.088   5.857   1.482 -0.2247  0.4644 -0.3922
 7749TIP3    H144662   6.028   5.791   1.517 -0.0872 -0.6385 -2.1764
 7749TIP3    H244663   6.171   5.810   1.470 -0.2016  0.8917 -1.9318
 7750TIP3   OH244664   4.385   2.288  14.021  0.2892  0.1552 -0.0799
 7750TIP3    H144665   4.322   2.358  14.039  1.1269  1.7983 -3.1870
 7750TIP3    H244666   4.331   2.210  14.008 -0.8391  0.7481  0.9530
 7751TIP3   OH244667   0.637   1.327  15.584  0.6387 -0.0714  0.4913
 7751TIP3    H144668   0.568   1.312  15.519  0.3366  1.0347  0.5461
 7751TIP3    H244669   0.666   1.239  15.609  0.3479 -0.5154 -0.7000
 7752TIP3   OH244670   1.119   4.717  13.850 -0.4472 -0.6838  0.1574
 7752TIP3    H144671   1.192   4.705  13.789 -1.1100 -0.7578 -0.6356
 7752TIP3    H244672   1.042   4.687  13.801 -1.0712 -0.1802  0.8250
 7753TIP3   OH244673   0.472   1.178  15.096  0.1827  0.0902 -0.0386
 7753TIP3    H144674   0.564   1.194  15.119  0.1022 -0.7830  0.9280
 7753TIP3    H244675   0.475   1.103  15.037  0.0501 -0.2686  0.4086
 7754TIP3   OH244676   4.541   2.995  14.834 -1.0148 -0.5971  0.0199
 7754TIP3    H144677   4.609   2.969  14.896  0.1464 -0.2408 -1.0921
 7754TIP3    H244678   4.459   2.985  14.883 -0.2864 -2.3404  0.9300
 7755TIP3   OH244679   4.848   2.200   2.811  0.7202  0.4019  0.1412
 7755TIP3    H144680   4.840   2.280   2.864  1.3094  0.1972  0.5349
 7755TIP3    H244681   4.932   2.163   2.836  0.6218 -0.1389 -0.3344
 7756TIP3   OH244682   4.989   6.718  13.286 -0.0179 -0.0112  0.4751
 7756TIP3    H144683   4.929   6.782  13.247 -0.0008 -0.1970  0.1475
 7756TIP3    H244684   5.052   6.771  13.335 -1.1611  0.1513  1.8318
 7757TIP3   OH244685   3.881   6.697   0.275  0.2149  0.2571  0.1067
 7757TIP3    H144686   3.790   6.690   0.305  0.0993 -0.0719 -0.3275
 7757TIP3    H244687   3.891   6.789   0.249 -0.2062  0.1197 -0.5392
 7758TIP3   OH244688   2.832   2.618  17.070  0.4834  0.7149  0.2158
 7758TIP3    H144689   2.794   2.533  17.048  2.2591 -0.3953  1.3639
 7758TIP3    H244690   2.758   2.679  17.065 -0.5550 -0.6735 -1.8146
 7759TIP3   OH244691   0.058   4.312   0.117  0.4982  0.0146 -0.1896
 7759TIP3    H144692   0.130   4.352   0.165  0.2938  1.1157 -0.7766
 7759TIP3    H244693   0.036   4.376   0.049  0.1461 -1.0966 -1.1336
 7760TIP3   OH244694   6.277   0.117  15.099  0.7744 -0.3506 -0.5657
 7760TIP3    H144695   6.280   0.170  15.179  0.4540  0.4378 -1.0726
 7760TIP3    H244696   6.345   0.155  15.043  0.3028 -0.2392 -1.0671
 7761TIP3   OH244697   4.138   3.083  13.983 -0.4516  0.2834 -0.4640
 7761TIP3    H144698   4.230   3.094  13.956 -0.6146  0.5016 -0.9327
 7761TIP3    H244699   4.106   3.009  13.932 -0.4497  0.0114 -0.0725
 7762TIP3   OH244700   0.230   6.454   4.449 -0.1460 -0.2400  0.2228
 7762TIP3    H144701   0.282   6.528   4.420  0.6453 -0.8113  0.1841
 7762TIP3    H244702   0.150   6.493   4.485  0.1785  0.6128  0.0136
 7763TIP3   OH244703   1.011   1.063   2.545  0.1023 -0.8183 -0.2036
 7763TIP3    H144704   0.994   1.153   2.517  0.7891 -0.4342  0.5962
 7763TIP3    H244705   1.039   1.018   2.465  0.2157 -0.2044 -0.5140
 7764TIP3   OH244706   1.831   1.362   1.934  0.5827  0.4450  0.0930
 7764TIP3    H144707   1.808   1.418   2.008  0.4131  2.2548 -1.3078
 7764TIP3    H244708   1.896   1.413   1.885  0.4172 -0.5834 -1.2148
 7765TIP3   OH244709   2.474   6.738  14.833 -0.1496 -0.1080 -0.0171
 7765TIP3    H144710   2.480   6.826  14.796 -0.2193 -0.4995 -0.9702
 7765TIP3    H244711   2.548   6.732  14.894 -0.6886  0.9354  0.7565
 7766TIP3   OH244712   4.542   2.034  14.051 -0.1561 -0.5416 -0.0824
 7766TIP3    H144713   4.474   2.094  14.020  0.3735  1.6392  2.7578
 7766TIP3    H244714   4.506   1.996  14.131  0.9489 -1.2966  0.0668
 7767TIP3   OH244715   4.112   6.776   2.056  0.2199 -0.3268  0.4777
 7767TIP3    H144716   4.166   6.801   1.981  1.0039  2.6999  1.9896
 7767TIP3    H244717   4.170   6.783   2.131 -0.9424 -1.9789  1.5432
 7768TIP3   OH244718   2.811   5.036   2.261 -0.0691  0.2682 -0.1143
 7768TIP3    H144719   2.824   4.959   2.206 -0.0643  1.5228 -1.8915
 7768TIP3    H244720   2.721   5.062   2.245 -0.1284  0.5389  0.6342
 7769TIP3   OH244721   5.102   1.192   3.972  0.2172 -0.1534 -0.1429
 7769TIP3    H144722   5.172   1.128   3.961  1.5175  1.2694 -0.3010
 7769TIP3    H244723   5.147   1.275   3.990 -1.4816  0.2642  2.5199
 7770TIP3   OH244724   1.799   0.473   5.047 -0.6041  0.2640  0.8717
 7770TIP3    H144725   1.728   0.538   5.044 -0.9630 -0.1835 -0.7571
 7770TIP3    H244726   1.754   0.388   5.043 -0.1047 -0.1084  2.4971
 7771TIP3   OH244727   2.758   0.121  16.451  0.2333  0.4122 -0.5939
 7771TIP3    H144728   2.792   0.084  16.533 -0.8668 -0.2035 -0.4108
 7771TIP3    H244729   2.708   0.049  16.411 -0.9851  1.3562 -0.7848
 7772TIP3   OH244730   2.413   2.538  13.313 -0.3203  0.0815  0.1838
 7772TIP3    H144731   2.452   2.585  13.387 -0.2156  1.6365 -0.8222
 7772TIP3    H244732   2.431   2.446  13.330 -1.2069  0.3128  2.6329
 7773TIP3   OH244733   6.542   1.102   6.657 -0.6350 -0.5684  0.0058
 7773TIP3    H144734   6.469   1.153   6.692 -0.9433  0.1505 -1.6354
 7773TIP3    H244735   6.524   1.095   6.564  1.6440  0.0621 -0.5104
 7774TIP3   OH244736   5.249   1.605   2.515  0.7756 -0.2412 -0.8225
 7774TIP3    H144737   5.186   1.557   2.569  0.2520 -0.3819 -1.5464
 7774TIP3    H244738   5.324   1.619   2.572 -0.6835  1.6729  0.6814
 7775TIP3   OH244739   5.238   0.482  13.684  0.0290  0.1847 -0.2958
 7775TIP3    H144740   5.281   0.522  13.760 -1.2450  2.2982 -0.6642
 7775TIP3    H244741   5.309   0.467  13.622  0.6190  1.3395  0.0817
 7776TIP3   OH244742   6.529   1.057   6.353 -0.0714  0.0255  0.0630
 7776TIP3    H144743   6.617   1.030   6.328 -0.1763 -0.2703  0.0115
 7776TIP3    H244744   6.483   1.067   6.269  0.1434  0.9573  0.0550
 7777TIP3   OH244745   1.629   5.936   5.256 -0.2956 -0.5327  0.0978
 7777TIP3    H144746   1.641   5.908   5.346  0.2076  0.6509  0.4146
 7777TIP3    H244747   1.647   6.030   5.258 -0.2036 -0.5130 -1.2458
 7778TIP3   OH244748   5.527   0.906   0.168  0.0702 -0.3275 -0.4038
 7778TIP3    H144749   5.470   0.966   0.216 -2.1497 -3.4921  1.1230
 7778TIP3    H244750   5.581   0.865   0.237  0.5143 -1.1563 -1.2374
 7779TIP3   OH244751   3.160   6.563   3.242  0.1253  0.8265  0.7064
 7779TIP3    H144752   3.235   6.617   3.267  0.4623  2.0027 -2.6861
 7779TIP3    H244753   3.144   6.584   3.150 -2.2698 -1.9177  0.4229
 7780TIP3   OH244754   2.044   3.748   5.641  0.4879 -0.1233 -0.3639
 7780TIP3    H144755   1.970   3.700   5.679  0.0085  0.3362 -0.7064
 7780TIP3    H244756   2.120   3.694   5.660  0.1448 -0.3012  0.5476
 7781TIP3   OH244757   0.198   1.332   3.365  0.7388  0.5397 -0.4758
 7781TIP3    H144758   0.149   1.258   3.330  0.8323 -0.4667  1.4722
 7781TIP3    H244759   0.132   1.386   3.409  1.2150 -0.3783  1.4100
 7782TIP3   OH244760   6.296   6.564   0.968 -0.3269 -0.1876 -0.7026
 7782TIP3    H144761   6.342   6.499   0.914 -0.7483 -0.9083 -0.1908
 7782TIP3    H244762   6.356   6.581   1.041 -1.4329 -2.1312  0.6858
 7783TIP3   OH244763   0.284   0.287   4.934 -0.1704  0.1795  0.1174
 7783TIP3    H144764   0.277   0.257   5.025 -1.6398  1.3768  0.4239
 7783TIP3    H244765   0.255   0.379   4.937  1.8697  0.8878 -1.1970
 7784TIP3   OH244766   1.537   5.493  14.310 -0.0206  0.0939  0.1725
 7784TIP3    H144767   1.538   5.477  14.404  0.9498  1.1954  0.3638
 7784TIP3    H244768   1.565   5.584  14.301  2.5906 -0.7966 -1.3226
 7785TIP3   OH244769   1.734   2.610  11.049  0.6167  0.5465  0.4178
 7785TIP3    H144770   1.807   2.555  11.021 -0.0179  0.6159 -1.3921
 7785TIP3    H244771   1.683   2.553  11.108 -0.6592 -1.2373 -2.3227
 7786TIP3   OH244772   6.055   2.720  11.566 -0.2855 -0.3965 -0.0430
 7786TIP3    H144773   6.035   2.718  11.660 -0.0317 -1.1429  0.0013
 7786TIP3    H244774   6.039   2.630  11.537 -1.3667  0.0741 -0.9221
 7787TIP3   OH244775   0.761   1.973   5.820 -0.0188 -0.0741 -0.0224
 7787TIP3    H144776   0.715   2.054   5.841 -0.8909 -0.5221 -0.1857
 7787TIP3    H244777   0.763   1.925   5.903  0.9100  0.3192  0.1826
 7788TIP3   OH244778   5.429   5.075   5.573 -0.3325  0.5334  0.5385
 7788TIP3    H144779   5.474   4.992   5.557  0.4057  1.0597 -0.1893
 7788TIP3    H244780   5.466   5.106   5.656  1.8557  1.7314 -0.8417
 7789TIP3   OH244781   2.326   3.408   6.135 -0.6235  0.4655  0.4540
 7789TIP3    H144782   2.300   3.415   6.227  0.2224  3.8209  0.5133
 7789TIP3    H244783   2.393   3.476   6.124  0.2157 -0.7268 -2.3437
 7790TIP3   OH244784   1.482   1.217  14.305 -0.4255 -0.0382 -0.7609
 7790TIP3    H144785   1.487   1.259  14.391  0.0759  2.4231 -1.9335
 7790TIP3    H244786   1.540   1.141  14.312  3.4185  2.7899 -0.3146
 7791TIP3   OH244787   6.178   3.200   3.400  0.4484  0.8316 -0.6004
 7791TIP3    H144788   6.162   3.221   3.308 -0.9242 -0.3972 -0.6623
 7791TIP3    H244789   6.188   3.285   3.443 -3.0537  1.5878 -1.1645
 7792TIP3   OH244790   1.521   5.839  13.748  0.2582 -0.2872 -0.6694
 7792TIP3    H144791   1.487   5.796  13.826  0.3116 -1.1988 -1.1374
 7792TIP3    H244792   1.574   5.911  13.782 -0.8184  0.1616  0.0956
 7793TIP3   OH244793   2.773   0.460   0.876 -0.1107  0.2380  0.6108
 7793TIP3    H144794   2.739   0.513   0.948 -2.2447  3.1401 -2.4338
 7793TIP3    H244795   2.699   0.406   0.848  0.2399  0.3242 -0.5036
 7794TIP3   OH244796   6.063   0.156  14.598  0.0634  0.0549  0.1843
 7794TIP3    H144797   6.006   0.079  14.600 -2.4084  1.8074 -1.0053
 7794TIP3    H244798   6.018   0.221  14.653  0.4417  1.7478 -1.4540
 7795TIP3   OH244799   6.341   4.755  11.386  0.0195 -0.1598  0.2384
 7795TIP3    H144800   6.373   4.802  11.463 -0.6254  1.1556 -0.2785
 7795TIP3    H244801   6.311   4.824  11.327 -1.1626 -1.2338 -0.4325
 7796TIP3   OH244802   3.978   5.598  15.714  0.1091 -0.5246 -0.0274
 7796TIP3    H144803   4.054   5.554  15.675 -0.0298 -1.8990  1.1871
 7796TIP3    H244804   3.960   5.547  15.793 -2.2261 -0.3438 -0.4136
 7797TIP3   OH244805   1.692   3.203   0.359 -0.4798 -0.9036 -0.3324
 7797TIP3    H144806   1.629   3.188   0.289 -0.7957 -1.6280  0.1009
 7797TIP3    H244807   1.663   3.146   0.430 -0.1076 -0.2451  0.3550
 7798TIP3   OH244808   3.516   4.352  13.054 -0.7126  0.3345  0.5778
 7798TIP3    H144809   3.537   4.265  13.020  0.0301 -0.0091  1.8771
 7798TIP3    H244810   3.429   4.342  13.093  0.5160 -0.5785  3.2151
 7799TIP3   OH244811   1.935   4.667  12.574  0.6882 -0.0981 -0.6648
 7799TIP3    H144812   1.852   4.681  12.619  1.3879  1.8552  0.0580
 7799TIP3    H244813   1.935   4.730  12.502  1.3168 -0.4626 -0.9851
 7800TIP3   OH244814   1.230   3.499   2.455  0.3570  0.6404 -0.0682
 7800TIP3    H144815   1.200   3.556   2.526  0.6574  0.0649  0.5372
 7800TIP3    H244816   1.161   3.433   2.446 -0.2671  1.4324 -1.1676
 7801TIP3   OH244817   0.592   3.337  11.117  0.0759  0.7778  0.5900
 7801TIP3    H144818   0.544   3.396  11.174 -1.7918  2.4818 -2.5799
 7801TIP3    H244819   0.639   3.394  11.057 -1.8784 -0.8186 -2.6524
 7802TIP3   OH244820   3.399   3.527   0.568 -0.0381  0.0269 -0.8706
 7802TIP3    H144821   3.491   3.513   0.548  0.4987  0.9627  0.8490
 7802TIP3    H244822   3.399   3.592   0.638 -2.0012 -0.0482 -0.7672
 7803TIP3   OH244823   4.649   3.963  16.157 -0.0665 -0.0618  0.1726
 7803TIP3    H144824   4.672   3.886  16.106 -0.5286  0.3474 -0.6692
 7803TIP3    H244825   4.573   4.000  16.112 -1.2173 -0.3522  1.8302
 7804TIP3   OH244826   4.407   5.836   1.778 -0.3306  0.0083 -0.0450
 7804TIP3    H144827   4.494   5.812   1.810 -1.0690 -0.9329  1.2660
 7804TIP3    H244828   4.400   5.793   1.693  0.5311  0.2164 -0.2297
 7805TIP3   OH244829   4.810   1.043   0.813 -0.2058  0.6072 -0.4389
 7805TIP3    H144830   4.735   1.040   0.873  0.4983  0.5994  0.4540
 7805TIP3    H244831   4.877   1.091   0.861  1.1447 -1.3418 -0.3399
 7806TIP3   OH244832   6.254   4.279   3.118 -0.1595 -0.1791 -0.2150
 7806TIP3    H144833   6.346   4.255   3.105 -1.2259 -3.6832 -1.8460
 7806TIP3    H244834   6.225   4.226   3.192 -0.8362  1.1117  0.4685
 7807TIP3   OH244835   0.231   4.890   3.901  0.3436  0.1111 -0.2360
 7807TIP3    H144836   0.263   4.945   3.973 -0.6719  0.2271  0.1362
 7807TIP3    H244837   0.292   4.908   3.829  2.9883 -2.0382  1.3833
 7808TIP3   OH244838   2.211   0.151  16.804  0.1409  0.0679  0.0757
 7808TIP3    H144839   2.137   0.114  16.852  0.0022  0.1021 -0.1121
 7808TIP3    H244840   2.282   0.089  16.819 -0.6229 -1.2839 -1.8211
 7809TIP3   OH244841   2.638   6.528  15.382  0.3298 -0.5480 -0.3086
 7809TIP3    H144842   2.579   6.543  15.309 -1.0130 -1.4773  0.5688
 7809TIP3    H244843   2.718   6.575  15.358 -1.2084  1.8791 -0.8873
 7810TIP3   OH244844   4.976   3.894   5.453  0.0202  0.2528  0.0862
 7810TIP3    H144845   5.031   3.819   5.428 -0.6387 -0.7105  1.4596
 7810TIP3    H244846   4.916   3.905   5.378 -0.2466 -0.9642  0.1096
 7811TIP3   OH244847   3.383   6.309   3.283 -0.2796  0.2275 -0.5917
 7811TIP3    H144848   3.296   6.315   3.243 -0.1054 -1.2655 -1.1977
 7811TIP3    H244849   3.413   6.220   3.265 -0.5249 -0.8052  3.5166
 7812TIP3   OH244850   5.478   0.285  14.273  0.2812 -0.0280 -0.4737
 7812TIP3    H144851   5.500   0.363  14.324  0.9487 -1.1094  0.9146
 7812TIP3    H244852   5.386   0.267  14.295  0.3297 -0.0295 -0.2737
 7813TIP3   OH244853   5.408   0.829   5.004 -0.6796  0.2843  0.0338
 7813TIP3    H144854   5.428   0.919   5.029 -1.6292  0.3777  0.4727
 7813TIP3    H244855   5.401   0.833   4.909 -0.5287  0.6309  0.0329
 7814TIP3   OH244856   6.712   3.793   5.018 -0.9619  0.0694 -0.3950
 7814TIP3    H144857   6.631   3.756   4.981 -0.8473  1.0679 -1.6778
 7814TIP3    H244858   6.699   3.788   5.113 -1.0853 -2.9159 -0.5080
 7815TIP3   OH244859   3.148   3.491  16.314  0.1096 -0.5014 -0.0157
 7815TIP3    H144860   3.165   3.471  16.221  1.9476  0.3206  0.1103
 7815TIP3    H244861   3.053   3.501  16.319  0.0952  1.0198 -2.1741
 7816TIP3   OH244862   0.262   4.757  16.733  0.6901  0.2981  0.0112
 7816TIP3    H144863   0.247   4.737  16.825  0.7105  1.1109  0.1994
 7816TIP3    H244864   0.298   4.676  16.696 -0.9580 -0.5855  0.3096
 7817TIP3   OH244865   1.215   3.824   3.549  0.0113 -0.4461  0.0897
 7817TIP3    H144866   1.126   3.840   3.580  0.2577 -0.6514  0.9098
 7817TIP3    H244867   1.234   3.734   3.574 -0.3778 -1.1698 -2.1214
 7818TIP3   OH244868   5.067   0.189   1.900 -0.0561  0.4666 -0.4467
 7818TIP3    H144869   5.087   0.198   1.806 -1.4075 -1.4756 -0.9544
 7818TIP3    H244870   5.078   0.277   1.935  0.2765  1.2723 -2.4772
 7819TIP3   OH244871   4.023   4.062   2.308 -0.0082  0.5791  0.1298
 7819TIP3    H144872   3.976   4.045   2.226  1.0019 -0.5944 -0.2154
 7819TIP3    H244873   4.053   3.977   2.337 -1.1645  0.8792  2.2459
 7820TIP3   OH244874   5.666   5.188  11.381  0.2631  0.0470  0.1854
 7820TIP3    H144875   5.729   5.180  11.310  0.9751 -1.4183  0.9627
 7820TIP3    H244876   5.580   5.188  11.338  0.7182 -0.0204 -0.7179
 7821TIP3   OH244877   5.793   0.787  12.093 -0.2390 -0.6989  0.1069
 7821TIP3    H144878   5.779   0.827  12.179  0.3111 -1.2905  0.4798
 7821TIP3    H244879   5.710   0.741  12.075 -0.6056 -0.0027  0.0035
 7822TIP3   OH244880   2.807   0.561  16.324 -0.2317 -0.9471  0.8689
 7822TIP3    H144881   2.819   0.565  16.230 -1.8249  1.2849  0.7359
 7822TIP3    H244882   2.842   0.475  16.349  1.4806 -0.9737 -1.5317
 7823TIP3   OH244883   4.214   2.345   1.898 -0.2766 -0.3583 -0.2875
 7823TIP3    H144884   4.268   2.378   1.970 -1.6342  0.8312  0.2091
 7823TIP3    H244885   4.165   2.273   1.935  1.2566 -1.7324 -0.8575
 7824TIP3   OH244886   0.645   4.347   3.120  0.5390  0.2686 -0.3871
 7824TIP3    H144887   0.647   4.419   3.057 -0.3293  0.4506 -0.2135
 7824TIP3    H244888   0.699   4.377   3.193 -0.9513  1.3224  0.2974
 7825TIP3   OH244889   2.506   2.338   4.246 -0.1897 -0.0199  0.3748
 7825TIP3    H144890   2.417   2.357   4.276 -0.8077 -0.8200 -0.9192
 7825TIP3    H244891   2.495   2.303   4.158  1.4428  0.2264  0.0534
 7826TIP3   OH244892   3.163   2.013  15.373 -0.2904 -0.5823  0.1490
 7826TIP3    H144893   3.091   2.022  15.311 -0.6671  0.4094  0.7246
 7826TIP3    H244894   3.165   1.919  15.395 -2.6043 -0.3342  1.5521
 7827TIP3   OH244895   4.921   2.269  16.436  0.1106  0.1713  0.3312
 7827TIP3    H144896   4.948   2.288  16.347  2.1656  0.8915  1.0841
 7827TIP3    H244897   4.891   2.178  16.433  1.7506 -0.3518 -0.7406
 7828TIP3   OH244898   6.265   1.070  16.125 -0.0525  0.2554  0.3922
 7828TIP3    H144899   6.234   0.990  16.168 -2.6321  1.6635  1.2555
 7828TIP3    H244900   6.358   1.076  16.150  0.1199 -2.3218  0.4922
 7829TIP3   OH244901   5.130   3.480   1.367 -0.6540 -0.0680 -0.3352
 7829TIP3    H144902   5.075   3.531   1.308  0.2865 -0.9478 -2.0276
 7829TIP3    H244903   5.069   3.425   1.415 -1.4599  0.8506 -0.3006
 7830TIP3   OH244904   1.528   1.908   5.479  0.3515  0.5463  0.1588
 7830TIP3    H144905   1.461   1.918   5.546 -0.1513 -0.4891 -0.1740
 7830TIP3    H244906   1.592   1.849   5.518 -0.8637 -1.5539 -0.9213
 7831TIP3   OH244907   3.391   3.430   6.610  0.0196  0.2257  0.4915
 7831TIP3    H144908   3.317   3.385   6.569  0.6110 -1.5674  1.3622
 7831TIP3    H244909   3.426   3.367   6.673  2.5535  0.8806 -0.1869
 7832TIP3   OH244910   0.481   5.902   1.855 -0.3906 -0.6720 -0.4751
 7832TIP3    H144911   0.411   5.925   1.793 -0.0760  1.3913 -0.0895
 7832TIP3    H244912   0.441   5.836   1.912 -1.8162  0.0137 -0.6583
 7833TIP3   OH244913   5.014   6.294   1.714 -0.7826 -0.4528  0.4184
 7833TIP3    H144914   5.011   6.324   1.623  0.4882  0.1254  0.5576
 7833TIP3    H244915   4.988   6.202   1.710  0.0462 -0.6537 -0.6435
 7834TIP3   OH244916   1.302   5.540   2.543  1.4584  0.2172  0.5835
 7834TIP3    H144917   1.218   5.540   2.589  1.5726  1.1883  0.8208
 7834TIP3    H244918   1.313   5.631   2.513  2.2587  0.0224  0.2588
 7835TIP3   OH244919   6.753   6.059   3.104  0.0865 -0.7234 -0.0790
 7835TIP3    H144920   6.676   6.019   3.063 -1.2246  0.3897  1.2122
 7835TIP3    H244921   6.741   6.153   3.091  1.0884 -0.5287  0.3527
 7836TIP3   OH244922   2.670   6.020  14.348 -0.2180  0.2121 -0.3792
 7836TIP3    H144923   2.710   5.933  14.340 -0.6764  0.0187 -0.5921
 7836TIP3    H244924   2.741   6.077  14.376  0.3811  0.0253 -1.5034
 7837TIP3   OH244925   2.846   1.424  13.650  0.3909  0.1471  0.2727
 7837TIP3    H144926   2.925   1.377  13.676  0.4183  0.0704  0.0548
 7837TIP3    H244927   2.843   1.415  13.554  0.5449  0.8244  0.2055
 7838TIP3   OH244928   0.730   3.372   5.164 -0.0192  0.1413  0.7296
 7838TIP3    H144929   0.687   3.290   5.140 -1.1266  0.4989  1.4403
 7838TIP3    H244930   0.750   3.415   5.081 -0.7047 -0.2121  0.3835
 7839TIP3   OH244931   1.279   3.311  16.343  0.1356  0.5415  0.0119
 7839TIP3    H144932   1.282   3.290  16.249  1.2505 -0.2428  0.2190
 7839TIP3    H244933   1.319   3.398  16.348 -2.0182  1.6033 -0.5059
 7840TIP3   OH244934   2.394   2.600  15.163  0.2143  0.3238  0.3738
 7840TIP3    H144935   2.462   2.565  15.221  1.2210 -3.1730 -2.7029
 7840TIP3    H244936   2.443   2.640  15.090 -1.0436  1.0103 -0.1190
 7841TIP3   OH244937   3.848   0.151   2.893  0.2264  0.1832  0.4390
 7841TIP3    H144938   3.848   0.071   2.946  1.1946  0.2667  0.5648
 7841TIP3    H244939   3.776   0.138   2.831  0.4875 -0.8703  0.3439
 7842TIP3   OH244940   3.650   6.743  14.699 -0.2096 -0.4438  0.3502
 7842TIP3    H144941   3.717   6.810  14.708  0.1735 -0.8228  0.3468
 7842TIP3    H244942   3.692   6.673  14.649 -0.7627 -0.4700 -0.0828
 7843TIP3   OH244943   3.174   0.139  12.750  0.0365  0.4913 -0.2758
 7843TIP3    H144944   3.172   0.151  12.845 -1.5990  1.8328 -0.4521
 7843TIP3    H244945   3.240   0.201  12.719  0.0926  0.5341 -0.0703
 7844TIP3   OH244946   3.723   0.473   0.670 -0.0538 -0.6881  0.5515
 7844TIP3    H144947   3.726   0.564   0.640 -2.4549  0.1103  2.5317
 7844TIP3    H244948   3.782   0.470   0.745  1.6208 -1.3253 -0.7404
 7845TIP3   OH244949   3.771   3.757   6.280 -0.5169 -0.8651  0.1880
 7845TIP3    H144950   3.860   3.792   6.275 -0.2588 -1.7605 -2.1415
 7845TIP3    H244951   3.714   3.834   6.273  0.0669 -0.3448  1.1308
 7846TIP3   OH244952   1.903   1.232   6.032  0.2234 -0.1060  0.1410
 7846TIP3    H144953   1.978   1.288   6.052  0.0621  0.3716 -0.5748
 7846TIP3    H244954   1.929   1.187   5.951  0.0161 -0.4554  0.2688
 7847TIP3   OH244955   3.034   3.531   3.738  0.0235  0.0621 -0.1750
 7847TIP3    H144956   2.983   3.612   3.732 -0.9843 -0.4959  0.6915
 7847TIP3    H244957   3.123   3.556   3.712 -0.4135  1.3182 -0.4639
 7848TIP3   OH244958   6.559   3.074  16.080  0.0487  0.2276  0.5395
 7848TIP3    H144959   6.486   3.122  16.042 -0.4505 -1.5268 -0.7723
 7848TIP3    H244960   6.611   3.046  16.005  0.6000 -0.8359  1.2983
 7849TIP3   OH244961   4.487   6.644   6.263 -0.4662  0.5533  0.0942
 7849TIP3    H144962   4.496   6.715   6.200  2.1243 -0.5660 -0.8481
 7849TIP3    H244963   4.406   6.599   6.237 -0.9875  1.8662 -0.5810
 7850TIP3   OH244964   5.253   1.218   4.734  0.4848  0.1734 -0.2362
 7850TIP3    H144965   5.187   1.173   4.787  0.0469 -1.3970 -2.0460
 7850TIP3    H244966   5.321   1.152   4.720  1.1466  0.9381 -0.6706
 7851TIP3   OH244967   3.059   0.673  14.284 -0.4463 -0.1610 -0.7187
 7851TIP3    H144968   3.124   0.683  14.354  2.1426  0.2900 -3.1261
 7851TIP3    H244969   3.060   0.580  14.263  1.6486  0.2889 -2.7788
 7852TIP3   OH244970   3.341   5.152   5.620  0.6951  0.4670  0.2703
 7852TIP3    H144971   3.300   5.140   5.705 -0.0456  3.3321  0.3728
 7852TIP3    H244972   3.354   5.063   5.587 -2.7544 -0.5992  1.5567
 7853TIP3   OH244973   3.048   1.783   1.401 -0.0180  0.1004 -0.0404
 7853TIP3    H144974   3.077   1.722   1.468 -0.2589  1.1058  0.9916
 7853TIP3    H244975   3.109   1.857   1.407  0.2351  0.0002 -1.2293
 7854TIP3   OH244976   1.066   4.413  13.715  0.5010 -0.0674 -0.4915
 7854TIP3    H144977   0.992   4.375  13.763 -0.2480  1.0657 -0.7559
 7854TIP3    H244978   1.142   4.366  13.750 -0.3065 -1.0787 -0.0526
 7855TIP3   OH244979   1.165   2.595  15.873  0.3040 -0.1221 -0.7485
 7855TIP3    H144980   1.106   2.670  15.865 -2.2372 -2.0600 -1.3310
 7855TIP3    H244981   1.137   2.551  15.954  0.4796 -1.4178 -1.3691
 7856TIP3   OH244982   0.008   3.884   3.987  0.3714  0.0884 -0.3386
 7856TIP3    H144983   0.031   3.818   3.921  0.3509  0.8484 -1.1115
 7856TIP3    H244984  -0.079   3.915   3.961  1.2584  1.9173 -1.1980
 7857TIP3   OH244985   2.843   5.515  13.271 -0.3031 -0.3972  0.0194
 7857TIP3    H144986   2.856   5.426  13.301 -1.3075 -0.0792  1.4714
 7857TIP3    H244987   2.843   5.568  13.351 -3.4696  0.4116 -0.4259
 7858TIP3   OH244988   2.115   1.616   0.896  0.3160  0.3753 -0.1573
 7858TIP3    H144989   2.099   1.698   0.943 -0.1463  0.3165 -0.2091
 7858TIP3    H244990   2.053   1.618   0.822  0.9537  0.4136 -0.6973
 7859TIP3   OH244991   5.291   1.882   6.092 -0.2546  0.3610  0.2528
 7859TIP3    H144992   5.279   1.886   6.187 -0.6278 -0.5133  0.2457
 7859TIP3    H244993   5.267   1.792   6.068 -0.7145  0.7401 -0.7397
 7860TIP3   OH244994   1.628   0.761  11.647  0.1737  0.1106  0.2157
 7860TIP3    H144995   1.618   0.686  11.706  0.8607 -0.0468  0.1372
 7860TIP3    H244996   1.564   0.744  11.577 -0.2301  0.0025  0.6075
 7861TIP3   OH244997   5.648   2.316  12.919  0.6509  0.5063 -0.6049
 7861TIP3    H144998   5.671   2.225  12.905  0.5015  0.2937  0.4874
 7861TIP3    H244999   5.566   2.328  12.872 -0.5048 -0.5314  1.1014
 7862TIP3   OH245000   5.499   1.185   3.078 -0.5301  0.0652  0.1656
 7862TIP3    H145001   5.472   1.276   3.067  0.4726  0.2066 -1.1726
 7862TIP3    H245002   5.438   1.135   3.024  1.0828  0.2759 -1.8938
 7863TIP3   OH245003   5.875   2.231   0.866  0.1972 -0.3427  0.8779
 7863TIP3    H145004   5.804   2.218   0.804  0.2659  0.2467  0.6674
 7863TIP3    H245005   5.832   2.261   0.946  0.0346 -1.8990  1.3786
 7864TIP3   OH245006   0.101   1.898  16.659  0.1091  1.1342  0.1233
 7864TIP3    H145007   0.139   1.957  16.723 -1.3867 -0.5345  2.6414
 7864TIP3    H245008   0.011   1.929  16.648 -0.3868 -0.0480  0.7246
 7865TIP3   OH245009   0.012   6.190   5.778  0.6349  0.5597  1.0719
 7865TIP3    H145010   0.063   6.115   5.748 -0.6234  0.3838 -0.6945
 7865TIP3    H245011   0.050   6.212   5.863  1.7228 -1.3923  1.1189
 7866TIP3   OH245012   0.053   0.050  13.993 -0.3149 -0.4181  0.4880
 7866TIP3    H145013  -0.006   0.028  13.920 -0.3285 -2.5565  1.1020
 7866TIP3    H245014   0.130  -0.004  13.978  1.2047  1.8149  0.1151
 7867TIP3   OH245015   0.400   5.553   3.380  0.3371 -0.2415 -0.0666
 7867TIP3    H145016   0.390   5.639   3.421 -1.4329 -0.7276  0.5516
 7867TIP3    H245017   0.489   5.554   3.344 -0.2305  2.4856 -1.5546
 7868TIP3   OH245018   2.694   0.836   5.622  0.7308  0.3324 -0.3965
 7868TIP3    H145019   2.699   0.741   5.617  2.0147  0.2770  1.5201
 7868TIP3    H245020   2.696   0.856   5.716 -0.6971  2.1868 -0.7243
 7869TIP3   OH245021   2.610   6.486  12.522 -0.5524  0.1659 -0.2922
 7869TIP3    H145022   2.687   6.470  12.467 -1.0934 -1.9315 -0.4991
 7869TIP3    H245023   2.646   6.516  12.605  0.3966  0.9013 -0.9512
 7870TIP3   OH245024   4.049   2.579  15.506  0.2701  0.5529 -0.0328
 7870TIP3    H145025   4.066   2.549  15.595  0.3251  1.0575  0.1275
 7870TIP3    H245026   3.954   2.581  15.499  0.2720 -0.3343 -0.2720
 7871TIP3   OH245027   2.386   6.454  11.072  0.1165  0.4836 -0.1493
 7871TIP3    H145028   2.387   6.363  11.102  0.6207  1.0122  1.5187
 7871TIP3    H245029   2.478   6.481  11.074 -0.2588  1.7611  1.7799
 7872TIP3   OH245030   4.529   5.076  11.757  0.0387 -0.1509 -0.6897
 7872TIP3    H145031   4.545   5.058  11.664 -0.6850  0.8932 -1.0290
 7872TIP3    H245032   4.602   5.033  11.803 -0.0551 -1.3749 -1.6723
 7873TIP3   OH245033   4.572   5.160  14.392  0.0245 -0.4331 -0.7231
 7873TIP3    H145034   4.483   5.160  14.356 -0.2056  2.7219 -0.2677
 7873TIP3    H245035   4.564   5.208  14.474  2.1890 -0.0185 -0.7445
 7874TIP3   OH245036   1.783   5.140  12.195 -0.1798  0.0914  0.3882
 7874TIP3    H145037   1.830   5.096  12.124 -0.8946 -0.2629  0.1233
 7874TIP3    H245038   1.697   5.098  12.195 -0.2261  0.1823  1.3824
 7875TIP3   OH245039   3.580   3.462   2.606  0.2262  0.1678  0.0527
 7875TIP3    H145040   3.561   3.375   2.570 -0.1885  0.2116  0.1674
 7875TIP3    H245041   3.557   3.522   2.536 -1.5059  0.3169  0.7144
 7876TIP3   OH245042   0.391   4.040  11.959 -0.2007  0.3898 -0.2012
 7876TIP3    H145043   0.416   4.115  12.013 -1.6870  1.1234 -0.4932
 7876TIP3    H245044   0.392   4.074  11.870 -1.6521  0.2774 -0.2617
 7877TIP3   OH245045   5.721   5.434  14.442 -0.2969  0.5771  0.4639
 7877TIP3    H145046   5.789   5.493  14.476 -2.0373  3.4120 -0.8628
 7877TIP3    H245047   5.662   5.420  14.516  0.3759  0.0824  0.9158
 7878TIP3   OH245048   3.891   2.400   1.829 -0.2081 -0.2539 -0.2412
 7878TIP3    H145049   3.835   2.429   1.901  0.6777 -0.4936  0.5599
 7878TIP3    H245050   3.939   2.479   1.802 -2.5646  0.4795 -2.4631
 7879TIP3   OH245051   2.586   0.193   0.895  0.1841  0.4297 -0.3577
 7879TIP3    H145052   2.572   0.102   0.870 -0.8237  0.4705  0.0276
 7879TIP3    H245053   2.681   0.203   0.899  0.2886 -0.8381  0.4227
 7880TIP3   OH245054   0.049   2.714  15.908 -0.1774 -0.4533  0.2536
 7880TIP3    H145055  -0.031   2.702  15.857  1.4564  0.1241 -2.5321
 7880TIP3    H245056   0.088   2.794  15.874  1.4353 -0.5507  1.7999
 7881TIP3   OH245057   5.288   4.532  14.636  0.0403  0.1767  0.0583
 7881TIP3    H145058   5.379   4.521  14.608  0.1394  0.7214  0.1578
 7881TIP3    H245059   5.287   4.502  14.727  0.2265  0.5979  0.2050
 7882TIP3   OH245060   4.647   3.350  13.828 -0.4433  0.5269  0.3458
 7882TIP3    H145061   4.631   3.444  13.838  1.1123  1.1507 -2.5301
 7882TIP3    H245062   4.605   3.326  13.746  0.6640 -0.8847  0.1629
 7883TIP3   OH245063   2.443   1.585   3.309 -0.3702  0.0972  0.3623
 7883TIP3    H145064   2.389   1.650   3.265  0.9614  0.3687 -0.9358
 7883TIP3    H245065   2.510   1.562   3.244  0.3446 -1.1125  1.4973
 7884TIP3   OH245066   4.764   5.012  14.946  0.0018  0.3228  0.1981
 7884TIP3    H145067   4.837   4.957  14.920  0.5745  1.1614  0.0151
 7884TIP3    H245068   4.700   4.951  14.983  0.3542 -0.5438 -0.5930
 7885TIP3   OH245069   0.182   5.013   2.414 -0.0760  0.2398  0.1136
 7885TIP3    H145070   0.090   5.034   2.395  0.9226  1.6108 -3.6969
 7885TIP3    H245071   0.206   5.073   2.485 -1.6575  0.9951  0.0296
 7886TIP3   OH245072   6.387   6.721   2.539 -0.1155 -0.5214  0.6561
 7886TIP3    H145073   6.303   6.763   2.519  1.2503  1.1675 -1.8130
 7886TIP3    H245074   6.394   6.648   2.478  0.6157 -0.0690  0.1805
 7887TIP3   OH245075   0.353   0.432   1.130  0.0842  0.1923 -0.0263
 7887TIP3    H145076   0.448   0.429   1.129  0.1115  0.7177  0.5642
 7887TIP3    H245077   0.326   0.343   1.108  0.7309 -0.2721  0.9925
 7888TIP3   OH245078   3.513   3.928  15.995  0.0290 -0.2430 -0.1291
 7888TIP3    H145079   3.560   4.003  16.033 -0.4114  0.0574 -0.1777
 7888TIP3    H245080   3.550   3.918  15.908  0.6781 -0.6060  0.1858
 7889TIP3   OH245081   0.668   1.047  12.169 -0.4974 -0.4345 -0.0464
 7889TIP3    H145082   0.703   1.095  12.093 -0.2325 -1.0918 -0.3455
 7889TIP3    H245083   0.660   0.957  12.138  2.2848 -1.2699  1.5905
 7890TIP3   OH245084   1.016   1.355  13.502  0.3744  0.1978 -0.4145
 7890TIP3    H145085   1.098   1.314  13.528 -0.5870 -2.9923 -2.1638
 7890TIP3    H245086   1.029   1.379  13.410 -0.1508  0.9771 -0.2883
 7891TIP3   OH245087   3.963   4.547   2.665 -1.1195  0.0037  0.4714
 7891TIP3    H145088   3.966   4.619   2.601  1.1090 -0.0587  0.4570
 7891TIP3    H245089   3.949   4.469   2.612 -1.3340  0.1896  0.2517
 7892TIP3   OH245090   2.729   5.097   6.058 -0.1066  0.3895 -0.0962
 7892TIP3    H145091   2.758   5.100   6.149  0.9679 -0.9311 -0.3679
 7892TIP3    H245092   2.672   5.021   6.053 -0.3244  0.5756 -0.4859
 7893TIP3   OH245093   2.215   6.775  12.930  0.0802 -0.0489 -0.5917
 7893TIP3    H145094   2.236   6.687  12.897  0.7403  0.9485 -2.9240
 7893TIP3    H245095   2.284   6.831  12.894  0.8182  1.1339  2.4876
 7894TIP3   OH245096   2.014   1.071   3.461  0.2574  0.0838  0.4323
 7894TIP3    H145097   2.099   1.107   3.489  0.6955 -1.5513  1.3174
 7894TIP3    H245098   2.037   1.000   3.402 -0.5324  0.0298  0.1858
 7895TIP3   OH245099   3.205   0.747   2.222  0.0534  0.0961  0.0009
 7895TIP3    H145100   3.181   0.838   2.241  0.0406  0.0949 -0.0104
 7895TIP3    H245101   3.300   0.745   2.234  0.0727  0.1449 -0.1392
 7896TIP3   OH245102   1.505   0.871   2.921  0.7715  0.3984 -0.0280
 7896TIP3    H145103   1.479   0.795   2.870  0.8113  0.5749 -0.3138
 7896TIP3    H245104   1.501   0.944   2.859  1.5735  0.4851  0.0164
 7897TIP3   OH245105   1.697   3.820   0.157 -0.0111 -0.0578 -0.5662
 7897TIP3    H145106   1.693   3.819   0.253 -0.2450  1.0091 -0.5566
 7897TIP3    H245107   1.713   3.729   0.133  1.3431 -0.1313  0.5367
 7898TIP3   OH245108   0.178   0.892  15.503  0.9704 -0.4665  0.2283
 7898TIP3    H145109   0.161   0.800  15.524 -0.2970 -0.3485 -0.2323
 7898TIP3    H245110   0.230   0.889  15.422 -0.4008 -0.7621 -0.6680
 7899TIP3   OH245111   6.529   0.536  14.200  0.2329 -0.0397 -0.2658
 7899TIP3    H145112   6.516   0.627  14.174 -4.7507  0.1285  2.3289
 7899TIP3    H245113   6.546   0.541  14.294  0.0028 -1.7916 -0.1177
 7900TIP3   OH245114   5.965   2.356  10.942 -0.4686 -0.0719  0.6245
 7900TIP3    H145115   5.923   2.392  10.864 -1.4232  1.0919  1.6418
 7900TIP3    H245116   5.964   2.262  10.929 -0.2373  0.1296 -0.9599
 7901TIP3   OH245117   2.303   1.077  13.627 -0.0689 -0.0607  0.0554
 7901TIP3    H145118   2.273   1.155  13.674 -0.3950  1.4464 -2.5109
 7901TIP3    H245119   2.393   1.065  13.655 -0.4505  0.3905  1.5354
 7902TIP3   OH245120   2.519   6.702  11.057 -0.0386  0.2033 -0.1090
 7902TIP3    H145121   2.434   6.722  11.097  0.1108  1.0337 -0.1959
 7902TIP3    H245122   2.520   6.753  10.976  0.4927  0.0988 -0.1661
 7903TIP3   OH245123   1.200   6.515  11.879 -0.3962  0.1881 -0.1495
 7903TIP3    H145124   1.214   6.480  11.791 -2.0136  0.9053 -0.7020
 7903TIP3    H245125   1.106   6.504  11.895  0.1713 -1.6522  2.2359
 7904TIP3   OH245126   1.921   4.834  12.910  0.5355  0.0257 -0.1043
 7904TIP3    H145127   1.962   4.919  12.892  1.1067 -0.1553  0.3070
 7904TIP3    H245128   1.883   4.807  12.827  1.2614  0.2067 -0.4992
 7905TIP3   OH245129   4.646   1.459  16.384 -0.1460  0.2881  0.5647
 7905TIP3    H145130   4.669   1.390  16.447  0.3029  0.3236  0.4327
 7905TIP3    H245131   4.687   1.431  16.302  0.5518  1.0233  0.6618
 7906TIP3   OH245132   0.209   3.760  11.563 -0.3575  0.1516 -0.0509
 7906TIP3    H145133   0.181   3.849  11.543  1.2957  0.5508 -0.6841
 7906TIP3    H245134   0.165   3.739  11.646 -0.2410  1.8016  0.4464
 7907TIP3   OH245135   1.401   2.300  14.076 -0.0577  0.0774 -0.4686
 7907TIP3    H145136   1.349   2.286  13.996 -1.1126  1.9022 -0.1158
 7907TIP3    H245137   1.462   2.370  14.052  0.4795 -0.2568 -0.0658
 7908TIP3   OH245138   6.494   0.372   3.809 -0.1602 -0.4158  0.8723
 7908TIP3    H145139   6.402   0.350   3.797 -0.2935  0.2605  0.6180
 7908TIP3    H245140   6.523   0.404   3.724  0.0087  0.4354  1.2420
 7909TIP3   OH245141   0.713   0.671   5.030 -0.2218  1.0856 -0.6635
 7909TIP3    H145142   0.746   0.697   4.944  1.1739  0.0216 -0.4568
 7909TIP3    H245143   0.775   0.710   5.092 -0.4301  0.6628 -0.1891
 7910TIP3   OH245144   6.055   4.639  14.186 -0.5558 -0.0719 -0.4626
 7910TIP3    H145145   6.119   4.597  14.243 -0.4217  1.2086  0.3476
 7910TIP3    H245146   6.088   4.728  14.173 -2.1165  0.5946 -0.0780
 7911TIP3   OH245147   1.861   5.912  14.261 -0.7813  0.1276 -0.1780
 7911TIP3    H145148   1.849   6.006  14.243  0.4599  0.3400  0.0477
 7911TIP3    H245149   1.932   5.886  14.202  0.1884 -0.2297  1.1477
 7912TIP3   OH245150   0.349   1.166  13.117  0.3192 -0.0853 -0.2369
 7912TIP3    H145151   0.321   1.198  13.202  0.8609 -0.2478  0.0077
 7912TIP3    H245152   0.374   1.245  13.069 -0.0607  0.0126 -0.2700
 7913TIP3   OH245153   2.610   2.242  11.380  0.2254 -0.5924  0.3813
 7913TIP3    H145154   2.660   2.196  11.448 -1.2855 -1.8095  0.7084
 7913TIP3    H245155   2.666   2.237  11.302  1.8189  0.5003  1.4167
 7914TIP3   OH245156   3.758   1.894   0.952 -0.2912  0.1679  0.2694
 7914TIP3    H145157   3.710   1.911   1.034 -0.2500  0.3875  0.2492
 7914TIP3    H245158   3.729   1.807   0.924 -1.2050  0.5998 -0.1150
 7915TIP3   OH245159   6.471   3.426   5.095 -0.1613  1.1827  0.0187
 7915TIP3    H145160   6.416   3.365   5.044 -0.1788  1.7546 -0.6609
 7915TIP3    H245161   6.520   3.474   5.028  2.6783 -0.7026  0.6828
 7916TIP3   OH245162   5.345   4.967   4.620 -0.0234 -0.0907  0.3406
 7916TIP3    H145163   5.325   5.047   4.571  1.4508  0.0063 -0.1143
 7916TIP3    H245164   5.352   4.997   4.711 -1.5745 -0.0766  0.4804
 7917TIP3   OH245165   3.505   2.388  15.859 -0.2535  0.2998 -0.6659
 7917TIP3    H145166   3.423   2.402  15.907 -0.0237  0.4879 -0.3215
 7917TIP3    H245167   3.574   2.411  15.922  0.0829 -0.5549 -0.7189
 7918TIP3   OH245168   1.833   0.921  15.022  0.0700  0.2901 -0.2284
 7918TIP3    H145169   1.753   0.923  15.075  0.8154  2.0141  0.8939
 7918TIP3    H245170   1.803   0.899  14.934 -1.4972 -0.2336  0.4181
 7919TIP3   OH245171   3.544   6.554  12.398  0.0735 -0.4803  0.4605
 7919TIP3    H145172   3.534   6.624  12.333 -0.1841  0.3756  1.4097
 7919TIP3    H245173   3.554   6.600  12.481  1.2580 -1.5494  0.9238
 7920TIP3   OH245174   5.441   5.328   4.124  0.5576  0.1026  0.1966
 7920TIP3    H145175   5.376   5.391   4.156 -1.0379 -1.1486 -0.5036
 7920TIP3    H245176   5.515   5.338   4.184 -0.5737  1.0207  1.4793
 7921TIP3   OH245177   4.100   4.275  16.944  0.0066 -0.9871 -0.0005
 7921TIP3    H145178   4.192   4.253  16.931  0.9960  0.6602  3.4879
 7921TIP3    H245179   4.069   4.207  17.004 -0.5722 -0.5366  0.2060
 7922TIP3   OH245180   5.359   4.824  13.869  0.1206  0.5314  0.1788
 7922TIP3    H145181   5.378   4.772  13.791 -0.9913  0.0325  0.2313
 7922TIP3    H245182   5.283   4.877  13.844  0.1344  0.8099  0.7271
 7923TIP3   OH245183   3.412   4.543   1.777 -0.2827  0.0578  0.2468
 7923TIP3    H145184   3.321   4.527   1.755 -0.3997  0.0862  0.7117
 7923TIP3    H245185   3.461   4.515   1.700 -0.5678 -1.3727  0.5706
 7924TIP3   OH245186   0.513   0.497  15.967  0.5463  0.4429 -0.1693
 7924TIP3    H145187   0.582   0.431  15.977 -0.4447 -0.6309 -0.3073
 7924TIP3    H245188   0.452   0.459  15.903 -3.8675 -1.8200  4.9762
 7925TIP3   OH245189   4.135   0.551  17.143 -0.1584 -0.0970  0.0931
 7925TIP3    H145190   4.191   0.628  17.132 -0.3563 -0.0579 -0.6433
 7925TIP3    H245191   4.131   0.539  17.238 -1.0989  1.5245  0.2837
 7926TIP3   OH245192   5.797   6.372   6.643 -0.0860 -0.2854  0.2040
 7926TIP3    H145193   5.749   6.454   6.657  0.0934 -0.1571  0.0722
 7926TIP3    H245194   5.729   6.305   6.642  0.0077 -0.5050  3.2049
 7927TIP3   OH245195   3.605   1.881   3.546  0.1225 -0.4784  0.5011
 7927TIP3    H145196   3.624   1.893   3.639  0.6545  0.2991  0.2894
 7927TIP3    H245197   3.639   1.959   3.503 -0.5433 -0.6146 -0.2977
 7928TIP3   OH245198   4.569   1.145  16.559 -0.2823 -0.2760 -0.2083
 7928TIP3    H145199   4.664   1.143  16.559 -0.2539 -0.0157 -1.8499
 7928TIP3    H245200   4.546   1.228  16.601  0.2350 -0.0894 -0.2936
 7929TIP3   OH245201   1.471   6.666  15.460 -0.1412  0.8230  0.7220
 7929TIP3    H145202   1.387   6.676  15.414  0.2103  2.2010  0.3677
 7929TIP3    H245203   1.503   6.581  15.431 -0.7722  0.8886 -0.2191
 7930TIP3   OH245204   4.102   1.552   2.708 -0.3747  0.0299 -0.1419
 7930TIP3    H145205   4.136   1.468   2.678 -2.2437 -1.3652  1.4958
 7930TIP3    H245206   4.068   1.534   2.795 -0.8828  2.4827  0.1956
 7931TIP3   OH245207   5.145   6.704   2.011 -0.3665  0.1210 -0.2525
 7931TIP3    H145208   5.130   6.778   1.952 -0.3450  0.5137  0.2319
 7931TIP3    H245209   5.147   6.628   1.954 -2.9218  0.1905 -0.5118
 7932TIP3   OH245210   5.333   1.439  12.666 -0.2732 -0.4578  0.2463
 7932TIP3    H145211   5.297   1.366  12.716  0.5930 -1.0959 -0.0485
 7932TIP3    H245212   5.282   1.515  12.694  1.1116 -0.5422  3.2097
 7933TIP3   OH245213   2.972   6.394  15.016 -0.1382 -0.1989  0.3918
 7933TIP3    H145214   3.022   6.453  14.959  0.2167  0.7013  1.6331
 7933TIP3    H245215   2.885   6.433  15.021 -0.7276 -1.2929 -1.0478
 7934TIP3   OH245216   0.559   0.886   2.670 -0.3571 -0.2703 -0.0252
 7934TIP3    H145217   0.601   0.832   2.603  0.1917  1.6117 -1.2180
 7934TIP3    H245218   0.466   0.879   2.651 -0.2677 -0.5526 -0.3625
 7935TIP3   OH245219   6.683   0.382  15.903  0.1782  0.5855 -0.1513
 7935TIP3    H145220   6.657   0.345  15.987  0.3472 -2.1757 -1.2700
 7935TIP3    H245221   6.603   0.382  15.850  0.4408  0.7126 -0.5556
 7936TIP3   OH245222   2.009   4.060  13.277 -0.1740 -0.5033  0.9147
 7936TIP3    H145223   1.963   4.123  13.222  1.6378  0.3717  0.3490
 7936TIP3    H245224   2.000   3.976  13.231  0.5397  0.0537 -0.2648
 7937TIP3   OH245225   1.840   6.434   4.413  0.3040  0.4369  0.0498
 7937TIP3    H145226   1.903   6.492   4.455 -0.2334  0.6238  0.6051
 7937TIP3    H245227   1.787   6.399   4.486 -0.3052  0.3748 -0.4177
 7938TIP3   OH245228   3.140   2.326  13.620 -0.5726  0.1256 -0.4097
 7938TIP3    H145229   3.225   2.357  13.651 -0.6291  0.5834 -0.7042
 7938TIP3    H245230   3.090   2.307  13.699 -0.2298 -0.0379 -0.2366
 7939TIP3   OH245231   2.646   6.174  15.380 -0.1309  0.7564  0.0773
 7939TIP3    H145232   2.694   6.235  15.436  1.0050 -0.0584 -0.0008
 7939TIP3    H245233   2.678   6.191  15.292  1.6960 -1.3250  0.2969
 7940TIP3   OH245234   0.073   2.683  14.228 -0.1777 -0.4661  0.5338
 7940TIP3    H145235   0.120   2.654  14.149  0.1391  1.1567  0.1212
 7940TIP3    H245236   0.136   2.671  14.299  0.1978 -0.1382  0.2615
 7941TIP3   OH245237   5.998   6.250   1.007  0.5107 -0.2991  0.2749
 7941TIP3    H145238   5.974   6.287   0.922 -0.1907  0.1962  0.6769
 7941TIP3    H245239   6.092   6.264   1.014  0.7873 -1.4804 -0.9629
 7942TIP3   OH245240   0.626   2.215  12.416  0.5438 -0.0245  0.6922
 7942TIP3    H145241   0.551   2.180  12.369  2.3463  0.4371 -2.6459
 7942TIP3    H245242   0.678   2.137  12.439  0.1781 -0.1752  1.0103
 7943TIP3   OH245243   0.804   5.275   3.762  0.1226  0.3693 -0.3464
 7943TIP3    H145244   0.766   5.225   3.834  2.3346 -2.2507 -0.9068
 7943TIP3    H245245   0.805   5.365   3.794  0.4831 -0.6304  2.6903
 7944TIP3   OH245246   5.896   2.174  13.076 -0.4119 -0.0981 -0.3380
 7944TIP3    H145247   5.833   2.102  13.069 -2.0582  1.0151  2.3370
 7944TIP3    H245248   5.981   2.130  13.083 -1.0727 -1.6841 -1.8706
 7945TIP3   OH245249   6.093   4.162  16.375  0.0340 -0.6607  0.4208
 7945TIP3    H145250   6.058   4.073  16.373 -0.1005 -0.6238  1.0766
 7945TIP3    H245251   6.017   4.219  16.362  0.3008 -0.6633 -1.4219
 7946TIP3   OH245252   3.333   0.331   2.736  0.0504 -0.6247  0.5667
 7946TIP3    H145253   3.251   0.362   2.698  0.7717  2.0916  1.1110
 7946TIP3    H245254   3.397   0.341   2.666  0.4847  0.1004  1.0588
 7947TIP3   OH245255   5.147   1.066   1.473 -0.0271 -0.4882  0.0902
 7947TIP3    H145256   5.233   1.034   1.446  2.3194  2.1876  3.9069
 7947TIP3    H245257   5.110   0.996   1.527  0.2178 -1.1845 -0.6445
 7948TIP3   OH245258   2.043   5.471   1.526 -0.7201 -0.0370  0.2672
 7948TIP3    H145259   1.971   5.426   1.569 -1.4897 -0.8090 -1.7563
 7948TIP3    H245260   2.100   5.401   1.495 -0.0504  0.5090  0.2456
 7949TIP3   OH245261   3.044   5.514   2.199  0.1938  0.1294 -0.5082
 7949TIP3    H145262   2.959   5.475   2.220  1.4872 -2.2750  0.5118
 7949TIP3    H245263   3.031   5.608   2.211 -2.8196 -0.0049 -2.2371
 7950TIP3   OH245264   2.735   3.541  14.514  0.4821 -0.0241  0.0161
 7950TIP3    H145265   2.799   3.475  14.488 -1.0779 -1.2371 -0.8410
 7950TIP3    H245266   2.766   3.621  14.473  2.0747 -0.3359  0.5677
 7951TIP3   OH245267   1.066   3.372   0.792 -0.0631  0.2467  0.2497
 7951TIP3    H145268   1.037   3.369   0.883  1.7587  0.9465  0.8802
 7951TIP3    H245269   1.159   3.394   0.797  0.7426 -2.3492 -1.6635
 7952TIP3   OH245270   1.747   6.164   0.363  0.0299 -0.0822  0.1848
 7952TIP3    H145271   1.764   6.081   0.318 -0.8849 -1.1672  1.8135
 7952TIP3    H245272   1.829   6.212   0.355  1.0912 -1.7834  0.5748
 7953TIP3   OH245273   5.656   1.414  12.390 -0.3726  0.0622 -0.6137
 7953TIP3    H145274   5.593   1.370  12.333 -0.3821  0.0794 -0.6170
 7953TIP3    H245275   5.663   1.502  12.355 -1.7655  0.6380  0.5065
 7954TIP3   OH245276   2.438   3.337   4.989 -0.2173  0.3112  0.5190
 7954TIP3    H145277   2.466   3.324   4.898 -2.3248  0.1036 -0.1301
 7954TIP3    H245278   2.369   3.272   5.002  0.7772 -0.3426  2.6042
 7955TIP3   OH245279   3.302   2.702   0.476 -0.3978  0.1203  0.1723
 7955TIP3    H145280   3.320   2.731   0.565 -0.3286 -2.3663  1.0114
 7955TIP3    H245281   3.225   2.753   0.449 -1.1226  0.0971  2.0842
 7956TIP3   OH245282   2.139   0.751   5.252  0.2019 -0.5765 -0.1586
 7956TIP3    H145283   2.073   0.685   5.274 -0.1270  0.2760  1.5188
 7956TIP3    H245284   2.119   0.775   5.162 -0.6154 -1.6710 -0.2833
 7957TIP3   OH245285   5.523   1.466   4.483  0.2042  0.5042  0.5273
 7957TIP3    H145286   5.507   1.545   4.535 -0.0182  0.5272  0.4224
 7957TIP3    H245287   5.565   1.498   4.404 -0.0046  0.5329  0.4270
 7958TIP3   OH245288   5.712   3.772   4.082 -0.2361 -0.1029  0.0557
 7958TIP3    H145289   5.707   3.680   4.054  0.2951  0.6890 -2.7927
 7958TIP3    H245290   5.627   3.809   4.061 -0.7919 -0.1210  2.0962
 7959TIP3   OH245291   3.086   1.741  13.489 -0.1165 -0.2834 -0.2346
 7959TIP3    H145292   3.082   1.679  13.416  1.4963 -0.0183 -0.5592
 7959TIP3    H245293   3.003   1.788  13.485 -0.8464 -1.5918 -0.7178
 7960TIP3   OH245294   4.096   1.303   0.805 -0.0979  0.2884  0.2332
 7960TIP3    H145295   4.141   1.226   0.840 -1.2821  0.3153  1.8697
 7960TIP3    H245296   4.081   1.358   0.881 -2.6730  0.3995 -0.3042
 7961TIP3   OH245297   3.503   0.140  11.240 -0.6087  0.1623 -0.6220
 7961TIP3    H145298   3.468   0.172  11.323 -0.7864 -0.7751 -0.3324
 7961TIP3    H245299   3.452   0.186  11.173 -2.6232 -1.4106 -0.2085
 7962TIP3   OH245300   0.686   2.585  13.915  0.3748  0.3072 -0.2270
 7962TIP3    H145301   0.653   2.612  14.001  0.4590 -0.0070 -0.0947
 7962TIP3    H245302   0.678   2.664  13.860 -0.1203  0.3755 -0.0610
 7963TIP3   OH245303   5.913   1.022   3.414 -0.1407  0.3122 -0.3686
 7963TIP3    H145304   5.858   1.041   3.338  0.7482  1.3510 -0.7609
 7963TIP3    H245305   5.874   1.071   3.486 -1.0352 -0.7430 -0.1155
 7964TIP3   OH245306   5.844   4.521   0.074 -0.3202 -0.3274  0.2678
 7964TIP3    H145307   5.851   4.436   0.029 -2.5378 -0.6058  0.4165
 7964TIP3    H245308   5.898   4.580   0.021  0.3697 -1.5843 -0.4634
 7965TIP3   OH245309   2.806   3.916  13.731 -0.2401  0.2218 -0.2327
 7965TIP3    H145310   2.851   3.881  13.654 -0.1098 -3.3312  1.3395
 7965TIP3    H245311   2.831   4.008  13.734  1.0322  0.0562 -3.5116
 7966TIP3   OH245312   2.873   3.003   0.393  0.1664  0.1363 -0.0140
 7966TIP3    H145313   2.791   2.994   0.345 -0.4304 -0.3641  1.0849
 7966TIP3    H245314   2.865   3.088   0.436  0.1734  0.0371  0.1827
 7967TIP3   OH245315   1.348   1.904   5.716 -0.1991 -0.7429  0.7886
 7967TIP3    H145316   1.307   1.945   5.793  3.5803  2.8189  1.0894
 7967TIP3    H245317   1.420   1.852   5.752  1.4964  0.8179 -0.2657
 7968TIP3   OH245318   0.371   5.541  15.125  0.1083 -0.3493 -0.1352
 7968TIP3    H145319   0.456   5.585  15.125 -0.5756  1.0691 -2.4496
 7968TIP3    H245320   0.375   5.480  15.051 -0.4597 -1.1414  0.4798
 7969TIP3   OH245321   6.104   4.895   5.498 -0.2375  0.0668 -0.8420
 7969TIP3    H145322   6.106   4.903   5.593 -0.0942  3.2889 -1.0657
 7969TIP3    H245323   6.170   4.957   5.467 -3.0987  2.0997 -3.1581
 7970TIP3   OH245324   4.038   4.660   0.524  0.4865  0.8216  0.1047
 7970TIP3    H145325   3.970   4.675   0.591 -0.5216 -0.0454 -0.6984
 7970TIP3    H245326   4.082   4.580   0.554  0.0109  0.4132 -0.2910
 7971TIP3   OH245327   3.983   4.769  15.535 -0.2655 -0.2057  0.4194
 7971TIP3    H145328   4.073   4.785  15.507  0.5190  0.8695  3.3735
 7971TIP3    H245329   3.970   4.675  15.519  1.4655 -0.4250  0.1815
 7972TIP3   OH245330   6.478   3.074   4.865 -0.1000  0.0158 -0.0449
 7972TIP3    H145331   6.412   3.006   4.882 -0.8321  0.5031 -0.8797
 7972TIP3    H245332   6.546   3.059   4.930 -1.9304  0.6896  2.0529
 7973TIP3   OH245333   0.548   2.931  15.956 -0.2359  0.6109 -0.4563
 7973TIP3    H145334   0.488   2.999  15.984  1.6952  1.7551  1.0003
 7973TIP3    H245335   0.611   2.976  15.899 -1.2399 -0.7431 -2.7130
 7974TIP3   OH245336   5.278   3.892  14.196 -0.0789 -0.2710  0.3215
 7974TIP3    H145337   5.321   3.973  14.224 -2.2780  0.6213  1.1886
 7974TIP3    H245338   5.316   3.824  14.251  0.4982  0.4351  0.8019
 7975TIP3   OH245339   5.939   3.603  13.911 -0.0267  0.4301 -0.1354
 7975TIP3    H145340   5.853   3.645  13.906 -0.1775  0.0812 -0.4999
 7975TIP3    H245341   5.938   3.556  13.995 -0.8321 -0.9460 -0.8919
 7976TIP3   OH245342   5.410   4.528  12.720 -0.0420 -0.0942 -0.7928
 7976TIP3    H145343   5.401   4.539  12.625 -2.2247  1.1114 -0.4843
 7976TIP3    H245344   5.334   4.476  12.746  0.7566 -0.7647  0.2557
 7977TIP3   OH245345   0.394   3.365  16.397  0.2486  0.1714  0.0761
 7977TIP3    H145346   0.338   3.438  16.421 -0.5438 -0.7436  1.0819
 7977TIP3    H245347   0.469   3.372  16.456 -0.3815 -0.4858  0.9668
 7978TIP3   OH245348   4.005   4.210  12.191  0.4805  0.7863  0.2871
 7978TIP3    H145349   4.042   4.220  12.279 -1.3592 -1.4890  1.3761
 7978TIP3    H245350   3.932   4.149  12.202 -0.1108  0.8433 -2.7465
 7979TIP3   OH245351   0.843   1.819   0.236  0.0727 -0.0130  0.4068
 7979TIP3    H145352   0.773   1.871   0.277  0.0799  0.2216  0.1227
 7979TIP3    H245353   0.923   1.867   0.256  0.3489 -1.1997  2.2175
 7980TIP3   OH245354   0.571   0.523   3.031 -0.3713 -0.1878 -0.0443
 7980TIP3    H145355   0.521   0.600   3.003  0.7409  1.2040  1.6572
 7980TIP3    H245356   0.609   0.488   2.950  1.1508  2.5387 -0.5832
 7981TIP3   OH245357   3.457   1.203   4.798  0.3265  0.3288  0.1918
 7981TIP3    H145358   3.509   1.262   4.853 -0.3093  0.6698  0.4286
 7981TIP3    H245359   3.520   1.139   4.765  1.3983  2.2206 -1.5786
 7982TIP3   OH245360   3.925   5.420  12.654 -0.0000 -0.5217 -0.1435
 7982TIP3    H145361   3.903   5.356  12.586  0.5594 -1.0518  0.1716
 7982TIP3    H245362   4.018   5.437  12.642 -0.0607 -0.0429  0.0221
 7983TIP3   OH245363   1.734   1.453   5.687  0.7139  0.3933  0.1944
 7983TIP3    H145364   1.804   1.388   5.693  1.7265  1.5845  1.3731
 7983TIP3    H245365   1.753   1.502   5.607 -0.1576 -0.8530 -0.8021
 7984TIP3   OH245366   2.654   4.690   1.970 -0.1157 -0.0199 -0.0055
 7984TIP3    H145367   2.578   4.660   2.020 -0.3025 -0.1692 -0.3769
 7984TIP3    H245368   2.665   4.782   1.995  1.4588 -0.8085  2.4068
 7985TIP3   OH245369   5.407   2.281   0.817  0.4466 -1.0590  0.0352
 7985TIP3    H145370   5.483   2.290   0.874 -0.9459  1.1095  1.6112
 7985TIP3    H245371   5.411   2.358   0.760 -1.3387 -0.1895  1.0754
 7986TIP3   OH245372   4.777   5.081   0.166  0.2745 -0.1557  0.7369
 7986TIP3    H145373   4.686   5.085   0.194  0.2258  1.2122  0.3909
 7986TIP3    H245374   4.808   5.171   0.169  0.9006 -0.2632 -1.5558
 7987TIP3   OH245375   4.915   0.542  16.158 -0.1395 -0.1539 -0.2262
 7987TIP3    H145376   5.010   0.552  16.159 -0.1149 -0.1764 -1.3690
 7987TIP3    H245377   4.892   0.545  16.065 -1.2234 -0.4437  0.0276
 7988TIP3   OH245378   4.273   3.510   0.793 -0.7484  0.6621 -0.2101
 7988TIP3    H145379   4.361   3.524   0.827 -0.0948  0.1186 -1.6371
 7988TIP3    H245380   4.225   3.589   0.817  0.2483  1.1606  0.1646
 7989TIP3   OH245381   3.057   3.421  13.934 -0.0796  0.0026 -0.5473
 7989TIP3    H145382   3.042   3.353  14.000 -0.9879 -0.9734 -1.7512
 7989TIP3    H245383   3.137   3.394  13.889  0.3558  0.5014 -0.0966
 7990TIP3   OH245384   6.128   2.791  12.252 -0.2657 -1.1025 -0.3177
 7990TIP3    H145385   6.056   2.816  12.194 -1.4083 -0.7367  1.1979
 7990TIP3    H245386   6.110   2.840  12.333  3.0983  0.9892 -0.7780
 7991TIP3   OH245387   3.871   3.126  15.039 -0.1072  0.0732  0.1037
 7991TIP3    H145388   3.851   3.070  14.964 -1.2289 -0.0064  0.4487
 7991TIP3    H245389   3.958   3.161  15.021  0.2589 -1.1418 -0.4990
 7992TIP3   OH245390   6.377   2.809   3.970  0.2332  0.3102 -0.2275
 7992TIP3    H145391   6.327   2.727   3.973  0.6030  0.0987  0.3040
 7992TIP3    H245392   6.437   2.803   4.045 -2.3340  2.7365  2.1679
 7993TIP3   OH245393   4.108   0.301  13.787 -0.2843 -0.9529 -0.5686
 7993TIP3    H145394   4.042   0.353  13.742 -0.5117 -0.4756  0.3050
 7993TIP3    H245395   4.166   0.270  13.717  0.9435  2.0021 -0.9470
 7994TIP3   OH245396   2.096   0.718   3.597 -0.2930 -0.5012  0.0151
 7994TIP3    H145397   2.131   0.800   3.632 -1.1111 -0.3937  0.6057
 7994TIP3    H245398   2.010   0.742   3.561 -0.3015 -0.9974 -0.2989
 7995TIP3   OH245399   1.487   5.270  11.258  0.3399 -0.2929  0.1285
 7995TIP3    H145400   1.499   5.176  11.271 -0.3060 -0.3908  0.0625
 7995TIP3    H245401   1.462   5.279  11.166 -0.9117 -0.2018  0.4617
 7996TIP3   OH245402   4.102   2.447   6.139 -0.7036  0.1687  0.3191
 7996TIP3    H145403   4.189   2.420   6.169 -1.1528  0.4452  1.9178
 7996TIP3    H245404   4.042   2.408   6.203 -1.7317  0.3466 -0.5213
 7997TIP3   OH245405   6.185   6.087  16.922  0.0940  0.7079  0.1305
 7997TIP3    H145406   6.109   6.049  16.878  0.8587 -1.9459  1.0239
 7997TIP3    H245407   6.238   6.124  16.851 -1.9830  2.6060 -0.5028
 7998TIP3   OH245408   2.400   0.271   5.436 -0.2991  0.5841 -0.4170
 7998TIP3    H145409   2.385   0.333   5.508  0.6107 -0.4472  0.6758
 7998TIP3    H245410   2.448   0.199   5.477 -0.6273 -0.4529 -1.8635
 7999TIP3   OH245411   6.543   2.056   1.892  0.1462  0.2698 -0.4118
 7999TIP3    H145412   6.610   2.076   1.958 -0.0336 -2.2586  0.6135
 7999TIP3    H245413   6.586   2.074   1.808  0.9546  1.8907  0.3277
 8000TIP3   OH245414   1.839   0.167   6.528 -0.6243 -0.6673  0.1942
 8000TIP3    H145415   1.919   0.143   6.575  1.0848 -0.4865 -2.5432
 8000TIP3    H245416   1.781   0.091   6.540  1.1890 -2.1976 -0.4979
 8001TIP3   OH245417   3.460   0.583  12.219  0.5432  0.4560 -0.0994
 8001TIP3    H145418   3.522   0.513  12.198  0.9242  0.4616  0.9940
 8001TIP3    H245419   3.412   0.551  12.294 -0.8859  0.3982 -1.0281
 8002TIP3   OH245420   6.024   4.981  16.957  0.2330 -0.1545  0.0247
 8002TIP3    H145421   6.103   4.932  16.980  0.5667 -0.0430 -0.8819
 8002TIP3    H245422   6.054   5.071  16.946 -0.0988 -0.0347  0.0815
 8003TIP3   OH245423   6.488   3.448  14.695 -0.1451 -0.0093 -0.4020
 8003TIP3    H145424   6.567   3.497  14.672 -0.7815  0.6671 -1.1417
 8003TIP3    H245425   6.515   3.392  14.768  0.7253  1.0296  0.0733
 8004TIP3   OH245426   5.818   1.868   2.318  0.0127 -0.0483  0.8273
 8004TIP3    H145427   5.905   1.908   2.311 -1.2460  2.5747 -0.6831
 8004TIP3    H245428   5.788   1.892   2.405 -0.4102  1.6579  0.2236
 8005TIP3   OH245429   4.155   2.908   3.648  0.4884 -0.0875  0.0115
 8005TIP3    H145430   4.219   2.917   3.719  0.4676 -3.1864  0.4905
 8005TIP3    H245431   4.200   2.854   3.582 -0.1618  1.2024 -1.5168
 8006TIP3   OH245432   0.194   2.565  13.027  0.0057 -0.5583 -0.0534
 8006TIP3    H145433   0.138   2.639  13.048  0.5827 -0.4424  1.1350
 8006TIP3    H245434   0.135   2.490  13.023 -0.3137 -0.3560  0.7001
 8007TIP3   OH245435   0.032   4.051  13.147  0.2808  0.5119 -0.0512
 8007TIP3    H145436  -0.005   4.139  13.143 -0.9198  0.0113 -0.1151
 8007TIP3    H245437   0.107   4.053  13.088 -0.8643  0.9563 -1.5103
 8008TIP3   OH245438   4.239   4.125  15.943  0.0022 -0.0610 -0.4077
 8008TIP3    H145439   4.214   4.091  16.029  0.0724 -0.1961 -0.4394
 8008TIP3    H245440   4.162   4.110  15.888  0.5081 -1.4472 -0.7815
 8009TIP3   OH245441   6.235   2.370   4.596  0.0507 -0.1278  0.2233
 8009TIP3    H145442   6.300   2.376   4.526  1.1219  0.6237  1.2620
 8009TIP3    H245443   6.198   2.458   4.602  0.9192  0.1530  1.5002
 8010TIP3   OH245444   1.508   3.522  15.931  0.0314 -0.0259  0.1238
 8010TIP3    H145445   1.574   3.590  15.947 -1.0285  0.6997  1.5191
 8010TIP3    H245446   1.452   3.525  16.008 -2.2571  0.0628 -1.5094
 8011TIP3   OH245447   3.605   4.632  13.605  0.0068  0.1677 -0.0436
 8011TIP3    H145448   3.609   4.628  13.509 -0.5581 -0.6540 -0.0348
 8011TIP3    H245449   3.596   4.726  13.624 -0.6216  0.2775 -0.8300
 8012TIP3   OH245450   1.433   1.580   2.099 -0.3155 -0.6699  0.6858
 8012TIP3    H145451   1.371   1.603   2.168 -1.4898 -1.4817 -0.0759
 8012TIP3    H245452   1.384   1.596   2.018  1.1385  0.5665  0.0309
 8013TIP3   OH245453   0.340   5.368   2.746  0.2462 -0.3168 -0.1753
 8013TIP3    H145454   0.318   5.352   2.838 -1.1047 -0.1937 -0.4742
 8013TIP3    H245455   0.294   5.299   2.698 -0.2152  0.4893 -0.8898
 8014TIP3   OH245456   0.599   0.332  16.326  0.2717 -0.2327 -0.5197
 8014TIP3    H145457   0.677   0.358  16.278 -0.1566  1.8708 -0.1363
 8014TIP3    H245458   0.531   0.325  16.260 -0.0512  1.5676 -0.4275
 8015TIP3   OH245459   4.977   5.850   4.341  0.5202 -0.3338 -0.0381
 8015TIP3    H145460   4.896   5.856   4.392 -0.3297 -2.3974 -1.0962
 8015TIP3    H245461   4.998   5.941   4.320 -1.5358  0.2459  0.2454
 8016TIP3   OH245462   4.280   3.284  13.543 -0.3642 -0.2777 -0.4652
 8016TIP3    H145463   4.256   3.210  13.487  0.1234  0.0221 -1.0675
 8016TIP3    H245464   4.196   3.321  13.571 -0.6326 -1.9478  1.0222
 8017TIP3   OH245465   5.677   5.950  16.578 -0.0859 -0.1347 -0.1200
 8017TIP3    H145466   5.693   5.950  16.672 -0.3546  0.4698 -0.0741
 8017TIP3    H245467   5.687   6.041  16.551 -0.2738 -0.2605 -0.6320
 8018TIP3   OH245468   4.179   6.167  13.852  0.2008 -0.2795 -0.0352
 8018TIP3    H145469   4.212   6.192  13.766  0.4388  0.2186  0.1988
 8018TIP3    H245470   4.237   6.096  13.880  0.7513  0.2386  0.1460
 8019TIP3   OH245471   3.714   4.391   1.032  0.1434  0.7112 -0.1388
 8019TIP3    H145472   3.665   4.472   1.050 -0.4229  0.4900 -0.6652
 8019TIP3    H245473   3.766   4.377   1.111 -0.8723  0.7851  0.5558
 8020TIP3   OH245474   2.147   0.083   5.980  0.1720  0.4222 -0.3478
 8020TIP3    H145475   2.198   0.019   6.030 -0.0601  0.4691 -0.0428
 8020TIP3    H245476   2.060   0.042   5.972  0.1485  0.5085 -0.5283
 8021TIP3   OH245477   2.004   4.165   0.312  0.2158 -0.8288 -0.1217
 8021TIP3    H145478   2.004   4.198   0.402 -0.9377  0.0587 -0.4441
 8021TIP3    H245479   2.064   4.223   0.265 -2.5280  1.4974 -0.9071
 8022TIP3   OH245480   5.609   6.640   4.352  0.1787 -0.4194  0.2344
 8022TIP3    H145481   5.683   6.635   4.412 -1.3051 -0.5636  2.0797
 8022TIP3    H245482   5.612   6.730   4.319 -0.2058  0.3057  2.1187
 8023TIP3   OH245483   3.844   3.341  12.929 -0.0930  0.4988 -0.0337
 8023TIP3    H145484   3.820   3.359  12.838 -0.0885 -2.9655 -0.7739
 8023TIP3    H245485   3.932   3.379  12.938  0.5767 -0.5464 -1.9585
 8024TIP3   OH245486   0.167   5.793  16.928  0.6961  0.4034 -0.0116
 8024TIP3    H145487   0.209   5.788  16.842 -0.2701  3.9644 -0.7971
 8024TIP3    H245488   0.222   5.852  16.978 -0.1956  0.4642  0.9079
 8025TIP3   OH245489   2.978   5.402  12.148 -0.7197  0.1226 -0.4349
 8025TIP3    H145490   2.887   5.424  12.170 -0.3174  1.0717  0.3037
 8025TIP3    H245491   2.980   5.402  12.052 -1.5090  0.0516 -0.4534
 8026TIP3   OH245492   5.037   2.373  11.397  0.0720 -0.6291 -0.0112
 8026TIP3    H145493   5.075   2.321  11.327 -0.7323 -0.8119 -0.3145
 8026TIP3    H245494   4.945   2.347  11.400  0.1316 -0.7567  1.2288
 8027TIP3   OH245495   2.185   2.399  14.828  0.2640 -0.2319  0.1242
 8027TIP3    H145496   2.093   2.418  14.846  0.1913  0.1546 -0.6777
 8027TIP3    H245497   2.222   2.382  14.915  0.1325  2.6500  0.7849
 8028TIP3   OH245498   6.141   1.250   4.726  0.6289 -0.0583  0.4069
 8028TIP3    H145499   6.139   1.345   4.734  0.1375  0.0364 -0.6962
 8028TIP3    H245500   6.179   1.234   4.639 -0.5732 -0.8192  0.0068
 8029TIP3   OH245501   2.239   1.030   1.371  0.5361  0.1203  0.9474
 8029TIP3    H145502   2.245   1.107   1.314  1.5444  0.9040  2.0867
 8029TIP3    H245503   2.178   1.056   1.440 -0.6154 -0.7979  0.3041
 8030TIP3   OH245504   1.892   2.616  14.512 -0.3045  0.1486  0.4221
 8030TIP3    H145505   1.861   2.642  14.425 -0.1867 -0.7172  0.1207
 8030TIP3    H245506   1.952   2.686  14.538 -0.8949  0.7810  0.1227
 8031TIP3   OH245507   0.750   4.986   2.631 -0.7361  0.7218 -0.3320
 8031TIP3    H145508   0.762   5.012   2.539 -0.3329 -1.2274 -0.8624
 8031TIP3    H245509   0.784   4.897   2.635 -2.3574  0.1498  1.3239
 8032TIP3   OH245510   3.504   4.864  14.447  0.0169  0.4330  0.7006
 8032TIP3    H145511   3.472   4.785  14.403  1.8851  1.7439 -3.1430
 8032TIP3    H245512   3.473   4.936  14.393 -0.9998  2.3750  3.7621
 8033TIP3   OH245513   4.275   1.133   3.943  0.2268 -0.2286 -0.7867
 8033TIP3    H145514   4.278   1.039   3.962  0.2859 -0.6706 -2.9040
 8033TIP3    H245515   4.358   1.151   3.899  1.7117  1.5175  2.5183
 8034TIP3   OH245516   1.611   0.842   2.008 -0.6681 -0.2589 -0.1026
 8034TIP3    H145517   1.648   0.884   1.930 -0.4129  0.2166  0.2809
 8034TIP3    H245518   1.518   0.866   2.006 -0.2764  1.3701  0.8083
 8035TIP3   OH245519   6.186   1.342   5.736 -0.2417  0.5701  0.5341
 8035TIP3    H145520   6.226   1.429   5.745 -1.5588  1.3246 -0.7454
 8035TIP3    H245521   6.149   1.342   5.648  1.8766 -2.2039 -0.4334
 8036TIP3   OH245522   5.547   6.350   4.384 -0.1306 -0.2037 -0.8286
 8036TIP3    H145523   5.594   6.428   4.353  1.6734 -0.7163  0.5024
 8036TIP3    H245524   5.490   6.383   4.454 -1.5046  0.3620 -2.1914
 8037TIP3   OH245525   0.262   5.572   6.811  0.2820 -0.4498  0.3708
 8037TIP3    H145526   0.353   5.561   6.785  0.0985 -0.3702 -0.3277
 8037TIP3    H245527   0.248   5.667   6.811 -0.4452 -0.5203 -1.8649
 8038TIP3   OH245528   1.566   2.633  14.842 -0.0757 -0.2147 -0.6517
 8038TIP3    H145529   1.514   2.713  14.840  0.8248  0.3628 -0.8727
 8038TIP3    H245530   1.501   2.563  14.848 -0.9054  0.4786 -1.3920
 8039TIP3   OH245531   6.028   4.651   3.794 -0.1498  0.2126 -0.6900
 8039TIP3    H145532   6.044   4.738   3.830  0.1227  1.4134 -3.5222
 8039TIP3    H245533   6.115   4.609   3.792 -0.0921  0.3181 -0.4178
 8040TIP3   OH245534   5.428   4.380  14.916  0.3153 -0.7926 -0.1655
 8040TIP3    H145535   5.447   4.290  14.889  0.1932 -0.3058 -1.9453
 8040TIP3    H245536   5.508   4.428  14.897  0.2749 -0.4613  0.4999
 8041TIP3   OH245537   1.963   1.281   3.215  0.5035 -0.5619  0.4252
 8041TIP3    H145538   1.939   1.190   3.195  0.6225 -0.2956 -1.0274
 8041TIP3    H245539   2.012   1.276   3.296 -1.2020 -1.5719  1.4263
 8042TIP3   OH245540   0.289   2.256  12.087  0.1038 -0.2385 -0.2388
 8042TIP3    H145541   0.252   2.200  12.018  0.6899 -0.6267 -0.2381
 8042TIP3    H245542   0.263   2.212  12.169  0.5404 -0.4986 -0.2376
 8043TIP3   OH245543   2.527   4.149   5.908  0.6017 -0.9093 -0.0019
 8043TIP3    H145544   2.507   4.143   6.001 -1.2776 -2.0884 -0.4701
 8043TIP3    H245545   2.572   4.067   5.887  1.9186 -0.2165  0.0685
 8044TIP3   OH245546   2.932   5.999   0.399 -0.3241 -0.0361 -0.0736
 8044TIP3    H145547   3.014   5.963   0.363 -0.4616 -0.0725 -0.3546
 8044TIP3    H245548   2.866   5.934   0.379 -0.1717 -0.6634  1.4273
 8045TIP3   OH245549   3.010   5.026   5.592 -0.0931  0.3301  0.1614
 8045TIP3    H145550   3.041   4.993   5.507  0.3450 -0.2933  0.5609
 8045TIP3    H245551   3.035   4.959   5.655 -1.1475  0.4177  0.6795
 8046TIP3   OH245552   1.963   0.529  15.643 -0.3525  0.3823  0.2343
 8046TIP3    H145553   1.918   0.448  15.666 -0.6785  0.4120 -0.2825
 8046TIP3    H245554   1.968   0.578  15.725  0.1136 -0.2891  0.6120
 8047TIP3   OH245555   5.228   1.795  12.258 -0.2806  0.0252 -0.1531
 8047TIP3    H145556   5.295   1.857  12.230 -0.3388 -0.2171 -0.8236
 8047TIP3    H245557   5.277   1.724  12.299 -0.2048  0.4434  0.4943
 8048TIP3   OH245558   2.109   5.801  15.390  0.3141 -0.1567 -0.5928
 8048TIP3    H145559   2.193   5.769  15.358  0.4122 -1.0392  0.5302
 8048TIP3    H245560   2.077   5.732  15.447 -1.5200 -0.1401 -1.5551
 8049TIP3   OH245561   6.151   3.756  12.446 -0.2244  0.5711 -0.3060
 8049TIP3    H145562   6.120   3.814  12.376  0.5158  0.9535 -0.3230
 8049TIP3    H245563   6.161   3.671  12.404  1.7394  1.1544 -1.0627
 8050TIP3   OH245564   0.789   6.772  12.829 -0.0744 -0.3560 -0.3730
 8050TIP3    H145565   0.791   6.711  12.903 -2.0063  0.9123  0.7540
 8050TIP3    H245566   0.851   6.840  12.852 -1.0640  0.3155  0.3441
 8051TIP3   OH245567   4.901   5.836  16.090 -0.1043 -0.4220  0.4203
 8051TIP3    H145568   4.849   5.779  16.147 -0.0985 -0.5708  0.2772
 8051TIP3    H245569   4.965   5.876  16.148 -2.9314  2.9302  1.4034
 8052TIP3   OH245570   1.126   2.914  15.206 -0.3026 -0.3357 -0.4436
 8052TIP3    H145571   1.153   2.871  15.124  0.6041 -0.1315 -0.2514
 8052TIP3    H245572   1.156   3.004  15.197 -1.3864  0.0267 -0.4443
 8053TIP3   OH245573   5.371   5.073   4.061 -0.2566  0.5825  0.7319
 8053TIP3    H145574   5.402   5.163   4.068  1.4144  0.1568 -0.8372
 8053TIP3    H245575   5.424   5.024   4.124 -0.0310  0.4153  0.4130
 8054TIP3   OH245576   5.262   2.808   1.105  0.6541  0.2782 -0.0366
 8054TIP3    H145577   5.329   2.764   1.052 -0.9596 -1.8986 -0.3411
 8054TIP3    H245578   5.210   2.857   1.041  0.7614  0.3972 -0.0333
 8055TIP3   OH245579   2.448   2.076   2.559  0.1899  0.2607 -0.1561
 8055TIP3    H145580   2.386   2.013   2.522  1.2854 -0.5399 -0.6522
 8055TIP3    H245581   2.420   2.160   2.522  0.8362 -0.4227 -2.3288
 8056TIP3   OH245582   3.076   0.887   2.919  0.1533 -0.3134  0.0606
 8056TIP3    H145583   3.154   0.874   2.974  1.2676  1.4593 -1.0389
 8056TIP3    H245584   3.004   0.854   2.972  1.5939 -1.5603  1.3031
 8057TIP3   OH245585   2.672   3.522  16.371 -0.6329 -0.1446 -0.0043
 8057TIP3    H145586   2.684   3.592  16.435 -0.9387  1.1184 -1.3145
 8057TIP3    H245587   2.608   3.556  16.309  1.8208 -0.1654 -2.6687
 8058TIP3   OH245588   0.015   1.859   3.100  0.1528 -0.0080  0.2712
 8058TIP3    H145589   0.069   1.819   3.031 -0.0816 -1.6161  1.0092
 8058TIP3    H245590   0.018   1.952   3.080  1.7364 -0.2427 -0.7627
 8059TIP3   OH245591   2.449   6.100  15.572  0.3225 -0.6263  0.3588
 8059TIP3    H145592   2.495   6.106  15.489 -0.6035  0.3333 -0.0970
 8059TIP3    H245593   2.476   6.016  15.609  3.5352  0.5397  0.7759
 8060TIP3   OH245594   1.400   2.882   3.141  0.1279 -0.1635 -0.3481
 8060TIP3    H145595   1.370   2.924   3.222 -1.7755 -2.8275  0.3819
 8060TIP3    H245596   1.338   2.910   3.075 -0.8368 -1.3956  0.0289
 8061TIP3   OH245597   2.995   4.971  11.091 -0.0785 -0.3868 -0.4914
 8061TIP3    H145598   2.979   4.883  11.127 -0.1213  0.5120  1.7577
 8061TIP3    H245599   2.932   4.979  11.020 -3.2467 -0.4999  2.1584
 8062TIP3   OH245600   0.204   1.119   5.802  0.0661  0.3812 -0.6571
 8062TIP3    H145601   0.133   1.183   5.793  0.1179  0.3701 -1.1567
 8062TIP3    H245602   0.214   1.108   5.897  0.8733  2.0373 -0.5223
 8063TIP3   OH245603   6.293   4.102  16.896  0.2351  0.1484 -0.3404
 8063TIP3    H145604   6.304   4.158  16.973  0.4606 -0.3259 -0.0271
 8063TIP3    H245605   6.335   4.020  16.920 -0.0231 -0.1289 -0.8336
 8064TIP3   OH245606   5.196   3.679  11.899 -0.2933 -0.0713 -0.4198
 8064TIP3    H145607   5.185   3.656  11.807 -0.7864  0.5508 -0.5236
 8064TIP3    H245608   5.121   3.640  11.943  0.9663 -2.0535  0.0478
 8065TIP3   OH245609   3.036   5.694   1.399 -0.2448  0.4332 -0.0974
 8065TIP3    H145610   3.125   5.665   1.422 -0.4058 -0.8843 -1.0357
 8065TIP3    H245611   2.997   5.719   1.482  1.4974  2.4967  0.1472
 8066TIP3   OH245612   5.638   5.766   5.496 -0.5243  0.0967 -0.5009
 8066TIP3    H145613   5.628   5.857   5.526 -3.0770 -0.1662 -0.4110
 8066TIP3    H245614   5.615   5.770   5.403  2.3481  0.0375 -1.2343
 8067TIP3   OH245615   4.641   3.320   2.778  0.4354 -0.7434  0.3923
 8067TIP3    H145616   4.660   3.359   2.863 -0.7488 -0.5070  0.5614
 8067TIP3    H245617   4.657   3.390   2.715 -3.0236  0.5183  0.8046
 8068TIP3   OH245618   5.568   2.772  12.101 -0.0827 -0.3043  0.4795
 8068TIP3    H145619   5.489   2.720  12.112  0.3232 -0.9309  0.4823
 8068TIP3    H245620   5.579   2.782  12.007 -1.1159  1.2646  0.5171
 8069TIP3   OH245621   4.859   4.279  11.645 -0.1931  0.0515 -0.5636
 8069TIP3    H145622   4.935   4.289  11.702 -1.6656  0.1512  1.4635
 8069TIP3    H245623   4.784   4.288  11.704 -1.7679 -1.9455 -2.1845
 8070TIP3   OH245624   2.262   3.522   5.580  0.0157  0.4031 -0.2388
 8070TIP3    H145625   2.302   3.525   5.666 -0.0714 -0.4284 -0.1671
 8070TIP3    H245626   2.335   3.513   5.519 -0.0310 -0.6824 -0.1366
 8071TIP3   OH245627   1.867   2.136   0.327  0.0944  0.4195 -0.2780
 8071TIP3    H145628   1.841   2.071   0.261 -1.5559  0.9660 -0.1755
 8071TIP3    H245629   1.786   2.161   0.370  1.0994  0.3687  1.7234
 8072TIP3   OH245630   5.303   6.477  16.658  0.0389 -0.1322  0.1962
 8072TIP3    H145631   5.310   6.395  16.707  1.9696 -0.3519 -0.4239
 8072TIP3    H245632   5.393   6.505  16.644 -0.5764  1.6954 -0.3000
 8073TIP3   OH245633   5.249   2.101  12.446  0.3143 -0.0299 -0.5784
 8073TIP3    H145634   5.285   2.053  12.371 -0.5725  0.6093 -1.4205
 8073TIP3    H245635   5.217   2.183  12.409  2.1849  1.4116  0.9098
 8074TIP3   OH245636   4.526   1.235   0.056 -0.5493  0.3798 -0.8266
 8074TIP3    H145637   4.558   1.151   0.024  1.1423  1.0406 -0.9559
 8074TIP3    H245638   4.596   1.266   0.114 -1.4066  1.4390 -0.3429
 8075TIP3   OH245639   1.501   4.366   4.060 -0.6184 -0.9806  0.1297
 8075TIP3    H145640   1.551   4.391   4.138 -2.2306 -0.2916  0.9628
 8075TIP3    H245641   1.469   4.449   4.025  0.5677 -1.2411 -1.5954
 8076TIP3   OH245642   2.629   1.818   3.142  0.3386 -0.4070  1.5410
 8076TIP3    H145643   2.595   1.904   3.166  0.8452  0.3639 -0.3387
 8076TIP3    H245644   2.567   1.785   3.077  2.3609  0.4509 -0.9351
 8077TIP3   OH245645   0.903   3.080  15.537  0.1596  0.0937  0.4260
 8077TIP3    H145646   0.827   3.039  15.578 -0.2497 -0.3482 -0.7570
 8077TIP3    H245647   0.878   3.091  15.445  1.3220  0.4340  0.1433
 8078TIP3   OH245648   3.924   6.513   2.072 -0.1598 -0.3057  0.0970
 8078TIP3    H145649   3.848   6.564   2.045  0.7510  1.3391  0.5752
 8078TIP3    H245650   3.999   6.562   2.037  0.6531 -2.4906 -1.3242
 8079TIP3   OH245651   2.099   3.625  12.323 -0.2421 -0.8315  0.0435
 8079TIP3    H145652   2.096   3.676  12.404  1.6953 -0.3832 -0.1491
 8079TIP3    H245653   2.063   3.540  12.347  0.0126 -0.5930  1.2984
 8080TIP3   OH245654   6.414   6.605   2.820 -0.4886  0.1716 -0.3966
 8080TIP3    H145655   6.330   6.565   2.844 -0.8729  0.2212 -1.5926
 8080TIP3    H245656   6.398   6.643   2.733 -0.0127  2.5370  0.5139
 8081TIP3   OH245657   5.956   1.271   3.691  0.2354  0.3954  0.5905
 8081TIP3    H145658   6.025   1.222   3.648 -0.1479  1.9798 -1.9123
 8081TIP3    H245659   5.972   1.258   3.785  2.3505 -1.3580  0.0215
 8082TIP3   OH245660   6.486   6.423   0.818  0.7273 -0.2454 -0.0608
 8082TIP3    H145661   6.550   6.426   0.746  1.9696 -1.1166  0.9691
 8082TIP3    H245662   6.402   6.413   0.774  1.5320 -1.5053 -1.3966
 8083TIP3   OH245663   6.093   1.599   5.083 -0.0577 -0.3776  0.4014
 8083TIP3    H145664   6.188   1.598   5.076  0.0657 -1.9145  1.9574
 8083TIP3    H245665   6.068   1.506   5.078 -1.3532 -0.0899  1.3738
 8084TIP3   OH245666   6.164   5.890  13.076 -0.5261  0.8929  0.2822
 8084TIP3    H145667   6.121   5.805  13.067 -1.4501  1.5797 -2.3342
 8084TIP3    H245668   6.256   5.873  13.054 -0.7279  0.5778 -0.3270
 8085TIP3   OH245669   1.061   5.769  15.716  0.0443  0.2372 -0.4393
 8085TIP3    H145670   1.063   5.858  15.679 -1.9392 -0.2873 -1.9091
 8085TIP3    H245671   0.968   5.751  15.728  0.3678 -2.0563 -1.1932
 8086TIP3   OH245672   3.520   6.656  16.003  0.2272 -0.3793  0.0355
 8086TIP3    H145673   3.482   6.575  15.969 -1.7544  0.2828  0.6338
 8086TIP3    H245674   3.572   6.629  16.079  0.1404 -1.1648 -0.1866
 8087TIP3   OH245675   2.882   5.700   4.445 -0.5930  0.5895 -0.2402
 8087TIP3    H145676   2.892   5.739   4.358  0.5283  0.4329 -0.1888
 8087TIP3    H245677   2.969   5.707   4.484 -0.6155 -1.0488  0.1490
 8088TIP3   OH245678   5.122   2.492  12.540  0.1583 -0.2871  0.4434
 8088TIP3    H145679   5.152   2.418  12.488  1.4720  1.0614 -0.7390
 8088TIP3    H245680   5.162   2.568  12.500 -1.7120  1.1626  1.2418
 8089TIP3   OH245681   0.624   3.199   2.319 -0.6682 -0.1631  0.0168
 8089TIP3    H145682   0.614   3.104   2.327 -0.9449 -0.1126  0.3189
 8089TIP3    H245683   0.619   3.216   2.225  3.0475 -0.8252 -0.3494
 8090TIP3   OH245684   2.311   2.695  16.278 -0.0397 -0.0852  0.4923
 8090TIP3    H145685   2.357   2.777  16.299 -1.3572  0.6543  0.5473
 8090TIP3    H245686   2.355   2.663  16.199 -0.3932  1.3954 -0.3320
 8091TIP3   OH245687   0.642   4.166  11.549 -0.2220 -0.5937  0.0425
 8091TIP3    H145688   0.624   4.084  11.503  1.1616 -0.8708 -0.0099
 8091TIP3    H245689   0.577   4.168  11.620 -2.0309 -0.4061 -1.5710
 8092TIP3   OH245690   3.194   6.424  14.606  0.3080  0.2446  0.3180
 8092TIP3    H145691   3.252   6.500  14.596 -0.4807  0.7268 -0.6103
 8092TIP3    H245692   3.179   6.418  14.701  1.7516  0.1946  0.5670
 8093TIP3   OH245693   0.580   4.455   2.526  0.1118 -0.0125  0.1248
 8093TIP3    H145694   0.643   4.437   2.595  0.3989  0.3833 -0.0329
 8093TIP3    H245695   0.534   4.372   2.512  0.9220 -0.4234 -0.0975
 8094TIP3   OH245696   0.120   1.369   5.620  0.8953 -0.5827  0.3651
 8094TIP3    H145697   0.193   1.328   5.573  0.8130 -1.0356  0.6291
 8094TIP3    H245698   0.160   1.443   5.666  0.8674  0.2300 -0.9057
 8095TIP3   OH245699   3.759   6.509  13.925  0.0626 -0.2283 -0.3604
 8095TIP3    H145700   3.851   6.481  13.920 -0.1937 -0.9453 -1.3059
 8095TIP3    H245701   3.764   6.604  13.940  0.9511 -0.3588  0.2363
 8096TIP3   OH245702   3.142   5.893  12.697 -0.0485 -0.1417 -0.1067
 8096TIP3    H145703   3.172   5.879  12.607 -0.6118  2.2429 -0.7253
 8096TIP3    H245704   3.217   5.871  12.752  1.1043  0.7007 -1.3207
 8097TIP3   OH245705   6.396   0.770   3.062 -0.1272  0.2224  0.1249
 8097TIP3    H145706   6.439   0.854   3.082 -2.9293  2.1460 -1.5642
 8097TIP3    H245707   6.375   0.734   3.148  2.2759  0.6108  0.9054
 8098TIP3   OH245708   4.764   3.823   6.227 -0.1068  0.0478  0.3388
 8098TIP3    H145709   4.841   3.771   6.205 -0.6757 -0.1396 -1.2249
 8098TIP3    H245710   4.781   3.853   6.316  1.4634 -0.5560  0.2624
 8099TIP3   OH245711   6.358   0.811  13.650 -0.2841 -0.0853  0.0489
 8099TIP3    H145712   6.383   0.735  13.702 -0.6819  0.7766  1.5128
 8099TIP3    H245713   6.279   0.783  13.603 -2.4254  0.4740  3.1527
 8100TIP3   OH245714   6.437   3.496   0.244 -0.4471  0.0615  0.0210
 8100TIP3    H145715   6.482   3.461   0.321 -0.8668  1.6357  0.9939
 8100TIP3    H245716   6.425   3.589   0.263  0.0219  0.6041 -2.2360
 8101TIP3   OH245717   1.633   0.775   1.694  0.1626  0.0900 -0.4222
 8101TIP3    H145718   1.725   0.752   1.707  0.3876  1.2379  0.0786
 8101TIP3    H245719   1.630   0.811   1.606  0.1789  0.0017 -0.4591
 8102TIP3   OH245720   6.587   3.125   2.674  0.6596 -0.1175 -0.3313
 8102TIP3    H145721   6.509   3.155   2.625  0.3610  0.8111  0.6928
 8102TIP3    H245722   6.558   3.123   2.765  1.8495  0.2847  0.0636
 8103TIP3   OH245723   5.500   5.731   6.120 -0.1336 -0.2592  0.0067
 8103TIP3    H145724   5.525   5.790   6.049 -1.2998 -0.2772 -0.4412
 8103TIP3    H245725   5.532   5.773   6.199  0.4908  0.1539 -0.4568
 8104TIP3   OH245726   2.949   3.659   2.438  0.5115 -0.0727  0.2256
 8104TIP3    H145727   3.001   3.595   2.391  1.4243 -0.2121  1.3919
 8104TIP3    H245728   2.909   3.610   2.510 -1.5137 -0.0376 -0.8289
 8105TIP3   OH245729   0.255   2.217   2.309 -0.4850 -0.2537  0.0002
 8105TIP3    H145730   0.163   2.218   2.333 -0.6898  1.4682 -0.7588
 8105TIP3    H245731   0.302   2.212   2.392 -1.2373  0.6736  0.4811
 8106TIP3   OH245732   3.816   3.287  16.289 -0.5209  0.0185  0.0559
 8106TIP3    H145733   3.857   3.274  16.374  0.4361 -0.4475 -0.4766
 8106TIP3    H245734   3.731   3.244  16.296  0.2714 -1.5312  0.1978
 8107TIP3   OH245735   3.409   2.517  12.280  0.0007  0.1529 -0.3382
 8107TIP3    H145736   3.474   2.585  12.264  0.1988 -0.5140 -2.4381
 8107TIP3    H245737   3.333   2.564  12.313  0.7473  1.1862 -0.0735
 8108TIP3   OH245738   6.595   1.228   4.699 -0.3761  0.0587  0.1114
 8108TIP3    H145739   6.644   1.303   4.665 -0.9421  0.7696  0.8447
 8108TIP3    H245740   6.503   1.256   4.694 -0.4872  0.0765  1.9514
 8109TIP3   OH245741   1.550   3.279  15.801  0.5399  0.4330 -0.4088
 8109TIP3    H145742   1.581   3.321  15.881  0.5808 -0.6267  0.1422
 8109TIP3    H245743   1.498   3.346  15.757  2.0347  1.6230 -0.4142
 8110TIP3   OH245744   5.323   0.114   2.874 -0.1233  0.4044 -0.8786
 8110TIP3    H145745   5.269   0.193   2.878 -2.1194 -0.9643 -0.0820
 8110TIP3    H245746   5.293   0.061   2.948  1.2433 -1.0748 -1.3652
 8111TIP3   OH245747   2.927   6.275  14.055 -0.0961  0.0908 -0.2459
 8111TIP3    H145748   2.989   6.332  14.011 -0.5920 -0.3938 -1.6118
 8111TIP3    H245749   2.906   6.208  13.990  0.4086 -1.6004  1.2959
 8112TIP3   OH245750   3.324   4.655   2.154  0.5588 -0.2731 -0.3884
 8112TIP3    H145751   3.247   4.598   2.152 -0.1768  0.6552  0.7893
 8112TIP3    H245752   3.296   4.735   2.110  1.1651 -0.3237 -0.8612
 8113TIP3   OH245753   0.438   3.323   5.086 -0.0213  0.1350 -0.5985
 8113TIP3    H145754   0.473   3.243   5.126  0.9268  0.7042 -0.2676
 8113TIP3    H245755   0.435   3.386   5.157 -2.4847 -0.1147 -0.4450
 8114TIP3   OH245756   3.663   2.403  11.565  0.3008  0.3720 -0.4002
 8114TIP3    H145757   3.707   2.488  11.574  0.2510  0.2701  0.7930
 8114TIP3    H245758   3.569   2.424  11.568  0.2627  0.4208 -1.4981
 8115TIP3   OH245759   1.027   6.447  15.171 -0.0629  0.3021 -0.0110
 8115TIP3    H145760   1.109   6.397  15.173 -1.1172 -1.4490 -0.0189
 8115TIP3    H245761   1.044   6.517  15.108  0.9616 -0.8730 -1.0703
 8116TIP3   OH245762   5.435   2.534   4.613  0.0490 -0.3691  0.7127
 8116TIP3    H145763   5.523   2.552   4.646  0.0075 -0.0779  0.6631
 8116TIP3    H245764   5.414   2.609   4.558  0.3871 -1.1482 -0.5094
 8117TIP3   OH245765   0.111   6.505  16.681 -0.1301  0.0350  0.2370
 8117TIP3    H145766   0.199   6.542  16.668 -0.7066  1.3200 -0.0103
 8117TIP3    H245767   0.099   6.506  16.776 -0.2896  0.8062  0.2067
 8118TIP3   OH245768   2.107   2.567  15.654 -0.4002 -0.1152  0.1776
 8118TIP3    H145769   2.012   2.562  15.643 -0.5053 -1.7972  1.6672
 8118TIP3    H245770   2.135   2.632  15.589 -2.3519 -0.9249 -1.5458
 8119TIP3   OH245771   3.295   4.007   1.441 -0.6388  0.0196  0.0942
 8119TIP3    H145772   3.283   3.934   1.380  0.4425 -0.3328  0.2874
 8119TIP3    H245773   3.259   4.083   1.395  0.9050 -0.0916 -1.3397
 8120TIP3   OH245774   0.809   4.574   5.087 -0.4081  0.0537  0.0769
 8120TIP3    H145775   0.766   4.583   5.002  0.2583  1.1920 -0.1451
 8120TIP3    H245776   0.834   4.482   5.091 -1.4348 -0.2620 -0.4715
 8121TIP3   OH245777   0.261   2.769   4.704 -0.4559  0.4738 -0.2659
 8121TIP3    H145778   0.202   2.792   4.631  0.0874 -0.8430 -1.1417
 8121TIP3    H245779   0.234   2.827   4.775 -0.8284  1.9799 -1.5929
 8122TIP3   OH245780   4.550   5.570   0.065  0.1533  0.2368 -0.0001
 8122TIP3    H145781   4.645   5.582   0.063  0.4734 -1.8149  1.3691
 8122TIP3    H245782   4.534   5.498   0.004 -0.5648  0.8139 -0.4934
 8123TIP3   OH245783   6.154   0.244  13.393 -0.1148 -0.1555 -0.6490
 8123TIP3    H145784   6.096   0.169  13.410 -0.8513  0.1299 -1.8951
 8123TIP3    H245785   6.239   0.204  13.376  0.2618 -0.5359  1.9913
 8124TIP3   OH245786   4.680   6.629   5.110  0.2983  0.0163  0.9038
 8124TIP3    H145787   4.695   6.584   5.027  2.3808  0.5143  0.9906
 8124TIP3    H245788   4.701   6.563   5.177 -2.6319 -0.8036  1.0795
 8125TIP3   OH245789   3.391   3.674  16.110 -0.2128 -0.7256  0.1087
 8125TIP3    H145790   3.330   3.744  16.133  0.1315 -0.2039 -0.5343
 8125TIP3    H245791   3.461   3.719  16.062 -0.7414 -1.7251 -1.6491
 8126TIP3   OH245792   4.796   3.785   5.297  0.6319 -0.0092  0.3761
 8126TIP3    H145793   4.817   3.719   5.231 -1.2948 -0.4104  0.1258
 8126TIP3    H245794   4.784   3.735   5.378 -1.7614 -0.1080 -0.0138
 8127TIP3   OH245795   6.550   1.231  15.671  0.1869 -0.3263 -0.1179
 8127TIP3    H145796   6.491   1.163  15.704  0.4708 -0.9487 -0.8647
 8127TIP3    H245797   6.577   1.279  15.749 -2.0371  0.5741  0.1339
 8128TIP3   OH245798   0.523   1.011  15.941 -0.2695 -0.4241 -1.1929
 8128TIP3    H145799   0.445   1.000  15.887 -0.3076 -0.8498 -1.0568
 8128TIP3    H245800   0.492   1.051  16.022 -0.1170  0.7976 -1.7346
 8129TIP3   OH245801   3.150   4.361  16.951  0.1911 -0.2283 -0.2131
 8129TIP3    H145802   3.218   4.296  16.934  1.4290  1.2451 -1.0390
 8129TIP3    H245803   3.144   4.412  16.870 -1.6592 -0.0962 -0.0275
 8130TIP3   OH245804   3.990   0.606  11.113 -0.1770 -0.0490  0.3351
 8130TIP3    H145805   3.910   0.657  11.117 -0.2951 -0.1841 -0.2193
 8130TIP3    H245806   4.030   0.616  11.199 -0.9270 -0.2063  0.7011
 8131TIP3   OH245807   3.186   3.692  14.750 -0.5070  0.1972 -0.1500
 8131TIP3    H145808   3.111   3.748  14.729 -0.0437  1.0626  0.4541
 8131TIP3    H245809   3.221   3.728  14.831  1.3838  0.6780 -1.1308
 8132TIP3   OH245810   5.214   1.347   0.416 -0.2914 -0.5550  0.0685
 8132TIP3    H145811   5.120   1.365   0.421 -0.8915 -3.2279 -0.4984
 8132TIP3    H245812   5.237   1.362   0.324 -0.3990 -0.9279 -0.0199
 8133TIP3   OH245813   6.136   0.861   3.413 -0.0045  0.1172  0.6202
 8133TIP3    H145814   6.123   0.828   3.324 -0.6943  1.9361  0.0128
 8133TIP3    H245815   6.057   0.911   3.431 -0.0743 -0.6576  2.4535
 8134TIP3   OH245816   5.595   4.420   3.072  0.1169  0.0725  0.4903
 8134TIP3    H145817   5.513   4.466   3.058  1.6933  2.2946 -1.9405
 8134TIP3    H245818   5.582   4.334   3.031 -1.4458 -0.1277  1.3820
 8135TIP3   OH245819   5.926   4.887  16.689 -0.3667 -0.3534 -0.0656
 8135TIP3    H145820   5.936   4.792  16.682  1.4052 -0.0854 -1.4086
 8135TIP3    H245821   5.986   4.913  16.758  0.4222 -0.0134 -0.8723
 8136TIP3   OH245822   6.761   4.411  13.741 -0.5340 -0.5187 -0.4859
 8136TIP3    H145823   6.842   4.447  13.704 -0.8159 -0.4067 -0.9925
 8136TIP3    H245824   6.791   4.353  13.811 -0.1057  1.4654  1.0235
 8137TIP3   OH245825   5.195   3.800  12.417  0.5309  0.1927 -0.1778
 8137TIP3    H145826   5.252   3.873  12.393 -1.9376  1.5717 -1.9940
 8137TIP3    H245827   5.229   3.726  12.367  2.4524  0.2880  0.9397
 8138TIP3   OH245828   1.700   5.934  11.962 -0.0016  0.4961 -0.4924
 8138TIP3    H145829   1.611   5.926  11.997 -0.6270  0.3297 -2.0908
 8138TIP3    H245830   1.731   6.018  11.996 -0.6938  0.4743  0.2208
 8139TIP3   OH245831   1.983   4.976  16.428 -0.1498 -0.0406  0.3325
 8139TIP3    H145832   2.012   4.929  16.350 -0.1705 -2.0951  1.5250
 8139TIP3    H245833   2.060   5.027  16.455 -0.5107  1.5790 -1.6711
 8140TIP3   OH245834   5.417   3.183  16.428  0.0583 -0.4154 -0.1215
 8140TIP3    H145835   5.443   3.092  16.440  0.5360 -0.1204  1.1506
 8140TIP3    H245836   5.484   3.220  16.370 -0.2177 -0.9063 -0.7559
 8141TIP3   OH245837   3.296   1.005  15.842 -0.1678  0.8317 -0.2000
 8141TIP3    H145838   3.277   1.002  15.749  0.6833  0.2413 -0.3621
 8141TIP3    H245839   3.228   1.062  15.879 -0.0908  1.6226 -1.2733
 8142TIP3   OH245840   4.127   3.359  16.188 -0.0143  0.2029  0.2380
 8142TIP3    H145841   4.121   3.289  16.254  0.8549 -0.4580 -0.3677
 8142TIP3    H245842   4.058   3.337  16.124  1.7210 -1.4157 -1.1528
 8143TIP3   OH245843   3.575   6.041  11.264  0.4536 -0.1810 -0.7031
 8143TIP3    H145844   3.499   5.985  11.284 -1.1688  2.4418  0.8295
 8143TIP3    H245845   3.571   6.055  11.170 -1.2385  0.2425 -0.5870
 8144TIP3   OH245846   1.489   4.419   1.710  0.0331  0.0627  0.6767
 8144TIP3    H145847   1.495   4.324   1.704  2.1553  0.2665 -1.1863
 8144TIP3    H245848   1.561   4.445   1.767  0.6102  0.6535 -0.2947
 8145TIP3   OH245849   6.038   3.568   4.980  0.4992  0.0742 -0.2618
 8145TIP3    H145850   5.974   3.635   4.958  0.4293  0.0482 -0.1324
 8145TIP3    H245851   6.029   3.555   5.074 -0.5023 -1.1701 -0.5166
 8146TIP3   OH245852   1.519   0.006   1.785  0.0286  0.3741 -0.2107
 8146TIP3    H145853   1.592  -0.035   1.738 -0.7580 -0.6818 -0.5428
 8146TIP3    H245854   1.528  -0.025   1.875 -0.0817  0.1259 -0.2829
 8147TIP3   OH245855   6.613   6.268   1.339  0.1678  0.2527  0.4058
 8147TIP3    H145856   6.684   6.226   1.291 -0.1559  1.4000 -1.1443
 8147TIP3    H245857   6.616   6.230   1.426  2.7075  0.3124  0.3675
 8148TIP3   OH245858   3.758   2.082  17.016  0.8255 -0.5938  0.0812
 8148TIP3    H145859   3.806   2.042  17.088  1.5266  0.6972  0.3482
 8148TIP3    H245860   3.797   2.046  16.937  0.6536 -1.3257  0.3258
 8149TIP3   OH245861   6.168   3.416   0.102  0.0749 -0.0505 -0.2236
 8149TIP3    H145862   6.234   3.484   0.090 -0.2192  0.1731 -0.5768
 8149TIP3    H245863   6.088   3.463   0.122  0.1882 -0.3532  1.0003
 8150TIP3   OH245864   5.867   6.256   1.503 -0.2471  0.1291  0.2185
 8150TIP3    H145865   5.960   6.280   1.494 -0.2013  0.3313  1.1962
 8150TIP3    H245866   5.860   6.173   1.456  0.1398  0.7701 -1.0076
 8151TIP3   OH245867   6.280   1.012  17.088  0.3224  0.3857 -0.7836
 8151TIP3    H145868   6.240   0.936  17.130 -1.7104  1.7132 -0.2300
 8151TIP3    H245869   6.300   1.071  17.160 -0.0225  1.2373 -1.3734
 8152TIP3   OH245870   1.913   1.570   2.353 -0.3041 -0.5046 -0.4998
 8152TIP3    H145871   1.874   1.632   2.416 -0.6733 -1.2746  0.0453
 8152TIP3    H245872   1.840   1.546   2.295 -0.5403 -1.5577  0.2088
 8153TIP3   OH245873   3.487   5.923   2.572  0.0047 -0.4133 -0.3301
 8153TIP3    H145874   3.463   6.004   2.528  1.0423 -0.9269 -1.8777
 8153TIP3    H245875   3.482   5.944   2.666 -0.3031  1.2637 -0.7157
 8154TIP3   OH245876   2.205   0.914  14.920 -0.0475 -0.4120 -0.2968
 8154TIP3    H145877   2.261   0.989  14.942 -0.1568 -0.3995 -0.0535
 8154TIP3    H245878   2.162   0.892  15.003  0.0312 -0.7832 -0.3552
 8155TIP3   OH245879   0.192   0.373  12.924 -0.1824 -0.1050 -0.3363
 8155TIP3    H145880   0.165   0.286  12.954  0.3492  0.2861  1.3724
 8155TIP3    H245881   0.216   0.419  13.005  2.3965  0.6411 -1.4787
 8156TIP3   OH245882   0.659   2.288  13.002 -0.3359  0.3418  0.4132
 8156TIP3    H145883   0.624   2.225  13.065  0.3636 -1.9832 -1.4009
 8156TIP3    H245884   0.584   2.314  12.949 -0.3237 -0.3694  0.0376
 8157TIP3   OH245885   3.596   6.461  14.935 -0.0334 -0.0400 -0.0101
 8157TIP3    H145886   3.580   6.527  15.002 -0.9046 -0.8516  0.5862
 8157TIP3    H245887   3.653   6.397  14.977 -1.7625 -1.3074  0.4384
 8158TIP3   OH245888   2.951   4.276   0.490  0.6615 -0.5742 -0.1570
 8158TIP3    H145889   3.035   4.309   0.458  0.7830 -1.3071 -0.6042
 8158TIP3    H245890   2.966   4.183   0.504 -0.2727 -0.8377 -0.8767
 8159TIP3   OH245891   5.567   0.122   1.908 -0.6367 -0.0036 -0.2539
 8159TIP3    H145892   5.558   0.068   1.987 -1.3109  0.9574  0.3279
 8159TIP3    H245893   5.487   0.174   1.904 -0.9446 -0.5598 -1.9787
 8160TIP3   OH245894   2.090   4.805  14.959  0.0033  0.0310  0.3619
 8160TIP3    H145895   2.138   4.874  15.004  1.1136  1.3579 -2.6970
 8160TIP3    H245896   2.027   4.852  14.903  0.4584 -1.4104 -1.4226
 8161TIP3   OH245897   1.031   2.510   2.224 -0.2988  0.4082  0.2995
 8161TIP3    H145898   1.107   2.556   2.188  0.3092  0.3742  1.4987
 8161TIP3    H245899   1.067   2.428   2.257 -0.5951  0.9896  2.1321
 8162TIP3   OH245900   4.207   5.465  12.630 -0.0098 -0.2331 -0.4731
 8162TIP3    H145901   4.210   5.527  12.703 -0.9755  0.5085 -1.0434
 8162TIP3    H245902   4.295   5.428  12.626  0.6937  1.3769 -0.3570
 8163TIP3   OH245903   4.690   2.443   4.885  0.1355 -0.0884  0.0650
 8163TIP3    H145904   4.645   2.527   4.884  1.3045  0.5465 -1.3073
 8163TIP3    H245905   4.752   2.448   4.812  1.9012 -1.2047  1.4417
 8164TIP3   OH245906   6.321   1.179   2.218 -0.3201  0.1737 -0.1883
 8164TIP3    H145907   6.366   1.219   2.144 -2.3298  0.4076 -1.3423
 8164TIP3    H245908   6.372   1.102   2.240  1.8681  1.6422  0.0248
 8165TIP3   OH245909   2.021   4.784  11.131 -0.1676  0.4269  0.5170
 8165TIP3    H145910   2.039   4.774  11.038  0.4649  1.4939  0.5128
 8165TIP3    H245911   2.039   4.698  11.169 -0.1776  0.0620 -0.2988
 8166TIP3   OH245912   2.996   0.477   1.421  0.1060  0.1680 -0.3397
 8166TIP3    H145913   2.949   0.478   1.337 -0.0245  0.4675 -0.2634
 8166TIP3    H245914   2.929   0.497   1.486  0.3033  0.4151 -0.2122
 8167TIP3   OH245915   0.110   1.384  11.412  0.0544  0.4375 -0.0167
 8167TIP3    H145916   0.047   1.336  11.359  1.4809  0.3000 -1.6316
 8167TIP3    H245917   0.081   1.475  11.406 -1.0311  0.1494  0.7463
 8168TIP3   OH245918   1.278   5.029  13.520 -0.0839 -0.1790 -0.2676
 8168TIP3    H145919   1.323   4.950  13.492 -0.6253 -0.1052 -1.3676
 8168TIP3    H245920   1.340   5.099  13.504  0.3942 -0.3754  0.7027
 8169TIP3   OH245921   0.729   2.641   1.711  0.2257 -0.0199 -0.5902
 8169TIP3    H145922   0.641   2.629   1.747  0.2240  0.5262 -0.4001
 8169TIP3    H245923   0.714   2.674   1.623  0.2379  0.1486 -0.5299
 8170TIP3   OH245924   4.518   6.306   5.706  0.4365 -0.2089 -0.0644
 8170TIP3    H145925   4.604   6.338   5.733 -0.3560  0.4467  1.7634
 8170TIP3    H245926   4.525   6.210   5.714  0.9078 -0.1454  0.2955
 8171TIP3   OH245927   0.394   1.360   5.535 -0.1486 -0.3580 -0.0602
 8171TIP3    H145928   0.362   1.447   5.513 -1.6939 -1.0969 -0.7899
 8171TIP3    H245929   0.465   1.344   5.474 -0.1395  0.2180 -0.2024
 8172TIP3   OH245930   0.663   2.202   2.175  0.1540 -0.3187  0.0010
 8172TIP3    H145931   0.615   2.248   2.244 -0.7486 -0.4576 -0.5347
 8172TIP3    H245932   0.717   2.271   2.135 -0.7311  0.1480 -0.3940
 8173TIP3   OH245933   2.296   2.049  15.233 -0.3004 -0.7832  0.0061
 8173TIP3    H145934   2.391   2.054  15.224 -0.4524  0.9740 -0.7770
 8173TIP3    H245935   2.282   2.017  15.322  1.0065  0.6568  0.7459
 8174TIP3   OH245936   2.344   4.855   0.465 -0.1446 -0.3673 -0.1222
 8174TIP3    H145937   2.342   4.846   0.560  0.5733 -0.2840 -0.0950
 8174TIP3    H245938   2.416   4.798   0.437  1.3237  1.5558 -0.3768
 8175TIP3   OH245939   3.118   0.458   3.328 -0.3603 -0.4113  0.1760
 8175TIP3    H145940   3.026   0.431   3.336 -1.1857  1.8318 -1.1699
 8175TIP3    H245941   3.136   0.452   3.234 -0.0609  1.9743  0.0527
 8176TIP3   OH245942   1.695   0.678  14.106 -0.2007  0.0811 -0.2782
 8176TIP3    H145943   1.709   0.697  14.199  0.1495 -0.0219 -0.3092
 8176TIP3    H245944   1.641   0.750  14.074 -0.9610 -0.2785  0.1811
 8177TIP3   OH245945   4.948   1.487   5.297  0.2992 -0.1857 -0.5585
 8177TIP3    H145946   5.023   1.475   5.239  0.0376  1.2465 -1.2028
 8177TIP3    H245947   4.897   1.407   5.287  1.6676 -1.1137 -0.2122
 8178TIP3   OH245948   5.144   2.496   4.094 -0.0414 -0.6103  0.2044
 8178TIP3    H145949   5.134   2.568   4.157 -0.6907 -0.3066 -0.2390
 8178TIP3    H245950   5.198   2.533   4.025  2.7476 -1.6973  1.7332
 8179TIP3   OH245951   3.943   6.346   1.770  0.0784 -0.6138  0.2980
 8179TIP3    H145952   3.854   6.342   1.805 -0.0231  1.9369  0.4565
 8179TIP3    H245953   3.945   6.280   1.701 -2.0422 -0.4839  0.0805
 8180TIP3   OH245954   5.804   1.463   5.581  0.0223 -0.0513 -0.4053
 8180TIP3    H145955   5.870   1.493   5.520 -0.5426 -1.1165 -1.5558
 8180TIP3    H245956   5.723   1.506   5.552 -0.4789 -1.4487 -1.1290
 8181TIP3   OH245957   3.807   2.633  13.316  0.2605 -0.0842  0.3696
 8181TIP3    H145958   3.784   2.569  13.384  0.2794 -0.4081  0.0720
 8181TIP3    H245959   3.784   2.717  13.354  0.0253 -0.2849  0.6755
 8182TIP3   OH245960   4.160   4.301  15.515 -0.2927 -0.4568 -0.0794
 8182TIP3    H145961   4.128   4.211  15.515 -0.2861 -0.4606 -0.4617
 8182TIP3    H245962   4.256   4.293  15.509 -0.3349 -0.4142 -0.8556
 8183TIP3   OH245963   6.358   6.143   2.910 -0.8186  0.6711 -0.2479
 8183TIP3    H145964   6.354   6.225   2.861 -1.2344  0.6975 -0.1752
 8183TIP3    H245965   6.438   6.100   2.881 -0.6487  1.0629 -0.3525
 8184TIP3   OH245966   5.442   0.458   0.326 -0.1399 -0.2982  0.5688
 8184TIP3    H145967   5.387   0.431   0.400 -0.1594 -0.3292  0.5433
 8184TIP3    H245968   5.393   0.527   0.283 -0.7195 -1.1522 -0.1660
 8185TIP3   OH245969   4.421   2.218   0.819  0.4277 -0.0924 -0.4224
 8185TIP3    H145970   4.446   2.126   0.816  0.7839 -0.0308  0.3908
 8185TIP3    H245971   4.458   2.257   0.740  0.7752 -0.5251 -0.4678
 8186TIP3   OH245972   4.999   3.131   5.863  0.2629 -0.0724  0.0123
 8186TIP3    H145973   4.997   3.042   5.827  1.1083 -0.1343  0.1190
 8186TIP3    H245974   5.057   3.125   5.939  1.9606  1.0132 -1.1724
 8187TIP3   OH245975   6.365   5.982   5.158  0.6657  0.4174  0.4838
 8187TIP3    H145976   6.396   5.999   5.247  0.8146 -1.0322  0.7186
 8187TIP3    H245977   6.445   5.979   5.105  0.7535 -0.9177  0.6814
 8188TIP3   OH245978   0.140   4.583  12.464  0.1386 -0.2349 -0.0387
 8188TIP3    H145979   0.197   4.512  12.434 -0.1095 -1.0218  1.3204
 8188TIP3    H245980   0.099   4.617  12.384 -0.6813 -2.4254 -0.5771
 8189TIP3   OH245981   2.754   4.353   1.835  0.1100 -0.8540 -0.2006
 8189TIP3    H145982   2.710   4.294   1.896 -1.4681  0.3333 -0.1513
 8189TIP3    H245983   2.715   4.333   1.750  0.1115 -0.4109 -0.3071
 8190TIP3   OH245984   2.632   2.373  12.191  0.0330 -0.2144 -0.1628
 8190TIP3    H145985   2.659   2.297  12.243  0.0759  0.4939  0.8501
 8190TIP3    H245986   2.631   2.340  12.101 -0.5079 -1.5699  0.3236
 8191TIP3   OH245987   3.847   0.378  16.051  0.1191  0.1444 -0.3744
 8191TIP3    H145988   3.776   0.401  16.110 -0.0588  1.4419 -1.0678
 8191TIP3    H245989   3.882   0.296  16.085 -0.6450  0.3514  0.9141
 8192TIP3   OH245990   1.425   5.293   2.662  0.5401 -0.1366  0.1435
 8192TIP3    H145991   1.362   5.355   2.625  1.5604  0.3213 -0.8324
 8192TIP3    H245992   1.371   5.231   2.711 -0.6060  0.7147 -0.0146
 8193TIP3   OH245993   2.632   3.020  14.741 -0.1462  0.0283  0.0186
 8193TIP3    H145994   2.658   3.112  14.753 -0.3881 -0.0295  1.0045
 8193TIP3    H245995   2.548   3.025  14.695  0.2207  0.2744 -0.6405
 8194TIP3   OH245996   4.545   5.173  14.757  0.5190 -0.1424 -0.3413
 8194TIP3    H145997   4.540   5.268  14.768  0.9957 -0.1536 -0.0397
 8194TIP3    H245998   4.494   5.137  14.830  0.8607 -0.1330 -0.0966
 8195TIP3   OH245999   5.805   4.391   2.819 -0.1652 -0.1452  0.1349
 8195TIP3    H146000   5.762   4.367   2.901 -1.0230 -0.4340 -0.3877
 8195TIP3    H246001   5.833   4.481   2.832 -1.9878  0.4515  0.0781
 8196TIP3   OH246002   3.019   2.945   3.993 -0.3076 -0.2825  0.4749
 8196TIP3    H146003   2.981   2.965   4.078 -1.1816  1.3930 -0.3045
 8196TIP3    H246004   3.098   2.895   4.014  0.2978  1.3949  2.3301
 8197TIP3   OH246005   4.303   0.352  16.449  0.1556  0.7051  0.0445
 8197TIP3    H146006   4.244   0.303  16.505 -1.4827  1.7472 -0.7525
 8197TIP3    H246007   4.267   0.440  16.447  1.5991  1.2972 -0.6462
 8198TIP3   OH246008   2.103   2.458   5.201  0.0617  1.5648 -0.1046
 8198TIP3    H146009   2.066   2.466   5.289  0.8334  0.0950  0.3772
 8198TIP3    H246010   2.132   2.367   5.196 -2.1288  0.9450 -2.7448
 8199TIP3   OH246011   2.596   1.624  13.142 -0.1410  0.2418  0.1663
 8199TIP3    H146012   2.651   1.699  13.165  0.8138 -0.7824  1.2571
 8199TIP3    H246013   2.655   1.566  13.094 -0.3071 -0.7753  1.1774
 8200TIP3   OH246014   1.067   4.499   1.554 -0.1219  0.3386 -0.5220
 8200TIP3    H146015   1.124   4.500   1.631 -1.0720 -1.6054  0.2480
 8200TIP3    H246016   1.030   4.410   1.553 -0.4515  0.4647 -2.9811
 8201TIP3   OH246017   5.541   4.908   2.454  0.8379  0.5186 -0.0666
 8201TIP3    H146018   5.468   4.958   2.416 -0.0175 -0.4122  0.3321
 8201TIP3    H246019   5.561   4.842   2.388 -0.0614 -0.5373  0.7089
 8202TIP3   OH246020   4.067   0.287  15.632  0.1688  0.1913  0.0775
 8202TIP3    H146021   4.022   0.210  15.595  2.2695 -0.7852 -0.4965
 8202TIP3    H246022   4.078   0.346  15.557 -0.9068  0.8267  0.4001
 8203TIP3   OH246023   1.877   6.252   5.921 -0.3306  0.3080  0.5733
 8203TIP3    H146024   1.916   6.296   5.845  0.2074  0.2965  0.8401
 8203TIP3    H246025   1.792   6.221   5.890 -0.5292  1.1545  0.2565
 8204TIP3   OH246026   1.341   0.914   2.058 -0.3353 -0.1272 -0.3351
 8204TIP3    H146027   1.274   0.856   2.022  1.1789 -1.0138 -1.8155
 8204TIP3    H246028   1.325   0.914   2.152 -1.4861 -1.5030 -0.5093
 8205TIP3   OH246029   6.731   3.506   2.188  0.1233  0.1125  0.4239
 8205TIP3    H146030   6.673   3.429   2.192  0.3908 -0.1721 -1.0381
 8205TIP3    H246031   6.814   3.471   2.158 -0.4594  1.3657 -2.8268
 8206TIP3   OH246032   5.339   4.518  11.716  0.7686  0.4394  0.4787
 8206TIP3    H146033   5.425   4.476  11.705  1.4228  1.7722  0.4918
 8206TIP3    H246034   5.281   4.467  11.660  1.2837 -1.2926  1.4733
 8207TIP3   OH246035   0.134   2.061  15.810  0.8404  0.7324  0.0444
 8207TIP3    H146036   0.126   1.971  15.840 -1.6241  1.2162  0.9600
 8207TIP3    H246037   0.145   2.055  15.715 -1.7238 -0.4620 -0.1984
 8208TIP3   OH246038   0.453   0.164  14.971 -0.0628 -0.1823  0.1980
 8208TIP3    H146039   0.372   0.142  14.924 -1.2785  0.1189  2.1016
 8208TIP3    H246040   0.425   0.223  15.040  1.9330  0.5557  0.3885
 8209TIP3   OH246041   2.321   0.755  13.622 -0.3050  0.0450 -0.5327
 8209TIP3    H146042   2.380   0.816  13.667 -1.5299  0.2201  0.8731
 8209TIP3    H246043   2.237   0.802  13.617 -1.3984 -1.6848  0.9808
 8210TIP3   OH246044   5.594   1.107  11.429 -0.5886 -0.0608  0.2507
 8210TIP3    H146045   5.661   1.122  11.495 -2.2397  0.1468  1.9393
 8210TIP3    H246046   5.564   1.194  11.405  1.5815 -0.0292 -2.4921
 8211TIP3   OH246047   4.061   3.860  12.812  0.2467 -0.1126 -0.3452
 8211TIP3    H146048   4.100   3.916  12.745  0.1524  0.1802 -0.1559
 8211TIP3    H246049   4.119   3.784  12.817 -0.0475 -0.3867 -1.1464
 8212TIP3   OH246050   5.602   1.281  15.289 -0.2510  0.3617  0.4902
 8212TIP3    H146051   5.519   1.321  15.261 -1.3066 -1.8873  0.3232
 8212TIP3    H246052   5.623   1.219  15.219  1.6205  0.9398  0.5170
 8213TIP3   OH246053   3.047   2.649  16.199 -0.3815  0.2497  0.4424
 8213TIP3    H146054   3.034   2.555  16.208 -1.6740  0.3286 -0.4289
 8213TIP3    H246055   3.030   2.667  16.107  1.6330  1.0870  0.2060
 8214TIP3   OH246056   3.156   3.601   5.270 -0.1298  0.0499  0.2944
 8214TIP3    H146057   3.241   3.638   5.246  0.2098 -0.7123  0.2727
 8214TIP3    H246058   3.175   3.508   5.284 -1.1009 -0.2557 -0.4188
 8215TIP3   OH246059   5.238   5.386   3.044  0.2246  0.0910 -0.4522
 8215TIP3    H146060   5.333   5.383   3.060  0.0137  0.4578  0.9430
 8215TIP3    H246061   5.230   5.429   2.959  1.3412 -0.6068 -0.9276
 8216TIP3   OH246062   5.864   2.590  13.916  0.3936  0.3518 -0.5462
 8216TIP3    H146063   5.834   2.525  13.853  1.1822 -0.0078 -0.5651
 8216TIP3    H246064   5.899   2.661  13.863  1.1863 -0.0121 -0.5314
 8217TIP3   OH246065   0.372   3.794  15.622  0.3608 -0.3719  0.7061
 8217TIP3    H146066   0.460   3.814  15.589  0.9260 -1.1487  1.7096
 8217TIP3    H246067   0.327   3.755  15.546  1.4685 -1.6152  0.6673
 8218TIP3   OH246068   1.849   5.946  14.658 -0.3604  0.0115 -0.0505
 8218TIP3    H146069   1.767   5.911  14.691 -0.0308 -1.5923 -0.8848
 8218TIP3    H246070   1.834   5.959  14.564  0.8654 -1.9479 -0.5511
 8219TIP3   OH246071   1.001   0.890  12.756  0.3581  0.6701  0.1805
 8219TIP3    H146072   0.994   0.937  12.839  1.7503  1.0538  0.0945
 8219TIP3    H246073   1.036   0.955  12.695  0.3395  0.0934 -0.4434
 8220TIP3   OH246074   1.337   3.838  12.637 -0.3139  0.0656  0.2819
 8220TIP3    H146075   1.328   3.933  12.640  0.1023  0.1107  0.1785
 8220TIP3    H246076   1.430   3.823  12.619 -0.6903 -0.3333 -1.4735
 8221TIP3   OH246077   6.378   4.257  17.117 -0.0946  0.1207 -0.0852
 8221TIP3    H146078   6.392   4.348  17.140  0.0191  0.4571 -1.4066
 8221TIP3    H246079   6.466   4.224  17.097 -0.4127  0.5023 -2.2789
 8222TIP3   OH246080   5.261   2.579   0.055 -0.2889  0.8916 -0.0055
 8222TIP3    H146081   5.195   2.522   0.094 -0.2461  0.6859 -0.2280
 8222TIP3    H246082   5.216   2.661   0.037 -0.1245  1.2509  1.1705
 8223TIP3   OH246083   4.510   0.558   5.289 -0.5397 -0.0576  0.1018
 8223TIP3    H146084   4.520   0.483   5.348 -1.1546 -1.3797 -1.4203
 8223TIP3    H246085   4.450   0.617   5.335 -1.4756 -1.3387  0.5681
 8224TIP3   OH246086   4.374   1.424   1.627  0.1026 -0.2132 -0.0161
 8224TIP3    H146087   4.421   1.503   1.651 -0.2538 -0.3682  1.2102
 8224TIP3    H246088   4.295   1.425   1.682 -0.8919 -0.4104 -1.3929
 8225TIP3   OH246089   0.104   6.469  13.448 -0.6009 -0.0374  0.2699
 8225TIP3    H146090   0.173   6.464  13.382 -1.0429 -0.0309 -0.1963
 8225TIP3    H246091   0.142   6.429  13.526  0.5237  1.4801  0.5192
 8226TIP3   OH246092   5.000   1.721   5.423  0.7218 -0.4991  0.2544
 8226TIP3    H146093   4.972   1.648   5.368  2.7102  0.3309 -1.9416
 8226TIP3    H246094   4.940   1.792   5.402 -0.8631 -1.2681  1.9820
 8227TIP3   OH246095   6.272   6.425  12.748 -0.2500 -0.0407 -0.3709
 8227TIP3    H146096   6.209   6.399  12.815  0.6156  0.3381  0.6029
 8227TIP3    H246097   6.313   6.344  12.720  1.6190  0.0829  1.8298
 8228TIP3   OH246098   1.575   1.147   6.360 -0.2113  0.0473  0.4362
 8228TIP3    H146099   1.628   1.132   6.282  0.9866 -0.7878  1.4022
 8228TIP3    H246100   1.562   1.242   6.361 -0.7151  0.0113 -1.0777
 8229TIP3   OH246101   5.515   6.697   2.101 -0.2803 -0.7726 -0.5039
 8229TIP3    H146102   5.577   6.680   2.172  0.3452  1.3487 -0.4895
 8229TIP3    H246103   5.438   6.733   2.144  1.6259  4.5056 -1.0801
 8230TIP3   OH246104   5.250   0.662   0.268 -0.5112 -0.2744 -0.3683
 8230TIP3    H146105   5.239   0.752   0.298 -0.8612 -0.7754  1.0380
 8230TIP3    H246106   5.278   0.670   0.177 -1.3446  1.2380 -0.4979
 8231TIP3   OH246107   0.111   1.953  12.724  0.0458  0.3734 -0.0461
 8231TIP3    H146108   0.185   2.013  12.710 -0.2198  1.0614  1.3572
 8231TIP3    H246109   0.035   2.001  12.692 -0.2915  1.1883  1.8537
 8232TIP3   OH246110   2.485   0.618   6.452  1.0146 -0.2781  0.2147
 8232TIP3    H146111   2.561   0.602   6.396  0.5287 -1.1142 -0.2098
 8232TIP3    H246112   2.521   0.621   6.541  1.5485 -0.6498  0.0101
 8233TIP3   OH246113   0.571   3.600   4.767 -0.3804  1.0026 -0.0933
 8233TIP3    H146114   0.519   3.597   4.847 -0.7677  1.5912 -0.3178
 8233TIP3    H246115   0.597   3.692   4.759  2.9104  0.2740  1.4230
 8234TIP3   OH246116   0.252   5.140  14.283 -0.5824 -0.1472  0.5396
 8234TIP3    H146117   0.190   5.181  14.223  1.3405 -0.3530 -1.6338
 8234TIP3    H246118   0.320   5.206  14.297 -0.3310 -0.5848  1.4655
 8235TIP3   OH246119   5.305   2.712  15.326  0.0541  0.0287 -0.6475
 8235TIP3    H146120   5.283   2.722  15.233 -0.5844  2.3382 -0.2774
 8235TIP3    H246121   5.259   2.632  15.353 -0.0382 -0.4782 -2.2217
 8236TIP3   OH246122   1.188   4.439   5.806  0.3293 -0.0708  0.9042
 8236TIP3    H146123   1.198   4.532   5.825  0.6201  0.2184 -0.6577
 8236TIP3    H246124   1.099   4.418   5.838  0.0426  0.8651  0.7284
 8237TIP3   OH246125   2.253   2.747   5.686  0.2965  0.3900  0.1610
 8237TIP3    H146126   2.207   2.792   5.615 -0.3528  0.9400  0.9156
 8237TIP3    H246127   2.185   2.695   5.728  0.3977  1.0432  1.1549
 8238TIP3   OH246128   0.363   2.358  16.757  0.1002  0.0228  0.6279
 8238TIP3    H146129   0.342   2.325  16.844  0.2135 -1.1998  0.1910
 8238TIP3    H246130   0.426   2.429  16.773  0.3795 -0.4261  1.5145
 8239TIP3   OH246131   3.859   0.799   2.741 -0.3177  0.0589  0.2088
 8239TIP3    H146132   3.854   0.761   2.829 -1.3122 -0.1678  0.0532
 8239TIP3    H246133   3.937   0.855   2.744 -0.5901  0.3977  1.3700
 8240TIP3   OH246134   1.169   0.807  15.683  0.4561  0.0831  0.0389
 8240TIP3    H146135   1.189   0.742  15.750  0.7271  0.7894  0.6596
 8240TIP3    H246136   1.229   0.880  15.702  1.2898 -0.1297 -1.6161
 8241TIP3   OH246137   6.758   6.767   6.223  0.7446  0.6130  0.2217
 8241TIP3    H146138   6.817   6.783   6.296 -1.8886  1.8893  2.1537
 8241TIP3    H246139   6.714   6.685   6.245  1.8318 -0.3927 -1.2552
 8242TIP3   OH246140   4.087   0.897  11.590 -0.4815 -0.4376 -0.2301
 8242TIP3    H146141   4.012   0.937  11.548  0.7287  1.8115 -0.3164
 8242TIP3    H246142   4.129   0.968  11.638  1.2333 -1.7830  0.3236
 8243TIP3   OH246143   0.610   2.908  16.794 -0.1507 -0.1019  0.0247
 8243TIP3    H146144   0.628   2.907  16.700  1.7315 -0.1373  0.3644
 8243TIP3    H246145   0.649   2.990  16.825  0.7841 -0.9198  1.0447
 8244TIP3   OH246146   2.870   0.066   4.486  0.2791  0.7942 -0.7267
 8244TIP3    H146147   2.881   0.028   4.574 -2.0497 -2.5111 -1.7833
 8244TIP3    H246148   2.948   0.037   4.438  0.5145  0.8182 -0.3634
 8245TIP3   OH246149   5.253   0.335  11.283 -0.4695  0.1863  0.4184
 8245TIP3    H146150   5.332   0.389  11.283 -1.2934  1.4014 -0.1060
 8245TIP3    H246151   5.240   0.311  11.192 -0.8474  0.1982  0.4693
 8246TIP3   OH246152   5.412   4.326  16.709  0.5418  0.0080  0.2643
 8246TIP3    H146153   5.461   4.303  16.630  1.4020  1.4953  0.3409
 8246TIP3    H246154   5.415   4.248  16.763  0.8655 -0.6729 -0.7280
 8247TIP3   OH246155   6.271   3.233   0.303 -0.8580 -0.0054 -0.0070
 8247TIP3    H146156   6.359   3.262   0.327 -1.4766  1.3335  0.6884
 8247TIP3    H246157   6.244   3.294   0.235 -1.1419 -0.6027 -0.4323
 8248TIP3   OH246158   1.707   0.804   4.296  0.2434 -0.5914 -0.3442
 8248TIP3    H146159   1.676   0.885   4.335 -2.1491 -2.0629  0.9404
 8248TIP3    H246160   1.636   0.775   4.239  1.1877 -1.6480 -1.0305
 8249TIP3   OH246161   5.985   0.370   0.618  0.5366  0.3137 -0.1268
 8249TIP3    H146162   5.942   0.340   0.537  1.4182  1.0980 -0.9053
 8249TIP3    H246163   5.962   0.463   0.624  0.0507  0.1322  0.8044
 8250TIP3   OH246164   4.787   4.105  12.864 -0.4915  0.6699  0.1106
 8250TIP3    H146165   4.841   4.182  12.881 -0.6290  1.1748 -1.6321
 8250TIP3    H246166   4.768   4.069  12.951  1.2192  1.4586  0.8247
 8251TIP3   OH246167   2.662   0.329   0.458 -0.0095 -0.3367  0.2891
 8251TIP3    H146168   2.755   0.308   0.466 -0.0278 -0.4535  0.2093
 8251TIP3    H246169   2.626   0.255   0.408 -0.1057 -0.1874  0.1372
 8252TIP3   OH246170   0.287   6.533  17.156 -0.2175  0.1511 -0.8731
 8252TIP3    H146171   0.354   6.575  17.209 -0.7305 -0.1240  0.0108
 8252TIP3    H246172   0.210   6.590  17.164 -0.6565 -0.5028 -0.3607
 8253TIP3   OH246173   6.556   6.401  10.748 -0.8730  0.5370 -0.4159
 8253TIP3    H146174   6.481   6.399  10.688  0.5538  0.0271 -2.2171
 8253TIP3    H246175   6.594   6.487  10.736 -0.1976  0.1975 -0.7404
 8254TIP3   OH246176   0.339   4.866   3.057 -0.1691 -0.2544 -0.2118
 8254TIP3    H146177   0.294   4.819   2.986 -0.9891  0.5342 -0.2272
 8254TIP3    H246178   0.401   4.802   3.092 -0.2527 -0.8812 -1.1748
 8255TIP3   OH246179   6.526   5.574  15.908  0.7209  0.2512 -0.2872
 8255TIP3    H146180   6.452   5.634  15.904 -0.0469 -0.7440 -1.4143
 8255TIP3    H246181   6.604   5.630  15.898  0.1743  1.3967  1.7331
 8256TIP3   OH246182   5.414   0.734   6.111  0.1277  0.0901 -0.2198
 8256TIP3    H146183   5.444   0.649   6.080 -3.7835 -1.1709 -0.7929
 8256TIP3    H246184   5.393   0.783   6.031 -0.0089  0.6911  0.1781
 8257TIP3   OH246185   1.966   0.252   2.115  0.2942 -0.1175  0.0321
 8257TIP3    H146186   1.878   0.227   2.143  0.5290  0.3561  1.2067
 8257TIP3    H246187   1.999   0.308   2.185  1.3140  0.1900 -0.6753
 8258TIP3   OH246188   4.283   3.849   5.380 -0.2786 -0.2049  0.1491
 8258TIP3    H146189   4.325   3.934   5.371  1.8325 -1.3169 -0.8079
 8258TIP3    H246190   4.253   3.846   5.471  2.5552  0.2692  1.1511
 8259TIP3   OH246191   2.473   4.082   1.576  0.3285  0.4857 -0.0975
 8259TIP3    H146192   2.410   4.152   1.594 -2.1069 -1.8609  0.7407
 8259TIP3    H246193   2.506   4.056   1.663 -0.6866 -1.1028 -0.1668
 8260TIP3   OH246194   0.628   6.590   2.046  0.0867  0.1563 -0.2220
 8260TIP3    H146195   0.657   6.501   2.063  0.3658 -0.1572 -2.2228
 8260TIP3    H246196   0.694   6.646   2.087 -0.1332 -0.5378  1.1085
 8261TIP3   OH246197   3.642   2.745  14.133 -0.1746  0.4687  0.2264
 8261TIP3    H146198   3.592   2.817  14.171 -1.1460 -0.9655  1.7209
 8261TIP3    H246199   3.585   2.709  14.066 -0.1141  0.4181  0.2019
 8262TIP3   OH246200   5.482   1.218   3.451 -0.2697  0.6749  0.1879
 8262TIP3    H146201   5.570   1.207   3.488  0.7941 -0.0028 -2.4571
 8262TIP3    H246202   5.431   1.149   3.493  1.0855 -0.5390 -0.0973
 8263TIP3   OH246203   2.197   6.211   0.533  0.4618 -0.5482 -0.3329
 8263TIP3    H146204   2.272   6.198   0.591  2.1582  0.0981 -2.3489
 8263TIP3    H246205   2.215   6.155   0.457 -1.5357 -1.0714 -0.4558
 8264TIP3   OH246206   4.151   2.292   2.211  0.0580  0.0177 -0.3541
 8264TIP3    H146207   4.222   2.325   2.156 -1.1104  1.8640 -0.8099
 8264TIP3    H246208   4.097   2.241   2.152 -0.8103  1.4153 -0.7991
 8265TIP3   OH246209   1.268   2.723  12.213  0.1093 -0.4611  0.0775
 8265TIP3    H146210   1.261   2.817  12.196  1.2113 -0.2813  0.5800
 8265TIP3    H246211   1.276   2.684  12.126  1.1940  0.0495 -0.0609
 8266TIP3   OH246212   0.621   6.209  16.813 -0.3806 -0.0575  0.9544
 8266TIP3    H146213   0.558   6.188  16.745 -1.8193  3.5714  1.0637
 8266TIP3    H246214   0.627   6.129  16.866 -0.9174 -2.1786 -2.0548
 8267TIP3   OH246215   4.747   1.404   4.844 -0.0894 -0.4674 -0.5998
 8267TIP3    H146216   4.717   1.326   4.889  0.2318 -0.0211  0.4016
 8267TIP3    H246217   4.816   1.374   4.786 -1.4691 -1.2715 -1.8625
 8268TIP3   OH246218   3.518   4.737  16.079  0.3800 -0.0301  0.0745
 8268TIP3    H146219   3.590   4.759  16.138 -0.6244 -2.6327  2.3788
 8268TIP3    H246220   3.451   4.803  16.097  1.3244  1.1122 -0.5344
 8269TIP3   OH246221   3.625   5.207  12.604  0.0699  0.1547  0.7173
 8269TIP3    H146222   3.707   5.216  12.555  0.2406 -1.2902  0.6992
 8269TIP3    H246223   3.649   5.155  12.681 -0.9281 -0.7903  0.4157
 8270TIP3   OH246224   4.479   4.768  11.649  0.1173  0.2997  0.1314
 8270TIP3    H146225   4.551   4.801  11.596  0.4922 -2.1364 -0.9737
 8270TIP3    H246226   4.407   4.757  11.587  0.4201 -2.1503  0.1328
 8271TIP3   OH246227   1.813   4.392   2.398 -0.2134 -0.5481  0.0964
 8271TIP3    H146228   1.803   4.322   2.463 -1.3868 -2.0443 -1.6630
 8271TIP3    H246229   1.726   4.403   2.360  0.2486  0.9792 -0.5714
 8272TIP3   OH246230   4.964   3.433  13.203  0.0279 -0.2363 -0.2150
 8272TIP3    H146231   5.043   3.399  13.162  0.6313 -0.0146  0.7683
 8272TIP3    H246232   4.967   3.528  13.187 -0.0488 -0.2266 -0.1741
 8273TIP3   OH246233   5.052   4.736   2.378 -0.8920 -0.4558  0.5492
 8273TIP3    H146234   5.030   4.733   2.471 -0.7477 -1.1036  0.5680
 8273TIP3    H246235   5.000   4.665   2.339  1.1943 -2.0567  0.6074
 8274TIP3   OH246236   0.359   1.572   4.627  0.0706 -0.3011  0.4043
 8274TIP3    H146237   0.449   1.556   4.597  0.1434  0.7518  0.0450
 8274TIP3    H246238   0.304   1.525   4.564  0.2837  0.7526 -0.5801
 8275TIP3   OH246239   6.746   1.115   3.549 -0.3223 -0.1082  0.3693
 8275TIP3    H146240   6.680   1.170   3.592 -0.3840  0.5103 -0.5059
 8275TIP3    H246241   6.829   1.139   3.590 -0.7161 -1.4040  1.9876
 8276TIP3   OH246242   0.183   0.329   4.577  0.4207  0.2460  0.1365
 8276TIP3    H146243   0.198   0.347   4.485  0.1726 -1.4228 -0.2522
 8276TIP3    H246244   0.245   0.259   4.599  0.4994  0.6396  1.2488
 8277TIP3   OH246245   3.298   5.385   5.464 -0.1042 -0.5046 -0.8222
 8277TIP3    H146246   3.316   5.310   5.520 -0.2621 -1.3875 -1.9387
 8277TIP3    H246247   3.205   5.403   5.476  0.5588  1.4835  1.8139
 8278TIP3   OH246248   6.773   4.284  16.169 -0.1319 -0.2061 -0.0306
 8278TIP3    H146249   6.811   4.362  16.129 -0.0078 -0.5851 -0.6471
 8278TIP3    H246250   6.849   4.234  16.201 -0.1317 -0.6959 -0.7772
 8279TIP3   OH246251   4.669   3.465   2.403 -0.0246  0.7545 -0.2869
 8279TIP3    H146252   4.726   3.415   2.461 -1.2549  2.2463  2.3402
 8279TIP3    H246253   4.727   3.502   2.337  1.3157 -1.6125 -0.5077
 8280TIP3   OH246254   0.503   4.385   4.867 -0.2994 -0.0404  0.2833
 8280TIP3    H146255   0.458   4.340   4.795 -0.2397  0.3153  0.0227
 8280TIP3    H246256   0.481   4.333   4.945 -0.3770 -0.4187  0.0149
 8281TIP3   OH246257   0.959   6.051  13.862  0.1580 -0.4680 -0.0991
 8281TIP3    H146258   1.042   6.048  13.908  0.1219  1.1070  0.1073
 8281TIP3    H246259   0.978   6.099  13.781 -1.0771  2.1907  1.1420
 8282TIP3   OH246260   1.123   1.004  13.175  0.2695  0.6878 -0.0630
 8282TIP3    H146261   1.152   1.079  13.228 -3.4714  0.4804  2.4201
 8282TIP3    H246262   1.105   0.935  13.239 -0.5913 -0.9004 -1.9735
 8283TIP3   OH246263   0.596   6.475  16.793 -0.2809  0.1623  0.3687
 8283TIP3    H146264   0.619   6.385  16.816 -0.8574 -0.3194 -0.8987
 8283TIP3    H246265   0.664   6.503  16.732 -1.5625 -0.3621 -1.3445
 8284TIP3   OH246266   1.709   2.162   1.578 -0.1320  0.4821  0.0050
 8284TIP3    H146267   1.696   2.077   1.620 -1.5380  0.6054 -0.1701
 8284TIP3    H246268   1.665   2.154   1.494 -0.8238  1.5952  0.2508
 8285TIP3   OH246269   4.805   2.387  13.137 -0.3655 -0.4922  0.1031
 8285TIP3    H146270   4.895   2.372  13.109 -0.2587 -2.1479  1.2408
 8285TIP3    H246271   4.813   2.435  13.219 -0.5421 -0.1013 -0.1057
 8286TIP3   OH246272   4.604   2.056   6.586 -0.3348 -0.2051 -0.2459
 8286TIP3    H146273   4.543   1.983   6.582  0.6774 -1.1289  0.6175
 8286TIP3    H246274   4.570   2.112   6.656 -0.0707 -0.8390  0.3968
 8287TIP3   OH246275   0.054   6.120   1.252  0.4065 -0.3188  0.0469
 8287TIP3    H146276   0.079   6.069   1.329 -0.0741 -0.3316  0.1952
 8287TIP3    H246277   0.043   6.056   1.183  0.3427 -0.3585  0.0938
 8288TIP3   OH246278   5.839   3.499  16.308 -0.2523 -0.1950 -0.1524
 8288TIP3    H146279   5.911   3.452  16.266 -0.4623 -1.1910  0.5935
 8288TIP3    H246280   5.866   3.508  16.399 -1.7916 -2.0430  0.5117
 8289TIP3   OH246281   0.321   0.244   5.662 -0.1993  1.0144  0.1100
 8289TIP3    H146282   0.306   0.184   5.735 -0.1781 -0.4222 -1.0239
 8289TIP3    H246283   0.367   0.318   5.700  1.8841 -0.7601  1.1467
 8290TIP3   OH246284   4.438   4.311   4.841  0.2498 -0.0956 -0.3340
 8290TIP3    H146285   4.374   4.381   4.846  2.2183  1.7786 -0.7551
 8290TIP3    H246286   4.486   4.316   4.923  0.1378 -1.2249 -0.1916
 8291TIP3   OH246287   2.800   5.204  11.677  0.4575 -0.0288 -0.2352
 8291TIP3    H146288   2.790   5.249  11.593  1.4238 -0.7839 -0.7661
 8291TIP3    H246289   2.783   5.112  11.658 -0.6671 -0.0241  0.6769
 8292TIP3   OH246290   1.295   2.267   1.829  0.2586  0.1374  0.4990
 8292TIP3    H146291   1.385   2.295   1.846  0.6838 -0.1923 -1.1054
 8292TIP3    H246292   1.264   2.325   1.759 -0.3499 -0.5654  0.1746
 8293TIP3   OH246293   6.588   4.000  15.635  0.1593 -0.1256  0.2259
 8293TIP3    H146294   6.525   3.930  15.650  1.1798 -0.8288  1.3328
 8293TIP3    H246295   6.568   4.066  15.702  0.1383 -0.0314  0.1261
 8294TIP3   OH246296   3.239   5.857   2.325  0.1422  0.2020  0.2906
 8294TIP3    H146297   3.276   5.797   2.389  0.3074  0.1130  0.1091
 8294TIP3    H246298   3.277   5.942   2.347 -0.2152  0.2716  0.6474
 8295TIP3   OH246299   3.542   6.565   5.369 -0.2858  0.4832 -0.2534
 8295TIP3    H146300   3.587   6.481   5.358 -2.4738 -0.9760  1.4363
 8295TIP3    H246301   3.570   6.595   5.456  0.2824  1.3970 -0.7430
 8296TIP3   OH246302   2.686   0.037   4.178 -0.6077  0.2715  1.0098
 8296TIP3    H146303   2.739   0.105   4.137 -1.6299  0.6129  0.2163
 8296TIP3    H246304   2.604   0.082   4.201  0.1610  0.2696  4.0244
 8297TIP3   OH246305   1.989   0.312   3.014 -0.4332 -1.1291  0.4515
 8297TIP3    H146306   1.964   0.400   2.987 -1.3202 -1.4865  0.1102
 8297TIP3    H246307   2.016   0.322   3.106 -1.4789 -0.6880  0.7110
 8298TIP3   OH246308   3.049   0.291   3.751 -0.2710 -0.5971 -0.7241
 8298TIP3    H146309   3.049   0.214   3.694 -1.3307 -0.2850 -1.1574
 8298TIP3    H246310   2.962   0.293   3.790  0.0294 -0.0933 -0.0559
 8299TIP3   OH246311   0.105   3.463   4.602 -0.2095  0.1932 -0.1147
 8299TIP3    H146312   0.135   3.472   4.512 -2.1099 -0.2492 -0.8126
 8299TIP3    H246313   0.033   3.526   4.610  0.3141  0.6504  1.2796
 8300TIP3   OH246314   5.819   6.062   0.795 -0.5632 -0.7350 -0.2474
 8300TIP3    H146315   5.736   6.017   0.784  0.4174 -2.2501 -1.6315
 8300TIP3    H246316   5.804   6.150   0.761 -1.6717 -0.9222 -0.2347
 8301TIP3   OH246317   0.017   4.556   2.216 -0.3767 -0.4567  0.2070
 8301TIP3    H146318   0.057   4.560   2.129 -1.3454 -1.6199 -0.3111
 8301TIP3    H246319  -0.057   4.615   2.211  1.6746  2.3395  1.4262
 8302TIP3   OH246320   4.863   5.253  12.352 -0.7094 -0.0793 -0.5332
 8302TIP3    H146321   4.865   5.215  12.440  0.6296 -0.3650 -0.6754
 8302TIP3    H246322   4.844   5.178  12.295 -1.1075  0.0221 -0.5350
 8303TIP3   OH246323   2.232   0.401   6.468  0.8169  0.1125  0.3195
 8303TIP3    H146324   2.190   0.346   6.401 -0.6905  1.3542  0.2199
 8303TIP3    H246325   2.303   0.446   6.421  0.5114  0.0871 -0.1671
 8304TIP3   OH246326   3.962   2.749  16.195 -0.3315 -0.0038 -0.3014
 8304TIP3    H146327   3.939   2.822  16.137  0.5568  0.5269 -0.0020
 8304TIP3    H246328   4.009   2.688  16.138 -2.1094 -0.9213 -0.8250
 8305TIP3   OH246329   0.147   5.493  15.585 -0.2406  0.0323  0.3926
 8305TIP3    H146330   0.071   5.545  15.608  0.6701  1.4816  0.2193
 8305TIP3    H246331   0.171   5.446  15.665 -2.0507 -1.4067  0.1060
 8306TIP3   OH246332   2.616   3.286  11.901 -0.0427 -0.2572  0.2720
 8306TIP3    H146333   2.663   3.360  11.862 -0.1540  0.1759  0.9506
 8306TIP3    H246334   2.530   3.288  11.859 -0.2652  0.3882  0.7473
 8307TIP3   OH246335   0.183   5.064  17.121  0.1025 -0.2243  0.1465
 8307TIP3    H146336   0.198   5.021  17.037  1.7695 -1.6835  1.1371
 8307TIP3    H246337   0.241   5.140  17.119  0.8496 -0.7828  0.3394
 8308TIP3   OH246338   2.863   4.410   4.869 -0.1373 -0.4890  0.2003
 8308TIP3    H146339   2.840   4.415   4.962 -0.7640 -0.6020  0.0537
 8308TIP3    H246340   2.853   4.500   4.837  0.9442 -0.2767  0.4392
 8309TIP3   OH246341   5.623   3.291  16.263  0.0324  0.0190  0.4950
 8309TIP3    H146342   5.688   3.223  16.275 -0.8153 -0.7830  0.6094
 8309TIP3    H246343   5.669   3.373  16.283  0.5889 -0.6614  2.0117
 8310TIP3   OH246344   3.364   0.527  11.674  0.1821 -0.2595 -0.1079
 8310TIP3    H146345   3.279   0.487  11.653 -0.2333  0.5937 -0.1013
 8310TIP3    H246346   3.425   0.454  11.679 -0.1823 -0.7164 -1.9801
 8311TIP3   OH246347   3.469   6.114   2.076  0.0096  0.5229  0.3480
 8311TIP3    H146348   3.557   6.099   2.043  0.1772  1.1466  0.4935
 8311TIP3    H246349   3.422   6.157   2.004 -0.1978  0.1192  0.2423
 8312TIP3   OH246350   2.610   4.615  13.223  0.2419  0.5029  0.4836
 8312TIP3    H146351   2.703   4.597  13.206 -0.0237 -0.0702 -0.3878
 8312TIP3    H246352   2.578   4.536  13.266  0.0075  0.4608  0.2283
 8313TIP3   OH246353   3.221   1.252   6.078  0.3097  0.0058 -0.4469
 8313TIP3    H146354   3.268   1.331   6.054 -0.6036  0.4314 -0.8475
 8313TIP3    H246355   3.278   1.180   6.050  0.7597  0.5201 -0.8425
 8314TIP3   OH246356   4.413   2.154   0.342 -0.2938 -0.4665  0.0010
 8314TIP3    H146357   4.394   2.119   0.255 -1.5446 -2.1349  0.9189
 8314TIP3    H246358   4.340   2.213   0.360  0.3909  0.5140 -0.4125
 8315TIP3   OH246359   4.297   4.499   2.189  0.7461 -0.0853 -0.0550
 8315TIP3    H146360   4.251   4.512   2.106  0.3158  3.0966  0.6063
 8315TIP3    H246361   4.249   4.428   2.232 -1.7881  1.1733 -0.6722
 8316TIP3   OH246362   4.922   4.819  14.834  0.2762  0.0636  0.2482
 8316TIP3    H146363   4.998   4.766  14.858 -0.0511  0.2585  1.7409
 8316TIP3    H246364   4.908   4.800  14.741  1.9168 -0.2607  0.0495
 8317TIP3   OH246365   6.505   0.275  14.107  0.4146  0.9579 -0.4190
 8317TIP3    H146366   6.523   0.358  14.151  3.4048 -0.1255  0.5370
 8317TIP3    H246367   6.553   0.210  14.158 -2.3117 -1.4952 -0.7901
 8318TIP3   OH246368   2.193   0.601  15.465  0.1218  0.1130  0.6076
 8318TIP3    H146369   2.130   0.554  15.519  0.6111 -1.9880 -0.5768
 8318TIP3    H246370   2.240   0.532  15.418  0.8569  1.8092 -1.2236
 8319TIP3   OH246371   0.211   0.145   3.188 -0.2247 -0.3674  0.0274
 8319TIP3    H146372   0.215   0.238   3.165  0.2360 -0.0682  1.3088
 8319TIP3    H246373   0.119   0.130   3.210 -0.6592 -0.6339 -1.8310
 8320TIP3   OH246374   0.832   0.991  13.241 -0.1303  0.0068  0.4570
 8320TIP3    H146375   0.788   1.006  13.325 -0.0097 -0.2000  0.5540
 8320TIP3    H246376   0.909   0.940  13.262 -0.5304 -0.7472  0.1156
 8321TIP3   OH246377   5.237   1.735   6.649 -0.0552  0.3711  0.2183
 8321TIP3    H146378   5.168   1.681   6.688 -0.1755  0.7712  0.5639
 8321TIP3    H246379   5.226   1.821   6.690  1.6638  0.0255  1.4913
 8322TIP3   OH246380   2.629   1.141   5.681 -0.3435  0.1849  0.1657
 8322TIP3    H146381   2.724   1.130   5.670 -0.4066 -0.2245  0.0345
 8322TIP3    H246382   2.621   1.214   5.742  0.1290 -2.4999  3.5899
 8323TIP3   OH246383   6.762   6.025   1.956  0.1314 -0.0706 -0.2170
 8323TIP3    H146384   6.706   5.975   2.016 -0.6814  0.6924 -0.3298
 8323TIP3    H246385   6.832   6.059   2.011  0.8510 -1.5674 -0.1898
 8324TIP3   OH246386   6.424   6.353  14.939 -0.1300  0.4114  0.3736
 8324TIP3    H146387   6.486   6.284  14.916  0.2623  0.9741 -0.2742
 8324TIP3    H246388   6.433   6.363  15.034  1.9724  1.6373  0.0738
 8325TIP3   OH246389   5.345   2.834   2.281  0.3631  0.6832 -0.2262
 8325TIP3    H146390   5.366   2.795   2.197  0.8851  0.8873 -0.1926
 8325TIP3    H246391   5.370   2.768   2.345  0.2378  0.6456 -0.2140
 8326TIP3   OH246392   1.775   3.153   4.658 -0.3572  0.3090 -0.0952
 8326TIP3    H146393   1.839   3.180   4.724 -0.9104  0.7095  0.2802
 8326TIP3    H246394   1.797   3.205   4.581 -0.6121  0.8974  0.2256
 8327TIP3   OH246395   0.685   6.355   4.809  0.0049 -0.0101 -0.3335
 8327TIP3    H146396   0.761   6.410   4.789  0.1019 -0.1294 -0.2910
 8327TIP3    H246397   0.637   6.350   4.726  0.2767 -0.2992 -0.4762
 8328TIP3   OH246398   4.550   4.274   0.530  0.4218 -0.1222 -0.1547
 8328TIP3    H146399   4.502   4.193   0.547 -0.4419  0.7680  1.7542
 8328TIP3    H246400   4.521   4.334   0.598  1.3305  1.6905 -1.3305
 8329TIP3   OH246401   6.360   0.093   3.679  0.4352  0.3750 -0.4415
 8329TIP3    H146402   6.447   0.110   3.644 -0.3883  2.8663 -1.3997
 8329TIP3    H246403   6.367   0.116   3.772  0.1345  3.2500 -1.0880
 8330TIP3   OH246404   0.090   3.214  10.592  0.1861  0.2297  0.3277
 8330TIP3    H146405   0.100   3.141  10.653  0.8432  0.0836  0.0522
 8330TIP3    H246406   0.164   3.206  10.532 -0.2057  0.6305 -0.2227
 8331TIP3   OH246407   5.108   4.333   4.064 -0.0797 -0.7806  0.4324
 8331TIP3    H146408   5.063   4.417   4.052  1.0336 -0.2025  0.1625
 8331TIP3    H246409   5.067   4.274   4.001  0.3564  0.0754 -0.6724
 8332TIP3   OH246410   1.417   1.956   0.291  0.1939  0.3821 -0.0623
 8332TIP3    H146411   1.507   1.933   0.267  0.5486  1.8441 -0.2184
 8332TIP3    H246412   1.426   2.040   0.337 -1.2200  1.3129 -1.4222
 8333TIP3   OH246413   1.209   1.593   3.904  0.1053 -0.0879 -0.0825
 8333TIP3    H146414   1.235   1.627   3.990  0.5240  0.4860 -0.4343
 8333TIP3    H246415   1.246   1.505   3.901  2.4592  0.8861 -0.7674
 8334TIP3   OH246416   4.427   3.727   2.320  0.1299  0.6323  0.4704
 8334TIP3    H146417   4.420   3.671   2.242  0.4235  1.6260 -0.2776
 8334TIP3    H246418   4.486   3.678   2.379  2.1650  1.1312 -1.0765
 8335TIP3   OH246419   1.669   1.733  15.909  0.1465 -0.0413 -0.2640
 8335TIP3    H146420   1.597   1.692  15.860 -1.1779  1.8181  0.0586
 8335TIP3    H246421   1.748   1.703  15.865 -0.7397 -3.0043  0.0197
 8336TIP3   OH246422   2.011   1.114   0.458  0.5978 -0.0273  0.1216
 8336TIP3    H146423   1.956   1.039   0.436  1.6969 -0.5391 -0.9552
 8336TIP3    H246424   1.967   1.189   0.418 -0.0138 -0.2348  0.4059
 8337TIP3   OH246425   0.403   4.584  15.392 -0.2837 -0.7680  0.2980
 8337TIP3    H146426   0.325   4.550  15.436 -0.9643 -0.0750 -0.3552
 8337TIP3    H246427   0.476   4.535  15.430 -0.8825 -0.3161  2.0404
 8338TIP3   OH246428   2.501   2.838  11.226 -0.3115  0.2135 -0.1252
 8338TIP3    H146429   2.483   2.863  11.135  1.6884  2.0122 -0.0522
 8338TIP3    H246430   2.579   2.783  11.220  0.0636  0.6731  0.5388
 8339TIP3   OH246431   3.523   4.277   1.654  0.1397  0.2652 -0.1015
 8339TIP3    H146432   3.584   4.316   1.716 -0.3223  0.3285  0.3159
 8339TIP3    H246433   3.547   4.184   1.652 -0.5941  0.0284  1.0797
 8340TIP3   OH246434   4.218   5.942  16.822 -0.2456 -0.7531  0.0042
 8340TIP3    H146435   4.265   5.861  16.802  1.2754 -0.1614  1.1431
 8340TIP3    H246436   4.215   5.989  16.739  0.9014 -0.9343 -0.1424
 8341TIP3   OH246437   6.642   5.032  13.784  0.7002  0.1326  0.4564
 8341TIP3    H146438   6.676   5.083  13.711  0.2575 -0.7681 -0.3900
 8341TIP3    H246439   6.677   4.944  13.770 -0.6518 -0.4154  0.4564
 8342TIP3   OH246440   1.086   6.030   1.766  0.4943 -0.0546 -0.2089
 8342TIP3    H146441   1.065   6.092   1.696 -2.3602 -2.0751 -1.2520
 8342TIP3    H246442   1.044   6.067   1.843  0.9342  0.5838 -0.2756
 8343TIP3   OH246443   6.319   0.635   4.636 -0.0527  0.2569 -0.3884
 8343TIP3    H146444   6.335   0.724   4.665 -0.1750 -0.3885  1.7236
 8343TIP3    H246445   6.241   0.642   4.581 -0.0400  1.4423 -0.2755
 8344TIP3   OH246446   5.319   1.936  14.297 -0.1144  0.1429 -0.5323
 8344TIP3    H146447   5.279   1.991  14.230 -0.1753 -0.7623 -1.2593
 8344TIP3    H246448   5.247   1.881  14.329 -0.2459  1.0523  0.7991
 8345TIP3   OH246449   5.726   1.630   0.266  0.5955 -0.0814  0.5525
 8345TIP3    H146450   5.767   1.554   0.307  0.9571 -0.5413 -0.6131
 8345TIP3    H246451   5.797   1.671   0.216  0.2767  0.7157  0.7441
 8346TIP3   OH246452   0.470   5.368   5.583 -0.4541  0.2786 -0.0564
 8346TIP3    H146453   0.516   5.284   5.580 -0.6916  0.1880 -1.8456
 8346TIP3    H246454   0.380   5.345   5.604 -0.1134  0.2736  1.4414
 8347TIP3   OH246455   3.809   4.052   2.543  0.3689 -0.0960  0.0196
 8347TIP3    H146456   3.732   4.047   2.600  0.2345  1.3840 -0.0034
 8347TIP3    H246457   3.773   4.056   2.454  0.4053  1.5478  0.0536
 8348TIP3   OH246458   2.432   5.342  15.205  0.1871 -0.0627 -0.0302
 8348TIP3    H146459   2.462   5.384  15.125 -0.7608  0.1107 -0.3002
 8348TIP3    H246460   2.425   5.250  15.183  2.9842 -0.5316  0.7727
 8349TIP3   OH246461   2.854   5.785   0.671  0.4174  0.1045  0.1502
 8349TIP3    H146462   2.862   5.750   0.582  0.8238  2.3950 -0.7433
 8349TIP3    H246463   2.819   5.712   0.722 -0.6032 -1.0083 -2.0501
 8350TIP3   OH246464   4.512   4.781   2.278  0.0983 -0.6413 -0.3075
 8350TIP3    H146465   4.563   4.793   2.358 -0.1473  1.9844 -0.4916
 8350TIP3    H246466   4.431   4.830   2.293 -1.0244 -2.1588 -1.2308
 8351TIP3   OH246467   3.233   0.056   2.599  1.2103 -0.3950  0.1242
 8351TIP3    H146468   3.299   0.088   2.660  2.3633 -0.9219 -0.8284
 8351TIP3    H246469   3.254   0.099   2.516 -1.2153  1.4455  0.4047
 8352TIP3   OH246470   0.819   6.288   0.944 -0.3168  0.4137 -0.4052
 8352TIP3    H146471   0.812   6.196   0.971  0.0300  0.8278  1.1281
 8352TIP3    H246472   0.775   6.337   1.014 -0.7385  1.3965 -1.3533
 8353TIP3   OH246473   0.053   5.407   1.521  0.9223  0.6300  0.2484
 8353TIP3    H146474   0.088   5.411   1.432 -1.2187 -0.8392 -0.6884
 8353TIP3    H246475   0.055   5.315   1.544 -3.2620  0.2715 -0.3030
 8354TIP3   OH246476   4.462   5.351  15.419 -0.2859 -0.4103 -0.0807
 8354TIP3    H146477   4.510   5.416  15.368  0.4633 -1.0196 -0.1703
 8354TIP3    H246478   4.513   5.270  15.408 -1.7459 -1.2527 -0.7889
 8355TIP3   OH246479   6.598   2.693  15.763 -0.0230 -0.5390  0.3000
 8355TIP3    H146480   6.528   2.755  15.780 -0.1072 -0.6624  0.4080
 8355TIP3    H246481   6.572   2.649  15.682  1.1026  1.0773 -0.9672
 8356TIP3   OH246482   3.407   2.677   5.846 -0.2083 -0.3001  0.7187
 8356TIP3    H146483   3.357   2.598   5.831 -2.4360  1.0055  1.0339
 8356TIP3    H246484   3.369   2.715   5.926  0.4510  1.3577  0.2672
 8357TIP3   OH246485   1.756   3.617  12.434 -0.1274  0.2275  0.0690
 8357TIP3    H146486   1.707   3.534  12.440  0.9072 -0.5605 -2.0896
 8357TIP3    H246487   1.758   3.638  12.341 -1.7270  3.5551  0.7086
 8358TIP3   OH246488   1.409   2.238   0.311  0.3605  0.7411 -0.0312
 8358TIP3    H146489   1.425   2.332   0.298 -1.1061  1.1983  1.3208
 8358TIP3    H246490   1.324   2.234   0.354 -0.2891 -1.3137 -1.4542
 8359TIP3   OH246491   2.785   4.329   4.614 -0.2246  0.2203  0.2156
 8359TIP3    H146492   2.870   4.300   4.581 -1.4560 -1.6789 -1.3134
 8359TIP3    H246493   2.802   4.351   4.706  1.7707 -0.7200  0.0999
 8360TIP3   OH246494   4.007   2.104   7.045  0.6682 -0.3313 -0.1054
 8360TIP3    H146495   4.048   2.096   6.958  2.9085 -0.0554  0.8820
 8360TIP3    H246496   4.078   2.134   7.101 -1.0758  0.6475  1.5900
 8361TIP3   OH246497   6.443   6.613  13.296 -0.3435  0.1822 -0.1025
 8361TIP3    H146498   6.383   6.613  13.222  0.6437  1.0531 -0.9133
 8361TIP3    H246499   6.522   6.568  13.264 -0.1864 -0.0834  0.6412
 8362TIP3   OH246500   0.787   5.071  12.283  0.0677  0.1005 -0.1595
 8362TIP3    H146501   0.732   4.993  12.278  0.5551 -0.2818  0.3511
 8362TIP3    H246502   0.766   5.109  12.369  1.0914 -0.4285  0.3440
 8363TIP3   OH246503   1.590   4.597  15.540  0.8546  0.2458 -0.1181
 8363TIP3    H146504   1.656   4.659  15.570  0.4491  0.5003  0.2553
 8363TIP3    H246505   1.612   4.515  15.584  1.4716  0.0846 -0.7158
 8364TIP3   OH246506   2.795   6.673   2.004 -0.4416  0.4832  0.0704
 8364TIP3    H146507   2.700   6.675   2.015 -0.4226 -0.3042  0.4288
 8364TIP3    H246508   2.808   6.643   1.914 -0.5266 -1.2010  0.5977
 8365TIP3   OH246509   5.012   1.847  12.640 -0.6786  0.2332 -0.2539
 8365TIP3    H146510   4.931   1.854  12.589 -1.6880  0.9770  1.3901
 8365TIP3    H246511   5.009   1.922  12.699 -0.2975 -1.4465  1.9412
 8366TIP3   OH246512   6.170   3.565  11.498 -0.1347 -0.4025 -0.1210
 8366TIP3    H146513   6.255   3.535  11.464 -1.3715 -1.7213 -2.2060
 8366TIP3    H246514   6.108   3.545  11.428 -2.3223 -0.2743  1.7097
 8367TIP3   OH246515   4.086   6.357   2.732 -0.1572  0.1913 -0.2649
 8367TIP3    H146516   4.148   6.430   2.738 -0.2528  0.3814 -1.4352
 8367TIP3    H246517   4.078   6.341   2.638 -1.6740 -0.0023 -0.1077
 8368TIP3   OH246518   3.843   5.132   1.055  0.4853 -0.5718  0.7639
 8368TIP3    H146519   3.820   5.223   1.036 -0.9470 -1.0351  0.2521
 8368TIP3    H246520   3.878   5.099   0.972 -0.9021 -1.0784  0.3773
 8369TIP3   OH246521   2.915   0.597  16.037 -0.4768  0.4114  0.6233
 8369TIP3    H146522   2.968   0.545  16.097 -0.2180 -1.1169 -0.8844
 8369TIP3    H246523   2.871   0.532  15.982  0.1047  1.7915 -1.5133
 8370TIP3   OH246524   2.214   2.487  14.580  0.1074 -0.1865 -0.3071
 8370TIP3    H146525   2.123   2.495  14.550 -0.5115 -1.3588  1.2026
 8370TIP3    H246526   2.208   2.484  14.675  1.5350 -2.2901 -0.2407
 8371TIP3   OH246527   0.616   3.840  15.451 -0.0431 -0.3365  0.3223
 8371TIP3    H146528   0.660   3.760  15.423  0.4937  0.2313 -0.4935
 8371TIP3    H246529   0.551   3.857  15.383  0.4974  0.4334 -0.0163
 8372TIP3   OH246530   6.574   0.654   5.248 -0.3951  0.2448 -0.0298
 8372TIP3    H146531   6.511   0.708   5.200  1.4320  1.0323 -1.6199
 8372TIP3    H246532   6.605   0.712   5.318 -1.2258 -0.0525  0.5902
 8373TIP3   OH246533   2.753   5.657   2.268  0.1365 -0.5383  0.0412
 8373TIP3    H146534   2.761   5.726   2.202 -1.8285 -0.7987 -0.5155
 8373TIP3    H246535   2.784   5.697   2.349 -0.9043  1.0021 -0.2940
 8374TIP3   OH246536   5.594   0.863  17.046  0.5916  0.4508  0.7684
 8374TIP3    H146537   5.586   0.781  17.094  1.0334 -0.5478 -0.8651
 8374TIP3    H246538   5.644   0.920  17.105  1.6172 -0.9421  1.2689
 8375TIP3   OH246539   6.485   1.925  15.334  0.4719  0.6672  0.5884
 8375TIP3    H146540   6.464   1.923  15.240  0.3590  2.0711  0.5608
 8375TIP3    H246541   6.579   1.911  15.337  0.4672  0.5547  0.2623
 8376TIP3   OH246542   3.771   2.763  11.886  0.6003 -0.0290 -0.2790
 8376TIP3    H146543   3.863   2.780  11.868  1.1841  0.6637  3.0427
 8376TIP3    H246544   3.771   2.719  11.971 -1.9809 -2.4305 -1.4397
 8377TIP3   OH246545   5.066   1.973   3.467  0.1478 -0.0154 -0.4150
 8377TIP3    H146546   5.160   1.955   3.463  0.3701  0.8672  0.5494
 8377TIP3    H246547   5.034   1.919   3.540 -0.0928 -0.3053 -0.7323
 8378TIP3   OH246548   6.543   2.159  13.040 -0.3386  0.2910  0.0450
 8378TIP3    H146549   6.544   2.065  13.022  2.0391  0.0805  1.0364
 8378TIP3    H246550   6.472   2.194  12.986 -0.2399 -1.8364 -1.5029
 8379TIP3   OH246551   5.408   6.525   2.515  0.4161  0.1609 -0.4538
 8379TIP3    H146552   5.372   6.598   2.464  0.8594  0.8758  0.2381
 8379TIP3    H246553   5.399   6.449   2.458  3.7900  1.4641 -2.9198
 8380TIP3   OH246554   6.270   5.227  13.337 -0.2784  0.9894  0.3443
 8380TIP3    H146555   6.353   5.275  13.343  0.2502  0.1807 -0.3491
 8380TIP3    H246556   6.297   5.136  13.322 -1.3232  1.0503 -2.0712
 8381TIP3   OH246557   0.483   0.095   1.768 -0.1874 -1.0240 -0.8566
 8381TIP3    H146558   0.466   0.027   1.833 -0.6049 -0.1298 -0.0293
 8381TIP3    H246559   0.549   0.151   1.808 -0.0430 -0.7830 -1.4298
 8382TIP3   OH246560   1.376   3.042  14.140 -0.3221 -0.2436 -0.0861
 8382TIP3    H146561   1.396   3.094  14.218  0.0198 -1.1169  0.4247
 8382TIP3    H246562   1.295   2.995  14.163 -0.8887  0.4121 -0.7205
 8383TIP3   OH246563   0.762   0.525   3.488 -0.8651  0.5256 -0.5554
 8383TIP3    H146564   0.735   0.573   3.410 -2.5345  1.3186  0.4734
 8383TIP3    H246565   0.852   0.553   3.504 -0.2506 -0.2039 -2.5981
 8384TIP3   OH246566   4.739   1.096  17.199  0.0928  1.0900  0.1308
 8384TIP3    H146567   4.758   1.156  17.127  1.0452  0.5576 -0.0697
 8384TIP3    H246568   4.787   1.016  17.178 -0.6440  0.4732  0.7152
 8385TIP3   OH246569   2.266   5.448   3.248  0.6381  0.5807  0.2810
 8385TIP3    H146570   2.298   5.389   3.180 -0.0684  0.0691  0.3850
 8385TIP3    H246571   2.171   5.445   3.239  0.4176 -1.1896  2.6915
 8386TIP3   OH246572   2.540   4.185  16.049 -0.2921  0.9273 -0.0517
 8386TIP3    H146573   2.589   4.103  16.043  1.4521  2.0162 -1.1717
 8386TIP3    H246574   2.455   4.165  16.009  0.5373 -0.0233 -1.3714
 8387TIP3   OH246575   1.015   5.910  13.075  0.5805  0.1683 -0.2261
 8387TIP3    H146576   1.050   5.985  13.124  0.6747  0.4342 -0.7006
 8387TIP3    H246577   0.961   5.949  13.006 -0.4794 -0.2279  0.3517
 8388TIP3   OH246578   4.595   5.848  11.300  0.1797  0.2769 -0.2395
 8388TIP3    H146579   4.626   5.831  11.211 -1.2053  1.5226 -0.9907
 8388TIP3    H246580   4.674   5.861  11.351  0.9774  0.1536 -1.4175
 8389TIP3   OH246581   6.153   3.752  13.473  0.2542 -0.0249 -0.1609
 8389TIP3    H146582   6.126   3.838  13.506  1.3797  0.0648  0.5520
 8389TIP3    H246583   6.109   3.690  13.530  0.6754  0.1045  0.3068
 8390TIP3   OH246584   4.052   3.420   5.843 -0.1833 -0.6880  0.2805
 8390TIP3    H146585   4.044   3.479   5.918  0.5013 -1.1623  0.7343
 8390TIP3    H246586   4.004   3.464   5.773  2.0851  1.4837 -0.0088
 8391TIP3   OH246587   0.381   2.954   0.440  0.0661  0.0639 -0.4001
 8391TIP3    H146588   0.435   2.893   0.491  0.2159  0.3612 -0.1984
 8391TIP3    H246589   0.435   2.979   0.366 -1.2323 -2.6441 -2.3318
 8392TIP3   OH246590   3.222   4.158  14.044 -0.5360  0.2490  0.8611
 8392TIP3    H146591   3.169   4.228  14.080 -1.1239 -0.6913  1.8691
 8392TIP3    H246592   3.176   4.129  13.966 -1.5443 -0.5866  1.7530
 8393TIP3   OH246593   3.010   3.828  17.191 -0.0052 -0.2006 -0.4133
 8393TIP3    H146594   2.984   3.887  17.262  1.5463 -0.8471  0.7010
 8393TIP3    H246595   3.100   3.852  17.171 -0.2190 -0.4458 -1.7603
 8394TIP3   OH246596   4.667   4.516   5.550  0.4544  0.0512 -0.0679
 8394TIP3    H146597   4.648   4.560   5.634  2.5234  0.4254  0.2381
 8394TIP3    H246598   4.624   4.571   5.485  1.2898  1.4526  0.5105
 8395TIP3   OH246599   2.054   6.047   5.298  0.6627 -0.2578 -0.2862
 8395TIP3    H146600   2.110   6.123   5.318  1.5902 -0.7580 -0.9456
 8395TIP3    H246601   2.012   6.027   5.382 -0.8106  1.9409 -0.4545
 8396TIP3   OH246602   3.037   1.806   3.837 -0.2728  0.3416  0.0747
 8396TIP3    H146603   3.037   1.894   3.800  2.3809  1.5484  2.7107
 8396TIP3    H246604   3.126   1.775   3.823 -0.4733 -0.8974  1.4470
 8397TIP3   OH246605   1.236   1.572  15.343 -0.0290  0.3242  0.2682
 8397TIP3    H146606   1.202   1.483  15.355  1.4997 -0.2724  0.2109
 8397TIP3    H246607   1.255   1.602  15.432  1.0820 -0.0636  0.1725
 8398TIP3   OH246608   3.180   1.834  10.844 -0.0433 -0.3299  0.7126
 8398TIP3    H146609   3.218   1.915  10.879  0.5050 -0.9948  1.6915
 8398TIP3    H246610   3.211   1.830  10.754 -1.7730  1.6049 -0.0103
 8399TIP3   OH246611   1.061   5.281   2.575 -0.3099 -0.2094  0.4097
 8399TIP3    H146612   1.009   5.359   2.553  0.6656  0.8343  1.7010
 8399TIP3    H246613   1.084   5.243   2.490 -1.6889  0.3045 -0.2123
 8400TIP3   OH246614   2.861   1.057   0.463  0.3251  0.0096 -0.3039
 8400TIP3    H146615   2.834   1.054   0.555 -0.7109  0.7500 -0.5810
 8400TIP3    H246616   2.786   1.094   0.417  0.8349 -0.3686 -1.4562
 8401TIP3   OH246617   4.352   5.277  11.524  0.7470  0.0188 -0.4805
 8401TIP3    H146618   4.386   5.193  11.492  0.5734 -0.9965  1.8422
 8401TIP3    H246619   4.429   5.325  11.552  0.8223  0.5225 -1.5388
 8402TIP3   OH246620   2.763   1.817  12.974 -0.0942 -0.1127  0.2100
 8402TIP3    H146621   2.834   1.753  12.966  0.3263  0.6110 -2.0604
 8402TIP3    H246622   2.703   1.796  12.903  0.0492  1.9882 -0.5747
 8403TIP3   OH246623   1.832   0.413  14.280  0.0583 -0.9027  0.3621
 8403TIP3    H146624   1.853   0.505  14.273 -0.3311 -0.8948 -0.8231
 8403TIP3    H246625   1.869   0.373  14.201 -0.6915 -1.5741  0.3396
 8404TIP3   OH246626   3.557   1.652  16.954  0.4673  0.3810 -0.5490
 8404TIP3    H146627   3.546   1.609  16.869 -1.5574  1.7833 -1.0297
 8404TIP3    H246628   3.579   1.743  16.931  0.1919  0.7005  0.4300
 8405TIP3   OH246629   4.646   3.842  14.147 -0.4751 -0.0926  0.1916
 8405TIP3    H146630   4.677   3.758  14.113 -1.0341 -0.2671  0.0956
 8405TIP3    H246631   4.551   3.839  14.134 -0.4152  0.8806 -0.5597
 8406TIP3   OH246632   4.872   0.759  13.948 -0.1253  0.2098  0.1669
 8406TIP3    H146633   4.825   0.763  13.865  1.1074 -1.2800 -0.6388
 8406TIP3    H246634   4.810   0.722  14.010 -1.4600  2.4917  0.2338
 8407TIP3   OH246635   5.276   1.002   3.863 -0.2919 -0.0911 -0.3806
 8407TIP3    H146636   5.246   1.066   3.797  0.2147  0.4587 -0.0814
 8407TIP3    H246637   5.332   0.943   3.814 -0.2984  0.0346 -0.5414
 8408TIP3   OH246638   2.421   5.484  13.951 -0.1811 -0.6924 -0.0157
 8408TIP3    H146639   2.326   5.474  13.943 -0.2018 -0.8075  0.3576
 8408TIP3    H246640   2.451   5.398  13.982 -0.0211 -0.4782  0.4212
 8409TIP3   OH246641   0.426   6.255   4.462 -0.4110  0.4750 -0.7176
 8409TIP3    H146642   0.475   6.216   4.534  0.3627  1.9863 -0.4076
 8409TIP3    H246643   0.368   6.319   4.504  0.3448  1.6638 -1.4446
 8410TIP3   OH246644   3.858   5.970  12.408 -0.2271  0.2266 -0.1582
 8410TIP3    H146645   3.831   5.981  12.317  0.2326 -0.7800 -0.4258
 8410TIP3    H246646   3.845   5.876  12.425  1.5986  0.0335  0.1985
 8411TIP3   OH246647   3.793   3.247   1.512  0.1310  0.1529 -0.1649
 8411TIP3    H146648   3.750   3.282   1.590  0.5732 -1.4142  0.8095
 8411TIP3    H246649   3.886   3.251   1.533  0.3627  1.4385 -1.3677
 8412TIP3   OH246650   1.841   0.113  15.900  0.0933  0.8589 -0.2610
 8412TIP3    H146651   1.893   0.080  15.827  1.4750 -1.1894  1.5625
 8412TIP3    H246652   1.761   0.061  15.898  0.5638  0.0873  0.2282
 8413TIP3   OH246653   5.501   2.262  16.043  0.3181  0.6224  0.2021
 8413TIP3    H146654   5.523   2.316  15.967  1.7516  0.1750  0.2727
 8413TIP3    H246655   5.415   2.226  16.023  0.8737  0.1507 -1.4340
 8414TIP3   OH246656   2.407   6.051  12.000 -0.0582 -0.4441 -0.1722
 8414TIP3    H146657   2.437   6.133  11.961 -0.9301  0.2206  0.5324
 8414TIP3    H246658   2.373   6.076  12.085  1.0505 -1.7715  0.6708
 8415TIP3   OH246659   1.498   5.459  14.577  0.3668 -0.1525 -0.4934
 8415TIP3    H146660   1.542   5.411  14.647  0.6841 -0.7786 -1.1166
 8415TIP3    H246661   1.405   5.438  14.589  0.3787  0.0906  0.0057
 8416TIP3   OH246662   5.091   0.861  13.831  0.2132 -0.3570 -0.3714
 8416TIP3    H146663   5.155   0.902  13.889  0.7945  1.1088 -1.9808
 8416TIP3    H246664   5.025   0.825  13.889  1.3085  0.1646  1.2333
 8417TIP3   OH246665   1.356   0.642   5.064  0.2032 -0.3982  0.0078
 8417TIP3    H146666   1.293   0.712   5.080 -0.7792 -0.9356 -1.4286
 8417TIP3    H246667   1.305   0.572   5.023  1.6292 -1.0148 -0.7469
 8418TIP3   OH246668   6.628   4.757   4.347  0.2111  0.3687  0.4248
 8418TIP3    H146669   6.689   4.688   4.321  0.1893 -0.0952  1.5502
 8418TIP3    H246670   6.547   4.711   4.367 -0.3395  0.9233 -0.5188
 8419TIP3   OH246671   5.556   5.863   4.852  0.8476 -0.1604 -0.5611
 8419TIP3    H146672   5.528   5.870   4.760  0.0488 -1.6549 -0.4477
 8419TIP3    H246673   5.649   5.883   4.850  0.6158  0.8670 -1.5531
 8420TIP3   OH246674   3.398   0.583  16.592  0.2197  0.0050  0.5235
 8420TIP3    H146675   3.428   0.637  16.665  0.5856 -1.2662  1.3322
 8420TIP3    H246676   3.303   0.590  16.594  0.2484  0.2674  0.8913
 8421TIP3   OH246677   2.246   0.418  16.773 -0.2300 -0.4179 -0.0694
 8421TIP3    H146678   2.232   0.335  16.818  1.6707 -0.5901  0.2589
 8421TIP3    H246679   2.279   0.394  16.686 -0.8041 -0.0165 -0.4093
 8422TIP3   OH246680   6.390   3.866  17.050 -0.4997  0.0937  0.1983
 8422TIP3    H146681   6.303   3.827  17.045 -0.3730 -0.0421 -1.2586
 8422TIP3    H246682   6.419   3.850  17.139 -2.4691  1.2447  1.0643
 8423TIP3   OH246683   4.184   2.504  12.831  0.1098  0.2968  0.0851
 8423TIP3    H146684   4.204   2.497  12.925 -0.6626  1.3394  0.3448
 8423TIP3    H246685   4.231   2.431  12.791 -0.1241 -0.5867  1.3759
 8424TIP3   OH246686   3.903   0.427  14.917  0.0111 -0.2888 -0.5122
 8424TIP3    H146687   3.820   0.432  14.965  0.3199  0.4634 -0.0436
 8424TIP3    H246688   3.891   0.488  14.843  0.6451  0.9026  0.3456
 8425TIP3   OH246689   4.372   2.798  14.635 -0.2463  0.4830  0.0070
 8425TIP3    H146690   4.442   2.851  14.598  0.7033  0.0250  1.1445
 8425TIP3    H246691   4.313   2.862  14.676  0.0455  0.7812 -0.0341
 8426TIP3   OH246692   5.421   2.766  17.042  0.4142 -0.8443  0.0025
 8426TIP3    H146693   5.392   2.751  17.132  0.5812 -0.1428  0.1841
 8426TIP3    H246694   5.516   2.754  17.044  0.5595  0.2558  0.1694
 8427TIP3   OH246695   2.144   1.240   3.690  0.3191  0.1535 -0.2610
 8427TIP3    H146696   2.102   1.298   3.754  0.6744  0.4415 -0.2864
 8427TIP3    H246697   2.124   1.152   3.721  0.5362  0.2910  0.2759
 8428TIP3   OH246698   3.571   3.199   6.454  0.7247  0.3466  0.1996
 8428TIP3    H146699   3.664   3.205   6.437  0.6874  0.2173 -0.0497
 8428TIP3    H246700   3.561   3.120   6.508  0.6311 -0.2543 -0.6942
 8429TIP3   OH246701   6.164   2.653  11.291 -0.2856 -0.0970  0.7811
 8429TIP3    H146702   6.093   2.593  11.316 -0.0362 -0.3948  0.7808
 8429TIP3    H246703   6.166   2.649  11.196 -1.1901  0.9814  0.7082
 8430TIP3   OH246704   5.484   1.486  11.790 -0.1863 -0.0907  0.1733
 8430TIP3    H146705   5.524   1.523  11.711 -0.0465 -0.5245  0.0406
 8430TIP3    H246706   5.557   1.452  11.840 -0.2951  0.0046  0.3972
 8431TIP3   OH246707   5.408   4.248   2.922 -0.6020 -0.1930 -0.3337
 8431TIP3    H146708   5.414   4.161   2.883  1.2668  0.3211 -1.2875
 8431TIP3    H246709   5.357   4.300   2.859  0.4585  0.0444 -1.0099
 8432TIP3   OH246710   0.680   6.583   5.506  0.2813 -0.2087 -0.1973
 8432TIP3    H146711   0.624   6.649   5.547 -0.5729 -1.6468  0.9675
 8432TIP3    H246712   0.630   6.502   5.512  2.0326 -1.2975 -0.1217
 8433TIP3   OH246713   0.815   6.065  13.258 -0.0924  0.0522  0.2461
 8433TIP3    H146714   0.731   6.104  13.281  0.7233  1.6416  0.6016
 8433TIP3    H246715   0.795   5.973  13.242 -2.3652  0.9209 -2.3246
 8434TIP3   OH246716   6.070   4.307   5.912  0.4526  0.1712  0.7517
 8434TIP3    H146717   6.117   4.298   5.829  0.0224  0.1922  0.5015
 8434TIP3    H246718   6.099   4.391   5.948  1.0276 -0.0757  0.8720
 8435TIP3   OH246719   5.230   6.462  14.427 -0.2441  0.4947 -0.0548
 8435TIP3    H146720   5.193   6.464  14.338  1.9948  0.7196 -1.0115
 8435TIP3    H246721   5.317   6.500  14.417  0.6768 -1.0202  1.9609
 8436TIP3   OH246722   2.226   3.149   1.472  0.4410 -0.1898 -0.1483
 8436TIP3    H146723   2.270   3.234   1.473  1.3879 -0.6707 -0.1744
 8436TIP3    H246724   2.179   3.147   1.389  3.0301 -0.9916 -1.6191
 8437TIP3   OH246725   5.757   0.053  10.756  0.3561 -0.5389  0.1178
 8437TIP3    H146726   5.789  -0.022  10.805  2.2744 -0.8534 -1.5619
 8437TIP3    H246727   5.780   0.129  10.810  0.6724 -0.9952  0.6275
 8438TIP3   OH246728   1.344   6.075  15.527 -0.1525  0.2604  0.6289
 8438TIP3    H146729   1.392   6.140  15.579 -0.3539  0.9188 -0.0062
 8438TIP3    H246730   1.362   5.992  15.571  2.1434  0.3920  0.0182
 8439TIP3   OH246731   3.168   5.507  11.256 -0.6320  0.1453  0.2939
 8439TIP3    H146732   3.206   5.573  11.199 -1.3731  1.3034  1.1205
 8439TIP3    H246733   3.146   5.434  11.197 -1.7215  1.4653 -0.9482
 8440TIP3   OH246734   6.690   1.336   0.180  0.5596  0.6296  0.0111
 8440TIP3    H146735   6.612   1.360   0.230 -0.7022 -0.9837 -1.1404
 8440TIP3    H246736   6.714   1.417   0.133 -0.2330  1.2092  0.5959
 8441TIP3   OH246737   2.196   6.701   1.931 -0.2327 -0.7634 -0.3462
 8441TIP3    H146738   2.213   6.747   1.849  1.1772 -0.5239  0.0725
 8441TIP3    H246739   2.125   6.640   1.910  0.5646 -1.1725 -1.9161
 8442TIP3   OH246740   5.010   3.385   5.330  0.6036  0.4811  0.3799
 8442TIP3    H146741   5.005   3.460   5.270  0.2861 -1.1945 -1.7344
 8442TIP3    H246742   4.919   3.362   5.348  0.7026  0.3310  0.6994
 8443TIP3   OH246743   4.360   4.967   3.585  0.2128  0.0384  0.0040
 8443TIP3    H146744   4.326   4.899   3.527 -0.4119 -0.8309  1.3482
 8443TIP3    H246745   4.375   4.922   3.669  1.7222  1.1140  0.3357
 8444TIP3   OH246746   0.280   3.829  14.436 -0.1828  0.4278 -0.0142
 8444TIP3    H146747   0.356   3.887  14.423  0.6659 -1.0344 -1.7543
 8444TIP3    H246748   0.302   3.779  14.515 -0.4447  1.7093  0.8867
 8445TIP3   OH246749   4.039   3.789   1.377  0.5398 -0.5902 -0.5691
 8445TIP3    H146750   3.991   3.720   1.332  1.2244 -0.6134 -1.2765
 8445TIP3    H246751   3.971   3.851   1.405 -0.3420 -2.6455  2.0888
 8446TIP3   OH246752   5.002   1.357   2.748 -0.1087 -0.0245  1.0432
 8446TIP3    H146753   4.948   1.375   2.671 -0.0500  0.1660  1.0468
 8446TIP3    H246754   4.940   1.329   2.815 -0.2211  0.3639  1.1000
 8447TIP3   OH246755   3.577   2.093  14.021 -0.1745 -0.1345  0.6459
 8447TIP3    H146756   3.510   2.053  14.076  0.5912  1.0774  2.4789
 8447TIP3    H246757   3.568   2.049  13.936 -1.9436 -1.3860  1.4732
 8448TIP3   OH246758   5.747   1.117  13.812  0.2498  0.2302 -0.1524
 8448TIP3    H146759   5.756   1.114  13.717  2.1377  1.4587 -0.0328
 8448TIP3    H246760   5.835   1.132  13.844 -0.2855 -0.7423  1.8436
 8449TIP3   OH246761   4.723   0.049  14.427 -0.0481 -0.2921  0.2435
 8449TIP3    H146762   4.722  -0.042  14.396 -0.7295  0.2321 -1.3124
 8449TIP3    H246763   4.730   0.102  14.347  0.1224  1.0353  1.1207
 8450TIP3   OH246764   6.196   1.168  13.051 -0.1859 -0.0046  0.4200
 8450TIP3    H146765   6.142   1.142  12.977 -1.5687 -1.2111  1.8019
 8450TIP3    H246766   6.274   1.112  13.044  0.1132  0.5397 -0.6309
 8451TIP3   OH246767   2.352   3.265   1.785  0.6811 -0.0485  0.1023
 8451TIP3    H146768   2.389   3.227   1.705  1.5262  0.9411 -0.0006
 8451TIP3    H246769   2.337   3.191   1.843 -1.9283 -1.0354 -1.7491
 8452TIP3   OH246770   0.740   3.662  14.665 -0.0212 -0.0770 -0.5077
 8452TIP3    H146771   0.679   3.602  14.708  0.4006 -0.1474 -0.0013
 8452TIP3    H246772   0.747   3.737  14.725  1.2837 -0.5882  0.0024
 8453TIP3   OH246773   6.383   4.516   2.280 -0.1075 -0.3212  0.8833
 8453TIP3    H146774   6.435   4.585   2.240  0.0017 -0.3667  0.9452
 8453TIP3    H246775   6.447   4.453   2.312 -0.2378 -0.9071  0.0042
 8454TIP3   OH246776   1.912   1.324  12.064  0.3222 -0.3432 -0.2588
 8454TIP3    H146777   1.943   1.234  12.075  0.0686 -0.3190  0.6532
 8454TIP3    H246778   1.832   1.328  12.116 -0.9243 -0.2525 -2.1406
 8455TIP3   OH246779   4.522   1.589  15.239  0.2682 -0.6242 -0.1059
 8455TIP3    H146780   4.459   1.616  15.172  0.9350  2.3871  0.3899
 8455TIP3    H246781   4.475   1.525  15.291 -2.0840  0.7998 -0.3766
 8456TIP3   OH246782   3.446   0.912  13.831 -0.1116 -0.1135 -0.1773
 8456TIP3    H146783   3.358   0.911  13.793  0.1895 -0.9739 -0.8836
 8456TIP3    H246784   3.435   0.874  13.918 -0.7777  1.6944  0.5455
 8457TIP3   OH246785   1.786   0.922   5.451 -0.4167  0.1581  0.3950
 8457TIP3    H146786   1.748   0.989   5.508  0.6653  1.0754  0.0657
 8457TIP3    H246787   1.879   0.946   5.445 -0.6318  0.4926 -2.2979
 8458TIP3   OH246788   6.707   2.988  11.475 -0.1428 -0.3408 -0.0136
 8458TIP3    H146789   6.658   3.069  11.463  0.7258  0.0691 -0.8684
 8458TIP3    H246790   6.688   2.937  11.396  0.1020 -0.5528  0.0644
 8459TIP3   OH246791   2.865   4.356  16.027  0.3942 -0.3533  0.0779
 8459TIP3    H146792   2.816   4.291  16.076 -0.0978  0.8156  1.1649
 8459TIP3    H246793   2.886   4.424  16.091 -0.8579  1.5496 -1.4546
 8460TIP3   OH246794   3.094   2.534   2.972 -0.5291  0.6375  0.4775
 8460TIP3    H146795   3.012   2.561   3.014 -0.6606  0.0774  0.5872
 8460TIP3    H246796   3.071   2.456   2.922 -0.0627  0.4825  0.4999
 8461TIP3   OH246797   5.045   5.718  17.000 -0.8426  0.5223  0.1991
 8461TIP3    H146798   4.957   5.754  16.984 -1.6519 -1.0295  0.9979
 8461TIP3    H246799   5.069   5.752  17.086  0.7157  3.5116 -1.3468
 8462TIP3   OH246800   4.222   1.014  17.089 -0.1694  0.6804 -0.3001
 8462TIP3    H146801   4.253   1.099  17.056 -1.2106  0.9088 -0.7152
 8462TIP3    H246802   4.161   1.037  17.159  0.0549  0.2567  0.0289
 8463TIP3   OH246803   3.714   1.436  11.714 -0.2207  0.2684 -0.2119
 8463TIP3    H146804   3.641   1.375  11.700 -1.1601  1.1353  0.8323
 8463TIP3    H246805   3.673   1.522  11.720  1.0230  0.9265 -0.8764
 8464TIP3   OH246806   1.797   1.209  11.652 -0.5364 -0.1176  0.6729
 8464TIP3    H146807   1.855   1.285  11.652 -1.1453  0.3700  1.8017
 8464TIP3    H246808   1.831   1.152  11.720  1.2666 -1.9504 -1.7072
 8465TIP3   OH246809   5.209   4.409   2.082 -0.1095 -0.0097 -0.2990
 8465TIP3    H146810   5.173   4.496   2.094  0.9244  0.2285  1.1273
 8465TIP3    H246811   5.140   4.361   2.036 -0.2901  1.8212 -1.9872
 8466TIP3   OH246812   2.199   1.404   0.239 -0.3125  0.2630  0.1054
 8466TIP3    H146813   2.133   1.463   0.275 -1.4735 -1.1916  0.4307
 8466TIP3    H246814   2.152   1.322   0.224  1.5245 -0.9269  0.7063
 8467TIP3   OH246815   2.529   6.269   2.896 -0.1763 -0.3034  0.2961
 8467TIP3    H146816   2.450   6.313   2.926 -0.4072 -0.9124  0.5942
 8467TIP3    H246817   2.591   6.340   2.878 -1.0999  0.2220 -0.8386
 8468TIP3   OH246818   6.156   3.114  12.193 -0.1048 -0.1082  0.6562
 8468TIP3    H146819   6.205   3.120  12.275 -0.1840 -0.3051  0.7172
 8468TIP3    H246820   6.191   3.185  12.139 -0.5132  0.4415  1.1073
 8469TIP3   OH246821   6.559   0.016   6.517 -0.3850  0.3822  0.2767
 8469TIP3    H146822   6.511  -0.035   6.452 -2.4219  0.9862  1.2886
 8469TIP3    H246823   6.542   0.107   6.495  0.2367  0.6079  0.6994
 8470TIP3   OH246824   1.612   6.426  15.412 -0.3871 -0.3521  0.1580
 8470TIP3    H146825   1.617   6.344  15.362 -1.1671  0.0643 -0.6083
 8470TIP3    H246826   1.535   6.415  15.468 -1.4381  0.4797 -1.0888
 8471TIP3   OH246827   6.688   2.250  11.601 -0.0290 -0.2981  0.0127
 8471TIP3    H146828   6.679   2.325  11.660  0.7040  1.0066 -1.5026
 8471TIP3    H246829   6.757   2.197  11.642 -0.0208  0.2277  0.6962
 8472TIP3   OH246830   5.190   0.031   0.335 -0.1379  0.0044  0.4423
 8472TIP3    H146831   5.201  -0.006   0.423  0.4105  0.3478  0.5243
 8472TIP3    H246832   5.250  -0.019   0.280  0.4096  0.5725  0.5032
 8473TIP3   OH246833   5.000   2.240   0.863 -0.5082  0.0186  0.2084
 8473TIP3    H146834   5.073   2.218   0.922 -0.6482  0.2201  0.4555
 8473TIP3    H246835   4.978   2.331   0.884  0.2344  0.4875 -0.9984
 8474TIP3   OH246836   6.216   4.953  13.685 -0.4191  0.4625  0.1287
 8474TIP3    H146837   6.193   4.869  13.647 -0.3228 -0.1237  1.3377
 8474TIP3    H246838   6.132   4.993  13.708 -0.4584  0.6578 -0.3449
 8475TIP3   OH246839   4.901   0.421   3.559  0.5416 -0.1041 -0.3005
 8475TIP3    H146840   4.995   0.439   3.571  0.6910  0.2919 -2.0104
 8475TIP3    H246841   4.875   0.475   3.485 -0.7663 -1.1415 -0.6234
 8476TIP3   OH246842   1.885   4.092  14.199 -0.4009  0.0380  0.1447
 8476TIP3    H146843   1.939   4.025  14.240  1.0644  1.2659  0.3037
 8476TIP3    H246844   1.815   4.044  14.156  1.1739 -1.6794 -0.5937
 8477TIP3   OH246845   2.053   3.667   0.811 -0.2116 -0.3767  0.0475
 8477TIP3    H146846   2.022   3.744   0.858  1.6031  1.3292 -1.4571
 8477TIP3    H246847   2.131   3.639   0.858 -2.0387 -2.6585  1.8600
 8478TIP3   OH246848   4.332   4.948   4.818  0.4494 -0.1086 -0.3207
 8478TIP3    H146849   4.237   4.956   4.805  0.2180 -1.1140  0.6583
 8478TIP3    H246850   4.362   4.897   4.743  0.3366  0.8835 -1.0446
 8479TIP3   OH246851   0.279   2.980   1.152 -0.2052  0.2332 -0.2635
 8479TIP3    H146852   0.211   3.027   1.201 -0.3907  0.4998 -0.7699
 8479TIP3    H246853   0.306   3.041   1.084  1.8423  0.8157  1.0443
 8480TIP3   OH246854   5.187   5.595  11.467 -0.3026  0.8532 -0.2754
 8480TIP3    H146855   5.205   5.587  11.374 -0.5229  3.4289 -0.5739
 8480TIP3    H246856   5.094   5.573  11.476 -0.3646  0.9526 -0.6979
 8481TIP3   OH246857   2.371   0.426   4.374  0.0579  0.1250 -0.2432
 8481TIP3    H146858   2.321   0.497   4.414  2.7512  1.2673  1.2199
 8481TIP3    H246859   2.371   0.446   4.280 -2.1641  0.0860 -0.2833
 8482TIP3   OH246860   6.414   5.664   5.824  0.1604  0.5962  0.0261
 8482TIP3    H146861   6.426   5.573   5.799 -1.5684  0.2814  0.2818
 8482TIP3    H246862   6.409   5.663   5.919  0.5605  1.0163  0.0557
 8483TIP3   OH246863   4.237   0.960   3.412  0.0218 -0.3727  0.2189
 8483TIP3    H146864   4.276   1.031   3.361 -0.2034  0.8593  1.7095
 8483TIP3    H246865   4.237   0.884   3.354  0.0694  0.9186 -1.4743
 8484TIP3   OH246866   0.418   0.930   1.228 -0.0627 -0.1827  0.3022
 8484TIP3    H146867   0.499   0.886   1.201  0.6868  1.4737 -0.1659
 8484TIP3    H246868   0.412   1.007   1.171 -2.3864 -0.7085 -0.2319
 8485TIP3   OH246869   1.133   2.901  14.159 -0.2376  0.2496  0.0199
 8485TIP3    H146870   1.169   2.890  14.247 -1.4573 -0.6814  0.4173
 8485TIP3    H246871   1.060   2.839  14.155 -1.3407  1.5993 -1.0126
 8486TIP3   OH246872   2.326   5.276   2.655  0.0123 -0.3080  0.2413
 8486TIP3    H146873   2.410   5.282   2.701  0.4082 -1.0578 -0.3700
 8486TIP3    H246874   2.278   5.209   2.703  1.4881 -3.1275 -2.0195
 8487TIP3   OH246875   0.947   6.242   0.666  0.1979  0.3955  0.0980
 8487TIP3    H146876   0.894   6.279   0.737 -0.2786  0.1604 -0.1324
 8487TIP3    H246877   1.006   6.313   0.641  0.0544  0.6314  0.4252
 8488TIP3   OH246878   5.067   0.354  14.107 -0.2431  1.0202 -0.0799
 8488TIP3    H146879   5.115   0.437  14.114 -0.5398  1.1162  0.9975
 8488TIP3    H246880   5.111   0.307  14.037  0.1099  1.9779 -0.5149
 8489TIP3   OH246881   5.213   1.071   5.619  0.2066  0.2229 -0.7212
 8489TIP3    H146882   5.195   1.157   5.582 -0.3314  0.8114  0.8556
 8489TIP3    H246883   5.184   1.078   5.710  1.1748 -1.2789 -0.2854
 8490TIP3   OH246884   5.594   1.407   3.887  0.6223 -0.5372  0.5613
 8490TIP3    H146885   5.667   1.468   3.887  0.8473 -0.8082  0.6887
 8490TIP3    H246886   5.590   1.373   3.977 -0.5617  0.5596  0.9427
 8491TIP3   OH246887   2.771   3.914  13.304  0.8716 -0.1797 -0.1871
 8491TIP3    H146888   2.831   3.864  13.249  1.7868  0.9054 -0.1985
 8491TIP3    H246889   2.706   3.850  13.334  2.0640 -1.3806 -0.1347
 8492TIP3   OH246890   2.610   4.857  17.059  0.1744  0.2638  0.1058
 8492TIP3    H146891   2.682   4.818  17.108  0.4346 -0.2537 -0.6822
 8492TIP3    H246892   2.562   4.909  17.124  0.7625 -0.0670  0.8095
 8493TIP3   OH246893   0.465   1.284   4.440  0.3404 -0.2207 -0.5311
 8493TIP3    H146894   0.479   1.243   4.354  0.9018  0.3941 -0.7370
 8493TIP3    H246895   0.540   1.342   4.451 -0.3071  0.5424 -0.1202
 8494TIP3   OH246896   6.069   1.653   2.944  0.2429  0.2769 -0.4673
 8494TIP3    H146897   6.122   1.684   3.018  0.2270 -1.6708  0.3844
 8494TIP3    H246898   6.026   1.574   2.977 -1.8179  0.8436 -1.7351
 8495TIP3   OH246899   1.895   6.544  13.272  0.4995 -0.3248 -0.1456
 8495TIP3    H146900   1.839   6.468  13.255 -0.3244  0.9209 -3.4346
 8495TIP3    H246901   1.966   6.536  13.209  0.8544  1.1756  0.0362
 8496TIP3   OH246902   5.187   6.431  15.316 -0.0285  0.1368 -0.2578
 8496TIP3    H146903   5.232   6.372  15.376 -1.2404  0.5403  1.0669
 8496TIP3    H246904   5.097   6.432  15.346 -0.4286  1.1635 -1.4510
 8497TIP3   OH246905   6.527   4.483   6.175  0.0606 -0.4062  0.0250
 8497TIP3    H146906   6.528   4.520   6.087 -0.0647  0.1690  0.2643
 8497TIP3    H246907   6.617   4.452   6.189  0.3934  0.6025  0.1560
 8498TIP3   OH246908   6.572   1.949  11.338 -0.4506  0.1125 -0.1592
 8498TIP3    H146909   6.618   1.914  11.262  1.2484  1.2694  0.2807
 8498TIP3    H246910   6.597   2.042  11.340 -2.9039  0.8144  0.0649
 8499TIP3   OH246911   4.814   5.688   2.493 -0.2484  0.3469 -0.2036
 8499TIP3    H146912   4.864   5.724   2.566  1.0889  0.4839 -1.1852
 8499TIP3    H246913   4.878   5.672   2.424 -1.6716  1.4459 -1.8369
 8500TIP3   OH246914   3.342   1.011  16.454 -0.2043  0.1412 -0.7576
 8500TIP3    H146915   3.281   1.083  16.436 -1.1870 -0.6008 -0.4518
 8500TIP3    H246916   3.312   0.975  16.538  1.6965  0.8314  0.2614
 8501TIP3   OH246917   4.388   4.944   1.463 -0.1960 -0.4425 -0.3686
 8501TIP3    H146918   4.343   4.866   1.496  0.4489 -0.7385 -0.1742
 8501TIP3    H246919   4.329   5.016   1.483 -0.5583 -0.8172 -0.0675
 8502TIP3   OH246920   2.308   4.093  14.563  0.1192  0.1527 -0.3148
 8502TIP3    H146921   2.271   4.007  14.585  0.1429 -0.0530 -1.0416
 8502TIP3    H246922   2.242   4.156  14.591  0.5834 -0.0427  1.2358
 8503TIP3   OH246923   5.654   2.276  12.433  0.0864  0.8006 -0.2568
 8503TIP3    H146924   5.638   2.334  12.359  0.7016  1.1106 -0.1543
 8503TIP3    H246925   5.723   2.320  12.483  1.5082 -0.6523 -0.8984
 8504TIP3   OH246926   6.762   2.671  15.092  0.0654  0.0417  0.2466
 8504TIP3    H146927   6.791   2.716  15.171  0.6647  0.2483 -0.0906
 8504TIP3    H246928   6.681   2.627  15.118 -1.1003  2.1373  0.3333
 8505TIP3   OH246929   2.292   4.307  15.150  0.0729  0.5240  0.4048
 8505TIP3    H146930   2.254   4.395  15.141 -1.3089 -0.2616 -1.7525
 8505TIP3    H246931   2.240   4.267  15.220  0.0210  1.0552  0.6793
 8506TIP3   OH246932   4.720   0.978  14.748  0.2229 -0.1129 -0.0327
 8506TIP3    H146933   4.808   1.001  14.720  1.4195 -1.1590  2.6898
 8506TIP3    H246934   4.678   1.062  14.768  1.5778  0.2325  1.4273
 8507TIP3   OH246935   3.714   5.602  17.145 -0.5311  0.3414  0.7819
 8507TIP3    H146936   3.752   5.623  17.230  0.6978 -0.5686  0.4733
 8507TIP3    H246937   3.786   5.611  17.083 -1.6969  2.1525 -0.3570
 8508TIP3   OH246938   5.733   5.188   1.643 -0.0438  0.3340  0.0674
 8508TIP3    H146939   5.789   5.264   1.662 -0.6086  0.5672  0.8047
 8508TIP3    H246940   5.649   5.227   1.618 -0.5844 -0.0665  1.2462
 8509TIP3   OH246941   4.152   4.344   2.780  0.4846 -0.2670  0.3897
 8509TIP3    H146942   4.228   4.403   2.777  1.3921 -1.3691  1.1036
 8509TIP3    H246943   4.076   4.402   2.780  1.3056  0.8209 -1.4589
 8510TIP3   OH246944   0.139   0.755  11.353 -0.9201 -0.1581 -0.4328
 8510TIP3    H146945   0.070   0.759  11.287 -1.1943 -0.1010 -0.1468
 8510TIP3    H246946   0.218   0.732  11.305 -0.9353  0.7733 -0.9139
 8511TIP3   OH246947   0.351   5.961  15.473  0.1235 -0.0269 -0.0674
 8511TIP3    H146948   0.304   5.878  15.476  0.1348 -0.1077 -1.9777
 8511TIP3    H246949   0.439   5.938  15.444  0.9767  0.3179  2.0868
 8512TIP3   OH246950   3.919   1.788  11.238 -0.0248  0.0889  0.2019
 8512TIP3    H146951   3.878   1.719  11.185  1.8653 -0.4892 -0.5185
 8512TIP3    H246952   3.950   1.852  11.174  0.0318  0.6265  0.7642
 8513TIP3   OH246953   3.380   5.768   0.771 -0.2874 -0.1075 -0.0194
 8513TIP3    H146954   3.287   5.792   0.766 -0.7683 -1.3184  2.7159
 8513TIP3    H246955   3.418   5.832   0.831  0.0744 -1.2803  1.0116
 8514TIP3   OH246956   0.143   0.910   1.132  0.5541 -0.1296  0.2865
 8514TIP3    H146957   0.124   0.816   1.138  0.1552 -0.2120 -1.6114
 8514TIP3    H246958   0.221   0.923   1.185 -0.7256 -1.1079  2.4675
 8515TIP3   OH246959   2.995   4.081   5.414  0.0543 -0.8886  0.0437
 8515TIP3    H146960   3.062   4.025   5.455  0.7201  0.3150  0.6104
 8515TIP3    H246961   2.926   4.020   5.389  0.2066 -1.8179  1.7915
 8516TIP3   OH246962   3.409   5.177  13.792  0.1129 -0.2931 -0.2890
 8516TIP3    H146963   3.330   5.123  13.794 -0.5851  0.7475  1.9529
 8516TIP3    H246964   3.472   5.129  13.846 -0.4670  1.0190  1.6060
 8517TIP3   OH246965   6.599   3.246  11.478  0.4739 -0.9446  0.1582
 8517TIP3    H146966   6.675   3.270  11.531  0.7081  0.7108 -0.9105
 8517TIP3    H246967   6.527   3.237  11.542  0.9545  0.1248  0.8708
 8518TIP3   OH246968   2.399   5.702   1.920  0.1470  0.1634  0.0358
 8518TIP3    H146969   2.414   5.680   2.013 -0.1241  1.2560  0.3393
 8518TIP3    H246970   2.305   5.691   1.908  0.0787  0.7252  0.0712
 8519TIP3   OH246971   3.381   2.463  11.581  0.4315  0.2419 -0.2160
 8519TIP3    H146972   3.357   2.551  11.552  1.4794  0.5281 -0.2289
 8519TIP3    H246973   3.314   2.441  11.646 -0.3394  0.6947 -0.8362
 8520TIP3   OH246974   2.720   0.020   2.578  0.1069  0.0055 -0.4701
 8520TIP3    H146975   2.753  -0.066   2.603  1.8459  0.7457 -0.1550
 8520TIP3    H246976   2.711   0.015   2.483  1.5270 -0.1012 -0.6151
 8521TIP3   OH246977   4.625   0.263   4.798 -0.4489 -0.1074  0.6142
 8521TIP3    H146978   4.604   0.295   4.710  0.0666  0.0384  0.5401
 8521TIP3    H246979   4.565   0.309   4.856  0.3528  1.0773  0.5173
 8522TIP3   OH246980   5.371   5.099  15.937 -0.5246  0.5008 -0.0518
 8522TIP3    H146981   5.352   5.009  15.965 -0.2619  0.7739  1.0459
 8522TIP3    H246982   5.310   5.115  15.865  0.2153 -0.9480 -1.0183
 8523TIP3   OH246983   1.707   5.870  17.018 -0.4844  1.0247  0.4474
 8523TIP3    H146984   1.679   5.928  17.089 -2.1048 -0.0314  0.7038
 8523TIP3    H246985   1.793   5.839  17.045 -1.2789  0.2528  2.2438
 8524TIP3   OH246986   0.277   4.416  13.687 -0.1305  1.2737 -0.2440
 8524TIP3    H146987   0.342   4.354  13.720 -1.4966  0.9063  1.8760
 8524TIP3    H246988   0.268   4.395  13.594  1.9803  0.6278 -0.3205
 8525TIP3   OH246989   4.215   2.198  16.402  0.4253  0.0117  0.3732
 8525TIP3    H146990   4.215   2.277  16.455  0.1131  0.9923 -1.0502
 8525TIP3    H246991   4.230   2.127  16.464 -0.3533  1.0876  1.8139
 8526TIP3   OH246992   4.729   0.270   3.417 -0.5466 -0.1272  0.2931
 8526TIP3    H146993   4.772   0.219   3.348  0.2427  2.1048 -0.9091
 8526TIP3    H246994   4.799   0.291   3.479 -0.4383  1.1858 -0.2559
 8527TIP3   OH246995   0.209   6.275   5.335  0.5767  0.4283 -0.4706
 8527TIP3    H146996   0.290   6.229   5.356  1.3563  2.3916  1.1116
 8527TIP3    H246997   0.231   6.328   5.258 -0.0320 -1.0701 -1.6973
 8528TIP3   OH246998   1.510   2.839   4.487  0.1502  0.3319  0.0279
 8528TIP3    H146999   1.511   2.906   4.418  1.3870  0.8448  0.5362
 8528TIP3    H247000   1.508   2.756   4.439  2.3770  0.6372 -0.6893
 8529TIP3   OH247001   3.247   0.005  13.383 -0.0560  0.1977 -0.3013
 8529TIP3    H147002   3.306   0.035  13.315 -0.7126  0.2616 -0.8513
 8529TIP3    H247003   3.160   0.013  13.344 -0.4146 -0.0264  0.4451
 8530TIP3   OH247004   1.002   2.656  13.358 -0.3699 -0.1704 -0.0209
 8530TIP3    H147005   0.971   2.680  13.446 -0.2610 -0.9725  0.2420
 8530TIP3    H247006   1.024   2.739  13.317 -0.6218  0.2280  0.6410
 8531TIP3   OH247007   2.582   0.048   5.191 -0.6533  0.1662 -0.2575
 8531TIP3    H147008   2.513   0.092   5.241 -0.4720  1.2244 -0.9103
 8531TIP3    H247009   2.664   0.081   5.229 -0.4999 -0.8865  0.3421
 8532TIP3   OH247010   4.472   3.089  15.160 -0.5506 -0.5856 -0.4470
 8532TIP3    H147011   4.440   3.172  15.126 -0.8296 -0.5232 -0.0267
 8532TIP3    H247012   4.409   3.024  15.128  0.0607 -0.7328 -1.3780
 8533TIP3   OH247013   3.377   0.508  14.540  0.4162  0.3566 -0.7409
 8533TIP3    H147014   3.405   0.536  14.627 -0.6679  0.8984 -0.5616
 8533TIP3    H247015   3.332   0.584  14.503  0.1757 -0.1268 -1.4657
 8534TIP3   OH247016   3.319   4.319  13.642 -0.2075  0.0504 -0.3660
 8534TIP3    H147017   3.268   4.299  13.721  1.5519 -0.9310  0.5498
 8534TIP3    H247018   3.276   4.270  13.572  0.5582 -2.2691  0.7505
 8535TIP3   OH247019   5.620   5.370  16.131  0.1105 -0.3606 -0.5167
 8535TIP3    H147020   5.710   5.340  16.144  0.7812  1.1875 -1.4942
 8535TIP3    H247021   5.612   5.448  16.186 -0.5597 -0.3671 -0.5998
 8536TIP3   OH247022   1.655   3.778  13.343 -0.2973  0.0588 -0.4940
 8536TIP3    H147023   1.629   3.795  13.253  1.3528  2.3328 -0.5842
 8536TIP3    H247024   1.611   3.846  13.394  0.5398  0.1549  0.1232
 8537TIP3   OH247025   6.116   2.174  15.073  0.1599  1.0026  0.1944
 8537TIP3    H147026   6.044   2.215  15.026  0.3051  0.8789 -0.1315
 8537TIP3    H247027   6.182   2.156  15.007 -0.0323 -0.0571  0.2775
 8538TIP3   OH247028   0.071   6.584  14.232 -0.3660  0.0925  0.6456
 8538TIP3    H147029   0.045   6.662  14.281 -1.3591  0.6865 -0.8013
 8538TIP3    H247030   0.029   6.594  14.146  2.5465 -0.2061 -0.8539
 8539TIP3   OH247031   1.079   5.890   1.064  0.2081 -0.0876  0.2448
 8539TIP3    H147032   0.995   5.845   1.075 -0.2434  0.6337 -0.2388
 8539TIP3    H247033   1.056   5.982   1.055  1.0795  0.1522  0.4599
 8540TIP3   OH247034   5.766   5.577   3.597  0.8359 -0.2981 -0.1972
 8540TIP3    H147035   5.857   5.604   3.607 -0.1534  2.6131  1.5198
 8540TIP3    H247036   5.738   5.619   3.515  0.8767 -0.7721 -0.4572
 8541TIP3   OH247037   6.742   0.785   5.811 -0.9156 -0.3465  0.1991
 8541TIP3    H147038   6.672   0.800   5.875 -1.8781 -1.3363 -0.6004
 8541TIP3    H247039   6.708   0.716   5.754  0.5237 -0.4974 -0.5000
 8542TIP3   OH247040   4.156   4.430   0.594  0.0391 -0.2478  0.2687
 8542TIP3    H147041   4.221   4.450   0.662  0.1272 -0.6591  0.3074
 8542TIP3    H247042   4.186   4.347   0.557  0.3361  0.2723 -0.6915
 8543TIP3   OH247043   3.138   4.150  16.000  0.3652  0.1740 -0.6504
 8543TIP3    H147044   3.158   4.225  15.944 -0.1888 -0.2355 -1.4125
 8543TIP3    H247045   3.214   4.143  16.058  0.7741  0.8464 -1.0859
 8544TIP3   OH247046   2.179   1.417   3.109 -0.1331 -0.1316  0.4864
 8544TIP3    H147047   2.090   1.381   3.108  0.3550 -1.3872  1.1325
 8544TIP3    H247048   2.225   1.364   3.174  1.1842  0.2859 -0.0968
 8545TIP3   OH247049   5.635   6.490   1.395 -0.2224 -0.3300  0.0102
 8545TIP3    H147050   5.700   6.475   1.463  0.4081  0.9414 -0.2902
 8545TIP3    H247051   5.562   6.432   1.418  1.1704 -2.0899  0.0996
 8546TIP3   OH247052   5.855   0.039   4.010  0.1654 -0.3206  0.0079
 8546TIP3    H147053   5.776  -0.016   4.009  1.7449 -2.7457  1.3740
 8546TIP3    H247054   5.926  -0.023   3.996  1.9356  1.6171  0.2666
 8547TIP3   OH247055   3.551   0.534   6.112  0.7154  0.3319  0.3944
 8547TIP3    H147056   3.532   0.627   6.095  1.8121  0.4950 -0.0049
 8547TIP3    H247057   3.647   0.531   6.118  0.7217 -0.9040 -0.3140
 8548TIP3   OH247058   1.213   2.465  13.489 -0.0294  0.1054  0.0436
 8548TIP3    H147059   1.291   2.521  13.480 -0.7454  1.2168  0.6982
 8548TIP3    H247060   1.150   2.501  13.427  0.4484 -1.6677 -1.5287
 8549TIP3   OH247061   1.687   5.587  16.122  0.3273 -1.0295  0.1327
 8549TIP3    H147062   1.624   5.659  16.115  0.6834 -0.6856  0.4654
 8549TIP3    H247063   1.665   5.529  16.049  0.3191 -0.3718 -0.3853
 8550TIP3   OH247064   5.568   1.520  13.347  0.3703 -0.0952 -0.3217
 8550TIP3    H147065   5.585   1.438  13.301  0.7723  0.4136 -1.0959
 8550TIP3    H247066   5.497   1.561  13.298  0.3364  0.1273 -0.0886
 8551TIP3   OH247067   4.070   1.300  14.526 -0.1484  0.0414  0.1397
 8551TIP3    H147068   4.044   1.214  14.491 -0.7715 -0.0136  0.7280
 8551TIP3    H247069   4.160   1.311  14.498  0.0322 -0.9490  0.3153
 8552TIP3   OH247070   5.755   3.974  13.854 -0.5618  0.7752  0.8659
 8552TIP3    H147071   5.671   4.004  13.890 -0.8284 -0.9366  1.7117
 8552TIP3    H247072   5.746   3.879  13.849  1.6155  0.5034  1.7124
 8553TIP3   OH247073   5.024   6.646   0.897  0.4189  0.3452 -0.1439
 8553TIP3    H147074   5.016   6.723   0.953  0.3841 -0.6546  1.2647
 8553TIP3    H247075   4.933   6.624   0.875  0.1870 -1.0910  2.0206
 8554TIP3   OH247076   6.421   5.701  10.761 -0.2463  0.3495 -0.2026
 8554TIP3    H147077   6.477   5.715  10.838  0.0094  1.5064 -0.5968
 8554TIP3    H247078   6.334   5.684  10.797  0.1730 -0.5910  0.3887
 8555TIP3   OH247079   1.942   5.137   2.753  0.0585 -0.1461 -0.3402
 8555TIP3    H147080   1.949   5.069   2.685  0.8917 -0.6651  0.2512
 8555TIP3    H247081   1.849   5.155   2.758 -0.5110 -3.1701  1.3282
 8556TIP3   OH247082   5.779   1.053   5.076 -0.4335  0.1218  0.2289
 8556TIP3    H147083   5.823   1.130   5.040  0.9988 -0.5975  0.3825
 8556TIP3    H247084   5.821   1.040   5.161 -0.4886 -0.9859  0.0881
 8557TIP3   OH247085   0.217   3.300   4.790  0.1042  0.0982  0.0869
 8557TIP3    H147086   0.172   3.354   4.855 -0.3445  0.6982 -0.7047
 8557TIP3    H247087   0.192   3.339   4.706  2.0883  0.4183 -0.3673
 8558TIP3   OH247088   5.652   0.511  17.081 -0.0168  0.3024 -0.4029
 8558TIP3    H147089   5.724   0.468  17.128  0.3257  1.2091 -0.0824
 8558TIP3    H247090   5.658   0.476  16.992  1.5589  1.2445 -0.6795
 8559TIP3   OH247091   0.856   2.484  13.042 -0.2480 -0.0218 -0.5474
 8559TIP3    H147092   0.894   2.432  12.972  1.4471 -1.1700  1.1804
 8559TIP3    H247093   0.772   2.442  13.060  1.9167 -3.4605  2.1382
 8560TIP3   OH247094   5.974   0.756   4.626  0.1589  0.4994 -0.0080
 8560TIP3    H147095   6.029   0.761   4.548  1.6165 -0.3665  0.9570
 8560TIP3    H247096   6.011   0.820   4.686  0.1528 -0.1154  0.6589
 8561TIP3   OH247097   6.418   4.822  12.654  0.0762 -0.1228 -0.0014
 8561TIP3    H147098   6.324   4.828  12.634  0.3842 -0.8498 -1.6744
 8561TIP3    H247099   6.455   4.771  12.583  1.6503 -0.4400  1.0197
 8562TIP3   OH247100   4.144   5.014   1.193 -0.4611 -0.5312 -0.0260
 8562TIP3    H147101   4.211   4.962   1.239  0.3330 -0.2598 -0.8709
 8562TIP3    H247102   4.104   4.953   1.132 -0.2051 -0.3998 -0.3242
 8563TIP3   OH247103   2.578   0.933  13.173  0.5518 -0.1501 -0.4810
 8563TIP3    H147104   2.656   0.987  13.178  0.4222 -0.0594  0.8802
 8563TIP3    H247105   2.510   0.985  13.216 -0.2947 -0.1780 -1.7562
 8564TIP3   OH247106   2.503   3.089   1.604 -0.1767  0.2374 -0.4407
 8564TIP3    H147107   2.432   3.067   1.544  0.2814 -0.7693 -0.6368
 8564TIP3    H247108   2.583   3.063   1.557  0.2282  0.1062  0.3086
 8565TIP3   OH247109   4.021   4.474  15.327  0.0232 -0.0735 -0.0377
 8565TIP3    H147110   3.928   4.472  15.350 -0.3621  0.3852 -1.5261
 8565TIP3    H247111   4.067   4.458  15.410 -1.3268  1.7612  1.0768
 8566TIP3   OH247112   2.387   6.469   3.027  0.1517  0.3387  0.0861
 8566TIP3    H147113   2.292   6.478   3.024  0.2726  2.0827  0.6843
 8566TIP3    H247114   2.419   6.523   2.955  0.7648  1.4884  1.1976
 8567TIP3   OH247115   6.340   4.209  11.775  0.3851  0.0563 -0.4792
 8567TIP3    H147116   6.262   4.224  11.722  1.1058  0.6691 -1.3665
 8567TIP3    H247117   6.408   4.263  11.735  1.7746 -1.8857 -0.8438
 8568TIP3   OH247118   2.139   2.153  16.496 -0.2064  0.2132  0.4297
 8568TIP3    H147119   2.082   2.216  16.451  0.4880  0.1709 -0.5319
 8568TIP3    H247120   2.228   2.181  16.474  0.1247 -0.5315  0.7879
 8569TIP3   OH247121   0.545   0.632   0.877  0.3734  0.1989  0.2179
 8569TIP3    H147122   0.551   0.566   0.807  1.6545 -0.8179  1.2649
 8569TIP3    H247123   0.454   0.659   0.876 -0.6405 -2.9617  0.9887
 8570TIP3   OH247124   6.328   4.929  15.295 -0.0922  0.2446 -0.0744
 8570TIP3    H147125   6.284   4.993  15.239 -0.4073 -0.6094 -0.8271
 8570TIP3    H247126   6.314   4.961  15.384 -0.0842  1.3146 -0.4503
 8571TIP3   OH247127   0.336   3.052  16.589  0.1995 -0.3712 -0.4330
 8571TIP3    H147128   0.253   3.089  16.619  0.1397 -0.5692 -0.3538
 8571TIP3    H247129   0.336   3.068  16.495 -0.0334 -0.5721 -0.4691
 8572TIP3   OH247130   5.296   6.530   0.339  0.7134  0.0453 -0.4425
 8572TIP3    H147131   5.354   6.587   0.288  1.4129 -0.3919 -0.1552
 8572TIP3    H247132   5.232   6.498   0.276  0.1572  1.3348 -0.5632
 8573TIP3   OH247133   5.434   3.658  16.717 -0.4853 -0.3309  0.4585
 8573TIP3    H147134   5.465   3.601  16.647 -0.3569 -0.0395  0.2728
 8573TIP3    H247135   5.375   3.720  16.673  0.8573  0.8820  0.3011
 8574TIP3   OH247136   3.775   2.571   3.474 -1.1676 -0.0986  0.1300
 8574TIP3    H147137   3.730   2.552   3.556 -0.7622  3.1522  1.1724
 8574TIP3    H247138   3.706   2.575   3.408 -1.5220 -2.4737  0.3050
 8575TIP3   OH247139   6.743   2.433   2.599 -0.1301  0.0668 -0.1749
 8575TIP3    H147140   6.786   2.469   2.522  0.5276 -0.1049  0.1081
 8575TIP3    H247141   6.666   2.488   2.612 -0.2194  0.1199 -0.9265
 8576TIP3   OH247142   0.212   6.601  16.346  0.0183 -0.3406 -0.4231
 8576TIP3    H147143   0.234   6.672  16.406 -1.2906 -1.2462  1.1818
 8576TIP3    H247144   0.180   6.645  16.268 -0.3894  0.8527  0.4027
 8577TIP3   OH247145   6.712   3.331   5.262  0.2375  0.3848 -0.1158
 8577TIP3    H147146   6.626   3.288   5.264 -0.8256  2.4536  1.0218
 8577TIP3    H247147   6.692   3.421   5.234  2.1307  0.7053 -0.4756
 8578TIP3   OH247148   2.265   0.068   3.259  0.6220 -0.4006 -0.5525
 8578TIP3    H147149   2.220   0.099   3.338 -1.2588 -1.6484 -1.0904
 8578TIP3    H247150   2.310   0.145   3.225 -0.2346  0.6396  0.6195
 8579TIP3   OH247151   0.106   5.503   0.902 -0.0431 -0.3484 -0.8972
 8579TIP3    H147152   0.020   5.503   0.860 -0.5979 -2.1452  0.2392
 8579TIP3    H247153   0.167   5.479   0.831 -0.5983 -0.2128 -1.4251
 8580TIP3   OH247154   0.848   4.409   2.037 -0.2307  0.2618  0.0795
 8580TIP3    H147155   0.757   4.390   2.016 -0.0585 -0.4392 -0.0523
 8580TIP3    H247156   0.866   4.493   1.994 -1.2583  1.1646  1.4065
 8581TIP3   OH247157   6.509   3.109  12.764 -0.4089  0.8435  0.1025
 8581TIP3    H147158   6.490   3.155  12.845 -2.6238  1.3606 -0.6879
 8581TIP3    H247159   6.527   3.178  12.700  0.7324  0.4604 -0.0048
 8582TIP3   OH247160   5.537   5.797  14.514  0.4991  0.9956  0.1741
 8582TIP3    H147161   5.595   5.873  14.502  1.1082  0.6525  0.9064
 8582TIP3    H247162   5.591   5.722  14.489  0.4835  0.6451  1.1925
 8583TIP3   OH247163   4.376   4.598  13.951  0.2087  0.0224  0.1556
 8583TIP3    H147164   4.326   4.584  13.871 -0.2407  2.3483  0.0114
 8583TIP3    H247165   4.312   4.632  14.014  0.7355 -0.9996  1.2805
 8584TIP3   OH247166   2.227   6.235  13.858  0.2044  0.2756  0.0463
 8584TIP3    H147167   2.273   6.282  13.928  1.1915 -0.5445 -0.0395
 8584TIP3    H247168   2.280   6.251  13.780 -0.3511  0.3679 -0.3135
 8585TIP3   OH247169   4.381   2.830  11.760  0.4479 -0.3972 -0.1966
 8585TIP3    H147170   4.300   2.841  11.709 -0.0368  0.9364  0.8579
 8585TIP3    H247171   4.371   2.744  11.800 -0.8496  0.1106  0.6171
 8586TIP3   OH247172   5.290   3.915  13.892  0.1618  0.1482  0.0340
 8586TIP3    H147173   5.236   3.853  13.843 -0.7322 -0.7468  2.1063
 8586TIP3    H247174   5.246   3.923  13.977  0.7954  2.8665  0.1522
 8587TIP3   OH247175   3.907   1.161   1.046  0.4451  0.1913  0.3472
 8587TIP3    H147176   3.991   1.199   1.072 -0.2840  1.9039  0.2449
 8587TIP3    H247177   3.931   1.084   0.994  2.0062  1.5102 -0.9662
 8588TIP3   OH247178   1.097   6.223   1.588 -0.1570  0.1211  0.4497
 8588TIP3    H147179   1.157   6.276   1.640 -1.0781  0.8343  0.7980
 8588TIP3    H247180   1.029   6.284   1.561  0.5673 -0.0967 -2.0344
 8589TIP3   OH247181   0.059   3.429  16.579 -0.5253 -0.4829  0.3346
 8589TIP3    H147182   0.115   3.482  16.523 -0.5580 -1.8377 -1.0243
 8589TIP3    H247183  -0.011   3.488  16.607 -0.2886  0.3110 -0.7333
 8590TIP3   OH247184   0.926   1.257  12.149  0.5115 -0.4945  0.0021
 8590TIP3    H147185   0.883   1.228  12.069  0.8084 -2.4456  0.5288
 8590TIP3    H247186   0.916   1.184  12.210  2.3235  0.0326  0.9732
 8591TIP3   OH247187   3.969   1.061   1.605  0.7255  0.2323 -0.0837
 8591TIP3    H147188   3.921   1.009   1.540 -1.8018 -0.1672  2.0172
 8591TIP3    H247189   4.030   0.999   1.645 -0.4519 -0.5080  0.5963
 8592TIP3   OH247190   5.516   0.342  14.599  0.4970 -0.9730  0.4303
 8592TIP3    H147191   5.527   0.363  14.692  1.6570  0.8764 -0.1018
 8592TIP3    H247192   5.560   0.258  14.588  2.4355 -0.0574  1.0846
 8593TIP3   OH247193   3.521   3.560  14.677 -0.2213  0.9323  0.1584
 8593TIP3    H147194   3.516   3.633  14.616  1.2331  0.4975 -0.5162
 8593TIP3    H247195   3.569   3.595  14.752 -0.0800  0.8547  0.1058
 8594TIP3   OH247196   2.362   3.322   0.508  0.0272  0.8509 -0.2762
 8594TIP3    H147197   2.387   3.316   0.415 -1.8079 -0.8823 -0.6805
 8594TIP3    H247198   2.271   3.349   0.506 -0.4822 -0.7290  0.9970
 8595TIP3   OH247199   4.797   1.587   1.168  0.1541 -0.0369 -0.2665
 8595TIP3    H147200   4.719   1.614   1.120 -1.2209  0.5047  2.1736
 8595TIP3    H247201   4.868   1.638   1.129 -0.9190  0.4590 -1.6224
 8596TIP3   OH247202   4.035   2.513   0.774  0.0003  0.2834 -0.1103
 8596TIP3    H147203   3.981   2.460   0.715  0.5700  0.1926 -0.5539
 8596TIP3    H247204   3.983   2.520   0.854 -1.0631  0.9516 -0.8458
 8597TIP3   OH247205   6.512   1.818   2.927 -0.5039 -0.8382  0.6498
 8597TIP3    H147206   6.565   1.865   2.863 -0.4410 -1.1811  0.4492
 8597TIP3    H247207   6.451   1.883   2.961 -1.7946 -1.0893 -1.1144
 8598TIP3   OH247208   2.566   5.252   3.782  0.1588  0.2269  0.2291
 8598TIP3    H147209   2.493   5.198   3.753  0.5522 -0.8224  1.1929
 8598TIP3    H247210   2.644   5.208   3.746  0.4713  0.1931  0.9521
 8599TIP3   OH247211   0.581   4.719   2.401 -0.0471  0.0435 -0.2567
 8599TIP3    H147212   0.597   4.716   2.307 -1.8738  0.2297 -0.6048
 8599TIP3    H247213   0.595   4.629   2.431 -0.6051 -0.2770 -0.9304
 8600TIP3   OH247214   1.637   1.115  16.058  0.6705  0.5357 -0.4305
 8600TIP3    H147215   1.564   1.084  16.110  1.9342  0.2072  1.1962
 8600TIP3    H247216   1.610   1.101  15.967 -0.2114 -2.0609  0.1976
 8601TIP3   OH247217   2.405   0.968   0.677  0.2361  0.1070 -0.0068
 8601TIP3    H147218   2.379   0.921   0.598  0.8750 -0.6491  0.2232
 8601TIP3    H247219   2.404   1.060   0.652  1.5935 -0.1967 -1.2584
 8602TIP3   OH247220   3.734   6.266   3.748  0.6000  0.2555  0.4870
 8602TIP3    H147221   3.646   6.232   3.762  0.0784  1.3244 -0.1526
 8602TIP3    H247222   3.753   6.246   3.656  1.1845 -0.3179  0.7257
 8603TIP3   OH247223   3.679   4.817  12.783 -0.3162  0.0777 -0.1893
 8603TIP3    H147224   3.659   4.773  12.700 -1.2441 -1.1779  0.7008
 8603TIP3    H247225   3.631   4.768  12.849  2.1082 -0.2185  1.4035
 8604TIP3   OH247226   3.322   1.500   2.905 -0.3601  0.5414  0.2210
 8604TIP3    H147227   3.241   1.519   2.858  0.2140  1.6046 -0.3732
 8604TIP3    H247228   3.294   1.470   2.991 -1.4437 -1.9530 -0.9622
 8605TIP3   OH247229   4.628   2.557  12.244  0.0577  0.3368 -0.0238
 8605TIP3    H147230   4.554   2.572  12.303  0.3135 -2.2578  0.9784
 8605TIP3    H247231   4.588   2.532  12.161 -0.2406 -3.2203  1.1084
 8606TIP3   OH247232   5.610   3.530  14.645 -0.4284  0.3269  0.4053
 8606TIP3    H147233   5.613   3.473  14.721 -1.2128  2.2357  1.8945
 8606TIP3    H247234   5.543   3.491  14.588 -1.1205 -0.1186  1.5108
 8607TIP3   OH247235   0.172   5.346   5.522 -0.3744  0.1785 -0.4265
 8607TIP3    H147236   0.108   5.349   5.451  0.1120  1.4405 -0.8264
 8607TIP3    H247237   0.202   5.437   5.531  0.1398 -0.1086  0.8692
 8608TIP3   OH247238   4.189   4.313   3.743 -0.4571 -0.4901  0.1991
 8608TIP3    H147239   4.148   4.392   3.779  0.1050 -0.3042  0.4369
 8608TIP3    H247240   4.214   4.337   3.654 -0.8952 -0.6181  0.0367
 8609TIP3   OH247241   4.590   0.465   0.733 -0.5593 -0.4707  0.1270
 8609TIP3    H147242   4.668   0.521   0.725 -1.1999  0.1881 -1.8452
 8609TIP3    H247243   4.625   0.377   0.747  0.5405 -0.1409 -0.4786
 8610TIP3   OH247244   4.617   1.196   6.326  0.0693 -0.0824 -0.4206
 8610TIP3    H147245   4.528   1.227   6.305  0.0936 -1.0184 -1.9888
 8610TIP3    H247246   4.607   1.102   6.340  0.5094  0.1134  1.2848
 8611TIP3   OH247247   2.579   5.446  13.562 -0.1029 -0.3907  0.4840
 8611TIP3    H147248   2.498   5.428  13.611 -0.5702 -1.5811 -0.7031
 8611TIP3    H247249   2.649   5.424  13.624 -0.6882 -2.0976  0.5724
 8612TIP3   OH247250   5.024   1.999   2.921  0.0103 -0.4281  0.4396
 8612TIP3    H147251   4.977   1.973   3.001  0.7525  3.1978  2.1515
 8612TIP3    H247252   5.114   1.973   2.938  0.5682  2.2298  1.7378
 8613TIP3   OH247253   6.503   6.216   1.959  0.2650 -0.7373  0.1389
 8613TIP3    H147254   6.478   6.256   1.876  0.7422 -0.2150  0.2440
 8613TIP3    H247255   6.592   6.248   1.975  0.0779 -0.6307  0.9771
 8614TIP3   OH247256   4.489   1.727  10.884  0.4647 -0.3027 -0.5562
 8614TIP3    H147257   4.581   1.703  10.876  0.9821  1.0745  0.9778
 8614TIP3    H247258   4.475   1.792  10.815  1.1539  0.8778  0.3892
 8615TIP3   OH247259   4.644   0.768  14.139 -0.8840 -0.2504 -0.0104
 8615TIP3    H147260   4.604   0.785  14.225 -1.4498  0.6723 -0.4422
 8615TIP3    H247261   4.649   0.855  14.098  2.4008 -0.1872  0.3879
 8616TIP3   OH247262   1.688   0.695  15.786  0.1790  0.6485 -0.1142
 8616TIP3    H147263   1.694   0.604  15.758 -2.2933  0.8305 -1.3746
 8616TIP3    H247264   1.673   0.690  15.880 -2.4430 -0.3754 -0.5392
 8617TIP3   OH247265   4.020   6.277  11.904 -0.1595  0.4364 -0.2126
 8617TIP3    H147266   4.087   6.312  11.845  1.4397 -1.4380  0.4168
 8617TIP3    H247267   4.051   6.300  11.991  0.2899 -1.4210  0.1363
 8618TIP3   OH247268   2.046   1.761   3.844  0.5060  0.1393 -0.1253
 8618TIP3    H147269   1.952   1.773   3.838  0.7709  1.8816 -0.9751
 8618TIP3    H247270   2.072   1.809   3.922  0.8843  0.8948 -0.7107
 8619TIP3   OH247271   3.132   3.364  13.110 -0.2794 -0.1561 -0.3994
 8619TIP3    H147272   3.220   3.326  13.110 -0.3464 -0.3292  0.6315
 8619TIP3    H247273   3.145   3.455  13.083  0.2319 -0.1359 -0.0848
 8620TIP3   OH247274   1.775   3.756  14.409 -0.0154  0.1390 -0.2006
 8620TIP3    H147275   1.840   3.718  14.468  1.4336  0.5113 -1.5281
 8620TIP3    H247276   1.777   3.850  14.426 -0.0651  0.1748 -0.3855
 8621TIP3   OH247277   5.410   3.861   1.160 -0.4135 -0.2773 -0.2280
 8621TIP3    H147278   5.397   3.911   1.080  0.6211  2.7062  1.3844
 8621TIP3    H247279   5.335   3.884   1.216 -0.0100 -0.6455  0.4836
 8622TIP3   OH247280   2.952   4.624   4.589 -0.3661  0.4227 -0.0359
 8622TIP3    H147281   2.902   4.642   4.669  0.4723  1.1984  0.3236
 8622TIP3    H247282   3.017   4.694   4.585 -1.4263  1.3517 -2.2519
 8623TIP3   OH247283   3.691   4.396   2.320  0.2071 -0.3441 -0.0952
 8623TIP3    H147284   3.766   4.395   2.381 -0.0850 -0.2991  0.2657
 8623TIP3    H247285   3.716   4.461   2.254  0.4984 -0.3435  0.0121
 8624TIP3   OH247286   5.836   3.617  17.112  0.2006  0.6169 -0.1619
 8624TIP3    H147287   5.824   3.637  17.019  2.6757  1.1527 -0.3964
 8624TIP3    H247288   5.792   3.689  17.158 -1.0270  0.3558 -0.8894
 8625TIP3   OH247289   0.706   5.326  11.018 -0.2087 -0.2853 -0.1927
 8625TIP3    H147290   0.648   5.269  10.967 -0.3608  0.6551 -1.0920
 8625TIP3    H247291   0.783   5.337  10.963  0.0733 -0.1046  0.2369
 8626TIP3   OH247292   0.552   2.119   3.366 -0.0008 -0.1530 -0.3346
 8626TIP3    H147293   0.560   2.123   3.271 -0.7968 -0.6470 -0.4235
 8626TIP3    H247294   0.538   2.027   3.386 -0.9487  0.0838  0.1593
 8627TIP3   OH247295   4.786   0.275   5.078 -0.7121 -0.6876 -0.8501
 8627TIP3    H147296   4.705   0.313   5.045 -0.4278 -0.9881 -1.8951
 8627TIP3    H247297   4.791   0.188   5.038 -1.3071 -1.8166  1.4660
 8628TIP3   OH247298   5.567   0.511   6.620  0.3357 -0.3226 -0.3661
 8628TIP3    H147299   5.502   0.557   6.673 -1.9162 -3.2003 -0.4833
 8628TIP3    H247300   5.600   0.441   6.677  0.9645 -0.8643 -1.3638
 8629TIP3   OH247301   5.251   4.426  15.106  0.4240 -0.1576  0.2853
 8629TIP3    H147302   5.297   4.393  15.029 -0.9065 -0.8096 -0.2641
 8629TIP3    H247303   5.288   4.378  15.180  0.8841 -0.3938 -0.1018
 8630TIP3   OH247304   3.101   2.205   0.885 -0.3939 -0.3718  0.6263
 8630TIP3    H147305   3.038   2.135   0.906 -0.3792 -0.7433 -0.5164
 8630TIP3    H247306   3.069   2.241   0.802  1.5241 -1.3302 -0.5670
 8631TIP3   OH247307   1.618   2.257   1.125 -0.2073 -0.6268 -0.0042
 8631TIP3    H147308   1.619   2.300   1.040  0.0275  2.5140  1.5138
 8631TIP3    H247309   1.691   2.194   1.121  0.3383  0.0882 -1.7958
 8632TIP3   OH247310   3.254   0.546  15.913  0.1088  0.2005 -0.0978
 8632TIP3    H147311   3.237   0.452  15.918 -0.9622  0.3778 -0.0998
 8632TIP3    H247312   3.227   0.580  15.999 -0.4599  0.6408 -0.4477
 8633TIP3   OH247313   3.286   3.775   0.701  0.7752  0.1022 -0.3648
 8633TIP3    H147314   3.264   3.765   0.608  0.4824 -1.1440 -0.1673
 8633TIP3    H247315   3.211   3.820   0.739  0.3666 -0.4916 -0.4842
 8634TIP3   OH247316   1.729   2.603   1.110 -0.4024 -0.0410 -0.3266
 8634TIP3    H147317   1.740   2.531   1.047 -0.1609  0.5464 -0.9660
 8634TIP3    H247318   1.668   2.663   1.066  0.5930  0.8857 -0.4437
 8635TIP3   OH247319   2.567   6.242  11.834  0.1794  0.3708 -0.4315
 8635TIP3    H147320   2.635   6.200  11.781 -1.7039 -0.5521 -2.1699
 8635TIP3    H247321   2.579   6.336  11.817  0.4126  0.1598 -1.4791
 8636TIP3   OH247322   0.446   3.300  14.477  0.0385 -0.0185  0.2948
 8636TIP3    H147323   0.483   3.385  14.453 -1.5598  0.6736  0.2327
 8636TIP3    H247324   0.523   3.245  14.494  1.0953  1.6371  1.0538
 8637TIP3   OH247325   5.204   5.647   4.803  0.4199 -0.4728 -0.1542
 8637TIP3    H147326   5.186   5.554   4.809 -0.1393 -0.4252 -0.9812
 8637TIP3    H247327   5.137   5.681   4.744  0.7649  0.4100 -0.0561
 8638TIP3   OH247328   0.111   3.750   5.716  0.1689  0.5353 -0.2593
 8638TIP3    H147329   0.166   3.696   5.772 -0.6953  0.8870  0.9523
 8638TIP3    H247330   0.084   3.824   5.771 -2.4932 -0.2570 -0.4110
 8639TIP3   OH247331   2.358   3.935   4.486  0.0260 -0.5836 -0.3946
 8639TIP3    H147332   2.399   4.021   4.496  3.8099 -2.0156 -2.4056
 8639TIP3    H247333   2.316   3.938   4.400  0.9363 -0.9881 -0.8661
 8640TIP3   OH247334   6.143   2.150  15.345  0.2711  0.4349 -0.0020
 8640TIP3    H147335   6.138   2.154  15.250 -1.7059 -0.2299  0.0399
 8640TIP3    H247336   6.054   2.173  15.374  0.6543 -0.1050  1.6570
 8641TIP3   OH247337   2.082   6.752  13.820  0.1763 -0.0970 -0.0965
 8641TIP3    H147338   2.136   6.787  13.750  2.5117 -2.7372  0.2911
 8641TIP3    H247339   2.012   6.704  13.774  1.3543 -1.3185 -0.6462
 8642TIP3   OH247340   5.725   3.077  11.044  0.3150 -0.4091  0.1497
 8642TIP3    H147341   5.722   3.070  10.948  0.1730 -2.6868  0.2911
 8642TIP3    H247342   5.818   3.073  11.066  0.3820  0.6842  0.0801
 8643TIP3   OH247343   0.767   3.776   1.173 -0.4510 -0.1279 -0.5777
 8643TIP3    H147344   0.750   3.835   1.099 -0.8988  0.9406  0.3720
 8643TIP3    H247345   0.852   3.804   1.207 -1.6260  1.4197  1.2116
 8644TIP3   OH247346   0.693   3.756  16.131 -0.1273 -0.0622 -0.9102
 8644TIP3    H147347   0.780   3.796  16.131 -0.1386 -0.0375 -0.9536
 8644TIP3    H247348   0.708   3.665  16.153 -0.0706 -0.1039 -1.1182
 8645TIP3   OH247349   5.098   5.572  12.463 -0.6923 -0.5969 -0.5751
 8645TIP3    H147350   5.089   5.549  12.370 -2.3195  1.8055 -1.0720
 8645TIP3    H247351   5.012   5.608  12.486  0.3637  0.7846  1.2842
 8646TIP3   OH247352   5.833   6.695  12.223 -0.7013 -0.0836  0.8672
 8646TIP3    H147353   5.847   6.709  12.317  3.7966  1.1643  0.1320
 8646TIP3    H247354   5.860   6.604  12.209 -0.1505  0.1240  0.5806
 8647TIP3   OH247355   2.615   6.074   5.567 -0.1383 -0.5481 -0.1463
 8647TIP3    H147356   2.527   6.095   5.601  0.5510  0.2030  1.2372
 8647TIP3    H247357   2.636   6.148   5.510 -1.3674 -1.8900 -2.4180
 8648TIP3   OH247358   6.483   0.127   2.898  0.0457  0.1124  0.0918
 8648TIP3    H147359   6.495   0.129   2.993  1.4988  0.1809 -0.0763
 8648TIP3    H247360   6.452   0.038   2.879 -0.1639  0.0724  0.6199
 8649TIP3   OH247361   2.873   5.572  15.889  0.0471  0.2807 -0.0918
 8649TIP3    H147362   2.809   5.623  15.839 -0.1471  1.1300  0.9937
 8649TIP3    H247363   2.936   5.542  15.824 -0.6279  0.7168 -0.9540
 8650TIP3   OH247364   1.551   4.382   5.480  0.5440 -0.3159  0.4339
 8650TIP3    H147365   1.474   4.427   5.515 -1.2779 -2.2738 -0.9453
 8650TIP3    H247366   1.624   4.413   5.534 -1.7153 -0.9965  3.9705
 8651TIP3   OH247367   6.058   1.803  12.030 -0.2136  0.3131 -0.5426
 8651TIP3    H147368   6.101   1.740  11.973  1.0790 -1.8404  2.6374
 8651TIP3    H247369   6.129   1.857  12.065 -0.4064 -1.2123  2.3153
 8652TIP3   OH247370   1.388   6.717   2.995  0.1650  0.1991 -0.0713
 8652TIP3    H147371   1.405   6.719   2.901 -0.3568  1.5968 -0.1553
 8652TIP3    H247372   1.463   6.762   3.033  0.5233 -0.6324  0.2093
 8653TIP3   OH247373   5.831   5.047  14.918  0.0685  0.0280 -0.1528
 8653TIP3    H147374   5.800   5.119  14.863  1.1004 -0.8617 -1.9466
 8653TIP3    H247375   5.920   5.072  14.943 -0.3828  0.4093  1.0930
 8654TIP3   OH247376   1.710   4.312   1.874 -0.5485  0.5357  0.3319
 8654TIP3    H147377   1.721   4.333   1.967  0.4237  1.2633  0.0645
 8654TIP3    H247378   1.730   4.219   1.868 -0.0534  0.6105  0.7619
 8655TIP3   OH247379   4.961   5.666   3.875  0.2601  0.4562 -0.3201
 8655TIP3    H147380   4.953   5.761   3.860  0.1229  0.4056 -0.5668
 8655TIP3    H247381   4.905   5.648   3.950  1.0163  0.7275  0.3238
 8656TIP3   OH247382   5.520   4.240  11.787 -0.4664 -0.2523  0.1731
 8656TIP3    H147383   5.569   4.227  11.706 -1.6291 -0.8020 -0.4508
 8656TIP3    H247384   5.570   4.306  11.835  0.5671 -0.3830 -0.7072
 8657TIP3   OH247385   6.560   4.601   5.943 -0.4206 -0.6186  0.3062
 8657TIP3    H147386   6.574   4.683   5.897 -2.5300 -0.0009  0.7120
 8657TIP3    H247387   6.594   4.534   5.883  0.5842  0.4565 -0.3622
 8658TIP3   OH247388   3.306   2.891  15.347 -0.1238  0.5211  0.1168
 8658TIP3    H147389   3.298   2.890  15.442 -1.0898  1.5526  0.0588
 8658TIP3    H247390   3.400   2.880  15.330 -0.0921 -0.9048  1.1426
 8659TIP3   OH247391   6.628   4.903   0.389 -0.4582  0.7138  0.0802
 8659TIP3    H147392   6.621   4.999   0.383  0.6496  0.8954  1.3237
 8659TIP3    H247393   6.544   4.876   0.426  0.0339  1.4646  1.8546
 8660TIP3   OH247394   3.761   0.467  15.368 -0.0828 -0.2526 -0.5372
 8660TIP3    H147395   3.786   0.375  15.359 -0.3536 -0.2373 -1.5149
 8660TIP3    H247396   3.789   0.491  15.457  2.4592 -0.5279 -1.1994
 8661TIP3   OH247397   6.786   4.255   4.993 -0.4939  0.0925  1.2024
 8661TIP3    H147398   6.818   4.203   5.067  0.0649 -0.6983  0.4169
 8661TIP3    H247399   6.739   4.192   4.938 -1.9121  0.9009  1.4603
 8662TIP3   OH247400   4.269   3.937   1.400 -0.1105 -0.0138  0.4445
 8662TIP3    H147401   4.200   3.871   1.389 -1.3824  1.3030  0.3638
 8662TIP3    H247402   4.328   3.899   1.465 -1.1989 -0.9463  0.9149
 8663TIP3   OH247403   1.511   6.382   2.195 -0.7688  0.2054 -0.2086
 8663TIP3    H147404   1.441   6.321   2.217  1.6278 -2.9355 -0.9180
 8663TIP3    H247405   1.563   6.389   2.275  0.3526 -0.6716 -0.8378
 8664TIP3   OH247406   3.546   4.310  15.481  0.1145  0.0295  0.7341
 8664TIP3    H147407   3.528   4.279  15.569  2.1642 -0.3078  1.0431
 8664TIP3    H247408   3.533   4.405  15.485 -0.3315 -0.0544  1.2509
 8665TIP3   OH247409   0.397   2.315   5.200  0.6411 -0.3654 -0.9349
 8665TIP3    H147410   0.383   2.256   5.274  0.7034 -0.4427 -0.9848
 8665TIP3    H247411   0.458   2.381   5.233  0.2258 -0.0756 -0.7409
 8666TIP3   OH247412   3.903   3.502  15.443  0.0671 -0.0624  0.6198
 8666TIP3    H147413   3.877   3.410  15.436 -2.1786  0.6142 -0.7905
 8666TIP3    H247414   3.873   3.528  15.530 -0.5208 -0.3229  0.5001
 8667TIP3   OH247415   6.484   6.120  10.984 -0.4926 -0.2503  0.1380
 8667TIP3    H147416   6.526   6.193  11.030 -2.2616  1.5400 -0.9992
 8667TIP3    H247417   6.556   6.077  10.937  0.5695  0.7874  0.7806
 8668TIP3   OH247418   1.598   5.483   3.501 -0.6266 -0.5179 -0.3213
 8668TIP3    H147419   1.642   5.437   3.430  0.3006 -1.7435  1.0059
 8668TIP3    H247420   1.507   5.455   3.495 -0.3861 -1.2652 -0.5277
 8669TIP3   OH247421   6.035   2.116   0.253  0.6283  0.6740  0.2313
 8669TIP3    H147422   5.950   2.126   0.209  2.0610  2.3121 -2.2978
 8669TIP3    H247423   6.013   2.086   0.341 -2.5523  0.7129 -0.4862
 8670TIP3   OH247424   6.261   1.132  12.733  0.1070  0.1199  0.0623
 8670TIP3    H147425   6.281   1.226  12.732 -1.0217  0.3627 -0.0126
 8670TIP3    H247426   6.172   1.127  12.768  0.0569 -0.9097 -0.2072
 8671TIP3   OH247427   1.117   1.951  17.119  0.0191 -0.3591  0.3984
 8671TIP3    H147428   1.187   1.886  17.111 -1.0123 -1.6414  1.4830
 8671TIP3    H247429   1.153   2.017  17.178  0.0349 -1.4460  1.6431
 8672TIP3   OH247430   3.830   0.098  14.313  0.0181 -0.1495  0.4055
 8672TIP3    H147431   3.913   0.132  14.347  1.0476 -0.5327 -1.6202
 8672TIP3    H247432   3.818   0.015  14.359  1.2901 -0.5805 -0.0084
 8673TIP3   OH247433   5.985   2.265  12.236 -0.0522  0.5678 -0.7341
 8673TIP3    H147434   5.918   2.196  12.243  1.5249 -0.8618  0.6946
 8673TIP3    H247435   5.986   2.306  12.323  0.6139  0.8779 -0.8843
 8674TIP3   OH247436   4.698   3.116  17.032 -0.0499 -0.2788  0.2103
 8674TIP3    H147437   4.792   3.130  17.028  0.0049 -0.5980  0.3345
 8674TIP3    H247438   4.669   3.119  16.941 -0.0127  0.4341  0.2221
 8675TIP3   OH247439   4.461   1.863   6.491  0.7318 -0.1219  0.0485
 8675TIP3    H147440   4.389   1.805   6.465  0.4049 -0.1595  1.0381
 8675TIP3    H247441   4.540   1.811   6.476  0.4153 -1.0336  1.4406
 8676TIP3   OH247442   4.568   1.731  14.120 -0.4441  0.2311 -0.2910
 8676TIP3    H147443   4.611   1.671  14.059 -0.4864 -0.5021  0.3926
 8676TIP3    H247444   4.617   1.721  14.202  0.6116  2.3602 -0.6145
 8677TIP3   OH247445   3.108   1.564   3.569  0.2267  0.3889 -0.2222
 8677TIP3    H147446   3.035   1.531   3.622 -0.2941 -0.1402 -1.2670
 8677TIP3    H247447   3.082   1.654   3.548  0.2338  0.4564  0.0485
 8678TIP3   OH247448   3.916   6.351   3.968  0.0885 -0.1564  0.5104
 8678TIP3    H147449   3.959   6.266   3.974 -0.8136 -0.7930 -1.5915
 8678TIP3    H247450   3.839   6.335   3.914 -0.2347  1.9509  0.3113
 8679TIP3   OH247451   2.691   0.764   3.855  0.2604  0.0285 -0.2192
 8679TIP3    H147452   2.777   0.725   3.868 -0.0262 -0.4980  0.1363
 8679TIP3    H247453   2.630   0.702   3.896 -0.0914  1.6207  1.7556
 8680TIP3   OH247454   1.630   3.508   4.825 -0.5097  0.2492  0.4385
 8680TIP3    H147455   1.636   3.575   4.893 -1.2687  0.4082  0.3583
 8680TIP3    H247456   1.636   3.425   4.872 -1.0149  0.3572  0.6978
 8681TIP3   OH247457   6.313   1.508   4.275 -0.5306  0.5916 -0.2250
 8681TIP3    H147458   6.250   1.580   4.285 -2.7256 -1.3795  0.4660
 8681TIP3    H247459   6.372   1.538   4.206 -2.7404  2.1470 -1.4996
 8682TIP3   OH247460   1.145   2.761   1.602 -0.2938  0.2664  0.5816
 8682TIP3    H147461   1.161   2.677   1.645 -2.8143 -0.5369  0.0114
 8682TIP3    H247462   1.061   2.750   1.558 -0.8772  3.2230  0.8481
 8683TIP3   OH247463   4.738   5.636  13.093  0.1065 -0.3102  0.1723
 8683TIP3    H147464   4.827   5.601  13.100 -0.1715 -0.9694  0.4319
 8683TIP3    H247465   4.701   5.592  13.016  0.8318  1.7926 -1.4038
 8684TIP3   OH247466   1.298   2.611   3.709 -0.8635 -0.0564 -0.3665
 8684TIP3    H147467   1.340   2.539   3.662 -0.8518  1.4763 -2.8046
 8684TIP3    H247468   1.218   2.573   3.744  0.3221 -1.8497  0.4214
 8685TIP3   OH247469   1.392   1.749   3.703 -0.2325 -0.4934 -0.2378
 8685TIP3    H147470   1.347   1.665   3.705 -1.3669  0.1378  1.7899
 8685TIP3    H247471   1.482   1.729   3.729 -0.1826 -1.2491 -0.9698
 8686TIP3   OH247472   1.253   5.934  17.076 -0.1962  0.9679  0.0860
 8686TIP3    H147473   1.312   5.866  17.042 -1.2169  0.1466 -0.0615
 8686TIP3    H247474   1.221   5.979  16.998 -0.4888  0.8084  0.1142
 8687TIP3   OH247475   3.409   5.552   0.570  0.0617  0.3898 -0.3235
 8687TIP3    H147476   3.358   5.480   0.607  0.9908 -0.2123 -0.1999
 8687TIP3    H247477   3.402   5.622   0.635  1.5533 -0.6004  0.9549
 8688TIP3   OH247478   4.912   0.671  13.338 -0.1942 -0.1977 -0.2093
 8688TIP3    H147479   4.967   0.681  13.416  1.3588  0.4927 -1.3754
 8688TIP3    H247480   4.919   0.579  13.315 -0.7799 -0.4387  0.5338
 8689TIP3   OH247481   2.532   0.521  11.408  0.2126  0.0000 -0.0575
 8689TIP3    H147482   2.508   0.543  11.318 -0.5904 -0.0828  0.1248
 8689TIP3    H247483   2.556   0.605  11.448 -0.5607  0.2104 -0.0250
 8690TIP3   OH247484   1.019   2.505   3.049  0.1849  0.5934  0.2790
 8690TIP3    H147485   1.007   2.482   3.141 -0.2424 -0.2024  0.0230
 8690TIP3    H247486   0.936   2.542   3.022 -1.1895 -3.1591 -0.9608
 8691TIP3   OH247487   5.397   0.701  13.552 -0.4403  0.5836 -0.0060
 8691TIP3    H147488   5.438   0.725  13.469 -0.8340 -0.8510 -0.6430
 8691TIP3    H247489   5.464   0.718  13.618  0.4372  0.2471 -0.7979
 8692TIP3   OH247490   5.540   4.669   1.496  0.1191  0.1390 -0.1338
 8692TIP3    H147491   5.453   4.632   1.482 -0.0136  0.2506  0.3949
 8692TIP3    H247492   5.590   4.642   1.419 -0.2571 -0.2976 -0.2276
 8693TIP3   OH247493   4.580   3.333  14.867  1.0072 -0.0318  0.4526
 8693TIP3    H147494   4.569   3.428  14.864  1.3642  0.0614  1.7869
 8693TIP3    H247495   4.494   3.298  14.847  0.4248  0.6002  1.8032
 8694TIP3   OH247496   3.798   2.259  12.087  0.3101 -0.4653 -0.0582
 8694TIP3    H147497   3.867   2.309  12.044  0.2353 -0.9495 -0.7540
 8694TIP3    H247498   3.736   2.239  12.017 -0.9354  0.6243  0.7120
 8695TIP3   OH247499   6.509   1.260   4.158 -0.1040 -0.1531  0.2102
 8695TIP3    H147500   6.582   1.297   4.108  0.0459 -0.5695  0.1196
 8695TIP3    H247501   6.437   1.322   4.146  0.2204  0.2396  0.2632
 8696TIP3   OH247502   3.342   1.427  12.441 -0.1779 -0.1646  0.4465
 8696TIP3    H147503   3.367   1.516  12.415 -0.2317 -0.4843 -0.6952
 8696TIP3    H247504   3.418   1.394  12.490  1.3427 -0.8040 -2.2519
 8697TIP3   OH247505   4.394   0.931  13.314 -0.1487 -0.2896  0.2076
 8697TIP3    H147506   4.406   1.023  13.292  1.1240 -0.6180 -0.5520
 8697TIP3    H247507   4.324   0.901  13.255  1.7072 -0.6026 -1.9253
 8698TIP3   OH247508   4.498   6.266  17.177  0.1536  0.7029  0.4109
 8698TIP3    H147509   4.440   6.210  17.124  0.5315  0.4957  0.2170
 8698TIP3    H247510   4.443   6.341  17.200 -0.3714  0.2435  0.6962
 8699TIP3   OH247511   0.956   3.601  13.013  0.0901  0.1347 -0.4254
 8699TIP3    H147512   1.040   3.631  12.979  0.2092  0.9517  0.5559
 8699TIP3    H247513   0.894   3.671  12.987  0.3157  1.1216  1.6315
 8700TIP3   OH247514   2.177   3.519  10.549  0.2137  0.1682 -0.1397
 8700TIP3    H147515   2.148   3.598  10.593 -0.2924  0.5457 -1.1263
 8700TIP3    H247516   2.097   3.470  10.531  0.7609 -2.0946  3.2455
 8701TIP3   OH247517   2.374   4.482  16.797 -0.6033  0.1485  0.0800
 8701TIP3    H147518   2.371   4.534  16.877  0.2316  0.1842  0.0899
 8701TIP3    H247519   2.398   4.545  16.729 -0.0780 -0.1282  0.0095
 8702TIP3   OH247520   1.320   5.067   0.106  0.3449  0.3854  0.5409
 8702TIP3    H147521   1.268   5.133   0.152 -2.5934  0.1154 -2.1477
 8702TIP3    H247522   1.381   5.117   0.053 -1.0158  0.9676 -0.5260
 8703TIP3   OH247523   3.306   3.047  13.751 -0.0729  0.2290  0.3222
 8703TIP3    H147524   3.276   2.974  13.806  2.3623 -0.1266  1.2126
 8703TIP3    H247525   3.255   3.038  13.670 -0.9408 -1.5163  1.0348
 8704TIP3   OH247526   6.341   5.879  11.017  0.3322  0.2084  0.3142
 8704TIP3    H147527   6.332   5.893  11.111  0.2168  0.9598  0.1893
 8704TIP3    H247528   6.393   5.953  10.986 -0.2116  0.3257 -0.3266
 8705TIP3   OH247529   6.366   6.578   0.067 -0.4106 -1.1430 -0.0435
 8705TIP3    H147530   6.445   6.564   0.119 -0.7232  1.3226  1.1540
 8705TIP3    H247531   6.363   6.503   0.007  1.6378 -2.4046  1.3714
 8706TIP3   OH247532   6.708   3.655  13.084 -0.1889 -0.7206 -0.2712
 8706TIP3    H147533   6.670   3.735  13.046  0.2432 -0.8613 -0.9992
 8706TIP3    H247534   6.680   3.657  13.176  0.3101  0.5756 -0.1320
 8707TIP3   OH247535   2.955   5.241   0.642  0.2826 -0.4383 -0.1191
 8707TIP3    H147536   2.973   5.216   0.551 -2.6343  1.9291 -1.4097
 8707TIP3    H247537   2.891   5.176   0.673 -0.4501  0.0931 -0.5131
 8708TIP3   OH247538   0.057   1.051   0.468  0.0293 -0.0627  0.4790
 8708TIP3    H147539   0.022   0.963   0.479  2.6962 -1.4545 -1.4510
 8708TIP3    H247540   0.136   1.053   0.522  0.7734  0.6525 -0.6060
 8709TIP3   OH247541   5.283   6.673   1.135  0.0127 -0.4000 -0.1608
 8709TIP3    H147542   5.340   6.635   1.201 -0.1875  0.5810  0.5823
 8709TIP3    H247543   5.194   6.665   1.171 -0.1273 -0.1529 -0.4419
 8710TIP3   OH247544   0.389   2.085   1.170 -0.4021 -0.2737  0.3043
 8710TIP3    H147545   0.320   2.067   1.107  0.6692  1.2687 -1.3882
 8710TIP3    H247546   0.417   1.999   1.201 -1.3981 -1.0217 -0.8228
 8711TIP3   OH247547   4.215   4.394  15.890 -0.4138  0.1322  0.0601
 8711TIP3    H147548   4.209   4.298  15.897 -2.4730  0.2867  0.5243
 8711TIP3    H247549   4.305   4.413  15.919 -0.7044 -1.4760  2.1866
 8712TIP3   OH247550   3.454   1.247   6.342  0.8365  0.1174  0.3528
 8712TIP3    H147551   3.389   1.279   6.406 -1.8062  0.4907 -2.4200
 8712TIP3    H247552   3.507   1.185   6.392 -0.9791  0.6005  3.0056
 8713TIP3   OH247553   3.255   6.154  14.413  0.8750  0.2692  0.3366
 8713TIP3    H147554   3.171   6.113  14.392  0.0612  1.0367  2.0599
 8713TIP3    H247555   3.315   6.080  14.423  0.2559 -0.3169 -0.2080
 8714TIP3   OH247556   2.208   0.951   0.171  0.2099 -0.0806  0.0553
 8714TIP3    H147557   2.135   0.929   0.114 -0.6194 -1.3977  1.5574
 8714TIP3    H247558   2.285   0.946   0.115 -0.5981 -1.2689 -0.9750
 8715TIP3   OH247559   5.826   6.606  10.979  0.3346 -0.1620  0.1617
 8715TIP3    H147560   5.899   6.664  10.956  0.3595  0.2743  1.2761
 8715TIP3    H247561   5.865   6.519  10.986  0.4107 -0.2240 -0.9310
 8716TIP3   OH247562   3.878   3.186  13.167 -0.6605 -0.3732 -0.7524
 8716TIP3    H147563   3.972   3.167  13.168 -0.4913  0.4554  0.1176
 8716TIP3    H247564   3.863   3.229  13.083  0.3069  2.1408  0.3027
 8717TIP3   OH247565   3.849   3.867  12.107  0.3556 -0.6819  0.1119
 8717TIP3    H147566   3.807   3.933  12.162  2.1414  0.0443  0.6323
 8717TIP3    H247567   3.923   3.835  12.160  1.3873 -0.8215 -1.3883
 8718TIP3   OH247568   5.543   6.216  16.411  0.1079  0.5638  0.1928
 8718TIP3    H147569   5.635   6.193  16.397 -0.2203 -1.0146  0.4863
 8718TIP3    H247570   5.512   6.247  16.326  0.1317 -1.7431 -0.6822
 8719TIP3   OH247571   3.250   1.635   1.522 -0.0134  0.0966 -0.0138
 8719TIP3    H147572   3.298   1.664   1.600  0.9340 -0.3287 -0.4311
 8719TIP3    H247573   3.318   1.600   1.464 -0.6055  1.1017 -1.3437
 8720TIP3   OH247574   4.630   2.359  15.972 -0.5113  0.0558  0.1947
 8720TIP3    H147575   4.642   2.343  16.065 -0.5181  1.0662  0.3757
 8720TIP3    H247576   4.653   2.276  15.930  0.6117 -0.0572  1.0157
 8721TIP3   OH247577   1.231   4.580   2.701 -0.2081  0.5263  0.3562
 8721TIP3    H147578   1.187   4.496   2.685  0.9847 -0.0070 -0.1788
 8721TIP3    H247579   1.305   4.559   2.758 -0.5377  1.3929  1.1153
 8722TIP3   OH247580   3.388   0.134   1.788  0.1694 -0.9403 -0.2388
 8722TIP3    H147581   3.364   0.151   1.697 -1.7834  0.4561  0.5108
 8722TIP3    H247582   3.425   0.217   1.819 -2.9924 -0.0624  1.4058
 8723TIP3   OH247583   2.054   6.462   0.570 -0.0938 -0.6181 -0.2329
 8723TIP3    H147584   2.091   6.439   0.655 -2.5800 -1.7394  0.5968
 8723TIP3    H247585   2.052   6.379   0.521 -1.2218 -0.5450 -0.3382
 8724TIP3   OH247586   1.652   1.859  11.263  0.6464  0.5351  0.0934
 8724TIP3    H147587   1.603   1.797  11.317 -1.1626  1.0466 -0.9324
 8724TIP3    H247588   1.679   1.927  11.325 -0.2558  0.4330  0.6138
 8725TIP3   OH247589   1.391   4.535  11.627  0.0464  0.0150 -0.1218
 8725TIP3    H147590   1.450   4.595  11.581 -0.6044  1.1046  0.4384
 8725TIP3    H247591   1.448   4.475  11.674  0.7102  0.4114 -0.4227
 8726TIP3   OH247592   1.105   2.241   0.872  0.3598 -0.6935  0.3394
 8726TIP3    H147593   1.157   2.317   0.898  0.4759 -1.8998  3.7922
 8726TIP3    H247594   1.157   2.198   0.804  1.2975  1.0651 -0.0842
 8727TIP3   OH247595   1.249   4.204  14.646 -0.6252 -0.5136  0.6547
 8727TIP3    H147596   1.188   4.144  14.601  0.2015 -0.4853 -0.5187
 8727TIP3    H247597   1.312   4.146  14.688 -0.4848 -0.5061  0.4575
 8728TIP3   OH247598   2.376   1.040   2.336  0.2279 -0.1192  0.9248
 8728TIP3    H147599   2.471   1.032   2.347  0.3029 -0.5017  0.0758
 8728TIP3    H247600   2.363   1.033   2.241 -0.7487 -1.1174  1.1269
 8729TIP3   OH247601   5.027   3.299   4.359 -0.1759 -0.6336  0.4835
 8729TIP3    H147602   5.097   3.363   4.373 -0.9798 -0.1645  2.5728
 8729TIP3    H247603   5.073   3.217   4.341  0.9153 -0.2782  1.5530
 8730TIP3   OH247604   4.883   5.954   5.687 -0.3389 -0.0104 -0.3475
 8730TIP3    H147605   4.942   6.014   5.733  0.1893  0.0026 -1.0389
 8730TIP3    H247606   4.914   5.955   5.597 -1.0338 -0.4618 -0.5893
 8731TIP3   OH247607   3.170   6.680   1.223  0.3076  0.2832  0.0175
 8731TIP3    H147608   3.097   6.728   1.263 -1.0938 -1.4598 -0.3853
 8731TIP3    H247609   3.194   6.614   1.288  0.9285  0.2571 -0.2372
 8732TIP3   OH247610   6.697   0.127  12.784 -0.3419 -0.1503  0.3359
 8732TIP3    H147611   6.776   0.096  12.830 -0.0690 -1.6634 -1.1097
 8732TIP3    H247612   6.706   0.093  12.695 -3.2265 -1.4318  0.4628
 8733TIP3   OH247613   3.774   0.743   5.885 -0.0955 -0.2473  0.7314
 8733TIP3    H147614   3.853   0.698   5.913  1.0021  0.6091 -0.8411
 8733TIP3    H247615   3.801   0.835   5.876 -1.7166  0.3584  1.7990
 8734TIP3   OH247616   4.201   3.218  15.036 -0.2248  0.2043  0.2670
 8734TIP3    H147617   4.171   3.308  15.022  0.7082  0.6976  1.2917
 8734TIP3    H247618   4.221   3.185  14.949  0.1711  1.2761 -0.0589
 8735TIP3   OH247619   0.837   2.217  11.053 -0.4665  0.2848 -0.0599
 8735TIP3    H147620   0.877   2.303  11.067 -0.2950 -0.0925  1.7920
 8735TIP3    H247621   0.754   2.221  11.100  0.4044 -1.2173  1.6485
 8736TIP3   OH247622   1.209   0.510  13.797 -0.7831  0.9404  0.4168
 8736TIP3    H147623   1.213   0.603  13.772 -0.4247  0.7801 -0.1100
 8736TIP3    H247624   1.182   0.465  13.717  0.7587  0.3798  0.2032
 8737TIP3   OH247625   0.058   6.598   4.166  0.0749 -0.0981  0.3375
 8737TIP3    H147626   0.106   6.530   4.120 -1.9523 -0.2020 -1.7354
 8737TIP3    H247627   0.021   6.553   4.242  0.5667 -0.7827  0.1825
 8738TIP3   OH247628   3.010   0.376  16.191 -0.8008  0.4852  0.6595
 8738TIP3    H147629   2.954   0.304  16.162 -1.2297  1.5647 -1.2483
 8738TIP3    H247630   3.099   0.346  16.171 -0.7630 -0.5971  2.3178
 8739TIP3   OH247631   4.717   3.163   5.991 -0.0618 -0.5288 -0.6719
 8739TIP3    H147632   4.804   3.156   5.952 -0.7090 -0.8018 -2.1044
 8739TIP3    H247633   4.663   3.100   5.942 -1.6903  1.5193 -1.6152
 8740TIP3   OH247634   2.904   5.765  15.156  0.3105 -0.3676 -0.0916
 8740TIP3    H147635   2.931   5.850  15.189 -1.1602 -0.8382  2.4942
 8740TIP3    H247636   2.949   5.702  15.212  0.6898 -1.2937 -1.4079
 8741TIP3   OH247637   3.901   4.139  14.229  0.3222  0.6771  0.3940
 8741TIP3    H147638   3.810   4.113  14.247  0.4057  0.8411  1.0930
 8741TIP3    H247639   3.900   4.234  14.242  0.5224  0.7186  0.0852
 8742TIP3   OH247640   3.987   0.653  11.719 -0.3343 -0.3964  0.5145
 8742TIP3    H147641   3.901   0.664  11.679  0.2908  1.3925 -0.4049
 8742TIP3    H247642   4.026   0.741  11.716  0.4330 -0.5782  3.4302
 8743TIP3   OH247643   2.807   4.726   6.125  0.4397 -0.1277 -0.3545
 8743TIP3    H147644   2.790   4.803   6.180 -0.7204 -0.6294  0.0108
 8743TIP3    H247645   2.888   4.689   6.159 -0.6902 -0.9061  1.6102
 8744TIP3   OH247646   3.352   4.182   0.935  0.1399 -0.3472  0.6179
 8744TIP3    H147647   3.386   4.269   0.956 -0.4941 -0.0757  0.5341
 8744TIP3    H247648   3.257   4.191   0.942 -0.0726 -0.3982 -1.7990
 8745TIP3   OH247649   5.416   5.155   5.310 -0.5999  0.2909  0.3367
 8745TIP3    H147650   5.422   5.100   5.389 -0.6818 -0.3912 -0.1235
 8745TIP3    H247651   5.361   5.229   5.336 -0.7351  0.0031  0.8842
 8746TIP3   OH247652   0.260   3.144  13.639 -1.5981 -0.0134 -0.3081
 8746TIP3    H147653   0.257   3.082  13.567 -2.2987 -1.3419  0.8458
 8746TIP3    H247654   0.309   3.219  13.604  1.1741 -2.0864 -1.0494
 8747TIP3   OH247655   4.572   0.830   3.937  0.0951 -0.4344 -0.1373
 8747TIP3    H147656   4.499   0.889   3.916  0.8869  0.0170 -1.7420
 8747TIP3    H247657   4.632   0.884   3.987  0.0770 -0.3382 -0.2178
 8748TIP3   OH247658   1.572   1.375   1.803 -0.5280 -0.2620 -0.0334
 8748TIP3    H147659   1.663   1.346   1.813 -1.4584 -3.5563 -0.5815
 8748TIP3    H247660   1.577   1.450   1.743  1.6960 -1.1345 -0.9874
 8749TIP3   OH247661   2.007   0.296  15.292 -0.0456 -0.0871  0.4967
 8749TIP3    H147662   2.076   0.302  15.226  1.8221 -0.5862  2.3572
 8749TIP3    H247663   2.019   0.210  15.331 -1.8042 -0.2199  0.7777
 8750TIP3   OH247664   4.009   3.981   2.740 -0.1121 -0.6070  0.0107
 8750TIP3    H147665   3.931   3.982   2.685 -0.7962 -0.8675  0.9545
 8750TIP3    H247666   4.074   4.032   2.692 -1.5170  1.3578  0.1824
 8751TIP3   OH247667   0.211   2.645  16.903 -0.2261  0.2314 -0.4344
 8751TIP3    H147668   0.168   2.560  16.890 -2.0943  0.9519  0.8916
 8751TIP3    H247669   0.299   2.622  16.933 -1.2421 -1.2457  1.5507
 8752TIP3   OH247670   3.943   0.511   0.390  0.2296  0.4139  0.3921
 8752TIP3    H147671   3.902   0.593   0.361 -1.3004 -0.3393  0.3933
 8752TIP3    H247672   3.997   0.537   0.465  1.3755  1.7590 -0.8592
 8753TIP3   OH247673   1.502   3.688  14.035  0.3504 -0.1006 -0.1519
 8753TIP3    H147674   1.417   3.714  13.998  0.6116  0.7264 -0.1923
 8753TIP3    H247675   1.502   3.593  14.031 -0.6473 -0.1132 -0.0062
 8754TIP3   OH247676   0.134   2.946   5.963 -0.0794 -0.3018  0.2438
 8754TIP3    H147677   0.163   2.876   6.023 -0.0101  0.0430  0.6150
 8754TIP3    H247678   0.080   3.003   6.018  0.7171  0.5093  0.2085
 8755TIP3   OH247679   1.741   4.580   3.647  0.8979 -0.0654  0.1145
 8755TIP3    H147680   1.684   4.656   3.662  0.8175  0.5284 -2.9955
 8755TIP3    H247681   1.683   4.505   3.657 -0.2918  0.5049 -2.2161
 8756TIP3   OH247682   1.004   2.643  14.542  0.1518  0.0695 -0.3056
 8756TIP3    H147683   1.001   2.738  14.544 -0.6650  0.0362  0.8313
 8756TIP3    H247684   1.097   2.621  14.548  0.4951  0.7986 -2.4401
 8757TIP3   OH247685   5.025   3.234  12.856  0.2051  0.3190  0.4146
 8757TIP3    H147686   5.003   3.323  12.885  1.7446  0.9521 -0.3307
 8757TIP3    H247687   4.995   3.231  12.765  1.3153  0.5173  0.0316
 8758TIP3   OH247688   3.631   6.786  15.488  0.2002 -0.4206 -0.0761
 8758TIP3    H147689   3.626   6.778  15.392  2.1770 -2.6799 -0.0056
 8758TIP3    H247690   3.677   6.708  15.517  1.9625  1.4991  2.5176
 8759TIP3   OH247691   5.426   0.065   6.092 -0.2253 -0.1334  0.0558
 8759TIP3    H147692   5.343   0.055   6.045 -0.1493  0.9757 -0.3324
 8759TIP3    H247693   5.492   0.069   6.023 -0.0061  0.4708  0.2982
 8760TIP3   OH247694   2.668   3.972   2.235  0.4882  0.1015  0.4881
 8760TIP3    H147695   2.736   3.943   2.296  0.3106  0.1320  0.7003
 8760TIP3    H247696   2.646   3.894   2.184 -0.4851 -0.3100  1.5236
 8761TIP3   OH247697   5.762   2.129  16.697 -0.0952 -0.5412 -0.2461
 8761TIP3    H147698   5.851   2.159  16.717  0.5918 -0.8046 -2.7247
 8761TIP3    H247699   5.767   2.034  16.700 -0.2959 -0.5573 -0.4189
 8762TIP3   OH247700   1.792   2.359  12.169  0.5634  0.0242  0.1480
 8762TIP3    H147701   1.830   2.381  12.254  1.5546  0.1239 -0.3163
 8762TIP3    H247702   1.698   2.370  12.181  0.7423  0.5639  1.0784
 8763TIP3   OH247703   0.948   2.027   4.458  0.5028  0.3609  0.6267
 8763TIP3    H147704   1.000   2.106   4.449  2.8326 -0.5551  4.8898
 8763TIP3    H247705   0.872   2.054   4.510  0.5440  0.0873  0.8288
 8764TIP3   OH247706   1.224   2.075   0.672 -0.0446  0.0391 -0.0671
 8764TIP3    H147707   1.319   2.069   0.679 -0.0755 -0.9489 -0.4682
 8764TIP3    H247708   1.192   1.992   0.708 -0.7500  0.2715 -0.1468
 8765TIP3   OH247709   3.491   2.744  16.699 -0.3664 -0.2038  0.0274
 8765TIP3    H147710   3.561   2.785  16.751  0.2818 -1.0225 -0.1980
 8765TIP3    H247711   3.535   2.678  16.647 -0.8508  1.3041 -2.3823
 8766TIP3   OH247712   6.067   4.295  14.158 -0.2849 -0.1882  0.5587
 8766TIP3    H147713   5.971   4.292  14.150 -0.2424 -1.2339  0.4200
 8766TIP3    H247714   6.098   4.228  14.098  0.5769  0.6074  0.1013
 8767TIP3   OH247715   0.195   5.781   4.593  0.2197 -0.7525 -0.1954
 8767TIP3    H147716   0.125   5.837   4.626  1.2741  0.6027 -0.2364
 8767TIP3    H247717   0.177   5.772   4.500 -0.2948 -1.0083 -0.0768
 8768TIP3   OH247718   6.422   5.278  15.208  0.8315  0.3564  1.0021
 8768TIP3    H147719   6.492   5.220  15.236  1.5812  1.0109  0.5109
 8768TIP3    H247720   6.382   5.234  15.133  0.9215  0.1264  1.0904
 8769TIP3   OH247721   3.335   5.931  11.246  0.8589  0.3062 -0.0817
 8769TIP3    H147722   3.310   5.843  11.218  1.3671  0.6374 -1.6300
 8769TIP3    H247723   3.273   5.990  11.202  3.3880  1.0245 -2.8813
 8770TIP3   OH247724   0.984   3.203  13.586  0.2146 -0.3785 -0.1437
 8770TIP3    H147725   1.000   3.122  13.635  0.0501 -1.2290 -1.4612
 8770TIP3    H247726   0.891   3.199  13.563  0.2212  0.1562 -0.2686
 8771TIP3   OH247727   0.706   0.885  17.066  0.0014 -0.3411 -0.4397
 8771TIP3    H147728   0.619   0.906  17.100 -0.2015 -0.1716 -1.0492
 8771TIP3    H247729   0.692   0.808  17.011  0.3244 -0.6152 -0.1352
 8772TIP3   OH247730   4.843   2.710   5.226 -0.4290 -0.1033  0.3503
 8772TIP3    H147731   4.905   2.782   5.218 -0.7368  0.0951 -0.2846
 8772TIP3    H247732   4.886   2.647   5.284  0.4036 -0.0159 -0.1605
 8773TIP3   OH247733   6.330   1.984   1.542  0.5206  0.1133  0.4298
 8773TIP3    H147734   6.375   1.928   1.607  1.3786  0.6352  0.2922
 8773TIP3    H247735   6.248   1.938   1.524  0.6659 -0.4831  1.2402
 8774TIP3   OH247736   0.939   0.192  11.274  0.2845 -0.1134 -0.1563
 8774TIP3    H147737   0.858   0.160  11.312 -0.0038  1.1330  0.3185
 8774TIP3    H247738   0.915   0.215  11.184  0.3054 -0.5119 -0.2626
 8775TIP3   OH247739   6.619   5.174   0.289 -0.5399 -0.3410  0.1000
 8775TIP3    H147740   6.666   5.255   0.272  0.0804 -0.6854  0.1283
 8775TIP3    H247741   6.553   5.197   0.354 -0.3763  0.1435  0.0934
 8776TIP3   OH247742   0.340   0.672  12.308 -0.2514  1.0368 -0.2655
 8776TIP3    H147743   0.371   0.750  12.354 -0.4573  1.0029 -0.0692
 8776TIP3    H247744   0.398   0.665  12.231  1.3237  0.0173  0.9916
 8777TIP3   OH247745   3.063   0.478   4.356  0.2331 -0.0842 -0.5097
 8777TIP3    H147746   3.017   0.499   4.275 -0.8647  1.2798  0.4439
 8777TIP3    H247747   3.001   0.425   4.406  0.2250  0.5718  0.1858
 8778TIP3   OH247748   3.411   2.815   5.225 -0.5966 -0.2636 -0.2278
 8778TIP3    H147749   3.447   2.730   5.252 -1.7285 -0.0168  2.1944
 8778TIP3    H247750   3.322   2.816   5.260 -0.2125  2.3759  0.8579
 8779TIP3   OH247751   4.088   2.831   0.715  0.1887  0.2137 -0.1654
 8779TIP3    H147752   4.047   2.744   0.710 -2.1389  1.4168 -2.5750
 8779TIP3    H247753   4.150   2.832   0.643  2.0295 -0.3000  1.3599
 8780TIP3   OH247754   3.787   1.184   4.734  0.8854  0.2330  0.1062
 8780TIP3    H147755   3.779   1.146   4.646 -0.8925  0.0439  0.3237
 8780TIP3    H247756   3.768   1.111   4.793  1.4964  0.5017  0.6376
 8781TIP3   OH247757   0.494   2.259  14.667  0.5614  0.3290  0.4788
 8781TIP3    H147758   0.576   2.305  14.649  0.2490  0.0278 -1.9020
 8781TIP3    H247759   0.480   2.204  14.590 -0.2821 -1.9853  2.2140
 8782TIP3   OH247760   1.901   1.084  16.048 -0.6513 -0.1853  0.0175
 8782TIP3    H147761   1.806   1.084  16.060 -0.6112  0.1648  0.3661
 8782TIP3    H247762   1.926   0.992  16.052 -0.9559 -0.2661  0.0957
 8783TIP3   OH247763   1.274   3.857  11.433  0.3464  0.4282 -0.4443
 8783TIP3    H147764   1.221   3.841  11.354  1.8427  1.4767 -1.6943
 8783TIP3    H247765   1.318   3.773  11.449  0.6246  0.4239 -1.1900
 8784TIP3   OH247766   3.933   3.929   4.188  0.1441  0.0801  0.6105
 8784TIP3    H147767   3.887   3.978   4.120  1.1708  2.5092  1.6238
 8784TIP3    H247768   3.863   3.891   4.242 -0.6640  0.2342 -0.3285
 8785TIP3   OH247769   2.092   1.332   6.349  0.0109 -0.3773 -0.2722
 8785TIP3    H147770   2.101   1.237   6.342  1.4480 -0.2282 -0.7119
 8785TIP3    H247771   2.182   1.365   6.342 -0.4846  1.0212 -0.2422
 8786TIP3   OH247772   6.003   0.302   2.333 -0.3994  0.5120 -0.1504
 8786TIP3    H147773   6.011   0.315   2.238  0.9895 -1.1595 -0.3028
 8786TIP3    H247774   6.069   0.359   2.371 -1.7600  2.0704 -0.1070
 8787TIP3   OH247775   0.215   4.002  15.771  0.8192 -0.4895  0.1951
 8787TIP3    H147776   0.130   3.969  15.742  0.8703 -1.0866  0.7149
 8787TIP3    H247777   0.278   3.938  15.739  0.9634 -0.6577  0.8131
 8788TIP3   OH247778   1.656   4.808  11.760  0.5293 -0.4292 -0.6902
 8788TIP3    H147779   1.662   4.738  11.824 -0.3053  1.0396  1.0459
 8788TIP3    H247780   1.588   4.866  11.794 -0.9957 -0.3668 -3.6534
 8789TIP3   OH247781   4.745   5.590  12.087  0.8872  0.6989 -0.1907
 8789TIP3    H147782   4.690   5.632  12.022  0.7378 -0.5765 -0.9029
 8789TIP3    H247783   4.771   5.506  12.047  0.8487 -0.0695  1.3444
 8790TIP3   OH247784   5.748   1.160  11.637 -0.5600 -0.2850 -0.1548
 8790TIP3    H147785   5.813   1.229  11.626 -1.1951  0.2051 -0.8870
 8790TIP3    H247786   5.765   1.124  11.724  0.4661  0.0643 -0.2048
 8791TIP3   OH247787   4.195   2.074  16.003 -0.7218 -0.2422  0.2740
 8791TIP3    H147788   4.227   2.039  16.086  2.0026 -0.8450 -0.9816
 8791TIP3    H247789   4.104   2.042  15.997  0.4187 -3.8698  1.0120
 8792TIP3   OH247790   0.740   5.430   0.718 -0.7056  0.0716 -0.4800
 8792TIP3    H147791   0.650   5.423   0.749  0.0563  0.1896  1.9008
 8792TIP3    H247792   0.751   5.523   0.696 -1.1368  0.0785 -0.6657
 8793TIP3   OH247793   4.762   1.411  12.264  0.5496  0.0424 -0.3399
 8793TIP3    H147794   4.712   1.371  12.193  0.1547  0.1552 -0.1303
 8793TIP3    H247795   4.700   1.416  12.337  0.0225  2.6508 -0.8944
 8794TIP3   OH247796   3.008   3.339   0.618  0.5652 -0.2508 -0.4717
 8794TIP3    H147797   2.963   3.339   0.533 -0.4568 -1.7246  0.0639
 8794TIP3    H247798   3.024   3.432   0.635 -1.9210  0.2965 -0.8742
 8795TIP3   OH247799   0.403   5.993  15.904 -0.3539 -0.2333 -0.4536
 8795TIP3    H147800   0.383   5.954  15.989 -1.6087  0.2984 -0.4975
 8795TIP3    H247801   0.420   5.918  15.847 -0.1239 -0.6137  0.1098
 8796TIP3   OH247802   0.838   4.809   1.098 -0.8899  0.2616  0.3447
 8796TIP3    H147803   0.834   4.893   1.053 -0.9801  1.3161  2.2735
 8796TIP3    H247804   0.893   4.825   1.174 -0.9399 -1.4201  0.7583
 8797TIP3   OH247805   1.062   2.158  14.742 -0.0677  0.1618 -0.1742
 8797TIP3    H147806   1.104   2.211  14.675 -2.3676  0.1975 -1.6163
 8797TIP3    H247807   1.010   2.220  14.793 -0.9790 -0.3759 -0.4516
 8798TIP3   OH247808   5.389   0.315   6.505 -0.5656  0.5853  0.2251
 8798TIP3    H147809   5.461   0.371   6.534 -1.6420  3.0924 -1.7632
 8798TIP3    H247810   5.319   0.330   6.568 -1.4587  2.8846 -1.2456
 8799TIP3   OH247811   4.731   1.034   5.814  0.3872 -0.2652 -0.3586
 8799TIP3    H147812   4.689   0.949   5.805  2.2354 -1.2771  0.3347
 8799TIP3    H247813   4.715   1.059   5.905 -1.1916  0.7131 -0.8838
 8800TIP3   OH247814   4.803   3.851   0.703 -0.0898 -0.0302  0.2592
 8800TIP3    H147815   4.768   3.927   0.656  1.2032  0.0163 -0.6779
 8800TIP3    H247816   4.794   3.873   0.795  2.0725  2.1653  0.0206
 8801TIP3   OH247817   4.960   5.094   2.622  0.2188 -0.0724  0.3544
 8801TIP3    H147818   4.880   5.140   2.596  1.2285  0.4787 -1.9316
 8801TIP3    H247819   4.930   5.017   2.670 -1.6802  0.1072 -0.5244
 8802TIP3   OH247820   5.221   1.411  15.982  0.2785 -0.0448 -0.1980
 8802TIP3    H147821   5.209   1.491  16.033 -1.2498 -0.1625 -0.3635
 8802TIP3    H247822   5.289   1.363  16.030 -0.0725  0.5291  0.8973
 8803TIP3   OH247823   0.511   4.060  16.757  0.0300 -0.1137 -0.6750
 8803TIP3    H147824   0.502   4.154  16.742 -1.0563 -0.4813 -2.5646
 8803TIP3    H247825   0.421   4.030  16.770  0.3010 -1.0056 -0.8582
 8804TIP3   OH247826   0.400   4.380   1.571  0.3635  0.1300 -0.5890
 8804TIP3    H147827   0.485   4.342   1.551  1.0859  0.7431  1.2974
 8804TIP3    H247828   0.419   4.462   1.615 -1.2068 -0.0990  0.5597
 8805TIP3   OH247829   3.154   6.285   3.120  0.4960 -0.0078  0.0009
 8805TIP3    H147830   3.151   6.192   3.096 -1.1493  0.0518 -0.0447
 8805TIP3    H247831   3.076   6.299   3.173  0.5613  1.4327 -0.2596
 8806TIP3   OH247832   1.212   5.795  13.659 -0.2815 -0.4206  0.5073
 8806TIP3    H147833   1.142   5.789  13.595  0.6502 -3.4055 -0.3458
 8806TIP3    H247834   1.184   5.737  13.730 -0.0391  0.6915  1.5129
 8807TIP3   OH247835   2.719   1.918   2.335 -0.3646  0.7278  0.7257
 8807TIP3    H147836   2.713   1.825   2.354  1.2435  0.2724 -0.8609
 8807TIP3    H247837   2.759   1.957   2.413  1.6522 -0.3665  0.2799
 8808TIP3   OH247838   4.846   0.024   1.187  0.3562 -0.0682  0.1261
 8808TIP3    H147839   4.774   0.010   1.249  0.0615 -1.5280 -0.5293
 8808TIP3    H247840   4.823   0.106   1.142 -0.7576 -0.3810  0.1085
 8809TIP3   OH247841   4.586   1.450  12.502  0.0102  0.1618 -0.0475
 8809TIP3    H147842   4.533   1.371  12.515  0.0737 -0.0764 -1.1594
 8809TIP3    H247843   4.569   1.504  12.579  0.6400 -1.3238  1.1430
 8810TIP3   OH247844   1.693   4.945  13.643 -0.2747 -0.4583 -0.0739
 8810TIP3    H147845   1.722   4.979  13.559 -0.3020  0.1898  0.1779
 8810TIP3    H247846   1.682   5.023  13.698  1.2984 -0.9736  1.0117
 8811TIP3   OH247847   1.558   4.615   2.579 -0.3732  0.5510  0.0547
 8811TIP3    H147848   1.580   4.632   2.487  1.3134  1.1783  0.5470
 8811TIP3    H247849   1.600   4.531   2.598 -0.7398  0.4109  0.2445
 8812TIP3   OH247850   3.694   1.797  16.747  0.0257 -0.1493 -0.6289
 8812TIP3    H147851   3.640   1.875  16.752  1.6036  0.9345  0.1843
 8812TIP3    H247852   3.702   1.778  16.654 -2.6144 -0.9850 -0.7229
 8813TIP3   OH247853   1.921   4.034   5.150 -0.2540 -0.1768 -0.7097
 8813TIP3    H147854   1.902   3.952   5.105  0.8036 -1.4171  1.0170
 8813TIP3    H247855   1.837   4.065   5.182 -0.3131 -2.1225  1.1223
 8814TIP3   OH247856   5.698   5.731   5.199  0.3140  0.0166 -0.0819
 8814TIP3    H147857   5.780   5.685   5.180 -0.9365 -1.5742 -1.7776
 8814TIP3    H247858   5.638   5.662   5.226 -0.9949  0.9170 -0.6654
 8815TIP3   OH247859   5.444   2.435   0.580  0.3771 -0.6514  0.1389
 8815TIP3    H147860   5.370   2.430   0.519 -1.0341 -1.9347  1.9220
 8815TIP3    H247861   5.505   2.496   0.538  0.0952 -2.5943 -3.2586
 8816TIP3   OH247862   2.101   3.907   2.692  0.3937 -0.5100 -0.0182
 8816TIP3    H147863   2.060   3.934   2.610  0.0072  1.1312  0.7029
 8816TIP3    H247864   2.154   3.830   2.669  0.3188 -0.0316 -1.7959
 8817TIP3   OH247865   0.429   2.004  17.107  0.3354  0.1167 -0.4576
 8817TIP3    H147866   0.505   1.980  17.161  0.1730 -0.3882 -0.4487
 8817TIP3    H247867   0.437   2.098  17.095  1.2078  0.0056 -0.8146
 8818TIP3   OH247868   4.115   4.845   2.812  0.1301  0.3729 -0.0903
 8818TIP3    H147869   4.084   4.913   2.872  0.9679  0.9751 -0.3410
 8818TIP3    H247870   4.199   4.818   2.847 -0.5798 -1.1619  0.5008
 8819TIP3   OH247871   0.323   0.885   5.414  0.3756  0.0333  0.0421
 8819TIP3    H147872   0.254   0.894   5.480  0.1402 -0.5452 -0.1247
 8819TIP3    H247873   0.402   0.919   5.457 -0.0615  0.9058  0.1528
 8820TIP3   OH247874   3.116   5.750  17.164 -0.2118  0.0266  0.2653
 8820TIP3    H147875   3.131   5.720  17.074 -1.2548 -2.4581  0.8743
 8820TIP3    H247876   3.029   5.789  17.162  0.9952  2.8132 -0.4442
 8821TIP3   OH247877   6.595   5.152   5.508 -0.2511  0.2089  0.2588
 8821TIP3    H147878   6.606   5.222   5.444  0.7962 -0.3481 -0.1900
 8821TIP3    H247879   6.503   5.129   5.503 -0.5876  1.5023  0.3649
 8822TIP3   OH247880   1.814   5.140  16.782 -0.4354 -0.0822 -0.0573
 8822TIP3    H147881   1.744   5.084  16.750 -0.8821  0.0561  0.6742
 8822TIP3    H247882   1.857   5.088  16.850 -1.4220  0.8016  1.2577
 8823TIP3   OH247883   5.789   1.488  17.236 -0.5446 -0.4056 -0.0873
 8823TIP3    H147884   5.750   1.436  17.165 -0.7853 -1.5190  0.8477
 8823TIP3    H247885   5.862   1.434  17.268 -1.8861 -1.0019  2.0762
 8824TIP3   OH247886   5.564   3.171   1.155 -0.1990  0.8134 -0.2625
 8824TIP3    H147887   5.659   3.170   1.143  0.0392 -0.8023  1.5725
 8824TIP3    H247888   5.550   3.135   1.242 -2.5715 -0.5800 -1.1603
 8825TIP3   OH247889   5.367   5.986  11.722 -0.0432 -0.2298  0.2795
 8825TIP3    H147890   5.284   5.946  11.697  0.8385 -0.7812 -1.9262
 8825TIP3    H247891   5.365   6.073  11.682  0.4891 -0.2998  0.0938
 8826TIP3   OH247892   5.049   1.894   3.183 -0.0479  0.0469  0.1045
 8826TIP3    H147893   5.103   1.816   3.169 -1.7032 -1.4329  1.7880
 8826TIP3    H247894   5.097   1.944   3.249 -0.9989 -1.5964  2.1010
 8827TIP3   OH247895   2.697   4.678   4.129  0.0285 -0.0227 -0.1804
 8827TIP3    H147896   2.791   4.669   4.145  0.0955  1.4973  0.3842
 8827TIP3    H247897   2.656   4.661   4.214 -0.1741 -0.2133 -0.3149
 8828TIP3   OH247898   5.124   2.449   1.598  0.6142  0.3667 -0.1850
 8828TIP3    H147899   5.176   2.381   1.640  0.1094 -0.6140 -1.1356
 8828TIP3    H247900   5.034   2.430   1.623  0.5178  1.0250  0.0016
 8829TIP3   OH247901   2.700   1.303  16.711  0.1214 -0.0440  0.0883
 8829TIP3    H147902   2.795   1.301  16.701  0.0231 -1.6403 -0.6581
 8829TIP3    H247903   2.685   1.303  16.805  0.8740  1.5395  0.2183
 8830TIP3   OH247904   5.640   5.259  16.423  0.5166  0.0218  0.3839
 8830TIP3    H147905   5.670   5.213  16.344 -0.6087 -1.8044  0.9870
 8830TIP3    H247906   5.609   5.189  16.481  0.6812  1.3907  2.1756
 8831TIP3   OH247907   1.573   0.445   6.380 -0.4003 -0.2451 -0.0894
 8831TIP3    H147908   1.580   0.365   6.328 -1.3709 -0.1560 -0.3738
 8831TIP3    H247909   1.480   0.468   6.376 -0.4376 -0.0518  1.4134
 8832TIP3   OH247910   2.840   0.288  15.035  0.4156 -0.1573 -0.3887
 8832TIP3    H147911   2.754   0.286  14.995  1.4492  0.4429 -2.7147
 8832TIP3    H247912   2.823   0.300  15.129 -2.0282 -1.3855 -0.6530
 8833TIP3   OH247913   3.247   2.120  15.743 -0.0214  0.3783  0.3636
 8833TIP3    H147914   3.273   2.192  15.686 -0.9234 -1.0983 -2.0150
 8833TIP3    H247915   3.330   2.084  15.775  0.5952  0.2948 -1.2548
 8834TIP3   OH247916   1.853   5.254  14.589 -0.3488 -0.4118  0.2184
 8834TIP3    H147917   1.793   5.179  14.587  0.9385 -1.4397 -1.6203
 8834TIP3    H247918   1.813   5.319  14.533 -0.8720 -0.2009  0.8371
 8835TIP3   OH247919   0.473   1.114  16.570  0.9480  0.5075  0.4297
 8835TIP3    H147920   0.463   1.060  16.649  2.7198 -1.9336 -0.9441
 8835TIP3    H247921   0.546   1.172  16.590  0.1856  1.1848  1.2697
 8836TIP3   OH247922   4.176   5.546   4.678 -0.7030  0.7933  0.2893
 8836TIP3    H147923   4.268   5.564   4.658 -0.7381  0.1242 -0.4599
 8836TIP3    H247924   4.180   5.490   4.756 -0.5130  1.7649  0.9805
 8837TIP3   OH247925   2.693   4.342  17.062 -0.2679 -0.3913 -0.1000
 8837TIP3    H147926   2.647   4.285  17.123  0.2770  1.5856  2.1958
 8837TIP3    H247927   2.668   4.430  17.088  1.1378  0.5436 -1.8313
 8838TIP3   OH247928   1.339   0.027  13.005 -0.0811 -0.2526  0.1012
 8838TIP3    H147929   1.257   0.005  13.048  0.8864 -0.3738  1.9282
 8838TIP3    H247930   1.393  -0.051  13.014  0.0162 -0.4109 -1.6774
 8839TIP3   OH247931   0.979   5.220   2.022 -0.9757 -1.0225 -0.0728
 8839TIP3    H147932   0.939   5.172   1.949  3.5031 -1.5137 -2.3600
 8839TIP3    H247933   0.981   5.311   1.992  1.2460 -1.2871 -0.8279
 8840TIP3   OH247934   1.309   5.398  12.823  0.4645  0.0136  0.6257
 8840TIP3    H147935   1.284   5.372  12.911 -0.0860  1.0455  0.7844
 8840TIP3    H247936   1.402   5.419  12.829  0.3431  0.4316  1.0459
 8841TIP3   OH247937   4.783   2.157   4.623 -0.2467  0.5783 -0.0042
 8841TIP3    H147938   4.823   2.136   4.539 -0.0449  0.9919 -0.0178
 8841TIP3    H247939   4.795   2.252   4.632 -1.1046  0.6880  0.0547
 8842TIP3   OH247940   0.216   1.308   0.608  0.4326 -0.5969 -0.1186
 8842TIP3    H147941   0.148   1.284   0.671  0.0824  0.0221 -0.2586
 8842TIP3    H247942   0.232   1.228   0.559 -0.8509 -0.5045 -0.6937
 8843TIP3   OH247943   1.696   3.203  16.846 -0.5343 -0.2111 -0.4555
 8843TIP3    H147944   1.700   3.273  16.911 -1.2019  1.4241 -2.1291
 8843TIP3    H247945   1.772   3.218  16.789 -0.2534 -1.3043 -0.3717
 8844TIP3   OH247946   2.084   2.518   1.656 -0.5753 -0.6458  0.6797
 8844TIP3    H147947   2.097   2.592   1.715 -1.7584 -0.2651  0.4683
 8844TIP3    H247948   1.993   2.493   1.669 -0.7889 -0.6809 -0.8481
 8845TIP3   OH247949   4.104   1.229   4.791  0.7763 -0.7912 -0.2218
 8845TIP3    H147950   4.023   1.263   4.754  1.0611  0.9536  0.7125
 8845TIP3    H247951   4.130   1.159   4.730 -1.3861 -1.3624 -0.5477
 8846TIP3   OH247952   0.734   1.382   5.855 -0.0433  0.1866  0.8392
 8846TIP3    H147953   0.734   1.339   5.941  2.7889 -0.2519  0.6738
 8846TIP3    H247954   0.824   1.414   5.845  0.5079 -2.3387 -3.2223
 8847TIP3   OH247955   6.438   1.104   6.971 -0.2723  0.7611  0.3412
 8847TIP3    H147956   6.493   1.168   6.925 -0.6165 -0.4318 -1.7640
 8847TIP3    H247957   6.354   1.110   6.927 -0.7766  0.0015  1.2111
 8848TIP3   OH247958   2.361   1.044  10.965  0.2186 -0.1182 -0.2843
 8848TIP3    H147959   2.437   1.036  10.907  0.1417 -1.4663 -0.2144
 8848TIP3    H247960   2.285   1.044  10.905  0.2196  0.0636 -0.2845
 8849TIP3   OH247961   4.155   5.669   3.956  0.0965  0.2263 -0.2775
 8849TIP3    H147962   4.206   5.589   3.969 -1.7160 -1.0737 -1.0102
 8849TIP3    H247963   4.179   5.698   3.868 -0.4295 -0.4082 -0.6381
 8850TIP3   OH247964   0.612   1.317   5.360 -0.0479  0.1367  0.9707
 8850TIP3    H147965   0.600   1.236   5.310 -1.0601  0.5728  0.4937
 8850TIP3    H247966   0.694   1.303   5.409  0.3988 -0.7057  0.0057
 8851TIP3   OH247967   1.979   0.262  12.407  0.5069  0.0882  0.5812
 8851TIP3    H147968   2.031   0.292  12.333 -0.5297 -1.0271 -0.6115
 8851TIP3    H247969   2.044   0.229  12.470  1.5980  3.5291  1.4064
 8852TIP3   OH247970   1.382   0.292  11.946  0.1536  0.2093 -0.4093
 8852TIP3    H147971   1.339   0.215  11.983 -0.3686  0.8471  0.3331
 8852TIP3    H247972   1.475   0.279  11.965 -0.0780  0.3875  0.8828
 8853TIP3   OH247973   0.484   0.216  14.524 -0.6545 -0.1087 -0.6933
 8853TIP3    H147974   0.446   0.267  14.596  0.9923  1.3008 -0.7953
 8853TIP3    H247975   0.448   0.257  14.445  0.4467  0.7410 -0.7663
 8854TIP3   OH247976   5.790   6.743   0.239  0.0096  0.6208 -0.3988
 8854TIP3    H147977   5.734   6.689   0.295  1.0556  1.9581  1.9963
 8854TIP3    H247978   5.879   6.713   0.259  0.5222  2.4930  0.1862
 8855TIP3   OH247979   5.231   2.545   4.814  0.2321 -0.3827 -1.3916
 8855TIP3    H147980   5.208   2.478   4.750 -0.7626 -1.1746 -0.2350
 8855TIP3    H247981   5.323   2.564   4.798  0.5914 -2.2054 -1.5792
 8856TIP3   OH247982   5.643   5.721  14.879  0.0955 -0.4658 -0.6762
 8856TIP3    H147983   5.629   5.657  14.949 -0.3792  0.4020  0.0294
 8856TIP3    H247984   5.738   5.730  14.873  0.1166  1.4884  1.7551
 8857TIP3   OH247985   2.052   5.429  15.890 -0.1825 -0.6315  0.0827
 8857TIP3    H147986   2.146   5.412  15.887 -0.3675 -1.6353 -0.1550
 8857TIP3    H247987   2.016   5.380  15.816 -0.7491  0.7186 -0.5491
 8858TIP3   OH247988   3.613   3.300  16.907  0.1627 -0.3041  0.2163
 8858TIP3    H147989   3.517   3.308  16.910  0.1669 -0.5369  1.0628
 8858TIP3    H247990   3.631   3.254  16.825 -0.4040  0.4546 -0.3378
 8859TIP3   OH247991   4.714   2.914  13.015  0.1391  0.2492 -0.1448
 8859TIP3    H147992   4.801   2.877  13.005 -0.7972 -2.1173  0.1401
 8859TIP3    H247993   4.672   2.859  13.081 -0.2883  3.7399  2.6584
 8860TIP3   OH247994   3.926   1.440  11.298  0.1028  0.1623  0.3641
 8860TIP3    H147995   3.910   1.490  11.218  0.6987 -2.1284 -1.2187
 8860TIP3    H247996   4.016   1.410  11.291  0.0097 -0.4906  1.6622
 8861TIP3   OH247997   5.532   2.760  14.666 -0.5490 -0.2236 -0.1026
 8861TIP3    H147998   5.509   2.676  14.626 -0.1631  0.0478 -0.8957
 8861TIP3    H247999   5.622   2.749  14.696 -0.5293 -0.1264 -0.1272
 8862TIP3   OH248000   1.484   4.451  13.359  0.0823 -0.3450 -0.3445
 8862TIP3    H148001   1.578   4.458  13.377 -0.5009  1.3416  2.3975
 8862TIP3    H248002   1.450   4.397  13.430 -1.4327  1.3699  0.2557
 8863TIP3   OH248003   0.661   1.620   1.766 -0.0056  0.0654  0.8482
 8863TIP3    H148004   0.676   1.674   1.844  1.8053 -0.7189  1.0668
 8863TIP3    H248005   0.739   1.634   1.712 -0.5510 -0.5947 -0.1278
 8864TIP3   OH248006   3.723   0.781  13.053 -0.0530  0.6987  0.0484
 8864TIP3    H148007   3.641   0.744  13.087 -0.2711  2.0441  1.0037
 8864TIP3    H248008   3.704   0.873  13.037  0.6153  0.5262 -1.9369
 8865TIP3   OH248009   5.844   1.931  15.539  0.7473 -0.1716 -0.8306
 8865TIP3    H148010   5.896   1.853  15.556 -0.7482 -0.9278  0.3632
 8865TIP3    H248011   5.874   1.995  15.604  1.1479 -0.1384 -1.0461
 8866TIP3   OH248012   6.140   6.639   0.617 -0.2388  0.5301  0.1516
 8866TIP3    H148013   6.235   6.654   0.615 -0.3448  0.9999 -1.9380
 8866TIP3    H248014   6.108   6.707   0.676  0.9050 -0.8486  2.4493
 8867TIP3   OH248015   1.738   5.012   0.146 -0.0593 -0.2211  0.2536
 8867TIP3    H148016   1.812   5.050   0.098 -1.1423  1.4649 -0.1488
 8867TIP3    H248017   1.697   4.952   0.084 -0.7755  1.0965 -0.5813
 8868TIP3   OH248018   6.354   0.624  16.001 -0.8785 -0.0215 -0.3137
 8868TIP3    H148019   6.280   0.585  15.955  0.3082 -0.0838 -2.1950
 8868TIP3    H248020   6.404   0.550  16.035 -0.3296 -0.0609 -1.1956
 8869TIP3   OH248021   2.297   4.261   5.151  0.2870  0.3159 -0.9431
 8869TIP3    H148022   2.376   4.247   5.204  0.1251 -1.4547 -1.1427
 8869TIP3    H248023   2.274   4.352   5.167  0.7849  0.0880  1.2763
 8870TIP3   OH248024   2.910   2.668   5.374  0.3939  0.3780  0.1766
 8870TIP3    H148025   2.908   2.611   5.297  0.8878 -0.8233  1.0247
 8870TIP3    H248026   2.848   2.738   5.354 -2.8586 -2.2732  0.4990
 8871TIP3   OH248027   1.272   3.039  16.805 -0.0937  0.4671 -0.6816
 8871TIP3    H148028   1.359   3.026  16.767 -0.5170 -0.7240 -1.2625
 8871TIP3    H248029   1.214   3.049  16.729 -0.7941 -0.9296 -0.3385
 8872TIP3   OH248030   4.653   4.768  16.031 -0.1260  0.0181  0.1065
 8872TIP3    H148031   4.673   4.757  16.124 -0.2458 -0.0130  0.1284
 8872TIP3    H248032   4.723   4.720  15.986 -0.4671 -0.5801  0.1972
 8873TIP3   OH248033   5.398   2.890  16.083  0.1506  0.1461  0.2652
 8873TIP3    H148034   5.411   2.945  16.006  1.0336  0.3700  0.5581
 8873TIP3    H248035   5.482   2.896  16.130 -0.6545  0.6706  1.6557
 8874TIP3   OH248036   6.430   4.751  13.864  0.3807 -0.5750 -0.2225
 8874TIP3    H148037   6.404   4.769  13.774  1.4085  0.2700 -0.3556
 8874TIP3    H248038   6.511   4.700  13.856  1.4148  0.9665  0.2268
 8875TIP3   OH248039   0.688   0.371  12.367 -0.1089  0.3539 -0.4343
 8875TIP3    H148040   0.613   0.375  12.427  1.0828  0.5766  1.0848
 8875TIP3    H248041   0.764   0.390  12.423  1.1174 -0.2452 -1.8635
 8876TIP3   OH248042   4.224   6.642  16.445 -0.1269  0.5698 -0.4427
 8876TIP3    H148043   4.141   6.605  16.415  0.4134 -0.8431 -0.2775
 8876TIP3    H248044   4.247   6.707  16.379 -0.3113 -0.5613 -1.6469
 8877TIP3   OH248045   6.215   4.545  13.711 -0.2647 -0.3863  0.0874
 8877TIP3    H148046   6.280   4.569  13.646 -0.2060 -0.4718  0.1148
 8877TIP3    H248047   6.147   4.611  13.702 -0.2749 -0.4199 -0.0862
 8878TIP3   OH248048   5.675   3.848   1.324  0.2518  0.4702 -0.1268
 8878TIP3    H148049   5.629   3.897   1.393 -2.2163 -2.5220  0.5069
 8878TIP3    H248050   5.607   3.793   1.285  2.8699 -2.5373 -0.6727
 8879TIP3   OH248051   3.151   3.573   5.769  0.0497 -0.5441  0.1285
 8879TIP3    H148052   3.239   3.609   5.772  0.3525 -0.9665 -2.3698
 8879TIP3    H248053   3.135   3.540   5.857  1.5290  1.5074  1.2031
 8880TIP3   OH248054   4.068   1.881   3.532  0.4750 -0.1946  0.4163
 8880TIP3    H148055   4.037   1.953   3.586 -1.6695 -0.7461 -0.0313
 8880TIP3    H248056   4.088   1.920   3.447  1.1134  0.1824  0.7394
 8881TIP3   OH248057   0.096   0.964   2.054 -0.5968 -0.1717  0.5386
 8881TIP3    H148058   0.056   0.920   2.129 -1.0910 -1.2782 -0.3617
 8881TIP3    H248059   0.079   0.906   1.980 -1.0534  1.4120 -0.6332
 8882TIP3   OH248060   3.122   3.964  11.325  0.7042  0.6201  0.3992
 8882TIP3    H148061   3.062   3.909  11.374  0.6113 -1.0993 -1.5597
 8882TIP3    H248062   3.206   3.956  11.371  0.4769 -0.5003  0.6241
 8883TIP3   OH248063   5.576   2.912  13.042 -0.4702 -0.1257 -0.5408
 8883TIP3    H148064   5.542   2.973  12.976 -1.0016 -1.3464 -1.4119
 8883TIP3    H248065   5.547   2.826  13.013  0.6705 -0.8621  0.4290
 8884TIP3   OH248066   1.436   5.565  13.623  0.3798  0.4269  0.0998
 8884TIP3    H148067   1.509   5.524  13.577 -1.0449  1.4924 -3.2936
 8884TIP3    H248068   1.376   5.492  13.640 -0.1967  0.3369 -2.0626
 8885TIP3   OH248069   0.097   4.226  12.045  0.9563  0.3538  0.0199
 8885TIP3    H148070   0.123   4.140  12.079 -0.0716  0.4965  1.2141
 8885TIP3    H248071   0.002   4.228  12.056  1.2551  2.7357  2.5991
 8886TIP3   OH248072   3.111   2.176   3.191  0.1338 -0.3617 -0.1561
 8886TIP3    H148073   3.186   2.227   3.160 -0.5182 -0.4503 -1.9116
 8886TIP3    H248074   3.113   2.188   3.286  2.2576 -0.2089 -0.1825
 8887TIP3   OH248075   2.064   6.174   4.149 -0.2616 -0.2313  0.4038
 8887TIP3    H148076   2.030   6.263   4.161  0.6542  0.0744  0.8385
 8887TIP3    H248077   2.117   6.158   4.227 -0.2844 -1.0982  0.2452
 8888TIP3   OH248078   1.235   5.472  13.312  0.1867 -0.3286  0.0839
 8888TIP3    H148079   1.156   5.514  13.348 -0.0697 -0.1520 -0.6841
 8888TIP3    H248080   1.295   5.545  13.295  0.4219 -0.4400  0.4247
 8889TIP3   OH248081   0.615   4.161  12.219  0.0844  0.4626 -0.4102
 8889TIP3    H148082   0.598   4.135  12.310 -0.6782 -2.2622 -1.2827
 8889TIP3    H248083   0.543   4.220  12.198 -0.9030 -0.5169  0.1400
 8890TIP3   OH248084   2.500   3.982  16.423 -0.1013  0.2197  0.3395
 8890TIP3    H148085   2.575   3.941  16.379  0.1360 -1.0058  1.8529
 8890TIP3    H248086   2.431   3.916  16.419 -0.4935  0.6102  0.6365
 8891TIP3   OH248087   6.734   0.453  11.835 -0.0490  0.5107 -0.0953
 8891TIP3    H148088   6.735   0.407  11.751 -0.5455  1.1722 -0.4694
 8891TIP3    H248089   6.657   0.510  11.829 -0.6750 -0.1883  1.2074
 8892TIP3   OH248090   4.550   5.834  13.668  0.3563 -0.4559  0.6689
 8892TIP3    H148091   4.546   5.743  13.639  0.7797 -0.4739  0.6607
 8892TIP3    H248092   4.643   5.856  13.666  0.2000  0.1846  0.0207
 8893TIP3   OH248093   3.675   6.666   2.072 -0.0773 -0.0108 -0.9765
 8893TIP3    H148094   3.594   6.657   2.022 -0.8059  0.6016  0.0703
 8893TIP3    H248095   3.649   6.652   2.163  1.1618 -0.7325 -0.7125
 8894TIP3   OH248096   4.756   2.634  12.999  0.3403  0.4912 -0.3770
 8894TIP3    H148097   4.768   2.553  13.049 -0.5287  0.4803 -0.1807
 8894TIP3    H248098   4.804   2.620  12.918 -0.8392 -0.7147 -0.8812
 8895TIP3   OH248099   4.423   2.873   5.632 -0.2783  0.2332 -0.6437
 8895TIP3    H148100   4.445   2.780   5.634 -0.3878  0.2245  1.0277
 8895TIP3    H248101   4.350   2.882   5.693 -1.4896  1.1203 -2.1766
 8896TIP3   OH248102   0.593   1.364   0.227  0.2784 -0.1041  0.5896
 8896TIP3    H148103   0.540   1.439   0.255  1.2403 -0.1616  2.6305
 8896TIP3    H248104   0.593   1.370   0.131 -0.4099  1.9743  0.6834
 8897TIP3   OH248105   5.730   0.001   4.935  0.3567  0.7212  0.1796
 8897TIP3    H148106   5.722  -0.063   4.865 -0.0824 -0.5931  1.4140
 8897TIP3    H248107   5.813   0.046   4.918  1.4932 -1.3170  0.2270
 8898TIP3   OH248108   6.549   6.053  13.196 -0.1138 -0.3316 -0.4115
 8898TIP3    H148109   6.547   6.132  13.250 -0.1898 -1.1717  0.8349
 8898TIP3    H248110   6.602   6.077  13.120  0.6949  0.6201  0.4357
 8899TIP3   OH248111   0.156   2.226  14.683  0.4865 -0.1254  0.0186
 8899TIP3    H148112   0.186   2.146  14.726 -0.7566 -1.0251 -0.7530
 8899TIP3    H248113   0.092   2.263  14.743  0.4405 -0.1586 -0.0103
 8900TIP3   OH248114   2.571   5.199  11.212 -0.5928  0.1989 -0.4792
 8900TIP3    H148115   2.589   5.106  11.204  1.3753  0.6422 -1.3313
 8900TIP3    H248116   2.507   5.217  11.143 -1.6827 -0.6870  0.2881
 8901TIP3   OH248117   4.954   0.529  12.791  0.0803  0.3173  0.4275
 8901TIP3    H148118   4.869   0.487  12.806  0.0448  1.0141  2.3406
 8901TIP3    H248119   4.940   0.621  12.814  1.0022  0.7140 -0.5857
 8902TIP3   OH248120   0.434   0.960  11.647  0.0052 -0.5477 -0.2379
 8902TIP3    H148121   0.500   0.932  11.583 -1.7171 -0.8573 -1.9146
 8902TIP3    H248122   0.357   0.906  11.629 -1.1705  0.7267  0.7937
 8903TIP3   OH248123   5.954   3.758  15.798 -0.0304 -0.0834 -0.0037
 8903TIP3    H148124   5.928   3.813  15.724 -1.2984 -0.4452  0.1726
 8903TIP3    H248125   5.985   3.819  15.864  0.4868  0.2826 -0.5737
 8904TIP3   OH248126   2.855   3.209   3.467  0.4849 -0.0516  0.0790
 8904TIP3    H148127   2.834   3.130   3.517 -0.8025 -0.4759 -1.0948
 8904TIP3    H248128   2.907   3.178   3.393  1.9889  0.5149  0.8879
 8905TIP3   OH248129   3.868   6.652   5.922 -1.1264 -0.3098  0.3169
 8905TIP3    H148130   3.807   6.662   5.995 -0.5936  0.9707  0.5909
 8905TIP3    H248131   3.953   6.637   5.964 -0.5998  1.6494 -0.0019
 8906TIP3   OH248132   6.687   5.731  12.331 -0.0423  0.5199 -0.6019
 8906TIP3    H148133   6.603   5.695  12.303  0.9930 -0.0249 -3.2136
 8906TIP3    H248134   6.684   5.823  12.303 -0.0396  0.6697 -0.1031
 8907TIP3   OH248135   4.166   3.607   0.372  0.4822 -0.4187  0.5354
 8907TIP3    H148136   4.196   3.539   0.312 -0.5297  0.1785 -0.6799
 8907TIP3    H248137   4.244   3.634   0.420  1.5352 -0.1568 -1.2807
 8908TIP3   OH248138   0.272   2.905  11.391 -0.3076 -0.0682 -0.2369
 8908TIP3    H148139   0.177   2.913  11.397 -0.1208  0.7225  2.2474
 8908TIP3    H248140   0.302   2.994  11.371  0.1327  0.5051  2.7911
 8909TIP3   OH248141   4.099   1.908  15.027 -0.0897 -0.2484 -0.2242
 8909TIP3    H148142   4.059   1.906  15.115 -0.0328 -0.2409 -0.1989
 8909TIP3    H248143   4.050   1.976  14.981 -0.4314 -0.5782 -0.3480
 8910TIP3   OH248144   2.893   3.705   0.231 -0.2109 -0.0488  0.8550
 8910TIP3    H148145   2.820   3.762   0.256 -0.6571  0.6002 -1.8060
 8910TIP3    H248146   2.855   3.617   0.234 -1.1393  0.2851 -0.5191
 8911TIP3   OH248147   6.365   0.737  12.104  0.0421  0.2741 -0.0958
 8911TIP3    H148148   6.430   0.685  12.056  0.5639  1.2304 -0.4330
 8911TIP3    H248149   6.411   0.818  12.126 -0.7066  0.5129  0.6044
 8912TIP3   OH248150   2.838   1.685  16.481  0.3008  0.2748 -0.6373
 8912TIP3    H148151   2.845   1.608  16.424 -1.2008 -2.6018  2.9078
 8912TIP3    H248152   2.915   1.681  16.537 -0.7889  0.2020  0.8851
 8913TIP3   OH248153   3.818   5.651   0.167  0.0297 -0.0701  0.2406
 8913TIP3    H148154   3.877   5.587   0.206  0.4199  0.8151  1.1158
 8913TIP3    H248155   3.875   5.722   0.137 -0.1677 -1.0670 -2.6618
 8914TIP3   OH248156   3.570   3.846   2.030  0.2494 -0.3772  0.1869
 8914TIP3    H148157   3.509   3.914   2.058  0.1247 -0.4135  0.0036
 8914TIP3    H248158   3.636   3.843   2.099  1.8053  1.8694 -1.1440
 8915TIP3   OH248159   4.630   3.052   2.823  0.6931  0.1913  0.7217
 8915TIP3    H148160   4.620   3.147   2.819 -0.1707  0.0446 -1.2320
 8915TIP3    H248161   4.707   3.034   2.770 -1.4225 -0.4868 -2.2552
 8916TIP3   OH248162   2.215   5.000  14.209  0.2538 -0.0898 -0.8219
 8916TIP3    H148163   2.142   4.993  14.271 -0.4983 -2.6984 -1.9024
 8916TIP3    H248164   2.293   4.996  14.264 -0.3929  1.1271  0.2263
 8917TIP3   OH248165   2.319   1.409  14.862 -0.2211  0.4969 -0.2863
 8917TIP3    H148166   2.404   1.366  14.860  0.1431  1.2190 -0.7256
 8917TIP3    H248167   2.339   1.502  14.875 -0.9602  0.6129  0.0691
 8918TIP3   OH248168   0.342   2.535  14.261  0.5126 -0.8252  0.4681
 8918TIP3    H148169   0.316   2.503  14.347  0.4556 -3.2614 -0.3946
 8918TIP3    H248170   0.274   2.501  14.202 -0.0332  1.7018 -0.4104
 8919TIP3   OH248171   4.947   4.038   0.435 -0.4131  0.7794 -0.3149
 8919TIP3    H148172   5.038   4.032   0.464 -0.5638  0.0798  0.0272
 8919TIP3    H248173   4.929   4.132   0.430 -0.0695  0.9163  0.8648
 8920TIP3   OH248174   4.888   0.922   5.593 -0.3225  0.3235 -0.1371
 8920TIP3    H148175   4.851   0.968   5.668 -2.1160  0.9006 -1.3490
 8920TIP3    H248176   4.840   0.839   5.589  0.2200  0.0105 -0.2664
 8921TIP3   OH248177   4.666   0.904   4.553 -0.2917 -0.4497 -0.0639
 8921TIP3    H148178   4.611   0.862   4.486 -0.7269 -0.6468  0.4129
 8921TIP3    H248179   4.756   0.886   4.524 -0.4714 -1.3493 -0.1021
 8922TIP3   OH248180   1.497   3.361  12.310  0.0009 -0.2917  0.0903
 8922TIP3    H148181   1.578   3.319  12.281  0.2338  0.1624  0.0791
 8922TIP3    H248182   1.458   3.395  12.230 -0.1135 -0.3655  0.1156
 8923TIP3   OH248183   1.629   0.623  13.391 -0.1272  0.3738 -0.4995
 8923TIP3    H148184   1.603   0.588  13.477  0.6521 -0.4461 -0.5925
 8923TIP3    H248185   1.697   0.687  13.411  1.7274 -1.4866 -0.6455
 8924TIP3   OH248186   0.650   0.171   5.309 -0.0169 -0.0639  0.0800
 8924TIP3    H148187   0.678   0.086   5.275  1.7976  0.7334 -0.4863
 8924TIP3    H248188   0.693   0.235   5.253 -1.9412  1.2526  0.0552
 8925TIP3   OH248189   1.913   1.514   1.557 -0.1640 -0.1425  0.5197
 8925TIP3    H148190   1.980   1.503   1.625  0.7250 -0.6302 -0.4143
 8925TIP3    H248191   1.890   1.425   1.531  0.6121  0.0258 -0.8573
 8926TIP3   OH248192   4.966   3.979   1.131  0.0135  0.3035  0.4501
 8926TIP3    H148193   4.959   4.023   1.216 -2.5033  0.2167  0.3105
 8926TIP3    H248194   5.011   4.042   1.075 -0.9092  1.5250  1.0647
 8927TIP3   OH248195   1.129   5.332   0.973  0.2325  0.1560  0.2918
 8927TIP3    H148196   1.044   5.371   0.989  0.0913 -0.1263  0.2268
 8927TIP3    H248197   1.129   5.310   0.880  0.5996  0.6933  0.1594
 8928TIP3   OH248198   4.689   1.228   0.294 -0.3075 -0.0601  0.1217
 8928TIP3    H148199   4.751   1.155   0.299 -0.2964  0.0425  1.6577
 8928TIP3    H248200   4.637   1.221   0.374 -1.6453  0.4426 -0.6848
 8929TIP3   OH248201   2.649   3.442  15.335  0.2240  0.5376  0.2332
 8929TIP3    H148202   2.721   3.466  15.276  1.2417 -1.4607  0.6282
 8929TIP3    H248203   2.580   3.411  15.277  0.7971 -0.3492  0.0144
 8930TIP3   OH248204   5.055   1.713  11.593  0.3758 -0.1546 -0.0118
 8930TIP3    H148205   4.993   1.786  11.602  0.5243  0.1598 -1.4335
 8930TIP3    H248206   5.138   1.747  11.625  0.8581  0.8856 -2.2855
 8931TIP3   OH248207   6.666   4.886   4.848  0.6761  0.2960 -0.4313
 8931TIP3    H148208   6.578   4.919   4.827 -1.0104 -2.2538  2.2450
 8931TIP3    H248209   6.711   4.961   4.888 -0.5125  1.4075 -1.1303
 8932TIP3   OH248210   2.909   5.652  12.696 -0.4106 -0.4483  0.1108
 8932TIP3    H148211   2.872   5.725  12.646 -0.8948 -0.3906  0.5522
 8932TIP3    H248212   2.966   5.693  12.760  1.2610 -0.5943 -1.2641
 8933TIP3   OH248213   2.155   5.982  11.160 -0.2863 -0.3298 -0.5866
 8933TIP3    H148214   2.139   5.918  11.090 -0.4472 -1.5429  0.5451
 8933TIP3    H248215   2.080   5.972  11.219  0.9705 -0.9203  0.9428
 8934TIP3   OH248216   6.049   2.726   3.490  0.3631  0.0686  0.0389
 8934TIP3    H148217   6.077   2.813   3.518 -0.8240 -0.0515  1.6586
 8934TIP3    H248218   6.064   2.670   3.567  1.9599 -1.3501 -1.2716
 8935TIP3   OH248219   5.471   3.824   0.345  0.1601 -0.3974  0.3477
 8935TIP3    H148220   5.563   3.844   0.324  0.5297  0.3991  2.5936
 8935TIP3    H248221   5.453   3.742   0.299  1.9538 -0.4953 -0.2165
 8936TIP3   OH248222   1.473   5.189   1.131 -0.2998 -0.0456  0.4492
 8936TIP3    H148223   1.494   5.282   1.145  0.6729 -0.0048 -1.1501
 8936TIP3    H248224   1.557   5.148   1.110 -0.8223 -1.1725  0.5275
 8937TIP3   OH248225   5.706   4.222   4.508 -0.4948  0.1291 -0.0978
 8937TIP3    H148226   5.660   4.305   4.498 -0.7721  0.1488  1.2160
 8937TIP3    H248227   5.788   4.233   4.460 -1.5723  0.3189 -1.9346
 8938TIP3   OH248228   3.472   5.680  14.467 -0.0384  0.0285  0.1800
 8938TIP3    H148229   3.545   5.710  14.522 -0.7618  0.5340  0.8705
 8938TIP3    H248230   3.431   5.609  14.517  1.0272 -1.4492 -0.9843
 8939TIP3   OH248231   5.197   1.140  13.171  0.0878 -0.0988  0.6502
 8939TIP3    H148232   5.177   1.047  13.159  1.0495 -0.4288  1.4968
 8939TIP3    H248233   5.161   1.161  13.257 -1.1791  0.6197 -0.0548
 8940TIP3   OH248234   1.042   6.280   0.188  0.9021  0.3377 -0.0505
 8940TIP3    H148235   0.998   6.205   0.148  0.2640  0.7791 -0.1773
 8940TIP3    H248236   0.992   6.356   0.159  1.1511  0.7625  0.6143
 8941TIP3   OH248237   2.673   2.486  11.067 -0.6826 -0.0700 -0.2339
 8941TIP3    H148238   2.734   2.419  11.036 -1.2639 -1.1809  1.0157
 8941TIP3    H248239   2.719   2.569  11.053  1.8407 -0.9826  2.3274
 8942TIP3   OH248240   2.556   5.164   0.403 -0.6814  0.6330 -0.0608
 8942TIP3    H148241   2.465   5.187   0.420 -1.1010 -1.0100  0.0441
 8942TIP3    H248242   2.572   5.088   0.459  0.3487  0.1111 -1.0367
 8943TIP3   OH248243   4.412   2.561  16.350 -0.5608  0.5096  0.3923
 8943TIP3    H148244   4.425   2.502  16.276 -0.4213  0.0664  0.7616
 8943TIP3    H248245   4.430   2.506  16.427  0.9256  1.3918  0.6947
 8944TIP3   OH248246   5.198   3.395   5.684 -0.4214  0.7154  0.1307
 8944TIP3    H148247   5.177   3.341   5.760  0.1160  0.6542  0.2421
 8944TIP3    H248248   5.287   3.369   5.661 -1.3641 -0.8312 -1.8686
 8945TIP3   OH248249   5.040   1.213  13.396  0.0647  0.0912  0.7108
 8945TIP3    H148250   4.960   1.223  13.344  0.1727  0.3899  0.6006
 8945TIP3    H248251   5.027   1.131  13.444  0.1865 -0.4625 -0.1880
 8946TIP3   OH248252   3.935   3.413  14.709 -0.8884 -0.3270 -0.3247
 8946TIP3    H148253   3.841   3.432  14.713 -0.7748  1.4724 -3.6369
 8946TIP3    H248254   3.951   3.390  14.617  2.0100  0.0730  0.0102
 8947TIP3   OH248255   5.733   0.597   6.424  0.4567  0.2935  0.3763
 8947TIP3    H148256   5.740   0.692   6.424  1.1890  0.2467  1.1444
 8947TIP3    H248257   5.662   0.579   6.486 -0.3876  0.3819 -0.5606
 8948TIP3   OH248258   0.034   5.627  12.547  0.1504 -0.0790 -0.3106
 8948TIP3    H148259   0.002   5.661  12.464  0.7044 -0.0778 -0.5262
 8948TIP3    H248260  -0.014   5.675  12.614 -0.3269 -0.1124 -0.6353
 8949TIP3   OH248261   2.060   2.050  15.111  0.7956 -0.3571  0.5238
 8949TIP3    H148262   2.092   2.046  15.021  2.3892  0.3262  1.0506
 8949TIP3    H248263   2.138   2.038  15.165  0.0052  0.2931  1.8280
 8950TIP3   OH248264   5.838   4.484  11.964  0.5519 -0.1820 -0.1976
 8950TIP3    H148265   5.923   4.522  11.987  1.0933 -1.0082 -0.8002
 8950TIP3    H248266   5.824   4.415  12.028  1.0815 -1.0985 -1.0645
 8951TIP3   OH248267   5.967   6.397   1.786  0.4177 -0.2712 -0.5514
 8951TIP3    H148268   5.925   6.323   1.829 -0.5807  0.0289 -0.9868
 8951TIP3    H248269   6.033   6.358   1.729  1.3858 -0.7007  0.8537
 8952TIP3   OH248270   5.686   0.077  14.136 -0.7736 -0.2821 -0.4419
 8952TIP3    H148271   5.664   0.143  14.202  2.9030 -0.2925  0.9205
 8952TIP3    H248272   5.731   0.126  14.067  4.0161 -1.4599  1.6073
 8953TIP3   OH248273   2.337   0.213  16.102 -0.4684 -0.7804  0.1485
 8953TIP3    H148274   2.331   0.148  16.172  0.7395  0.7715  1.7109
 8953TIP3    H248275   2.248   0.248  16.095 -1.0776 -2.4055 -0.5532
 8954TIP3   OH248276   4.209   6.438  11.797 -0.0423 -0.0360 -0.8553
 8954TIP3    H148277   4.145   6.502  11.768 -1.7211 -1.0425  0.5872
 8954TIP3    H248278   4.294   6.477  11.775 -1.0663  2.2644 -0.7964
 8955TIP3   OH248279   0.693   0.786  12.089  0.1909 -0.1839 -0.1197
 8955TIP3    H148280   0.774   0.736  12.075  0.1045  0.2485 -2.2758
 8955TIP3    H248281   0.646   0.778  12.006 -0.2047  2.7690 -0.2170
 8956TIP3   OH248282   6.687   1.523  14.321 -0.7737  0.5935 -0.0665
 8956TIP3    H148283   6.635   1.454  14.361  0.8970 -0.1150  0.9570
 8956TIP3    H248284   6.696   1.498  14.229  1.6400 -1.7513  0.7438
 8957TIP3   OH248285   6.444   6.266  16.771  0.4866  0.5092  0.1951
 8957TIP3    H148286   6.471   6.345  16.818  0.5246  0.3120  0.5074
 8957TIP3    H248287   6.520   6.209  16.774  0.2309  0.1913  0.5536
 8958TIP3   OH248288   3.133   6.316   5.308 -0.1340 -0.4313  0.5141
 8958TIP3    H148289   3.059   6.272   5.350  0.1029 -1.6301 -0.2929
 8958TIP3    H248290   3.123   6.408   5.333 -1.9719 -0.5426  0.3203
 8959TIP3   OH248291   5.656   2.083  16.223 -0.5168 -0.1015 -0.0634
 8959TIP3    H148292   5.618   2.147  16.163 -1.1131 -0.7195 -0.3533
 8959TIP3    H248293   5.735   2.053  16.179 -0.2432  0.4183  0.0675
 8960TIP3   OH248294   2.430   1.939  11.738  0.2404  0.2800 -0.8237
 8960TIP3    H148295   2.488   1.865  11.758  0.4238 -0.3457 -3.4152
 8960TIP3    H248296   2.343   1.909  11.762  0.3583 -0.6871 -1.5572
 8961TIP3   OH248297   2.931   2.642   3.455  0.6628 -0.1230 -0.1641
 8961TIP3    H148298   3.015   2.618   3.415 -0.2747 -0.0948 -2.2023
 8961TIP3    H248299   2.877   2.670   3.381 -0.6522  1.3165  1.3167
 8962TIP3   OH248300   4.042   3.723  16.393 -0.0490  0.3828 -0.3286
 8962TIP3    H148301   4.111   3.724  16.328 -0.4547  1.4903 -0.7426
 8962TIP3    H248302   4.081   3.761  16.471 -0.3560  1.5447 -0.7379
 8963TIP3   OH248303   2.565   2.154  15.269  0.2893  0.4811 -0.0152
 8963TIP3    H148304   2.622   2.159  15.346  1.9917 -2.5314 -1.0173
 8963TIP3    H248305   2.612   2.201  15.201  0.6476 -0.2661 -0.2887
 8964TIP3   OH248306   5.378   0.495  11.753 -0.2597 -0.6936  0.3248
 8964TIP3    H148307   5.465   0.515  11.718 -0.8227  1.1771 -0.1027
 8964TIP3    H248308   5.394   0.437  11.827  1.3881 -0.1044  0.4549
 8965TIP3   OH248309   4.729   1.902   3.933 -0.5055  0.2855  0.5447
 8965TIP3    H148310   4.803   1.843   3.945 -0.5589  0.2140  0.5199
 8965TIP3    H248311   4.720   1.911   3.838 -0.2273  0.6746  0.5527
 8966TIP3   OH248312   0.456   5.489   1.861 -0.3353  0.0553 -0.0511
 8966TIP3    H148313   0.440   5.400   1.895  1.1410 -0.0342  0.4639
 8966TIP3    H248314   0.446   5.545   1.938  1.4599  0.0234  0.2250
 8967TIP3   OH248315   3.324   1.317  11.528  0.6315 -0.0143 -0.2415
 8967TIP3    H148316   3.278   1.401  11.526  0.0920 -0.2947  0.3854
 8967TIP3    H248317   3.405   1.336  11.575 -0.1502 -0.1642  1.2039
 8968TIP3   OH248318   6.445   2.632  15.529  0.5039  0.1485  0.1131
 8968TIP3    H148319   6.365   2.580  15.516  1.2370 -0.8976 -0.3381
 8968TIP3    H248320   6.455   2.681  15.447  2.6542 -3.0077 -1.6039
 8969TIP3   OH248321   4.181   5.851  12.120 -0.5289 -0.4328  0.4137
 8969TIP3    H148322   4.158   5.943  12.108  1.3281  0.3891  2.7986
 8969TIP3    H248323   4.117   5.819  12.184 -1.2086 -0.8397 -0.4573
 8970TIP3   OH248324   0.869   4.222  15.587 -0.1809  0.4112 -0.4968
 8970TIP3    H148325   0.866   4.159  15.660 -0.0755 -1.0787 -1.7426
 8970TIP3    H248326   0.850   4.306  15.627  0.6403 -0.2713  1.3884
 8971TIP3   OH248327   0.677   3.469   0.756 -0.2191  0.1425 -0.5846
 8971TIP3    H148328   0.687   3.445   0.848 -1.5450 -1.5369 -0.8476
 8971TIP3    H248329   0.645   3.559   0.758  0.2675  0.2961  0.5800
 8972TIP3   OH248330   6.509   5.025  17.088  0.0878 -0.4632 -0.5782
 8972TIP3    H148331   6.515   5.111  17.129 -0.2638 -0.5267 -0.3937
 8972TIP3    H248332   6.586   5.020  17.031 -0.0451  0.0826 -0.8042
 8973TIP3   OH248333   6.207   5.524  11.386 -0.0676  0.2225  0.1275
 8973TIP3    H148334   6.177   5.438  11.418  1.2652 -0.6520 -0.8991
 8973TIP3    H248335   6.157   5.539  11.306 -1.4168  1.1440  1.1141
 8974TIP3   OH248336   3.096   3.999  12.308  0.2001 -0.0847  0.6315
 8974TIP3    H148337   3.141   4.046  12.238  0.1168  1.3600  1.5336
 8974TIP3    H248338   3.027   3.950  12.263  1.5417 -0.9324 -0.5504
 8975TIP3   OH248339   3.223   6.041  11.883  0.3444 -0.5617 -0.1046
 8975TIP3    H148340   3.151   6.061  11.824  0.2079  0.3577  0.3562
 8975TIP3    H248341   3.233   5.946  11.879 -0.4988 -0.6255 -0.6250
 8976TIP3   OH248342   0.065   1.781  14.512 -0.1953  0.0076 -0.1307
 8976TIP3    H148343   0.064   1.744  14.424  0.0124 -0.5607  0.0990
 8976TIP3    H248344   0.143   1.743  14.553  0.2368  0.9952 -0.0067
 8977TIP3   OH248345   6.220   6.195  17.173 -0.0044  0.3085  0.2989
 8977TIP3    H148346   6.205   6.158  17.086  0.1421 -1.6490  1.0844
 8977TIP3    H248347   6.143   6.250  17.190 -0.7456 -0.4816 -0.4658
 8978TIP3   OH248348   0.299   2.747   5.512  0.3660  0.4042  1.4625
 8978TIP3    H148349   0.333   2.701   5.588 -0.7286 -0.2145  1.5873
 8978TIP3    H248350   0.250   2.681   5.464 -0.3104  1.1866  1.0711
 8979TIP3   OH248351   0.050   2.439  15.954 -0.7454  0.1277 -0.3599
 8979TIP3    H148352   0.132   2.420  15.907 -0.1405 -1.2691  1.2228
 8979TIP3    H248353   0.043   2.535  15.951  1.9825  0.4464  1.1191
 8980TIP3   OH248354   2.515   3.149  16.268 -0.0680  0.2204 -0.2616
 8980TIP3    H148355   2.498   3.210  16.196 -1.3509 -0.1402 -0.2674
 8980TIP3    H248356   2.551   3.204  16.337  1.3466  0.5485 -1.2249
 8981TIP3   OH248357   3.721   5.516  12.860  0.4398  0.4138  0.4587
 8981TIP3    H148358   3.712   5.611  12.851 -0.4329  0.1640 -1.6395
 8981TIP3    H248359   3.802   5.495  12.815  0.6979  0.1799  1.0332
 8982TIP3   OH248360   4.796   0.135   4.182 -0.1509 -0.1241 -0.2175
 8982TIP3    H148361   4.737   0.086   4.124 -1.0804  1.3635 -0.5546
 8982TIP3    H248362   4.749   0.216   4.200  0.6378 -0.0794  1.6978
 8983TIP3   OH248363   2.794   5.354   0.374 -0.4027  0.0661  0.0954
 8983TIP3    H148364   2.713   5.308   0.351 -0.8693  1.3017 -0.8146
 8983TIP3    H248365   2.859   5.320   0.313 -0.1582 -1.1216  0.9985
 8984TIP3   OH248366   0.580   3.402  13.213  0.0578  0.3249 -0.2344
 8984TIP3    H148367   0.603   3.371  13.125 -1.3326 -1.2870 -0.0465
 8984TIP3    H248368   0.498   3.358  13.233 -0.4294  1.8892  1.2652
 8985TIP3   OH248369   5.901   5.203   0.122 -0.1298  0.7107 -0.4716
 8985TIP3    H148370   5.828   5.260   0.144 -0.5963 -0.6039  1.4879
 8985TIP3    H248371   5.883   5.174   0.033 -0.4108  2.7885 -1.1166
 8986TIP3   OH248372   3.087   3.154  12.861 -0.7429  0.0566 -0.1795
 8986TIP3    H148373   3.140   3.219  12.907 -1.8901  0.8933 -0.0313
 8986TIP3    H248374   3.138   3.131  12.783 -0.9912  2.2001 -0.9939
 8987TIP3   OH248375   3.476   3.650   3.297 -0.0803 -0.2519 -0.3613
 8987TIP3    H148376   3.485   3.681   3.207  0.8567  0.6790  0.0452
 8987TIP3    H248377   3.532   3.572   3.302 -0.4530 -0.5450 -0.6851
 8988TIP3   OH248378   0.740   1.260   2.962 -0.1049  0.4491  0.3254
 8988TIP3    H148379   0.681   1.216   3.024  0.1697 -0.6955 -0.1947
 8988TIP3    H248380   0.741   1.202   2.886  0.9797  0.9204 -0.0302
 8989TIP3   OH248381   1.553   1.144  11.907  0.1017  0.0170  0.7231
 8989TIP3    H148382   1.493   1.070  11.897 -0.2308  0.0661  2.2063
 8989TIP3    H248383   1.635   1.104  11.937  0.9984 -0.1053 -1.7849
 8990TIP3   OH248384   6.032   0.072   1.446  0.1945  0.0996 -0.6047
 8990TIP3    H148385   6.013   0.153   1.399  1.1847  0.9436  0.4199
 8990TIP3    H248386   5.952   0.020   1.436  0.1273  0.5467 -2.5848
 8991TIP3   OH248387   5.100   0.341   2.937 -0.1883  0.3400 -0.3084
 8991TIP3    H148388   5.064   0.401   2.872  0.0704  0.3025 -0.4852
 8991TIP3    H248389   5.048   0.261   2.928 -1.6155  1.0758  1.0222
 8992TIP3   OH248390   5.626   3.274  13.903  0.1248 -0.2425  0.2993
 8992TIP3    H148391   5.636   3.359  13.946  1.5888  0.3482 -1.1655
 8992TIP3    H248392   5.628   3.294  13.809  1.0522 -1.9429 -0.0594
 8993TIP3   OH248393   2.107   6.283  11.923 -0.0221  0.0719 -0.5456
 8993TIP3    H148394   2.034   6.249  11.974  0.7865  0.5237  0.9652
 8993TIP3    H248395   2.159   6.206  11.900  0.5958  0.0202  0.9290
 8994TIP3   OH248396   5.945   0.985  16.173  0.4501 -0.8122  0.2497
 8994TIP3    H148397   5.982   1.037  16.245  0.6851 -0.0392 -0.4180
 8994TIP3    H248398   6.015   0.924  16.149  1.2572  0.5440 -0.9093
 8995TIP3   OH248399   5.052   4.033  15.169 -0.6718  0.2610  0.1105
 8995TIP3    H148400   5.036   4.122  15.137 -1.5965  0.4049  0.9318
 8995TIP3    H248401   4.966   4.003  15.199 -0.7448 -1.6258 -1.9136
 8996TIP3   OH248402   1.062   5.022  16.950 -0.0836 -0.1831  0.0795
 8996TIP3    H148403   1.100   4.962  17.014  1.1041 -0.1940 -0.6044
 8996TIP3    H248404   1.102   5.107  16.971 -0.6647  0.0694  0.1537
 8997TIP3   OH248405   4.162   2.755  12.655  0.0816  0.3052 -0.7206
 8997TIP3    H148406   4.257   2.757  12.663  0.0987  0.1391 -0.8914
 8997TIP3    H248407   4.133   2.690  12.720  0.1403 -0.2174 -1.2140
 8998TIP3   OH248408   5.566   0.305  16.614  0.4246  0.0230 -0.0452
 8998TIP3    H148409   5.594   0.378  16.558  0.2051 -0.0070 -0.1934
 8998TIP3    H248410   5.471   0.315  16.621  0.4832  0.1961  0.5593
 8999TIP3   OH248411   2.725   2.609   0.933  0.0313 -0.7899  0.9148
 8999TIP3    H148412   2.819   2.627   0.930  0.2411 -1.6164  2.1563
 8999TIP3    H248413   2.706   2.592   1.026 -1.3332 -0.6668  0.6765
 9000TIP3   OH248414   0.184   5.065   6.593  0.1095  0.0550  0.6022
 9000TIP3    H148415   0.227   5.132   6.540 -0.9318  1.8565  1.9726
 9000TIP3    H248416   0.228   5.068   6.678 -1.8209  1.0736  1.6178
 9001TIP3   OH248417   0.287   5.283   3.005 -0.0102 -0.2719 -0.3003
 9001TIP3    H148418   0.200   5.245   3.012  0.1757 -0.4155  1.3703
 9001TIP3    H248419   0.280   5.369   3.046  1.1337 -1.1328  1.7736
 9002TIP3   OH248420   0.313   2.748   3.978  0.1115 -0.2997 -0.1964
 9002TIP3    H148421   0.343   2.778   4.064  1.1208  0.5893 -0.8391
 9002TIP3    H248422   0.220   2.731   3.990  0.5480 -1.6774  1.4580
 9003TIP3   OH248423   3.486   2.512   1.805  0.4807  0.1292  0.2704
 9003TIP3    H148424   3.453   2.537   1.891  0.7772  0.2351  0.3557
 9003TIP3    H248425   3.408   2.488   1.754  0.4439 -1.5621  1.1001
 9004TIP3   OH248426   2.951   0.394   0.652 -0.3418  0.2494 -0.5185
 9004TIP3    H148427   2.956   0.437   0.567 -0.2020 -0.3413 -0.8118
 9004TIP3    H248428   2.869   0.425   0.690  0.1159  1.3501 -0.4080
 9005TIP3   OH248429   3.803   5.164   5.690  0.5471  0.3119  0.3412
 9005TIP3    H148430   3.828   5.209   5.610 -0.3207  1.2081  0.5633
 9005TIP3    H248431   3.756   5.086   5.659 -0.1471  0.8678 -0.0215
 9006TIP3   OH248432   0.829   2.439  15.979  0.1547 -0.2980  0.0798
 9006TIP3    H148433   0.819   2.533  15.993  0.0675 -0.3264  0.2117
 9006TIP3    H248434   0.884   2.409  16.051 -0.1235 -0.4097  0.2456
 9007TIP3   OH248435   2.909   6.323  13.303  0.3163 -0.0400 -0.5394
 9007TIP3    H148436   2.946   6.264  13.238  1.7781  0.7504 -0.4533
 9007TIP3    H248437   2.853   6.268  13.357  0.6982 -1.0986 -1.2138
 9008TIP3   OH248438   2.295   2.220   5.858 -0.4705 -0.2030  0.5310
 9008TIP3    H148439   2.347   2.257   5.787  0.1909  0.3766  1.2993
 9008TIP3    H248440   2.301   2.126   5.845  0.2303 -0.1231  0.2149
 9009TIP3   OH248441   2.118   2.887  11.678  0.0854 -0.1186 -0.5042
 9009TIP3    H148442   2.042   2.857  11.728  0.7364  0.2548  0.7404
 9009TIP3    H248443   2.116   2.835  11.598 -0.2185 -1.7083  0.5113
 9010TIP3   OH248444   4.223   3.825  14.416 -0.1026  0.4371  0.0932
 9010TIP3    H148445   4.200   3.741  14.376 -0.0941  0.6411 -0.3354
 9010TIP3    H248446   4.238   3.884  14.343  0.1219  0.7551  0.3921
 9011TIP3   OH248447   0.672   0.410  16.707 -0.1733 -0.0182 -0.5522
 9011TIP3    H148448   0.607   0.376  16.769  0.2495  0.1505 -0.0062
 9011TIP3    H248449   0.635   0.391  16.621 -0.9492  0.0909 -0.2510
 9012TIP3   OH248450   5.110   0.292   3.362 -0.1447  0.2079 -0.1365
 9012TIP3    H148451   5.132   0.349   3.436 -0.5301 -0.2712  0.3571
 9012TIP3    H248452   5.113   0.349   3.286 -0.4748  0.8850  0.3488
 9013TIP3   OH248453   0.030   1.125   6.796 -0.0521  0.9255 -0.3358
 9013TIP3    H148454   0.094   1.107   6.727  0.0048 -0.7831  0.1539
 9013TIP3    H248455  -0.052   1.090   6.762 -0.0894  0.3602  0.3388
 9014TIP3   OH248456   2.644   2.919  14.175  0.0600  0.3751  0.0391
 9014TIP3    H148457   2.578   2.849  14.181 -0.8864  1.3582  1.3487
 9014TIP3    H248458   2.593   2.999  14.161  0.9589  1.1801  1.3250
 9015TIP3   OH248459   6.416   1.050   6.083  0.1364 -0.4531 -0.0995
 9015TIP3    H148460   6.458   0.977   6.038 -0.1757 -0.5068 -0.3024
 9015TIP3    H248461   6.396   1.113   6.014  0.4242 -0.1633  0.0774
 9016TIP3   OH248462   1.453   5.763  17.003 -0.1537  0.4715 -0.3372
 9016TIP3    H148463   1.457   5.706  16.926  0.8395 -1.2249  0.9288
 9016TIP3    H248464   1.543   5.795  17.013 -0.2409  0.5427  0.1970
 9017TIP3   OH248465   6.395   4.615   4.355 -0.1256  0.4585  0.3106
 9017TIP3    H148466   6.356   4.661   4.430 -0.0089 -0.8595  1.1857
 9017TIP3    H248467   6.421   4.530   4.389 -0.5806 -0.3804 -1.3665
 9018TIP3   OH248468   2.936   2.970  14.110 -0.6147  0.3213 -0.0338
 9018TIP3    H148469   2.957   2.910  14.181  0.6838  1.5244  0.6200
 9018TIP3    H248470   2.841   2.965  14.101 -0.5666 -1.4938  0.2959
 9019TIP3   OH248471   1.551   0.256   4.204  0.3597  0.2932  0.0451
 9019TIP3    H148472   1.617   0.315   4.240 -0.0468  0.2330  0.9153
 9019TIP3    H248473   1.488   0.314   4.161  0.3495  0.4457  0.2628
 9020TIP3   OH248474   6.044   5.454  13.196 -0.1490 -0.1285 -0.5610
 9020TIP3    H148475   6.023   5.464  13.289 -0.0327 -0.9217 -0.4448
 9020TIP3    H248476   6.120   5.510  13.183 -0.1395 -0.0461 -0.1642
 9021TIP3   OH248477   0.050   4.819  13.761  0.7398 -0.1738  0.1952
 9021TIP3    H148478  -0.005   4.758  13.809  0.4397 -0.4532 -0.5045
 9021TIP3    H248479   0.083   4.769  13.687  0.3250  0.5640 -0.4999
 9022TIP3   OH248480   1.747   5.562  15.795  0.4921  0.8604  0.3049
 9022TIP3    H148481   1.679   5.513  15.749  0.8238  1.7581 -1.1799
 9022TIP3    H248482   1.823   5.504  15.797  0.2196  0.5100  0.4410
 9023TIP3   OH248483   4.080   2.589   0.264  0.3809 -0.4041  0.4827
 9023TIP3    H148484   4.119   2.644   0.196 -0.4799 -1.5165 -0.9358
 9023TIP3    H248485   4.108   2.629   0.346 -0.2554  2.1694 -0.5077
 9024TIP3   OH248486   1.135   0.525   4.655 -0.1441 -0.2889  0.2307
 9024TIP3    H148487   1.077   0.510   4.580  0.6372 -0.1406 -0.4192
 9024TIP3    H248488   1.221   0.493   4.626 -0.2363 -1.9516  1.7547
 9025TIP3   OH248489   1.239   1.685   1.908  0.4506  0.3802 -0.7305
 9025TIP3    H148490   1.275   1.704   1.821 -0.1079 -0.4678 -1.1539
 9025TIP3    H248491   1.177   1.755   1.925  1.5393  1.2792 -0.4451
 9026TIP3   OH248492   6.029   5.440   3.414 -0.0680 -0.1220 -0.1612
 9026TIP3    H148493   6.028   5.478   3.326  1.0213 -0.9966 -0.5679
 9026TIP3    H248494   6.043   5.514   3.473 -2.2060  0.6578 -0.6095
 9027TIP3   OH248495   2.017   1.128   1.148 -0.0796  0.4572 -0.0300
 9027TIP3    H148496   2.107   1.160   1.151 -0.9401  2.9981 -0.1281
 9027TIP3    H248497   1.980   1.165   1.068 -1.0213 -1.1343 -0.3562
 9028TIP3   OH248498   4.357   1.307   3.496  0.6136  0.3024  0.0496
 9028TIP3    H148499   4.324   1.281   3.410 -0.4729 -2.0943  1.1520
 9028TIP3    H248500   4.289   1.365   3.531  0.6404  0.5587 -0.3197
 9029TIP3   OH248501   2.283   4.980  11.246  0.5450 -0.3577  0.4158
 9029TIP3    H148502   2.311   5.045  11.310  0.9073 -1.1308  1.0629
 9029TIP3    H248503   2.240   4.912  11.298 -0.6660 -0.1802 -0.3524
 9030TIP3   OH248504   6.336   5.401   2.648  0.2807  0.2066  0.3809
 9030TIP3    H148505   6.424   5.377   2.678 -0.1903  0.7407  2.2653
 9030TIP3    H248506   6.319   5.486   2.689  0.3110  1.9050 -2.9385
 9031TIP3   OH248507   6.569   0.651  11.885 -0.0112 -0.2728 -0.2444
 9031TIP3    H148508   6.502   0.702  11.839 -0.9311  0.9614  2.3493
 9031TIP3    H248509   6.636   0.716  11.908  0.5983 -0.9293 -0.1512
 9032TIP3   OH248510   0.171   4.985  13.416  0.0359 -0.8790  0.1058
 9032TIP3    H148511   0.161   5.008  13.323 -0.6946  1.5510  0.7374
 9032TIP3    H248512   0.240   4.919  13.417  0.5145 -0.4603 -2.1276
 9033TIP3   OH248513   2.427   5.802   5.876  0.4410  0.4063 -0.0345
 9033TIP3    H148514   2.422   5.866   5.805  0.3461  1.9324  1.3071
 9033TIP3    H248515   2.517   5.807   5.907  0.3889  0.0079  0.1862
 9034TIP3   OH248516   0.844   2.339   5.639 -0.0551 -0.1468 -0.3003
 9034TIP3    H148517   0.929   2.368   5.606 -0.4316  1.0143 -0.2726
 9034TIP3    H248518   0.859   2.320   5.732 -0.6980  3.9325  0.7260
 9035TIP3   OH248519   6.601   4.083  14.368 -0.2054  0.3123  0.1207
 9035TIP3    H148520   6.669   4.047  14.425  1.2200  1.1794 -0.9665
 9035TIP3    H248521   6.526   4.099  14.426  0.7969  0.0756  1.5087
 9036TIP3   OH248522   5.535   1.576  12.864  0.1819  0.2292 -0.4495
 9036TIP3    H148523   5.591   1.618  12.799 -0.3171  0.4523 -0.7345
 9036TIP3    H248524   5.481   1.516  12.813 -0.0336  0.2168 -0.2036
 9037TIP3   OH248525   5.509   6.647  16.940  0.2887  0.3230  0.3634
 9037TIP3    H148526   5.603   6.660  16.939  0.2670  0.4272 -1.5656
 9037TIP3    H248527   5.472   6.731  16.914 -0.3118  0.1208  0.5398
 9038TIP3   OH248528   5.588   0.637   5.445 -0.1224 -0.0043  0.3811
 9038TIP3    H148529   5.644   0.586   5.504  0.4099 -2.8126 -2.3932
 9038TIP3    H248530   5.522   0.574   5.415 -0.9535  1.6140 -1.2235
 9039TIP3   OH248531   4.697   2.433  14.501 -0.0699 -0.4679  0.0381
 9039TIP3    H148532   4.712   2.365  14.436  0.3178 -0.1671 -0.1835
 9039TIP3    H248533   4.674   2.385  14.581  1.1514 -0.8868  0.1374
 9040TIP3   OH248534   5.812   2.924  12.795  0.2360 -0.0160  0.4699
 9040TIP3    H148535   5.830   2.961  12.882 -1.5733 -1.4980  1.5192
 9040TIP3    H248536   5.719   2.943  12.780  0.1831 -1.0330 -0.5058
 9041TIP3   OH248537   3.538   0.755  14.492 -0.0512  0.3176 -0.0952
 9041TIP3    H148538   3.601   0.807  14.541 -0.0917 -0.4955  0.8507
 9041TIP3    H248539   3.573   0.751  14.403  0.3701  1.2569  0.0282
 9042TIP3   OH248540   6.756   0.949   0.187 -0.0271  0.8775  0.1856
 9042TIP3    H148541   6.814   0.950   0.111  0.3312  2.8223  0.4661
 9042TIP3    H248542   6.790   0.876   0.241  0.4477  0.2542 -0.9412
 9043TIP3   OH248543   3.322   5.124  15.883  0.2655  0.8614 -0.2974
 9043TIP3    H148544   3.337   5.050  15.941 -0.1140  0.3669 -0.8385
 9043TIP3    H248545   3.227   5.133  15.878  0.2935  2.6251  1.3480
 9044TIP3   OH248546   4.919   6.689   2.904  0.9290 -0.0983  0.0546
 9044TIP3    H148547   4.915   6.703   2.810  0.5508 -0.0476  0.0768
 9044TIP3    H248548   4.910   6.776   2.942  1.0347 -0.1235  0.1372
 9045TIP3   OH248549   0.795   3.730   3.811  0.1637  0.0787 -0.4773
 9045TIP3    H148550   0.762   3.783   3.883  0.6109 -1.2796  0.7472
 9045TIP3    H248551   0.891   3.734   3.819  0.2162 -0.1282 -0.9464
 9046TIP3   OH248552   4.351   1.268  12.508 -0.1467  0.1954 -0.1988
 9046TIP3    H148553   4.316   1.202  12.567 -0.5192  0.4395 -0.1460
 9046TIP3    H248554   4.278   1.293  12.452  0.0305  0.4486 -0.3233
 9047TIP3   OH248555   6.186   6.422   2.860  0.2195  0.2324  0.1533
 9047TIP3    H148556   6.108   6.371   2.882  0.4204  0.0541  0.4440
 9047TIP3    H248557   6.219   6.380   2.780 -1.5447  2.0024 -1.5819
 9048TIP3   OH248558   5.837   2.637  12.853  0.4896  0.4310 -0.1861
 9048TIP3    H148559   5.830   2.731  12.838  1.9741  0.8613  1.7060
 9048TIP3    H248560   5.879   2.629  12.938 -1.8771 -1.9488  0.8253
 9049TIP3   OH248561   3.887   2.985   1.962 -0.0524  0.5096 -0.1757
 9049TIP3    H148562   3.979   3.005   1.977  0.2255 -0.6616 -0.2422
 9049TIP3    H248563   3.841   3.068   1.978  0.9317  0.9209  0.5689
 9050TIP3   OH248564   0.684   3.955  13.457  0.4220 -0.2017  0.1556
 9050TIP3    H148565   0.661   3.880  13.403 -0.4854  0.9468 -1.0773
 9050TIP3    H248566   0.779   3.961  13.450  0.4015 -0.6310 -0.5185
 9051TIP3   OH248567   0.862   6.511   5.869 -0.4491 -0.4719  0.2556
 9051TIP3    H148568   0.835   6.441   5.928 -1.6244  0.0775  0.3773
 9051TIP3    H248569   0.806   6.585   5.891  2.3036  1.2556  1.6722
 9052TIP3   OH248570   4.396   1.923  11.309 -0.2173  0.1158  0.2650
 9052TIP3    H148571   4.394   1.926  11.213 -0.4225 -1.7673  0.1826
 9052TIP3    H248572   4.307   1.944  11.336 -0.8116 -1.7903 -0.0898
 9053TIP3   OH248573   4.646   1.566  11.833  0.0959  0.3934 -0.1722
 9053TIP3    H148574   4.700   1.570  11.754 -1.1033  2.1588 -0.9369
 9053TIP3    H248575   4.556   1.567  11.801 -0.4076  1.9148  1.2214
 9054TIP3   OH248576   6.626   2.944  10.740  0.0429 -0.2105 -0.0430
 9054TIP3    H148577   6.694   2.895  10.785  1.4896  2.1324  0.3962
 9054TIP3    H248578   6.629   2.912  10.649  0.5377 -1.3321  0.3611
 9055TIP3   OH248579   6.473   4.210  14.022 -0.3186 -0.3428  0.1176
 9055TIP3    H148580   6.441   4.192  14.110  0.7155  1.3928  0.8731
 9055TIP3    H248581   6.464   4.305  14.012  1.2479 -0.2879 -0.9676
 9056TIP3   OH248582   4.850   0.178  15.219  0.1759 -0.5380  0.2359
 9056TIP3    H148583   4.803   0.215  15.294  0.1926  0.1454 -0.0804
 9056TIP3    H248584   4.863   0.253  15.160  1.3525 -0.7864  0.1615
 9057TIP3   OH248585   2.481   5.416   2.365 -0.1306  0.0615  0.5974
 9057TIP3    H148586   2.547   5.438   2.299 -0.1573 -1.0349  0.1947
 9057TIP3    H248587   2.471   5.321   2.358  0.9279 -0.2996  3.1846
 9058TIP3   OH248588   1.050   5.949  11.888  0.2513  0.5600 -0.1316
 9058TIP3    H148589   1.126   5.988  11.845 -0.1080  2.0584  0.5406
 9058TIP3    H248590   0.997   5.913  11.817  1.1773  0.2433 -0.6726
 9059TIP3   OH248591   4.562   1.848  13.439 -0.7834  0.2696  0.2056
 9059TIP3    H148592   4.504   1.787  13.393  0.2121 -0.0406 -0.6383
 9059TIP3    H248593   4.575   1.920  13.377  0.9831 -0.4004 -0.2297
 9060TIP3   OH248594   1.327   4.165   3.002  0.0748 -0.7256 -0.4808
 9060TIP3    H148595   1.250   4.181   3.057  0.5517 -0.0428 -0.0096
 9060TIP3    H248596   1.391   4.231   3.030 -0.5797  1.3222 -3.5997
 9061TIP3   OH248597   3.478   0.926   2.241 -0.0066  0.1750  0.0860
 9061TIP3    H148598   3.500   0.850   2.294 -0.2713 -1.6807 -2.3654
 9061TIP3    H248599   3.539   0.923   2.167  0.2124  2.5631  0.1182
 9062TIP3   OH248600   2.927   1.112   4.125  0.8920  0.2404 -0.4230
 9062TIP3    H148601   2.964   1.033   4.165  0.4208 -0.7559 -1.8923
 9062TIP3    H248602   2.879   1.155   4.196  3.1626  0.5091  1.0105
 9063TIP3   OH248603   6.206   0.548  14.715  0.0094  0.2607 -0.0083
 9063TIP3    H148604   6.277   0.509  14.664 -0.4612 -0.4424 -0.1384
 9063TIP3    H248605   6.196   0.636  14.679  0.2810  0.0797 -0.5333
 9064TIP3   OH248606   0.856   3.873  11.434  0.6796  0.5140  0.1652
 9064TIP3    H148607   0.821   3.952  11.393  0.5459 -0.7103 -2.1120
 9064TIP3    H248608   0.785   3.809  11.428  0.6237  0.3006  2.3855
 9065TIP3   OH248609   0.626   3.554  14.045 -0.0556 -0.0184  0.4087
 9065TIP3    H148610   0.644   3.512  13.961 -0.6678  1.1676 -0.3306
 9065TIP3    H248611   0.711   3.585  14.076  0.1457 -0.3146  0.1435
 9066TIP3   OH248612   2.274   3.296   4.126 -0.7554  0.1009 -0.0727
 9066TIP3    H148613   2.278   3.275   4.032 -0.0567 -0.1343  0.0118
 9066TIP3    H248614   2.203   3.242   4.159 -1.3604  0.5730 -0.5696
 9067TIP3   OH248615   1.238   0.789  12.312 -0.4300 -0.2089 -0.4510
 9067TIP3    H148616   1.196   0.718  12.360  0.1415  0.2831  0.7943
 9067TIP3    H248617   1.167   0.832  12.265 -1.0004 -0.6806 -0.0167
 9068TIP3   OH248618   3.653   3.207   4.423  0.0272 -0.0583 -0.2383
 9068TIP3    H148619   3.700   3.150   4.362 -2.6291 -2.6782  0.0220
 9068TIP3    H248620   3.645   3.154   4.503 -2.0046  0.8933  0.2159
 9069TIP3   OH248621   5.548   5.284  15.407 -0.3048  0.2701  0.1384
 9069TIP3    H148622   5.575   5.376  15.413  0.3419  0.1000 -0.2000
 9069TIP3    H248623   5.533   5.270  15.313  0.4525 -0.2229  0.0937
 9070TIP3   OH248624   0.578   5.585   2.254 -0.3584  0.2246  0.6672
 9070TIP3    H148625   0.653   5.529   2.235 -1.3452 -1.0979  0.6046
 9070TIP3    H248626   0.521   5.531   2.309 -0.9913  1.4279  1.2147
 9071TIP3   OH248627   5.403   6.147   1.592  0.9197 -0.7809 -0.0320
 9071TIP3    H148628   5.491   6.175   1.566  0.9818 -1.0875 -0.1523
 9071TIP3    H248629   5.410   6.128   1.686  0.9103 -0.5325  0.0209
 9072TIP3   OH248630   6.682   1.779   3.609 -0.1861  0.2026 -0.2224
 9072TIP3    H148631   6.658   1.872   3.612 -1.3554 -0.0461 -1.5913
 9072TIP3    H248632   6.755   1.776   3.547 -0.9514  0.0430 -1.1221
 9073TIP3   OH248633   4.824   1.892  13.075  0.0139  1.0931 -0.4478
 9073TIP3    H148634   4.867   1.951  13.013  0.3135 -0.7899 -2.0740
 9073TIP3    H248635   4.895   1.859  13.130  0.5769 -1.1800 -2.4410
 9074TIP3   OH248636   0.206   2.474  11.931  0.0196 -0.2131 -0.1316
 9074TIP3    H148637   0.116   2.483  11.963  1.1857  2.0046  2.7975
 9074TIP3    H248638   0.246   2.409  11.990  0.7885  0.0729 -0.3335
 9075TIP3   OH248639   1.528   0.514   1.754 -0.4795 -0.4018  0.3231
 9075TIP3    H148640   1.437   0.507   1.726  0.2561 -1.5236 -1.9199
 9075TIP3    H248641   1.547   0.608   1.751 -1.5391 -0.1628  0.7797
 9076TIP3   OH248642   5.724   5.426  15.705 -0.6148 -0.4714  0.4155
 9076TIP3    H148643   5.723   5.383  15.791 -0.5786  0.1077  0.7072
 9076TIP3    H248644   5.717   5.354  15.643 -0.4276 -0.9148  0.8983
 9077TIP3   OH248645   1.054   5.254   5.436 -0.4367  0.0331  0.1247
 9077TIP3    H148646   0.981   5.306   5.404 -1.4535 -0.9389  0.8312
 9077TIP3    H248647   1.024   5.163   5.429  1.1940 -0.4471 -0.7997
 9078TIP3   OH248648   6.327   0.112  16.835 -0.0812  0.0062  0.5616
 9078TIP3    H148649   6.301   0.022  16.816  1.2702 -0.0196 -1.2921
 9078TIP3    H248650   6.250   0.164  16.813 -0.2099 -0.5160 -0.2399
 9079TIP3   OH248651   2.749   3.650  16.930 -0.1893 -0.0294 -0.1987
 9079TIP3    H148652   2.793   3.634  16.846  1.7045  0.8079  0.6016
 9079TIP3    H248653   2.680   3.584  16.934  1.5032 -1.9128 -1.1476
 9080TIP3   OH248654   2.104   6.507   3.051 -0.0582 -0.2873  0.3547
 9080TIP3    H148655   2.051   6.441   3.007  1.4541 -0.8512 -0.6824
 9080TIP3    H248656   2.053   6.532   3.128 -1.7829 -0.8291 -0.6014
 9081TIP3   OH248657   4.261   1.081   0.256 -0.7974  0.0910  0.0090
 9081TIP3    H148658   4.334   1.129   0.215 -1.3083  1.8786  1.1328
 9081TIP3    H248659   4.244   1.008   0.196  4.2571 -2.5316  1.4271
 9082TIP3   OH248660   5.710   5.459   0.634  0.2342 -0.0644  0.4608
 9082TIP3    H148661   5.723   5.442   0.727  1.5309  0.6583  0.4296
 9082TIP3    H248662   5.615   5.469   0.624  0.1814  1.0446  1.9118
 9083TIP3   OH248663   4.221   2.524  14.084  0.0401  0.2072 -0.2557
 9083TIP3    H148664   4.129   2.506  14.102 -0.0044 -0.6298 -1.3445
 9083TIP3    H248665   4.230   2.619  14.097 -1.5257  0.7017 -2.5486
 9084TIP3   OH248666   2.574   3.864  12.651 -0.3824 -0.3121  0.2563
 9084TIP3    H148667   2.515   3.912  12.710 -2.5395 -0.1883 -1.9403
 9084TIP3    H248668   2.596   3.928  12.583 -0.1038 -1.2583 -0.5442
 9085TIP3   OH248669   2.508   3.619   6.054  0.3434  0.2074 -0.0018
 9085TIP3    H148670   2.587   3.621   6.107 -0.1876  1.6596  0.7575
 9085TIP3    H248671   2.457   3.695   6.083 -1.7554 -1.2330  0.1730
 9086TIP3   OH248672   3.684   0.666  15.636 -0.4011  0.2793 -0.5612
 9086TIP3    H148673   3.689   0.594  15.698  0.5726  0.1201 -0.8108
 9086TIP3    H248674   3.591   0.691  15.634 -0.3557  0.6268  1.3221
 9087TIP3   OH248675   2.283   5.920   0.755  0.1922  0.2266  0.4676
 9087TIP3    H148676   2.213   5.973   0.794 -0.1305 -0.8213  1.3260
 9087TIP3    H248677   2.347   5.909   0.825  0.3053 -0.4430  0.2587
 9088TIP3   OH248678   2.210   5.891  12.756  0.1110  0.1526  0.3586
 9088TIP3    H148679   2.204   5.956  12.687 -0.4810 -0.1204  0.1467
 9088TIP3    H248680   2.135   5.910  12.813  0.1247 -0.1406  0.4750
 9089TIP3   OH248681   5.761   5.903  15.215  0.0437  0.2392 -0.3084
 9089TIP3    H148682   5.819   5.979  15.224  1.8030 -1.1016 -0.0182
 9089TIP3    H248683   5.799   5.852  15.143 -0.3050 -1.0758  0.4201
 9090TIP3   OH248684   1.188   5.258   1.727  0.9252 -0.0216  0.5311
 9090TIP3    H148685   1.130   5.196   1.682 -0.4190  0.6916  1.2274
 9090TIP3    H248686   1.272   5.250   1.682  0.4583 -1.5276 -0.1095
 9091TIP3   OH248687   6.523   5.714   4.912  0.0926  0.5140  0.1372
 9091TIP3    H148688   6.484   5.626   4.909  0.7719  0.0885  2.4065
 9091TIP3    H248689   6.604   5.706   4.861 -0.6341  0.2527 -0.9833
 9092TIP3   OH248690   5.907   4.486   4.646 -0.3019  0.0118 -0.2715
 9092TIP3    H148691   5.899   4.522   4.734  0.3115 -1.9807  0.6491
 9092TIP3    H248692   5.843   4.415   4.643  0.5255 -0.7191 -1.0038
 9093TIP3   OH248693   2.627   3.570   0.565 -0.2820 -1.0167  0.3319
 9093TIP3    H148694   2.606   3.645   0.620  1.5874 -0.8111  0.7860
 9093TIP3    H248695   2.689   3.518   0.616  2.3826 -0.2280 -1.9821
 9094TIP3   OH248696   6.739   5.599   2.729 -0.3817 -0.0519 -0.0708
 9094TIP3    H148697   6.793   5.562   2.659  0.6257 -0.1651  0.7583
 9094TIP3    H248698   6.671   5.648   2.683  0.4252  0.0931 -1.1253
 9095TIP3   OH248699   3.476   3.811  16.485 -0.2673 -0.0548 -0.4017
 9095TIP3    H148700   3.478   3.829  16.579  0.2105 -0.8104 -0.2535
 9095TIP3    H248701   3.387   3.781  16.468 -0.3226 -0.0301 -0.1617
 9096TIP3   OH248702   2.950   3.512  12.354 -0.0570 -0.0536  0.1886
 9096TIP3    H148703   2.948   3.602  12.387 -0.1251  0.0366 -0.0535
 9096TIP3    H248704   2.913   3.519  12.265  0.5336 -0.2209 -0.0722
 9097TIP3   OH248705   1.286   2.077  11.830 -0.4461  0.4154  0.2323
 9097TIP3    H148706   1.321   2.058  11.743  0.6997  0.5890  0.6499
 9097TIP3    H248707   1.356   2.050  11.890 -1.4213 -0.1650  1.1249
 9098TIP3   OH248708   2.586   4.458  15.379 -0.1802 -0.3659  0.4763
 9098TIP3    H148709   2.643   4.411  15.319  0.4077 -0.1507  0.8661
 9098TIP3    H248710   2.509   4.401  15.389 -0.2861 -0.3998 -0.4766
 9099TIP3   OH248711   1.577   3.419   2.513 -0.2092 -0.2577 -0.3608
 9099TIP3    H148712   1.542   3.403   2.601  1.8157  0.3264  0.6086
 9099TIP3    H248713   1.509   3.389   2.453 -1.4639 -1.0410  1.4174
 9100TIP3   OH248714   4.709   4.043   6.072  0.1802 -0.2853  0.0338
 9100TIP3    H148715   4.639   4.092   6.116  0.5442  0.4562 -0.2076
 9100TIP3    H248716   4.736   3.977   6.136 -0.0286  0.0932  0.5119
 9101TIP3   OH248717   1.494   4.839  13.921 -0.4049 -0.0274  0.2642
 9101TIP3    H148718   1.541   4.921  13.936 -2.4090  1.2539 -0.3159
 9101TIP3    H248719   1.551   4.789  13.862  1.6205  0.1994  1.9710
 9102TIP3   OH248720   3.663   2.234   4.425 -0.2419 -0.2826  0.0315
 9102TIP3    H148721   3.647   2.205   4.335  1.0838  0.0967 -0.3312
 9102TIP3    H248722   3.709   2.317   4.415 -0.9929  0.2680  1.0679
 9103TIP3   OH248723   4.590   5.213   3.759 -0.3684  0.2613 -0.1218
 9103TIP3    H148724   4.556   5.281   3.701 -1.1663 -1.1747 -1.3787
 9103TIP3    H248725   4.660   5.172   3.709  1.5020  1.4639  1.4326
 9104TIP3   OH248726   3.121   1.982  11.645 -0.2588 -0.5490  0.1781
 9104TIP3    H148727   3.095   1.975  11.737 -0.0976 -0.5953  0.2197
 9104TIP3    H248728   3.119   1.892  11.612 -2.6513 -0.2850 -0.5161
 9105TIP3   OH248729   1.908   4.550   4.668 -0.1003 -0.3783  0.3048
 9105TIP3    H148730   1.886   4.506   4.750  0.8539 -0.9770  0.2422
 9105TIP3    H248731   1.912   4.643   4.692  2.0865 -0.7040  1.3962
 9106TIP3   OH248732   1.408   5.889  12.652 -0.4921 -1.2450 -0.3350
 9106TIP3    H148733   1.426   5.832  12.577 -0.9507 -0.6685 -0.8839
 9106TIP3    H248734   1.390   5.975  12.613  1.9872 -0.2589  0.5591
 9107TIP3   OH248735   4.600   0.329   4.117  0.1059  0.1755  0.0174
 9107TIP3    H148736   4.579   0.400   4.056  2.1649 -0.0738 -1.0325
 9107TIP3    H248737   4.587   0.249   4.066  0.5420 -0.0820  0.3075
 9108TIP3   OH248738   0.234   4.253   0.716 -0.4293 -0.1853 -0.1712
 9108TIP3    H148739   0.278   4.295   0.789  1.8350  0.7211 -1.9964
 9108TIP3    H248740   0.150   4.299   0.708 -0.1621  0.5249  1.0677
 9109TIP3   OH248741   2.633   3.515  14.952 -0.0432 -0.1047  0.1948
 9109TIP3    H148742   2.706   3.491  15.009 -0.5740  3.1048  2.3776
 9109TIP3    H248743   2.555   3.507  15.007 -0.8228  0.8622 -0.7363
 9110TIP3   OH248744   0.470   4.170   5.088  0.0269 -0.4827  0.0965
 9110TIP3    H148745   0.478   4.262   5.113 -1.9271 -0.2499 -0.0154
 9110TIP3    H248746   0.389   4.141   5.132  0.5437 -2.0990  0.0076
 9111TIP3   OH248747   1.357   0.474  11.610  0.6783 -0.3410 -0.0809
 9111TIP3    H148748   1.381   0.566  11.600  1.1271 -0.6021 -1.6304
 9111TIP3    H248749   1.288   0.460  11.545 -1.6153 -0.3606  2.2518
 9112TIP3   OH248750   5.419   0.113   3.228  0.3870 -0.3481  0.4456
 9112TIP3    H148751   5.445   0.117   3.320 -0.6963 -1.2047  0.7903
 9112TIP3    H248752   5.331   0.150   3.226 -0.4907 -2.4079  0.1075
 9113TIP3   OH248753   1.566   5.719  12.324 -0.6380  0.2522  0.4403
 9113TIP3    H148754   1.571   5.675  12.409 -1.1647 -1.2199 -0.2751
 9113TIP3    H248755   1.485   5.686  12.284  1.3477 -1.8016 -2.0970
 9114TIP3   OH248756   4.891   3.239  15.561 -0.0531  0.1155 -0.1820
 9114TIP3    H148757   4.813   3.208  15.606  0.4994 -0.4266  0.4106
 9114TIP3    H248758   4.932   3.301  15.622 -1.0604  1.9296 -1.2790
 9115TIP3   OH248759   1.693   4.186   2.884 -0.2449 -0.0901  0.1615
 9115TIP3    H148760   1.772   4.159   2.932  0.8175  0.4985 -1.2029
 9115TIP3    H248761   1.643   4.106   2.873 -0.9656 -0.0864  3.0288
 9116TIP3   OH248762   5.749   0.941  15.836 -1.0263  0.2326 -0.5487
 9116TIP3    H148763   5.781   0.860  15.876  2.2103  0.6818 -2.0328
 9116TIP3    H248764   5.729   0.998  15.910  1.4109 -0.2198  0.5112
 9117TIP3   OH248765   0.717   0.001   4.872  0.1689 -0.8029 -0.4730
 9117TIP3    H148766   0.687  -0.051   4.797  0.2604 -2.5545  0.6762
 9117TIP3    H248767   0.642   0.056   4.894 -0.3741 -1.3477 -0.9250
 9118TIP3   OH248768   4.318   4.030   6.481  1.0478  0.1870 -0.3374
 9118TIP3    H148769   4.278   3.984   6.555  0.4251 -2.5062 -2.3002
 9118TIP3    H248770   4.255   4.098   6.459  0.3011 -0.2804  0.3144
 9119TIP3   OH248771   1.887   2.734   5.345 -0.4320 -0.0252  0.0535
 9119TIP3    H148772   1.912   2.642   5.343  0.1596  0.1160  0.8453
 9119TIP3    H248773   1.917   2.769   5.261 -0.3768 -0.4752 -0.1145
 9120TIP3   OH248774   0.748   2.363  14.570 -0.4416 -0.2093 -0.5578
 9120TIP3    H148775   0.780   2.392  14.484 -1.2554  1.5752 -0.2795
 9120TIP3    H248776   0.755   2.441  14.626 -1.2306 -0.9760  0.6249
 9121TIP3   OH248777   2.671   1.942  11.987 -0.1310  0.2629  0.3860
 9121TIP3    H148778   2.639   1.877  11.925  0.9890 -0.5535  0.6633
 9121TIP3    H248779   2.600   1.951  12.050 -0.4802 -0.3337  0.0830
 9122TIP3   OH248780   4.152   0.683  13.629 -0.1184 -0.2958  0.2578
 9122TIP3    H148781   4.058   0.692  13.642  0.0936  0.8026  1.1204
 9122TIP3    H248782   4.170   0.729  13.547 -0.1784  0.5177  0.6911
 9123TIP3   OH248783   2.651   0.709  16.977 -0.0185  0.0115 -0.0566
 9123TIP3    H148784   2.651   0.699  17.073 -0.2064  1.3918  0.1068
 9123TIP3    H248785   2.567   0.672  16.950  0.5304 -1.4345  0.1808
 9124TIP3   OH248786   5.329   3.980   3.271  0.1969  0.1625  0.3044
 9124TIP3    H148787   5.264   4.038   3.231  0.0087 -0.4652 -0.2988
 9124TIP3    H248788   5.295   3.965   3.360  0.5687  1.4712  0.6878
 9125TIP3   OH248789   3.945   1.632   1.283 -0.4473  0.0860  0.5917
 9125TIP3    H148790   3.912   1.714   1.246  0.5825  0.6749  0.9680
 9125TIP3    H248791   4.040   1.642   1.285 -0.3756 -0.6754  1.6781
 9126TIP3   OH248792   2.768   5.696   1.116  0.1157 -0.1085  0.4216
 9126TIP3    H148793   2.747   5.710   1.023 -1.9278 -0.2050  0.8590
 9126TIP3    H248794   2.710   5.625   1.143  1.9056 -1.2461  1.3574
 9127TIP3   OH248795   6.685   1.089  12.198  0.0647 -0.2097 -0.6957
 9127TIP3    H148796   6.687   1.173  12.243 -0.0848 -0.3959 -0.3417
 9127TIP3    H248797   6.740   1.102  12.120  1.5399 -0.3262  0.3054
 9128TIP3   OH248798   6.271   0.364  11.513  0.0068 -0.0260  0.2987
 9128TIP3    H148799   6.304   0.394  11.597 -1.1015  0.0185  0.7346
 9128TIP3    H248800   6.213   0.434  11.483 -0.2688 -0.4131 -0.0924
 9129TIP3   OH248801   6.559   3.797   1.642  0.1188 -0.4734  0.2956
 9129TIP3    H148802   6.517   3.816   1.726  0.2374 -0.6783  0.4016
 9129TIP3    H248803   6.558   3.702   1.635  2.2099 -0.5870  1.1409
 9130TIP3   OH248804   6.615   1.626   2.124 -0.1611 -0.0803  0.3674
 9130TIP3    H148805   6.704   1.638   2.156 -0.5193  0.6420  1.1042
 9130TIP3    H248806   6.563   1.610   2.203 -0.7389 -0.1579 -0.0274
 9131TIP3   OH248807   4.477   1.251  14.546 -0.4909  0.7604  0.1834
 9131TIP3    H148808   4.458   1.164  14.581 -1.5778  2.2935  3.5754
 9131TIP3    H248809   4.561   1.240  14.500 -0.2438 -1.8952  1.1561
 9132TIP3   OH248810   3.887   6.051   5.855 -0.1051  0.0705  0.0072
 9132TIP3    H148811   3.811   6.108   5.860 -1.9775 -2.4567  1.6207
 9132TIP3    H248812   3.940   6.075   5.931 -0.5152  0.1501  0.2697
 9133TIP3   OH248813   0.585   5.228  15.991  0.4146 -0.1686  0.1103
 9133TIP3    H148814   0.590   5.148  15.938 -1.5110 -0.1600 -0.1446
 9133TIP3    H248815   0.492   5.233  16.016  0.1509  2.9083 -1.3320
 9134TIP3   OH248816   5.874   6.450  16.785  0.4573 -0.7491  0.4376
 9134TIP3    H148817   5.893   6.389  16.713 -1.5467 -1.0502  0.1441
 9134TIP3    H248818   5.816   6.400  16.843 -0.2445  0.4740  0.7911
 9135TIP3   OH248819   0.168   3.505   4.325 -0.6117 -0.0214  0.2071
 9135TIP3    H148820   0.148   3.599   4.316  0.6002  0.4750  2.4790
 9135TIP3    H248821   0.253   3.495   4.281 -0.8032 -0.0771 -0.1498
 9136TIP3   OH248822   3.873   0.640  16.946 -0.1397 -0.0861 -0.2581
 9136TIP3    H148823   3.890   0.727  16.981  0.5976 -0.3179 -0.0291
 9136TIP3    H248824   3.786   0.646  16.908 -0.4379  0.5171  0.5142
 9137TIP3   OH248825   6.346   0.301  12.084  0.3944  0.0758 -0.4907
 9137TIP3    H148826   6.323   0.274  11.995 -0.9391 -1.4807  0.3034
 9137TIP3    H248827   6.284   0.371  12.105  0.5903  0.3173 -0.7111
 9138TIP3   OH248828   2.443   0.979  16.006 -1.0554 -0.5889 -0.2639
 9138TIP3    H148829   2.536   0.961  16.021 -0.4617  1.2086 -1.5735
 9138TIP3    H248830   2.404   0.978  16.093  0.7935  1.7608  0.6379
 9139TIP3   OH248831   3.588   5.949  17.193 -0.6037  0.3117  0.3619
 9139TIP3    H148832   3.561   6.038  17.216 -0.1812  0.2429  1.1432
 9139TIP3    H248833   3.571   5.942  17.099  0.2962  1.5539  0.0930
 9140TIP3   OH248834   2.662   5.848  12.705 -0.5758  0.1273  0.0011
 9140TIP3    H148835   2.693   5.824  12.793 -1.1294 -0.5347  0.0244
 9140TIP3    H248836   2.633   5.765  12.667  1.3220  0.1198 -1.4869
 9141TIP3   OH248837   3.919   2.012  13.628 -0.2738  0.1531 -0.2087
 9141TIP3    H148838   3.826   2.002  13.610 -0.2384 -0.1167 -0.2372
 9141TIP3    H248839   3.943   2.095  13.586 -0.2803 -0.2685 -1.0407
 9142TIP3   OH248840   6.086   4.361  10.949  0.0874  0.1626  0.4015
 9142TIP3    H148841   6.050   4.388  10.865 -1.4109  0.9930  1.2907
 9142TIP3    H248842   6.051   4.273  10.963  0.4120 -0.0124  0.1145
 9143TIP3   OH248843   1.356   0.286  12.341 -0.0490 -0.1875 -0.2160
 9143TIP3    H148844   1.408   0.216  12.302  2.1140  0.6276  1.0806
 9143TIP3    H248845   1.326   0.251  12.425 -1.9291 -0.7865 -1.1311
 9144TIP3   OH248846   6.669   6.002  13.831  0.0438  0.2535 -0.1418
 9144TIP3    H148847   6.574   6.014  13.844  0.2673  1.9510  0.0563
 9144TIP3    H248848   6.687   5.915  13.867 -1.4251 -0.0428 -0.0709
 9145TIP3   OH248849   0.315   2.676   4.406  0.4597 -0.2359  0.2717
 9145TIP3    H148850   0.285   2.674   4.315 -0.9526  2.0214  0.6640
 9145TIP3    H248851   0.247   2.628   4.454  0.2127  0.2400  0.4006
 9146TIP3   OH248852   3.798   5.258  17.032 -0.0868 -0.5611  0.1456
 9146TIP3    H148853   3.771   5.295  17.116  1.6276  0.8221  0.1224
 9146TIP3    H248854   3.888   5.288  17.020  0.3397 -2.2898 -1.3168
 9147TIP3   OH248855   5.410   0.279  12.227 -0.4405  0.5658 -0.1547
 9147TIP3    H148856   5.353   0.203  12.216 -1.2898  1.3140 -1.0534
 9147TIP3    H248857   5.404   0.301  12.320 -0.8742  0.0698 -0.0657
 9148TIP3   OH248858   3.476   4.068  17.152  0.0802 -0.1201 -0.2580
 9148TIP3    H148859   3.500   4.060  17.244 -0.5725 -0.6062 -0.1226
 9148TIP3    H248860   3.495   3.983  17.113  0.6526  0.1819 -0.6431
 9149TIP3   OH248861   2.231   6.176   1.849 -0.1870 -0.1848  0.0788
 9149TIP3    H148862   2.242   6.102   1.789 -0.7006  0.2578 -0.5652
 9149TIP3    H248863   2.243   6.138   1.936  0.2309 -0.8942 -0.2855
 9150TIP3   OH248864   1.374   3.573   2.854  0.1316 -0.6770  0.4357
 9150TIP3    H148865   1.437   3.645   2.852  0.4399 -0.9727 -0.6340
 9150TIP3    H248866   1.346   3.568   2.945 -0.2477  1.1084  0.4207
 9151TIP3   OH248867   0.719   1.571  13.890 -0.1100 -0.1254 -0.6281
 9151TIP3    H148868   0.684   1.615  13.812 -1.8696 -0.7426 -0.2100
 9151TIP3    H248869   0.780   1.634  13.928 -0.3235  0.7476 -1.7047
 9152TIP3   OH248870   0.566   4.575  13.540 -0.4694 -0.3704  0.0980
 9152TIP3    H148871   0.516   4.513  13.487 -0.2053  0.0250 -0.6146
 9152TIP3    H248872   0.651   4.581  13.496 -0.1594 -0.2341  0.7078
 9153TIP3   OH248873   0.423   0.002   3.067 -0.0690 -0.2001  0.6503
 9153TIP3    H148874   0.354   0.042   3.120  0.0246 -0.1476  0.7332
 9153TIP3    H248875   0.492  -0.019   3.130  0.3024  0.4310  0.4599
 9154TIP3   OH248876   4.256   0.034  17.076 -0.0506  0.1400 -0.3566
 9154TIP3    H148877   4.339   0.002  17.109  0.9921 -0.6829 -3.5960
 9154TIP3    H248878   4.190  -0.009  17.131  1.5141 -2.8704 -0.7227
 9155TIP3   OH248879   0.165   5.306  13.845 -0.1009 -0.2050 -0.6170
 9155TIP3    H148880   0.190   5.266  13.762 -1.8798  0.4423 -1.5041
 9155TIP3    H248881   0.151   5.233  13.905  0.0975 -0.7324 -1.2171
 9156TIP3   OH248882   5.691   3.135   2.226  0.0401 -0.1506 -0.5791
 9156TIP3    H148883   5.650   3.075   2.288  0.5757 -0.3780 -0.4396
 9156TIP3    H248884   5.619   3.190   2.194 -0.2725 -0.1769  0.0790
 9157TIP3   OH248885   1.293   4.374   0.889  0.5829  0.6093 -0.1211
 9157TIP3    H148886   1.380   4.412   0.882  0.5200  1.2670  2.1884
 9157TIP3    H248887   1.234   4.443   0.859  0.8285  0.2487 -1.4559
 9158TIP3   OH248888   2.983   2.199  15.111 -0.3520 -0.3517 -0.1396
 9158TIP3    H148889   3.062   2.229  15.155 -0.2116 -0.4161 -0.3508
 9158TIP3    H248890   3.007   2.116  15.071 -0.1192  0.2945 -1.3744
 9159TIP3   OH248891   6.167   4.988   2.275  0.0021  0.4786 -0.0419
 9159TIP3    H148892   6.245   4.942   2.308 -0.5287 -1.0489 -0.8816
 9159TIP3    H248893   6.185   5.081   2.293  0.8932 -0.0718  2.1000
 9160TIP3   OH248894   2.353   1.395   6.284  0.2735 -0.1260  0.0236
 9160TIP3    H148895   2.419   1.327   6.294  0.8520  0.3471 -0.4963
 9160TIP3    H248896   2.400   1.477   6.300 -0.2826  0.1900  0.0735
 9161TIP3   OH248897   4.708   3.521  13.113  0.1739  0.0854  0.0304
 9161TIP3    H148898   4.773   3.451  13.127 -0.1765 -0.1469  0.5264
 9161TIP3    H248899   4.670   3.501  13.027  0.1924 -0.2462  0.0953
 9162TIP3   OH248900   3.195   3.358  15.426 -0.9747  0.2688  0.3674
 9162TIP3    H148901   3.149   3.361  15.342  0.6171 -0.5775 -0.5550
 9162TIP3    H248902   3.286   3.378  15.405 -0.2481 -1.5795  1.6234
 9163TIP3   OH248903   0.124   4.067  12.888 -0.4089 -0.4621  0.7069
 9163TIP3    H148904   0.193   4.078  12.823 -1.0337  3.1100  0.5530
 9163TIP3    H248905   0.044   4.091  12.842 -1.6577 -3.3872  1.2391
 9164TIP3   OH248906   4.792   1.960   3.323  0.0090 -0.8784  0.5003
 9164TIP3    H148907   4.883   1.935   3.311  0.2157 -0.2849  0.7930
 9164TIP3    H248908   4.795   2.054   3.345 -0.7176 -0.6738 -0.2457
 9165TIP3   OH248909   6.657   4.888   3.624  0.2433  0.4053 -0.0519
 9165TIP3    H148910   6.687   4.858   3.710 -1.9411 -0.0827  0.5821
 9165TIP3    H248911   6.575   4.840   3.610 -0.5460  2.1172 -1.4169
 9166TIP3   OH248912   1.784   2.543  14.751 -0.1003  0.1612 -0.4662
 9166TIP3    H148913   1.700   2.588  14.765  0.8025  2.0479 -0.9975
 9166TIP3    H248914   1.812   2.572  14.664  1.0741 -0.5193 -0.3113
 9167TIP3   OH248915   2.799   6.666  11.892  0.4329 -0.0692 -0.1018
 9167TIP3    H148916   2.892   6.684  11.875 -0.0450  0.8919 -1.8949
 9167TIP3    H248917   2.755   6.751  11.878 -0.8872 -0.8476 -0.7961
 9168TIP3   OH248918   0.737   4.631   0.473 -0.0389 -0.0876 -0.0637
 9168TIP3    H148919   0.755   4.591   0.559  0.0838  0.3587  0.1195
 9168TIP3    H248920   0.711   4.558   0.418  1.3833 -0.6035 -0.0716
 9169TIP3   OH248921   3.932   6.092   1.654 -0.1887 -0.6068  0.3239
 9169TIP3    H148922   3.994   6.050   1.714 -0.3686  1.3983  2.0171
 9169TIP3    H248923   3.861   6.029   1.644 -0.0453 -1.0855  2.1017
 9170TIP3   OH248924   1.284   6.786   5.374 -0.2439  0.1498  0.1769
 9170TIP3    H148925   1.262   6.693   5.369 -0.5144  0.0180  2.9306
 9170TIP3    H248926   1.207   6.827   5.414  1.6283  0.8040  3.2995
 9171TIP3   OH248927   0.935   6.152   1.323  0.0568  0.0590 -0.0602
 9171TIP3    H148928   0.967   6.160   1.233  1.3224 -0.5833  0.3113
 9171TIP3    H248929   0.956   6.236   1.363 -1.5578  0.7773 -0.6628
 9172TIP3   OH248930   0.152   6.226   0.036 -0.7556  0.3744  0.1522
 9172TIP3    H148931   0.170   6.219   0.130 -0.2346 -0.2022  0.0082
 9172TIP3    H248932   0.237   6.216  -0.006 -1.0055  0.5045 -0.3938
 9173TIP3   OH248933   1.513   6.471   1.842  0.2419  0.4187 -0.3841
 9173TIP3    H148934   1.466   6.515   1.913  0.7018  1.6842 -0.8617
 9173TIP3    H248935   1.590   6.525   1.827  0.6125 -0.3417 -1.2412
 9174TIP3   OH248936   3.278   6.324  15.117 -0.6855  0.2589  0.4340
 9174TIP3    H148937   3.364   6.314  15.158 -0.1665  0.7919 -0.5295
 9174TIP3    H248938   3.232   6.385  15.174 -0.3782  0.0900  0.8686
 9175TIP3   OH248939   5.322   6.229  11.554 -1.0002 -0.5224 -0.1793
 9175TIP3    H148940   5.286   6.270  11.475 -1.2074 -0.5003 -0.0744
 9175TIP3    H248941   5.414   6.213  11.534 -0.8236  0.3539 -0.0738
 9176TIP3   OH248942   2.388   2.979   1.263 -0.5694 -0.0882 -0.1064
 9176TIP3    H148943   2.416   2.921   1.193 -1.4242 -1.2945  0.5247
 9176TIP3    H248944   2.364   2.920   1.335  0.6141  1.1138  1.3389
 9177TIP3   OH248945   1.989   5.345  12.192  0.0933 -0.3932  0.1869
 9177TIP3    H148946   1.943   5.266  12.162  0.2627 -0.7081  0.7561
 9177TIP3    H248947   2.018   5.387  12.111 -0.8306 -0.4105 -0.1629
 9178TIP3   OH248948   4.142   2.048   5.547  0.5968 -0.1867 -0.1741
 9178TIP3    H148949   4.166   2.074   5.458 -2.0460 -1.2237 -1.2399
 9178TIP3    H248950   4.088   2.120   5.578  0.0750 -0.6319 -0.0530
 9179TIP3   OH248951   3.771   4.148   5.896 -0.0800 -0.1318  0.4127
 9179TIP3    H148952   3.809   4.084   5.957  0.7957 -0.6584 -0.6636
 9179TIP3    H248953   3.728   4.095   5.830 -0.2996  0.4188  0.1109
 9180TIP3   OH248954   4.242   5.428  13.438  0.0069  0.0464  0.4352
 9180TIP3    H148955   4.278   5.384  13.361 -1.2719 -3.6059  1.8028
 9180TIP3    H248956   4.318   5.472  13.478  1.3909 -1.0563 -0.8987
 9181TIP3   OH248957   2.318   0.586  13.418  0.1132 -0.0413 -0.8023
 9181TIP3    H148958   2.326   0.634  13.501  1.4002  0.7091 -1.3449
 9181TIP3    H248959   2.390   0.619  13.364 -0.1476 -1.2018 -1.8864
 9182TIP3   OH248960   3.990   6.510  15.669 -0.1171 -0.2669 -0.2132
 9182TIP3    H148961   3.968   6.446  15.736  1.4301 -0.5620  0.0273
 9182TIP3    H248962   4.082   6.492  15.648 -0.1123  0.8961 -1.2108
 9183TIP3   OH248963   5.737   5.905   0.392  0.4508  0.0551  0.3918
 9183TIP3    H148964   5.831   5.921   0.398  0.4138  0.2644  0.4089
 9183TIP3    H248965   5.728   5.812   0.413  0.4556  0.4596  2.2477
 9184TIP3   OH248966   6.769   4.132   6.161  0.1234 -0.4106 -0.2353
 9184TIP3    H148967   6.685   4.176   6.152  0.3764 -0.1039 -1.0889
 9184TIP3    H248968   6.828   4.199   6.197 -0.0988 -0.7423  0.7575
 9185TIP3   OH248969   5.592   4.645   0.074  0.0165  0.0959 -0.0351
 9185TIP3    H148970   5.595   4.679   0.163  2.6356  0.0461 -0.0844
 9185TIP3    H248971   5.682   4.622   0.053 -0.6157 -0.2749 -2.5607
 9186TIP3   OH248972   5.669   2.032   1.797  0.2031 -0.0215 -0.1450
 9186TIP3    H148973   5.629   2.115   1.825  0.2868 -0.4763  1.3940
 9186TIP3    H248974   5.756   2.057   1.768  0.3700  0.3870  0.6853
 9187TIP3   OH248975   5.845   3.245  13.123  0.1730  0.4099  0.1686
 9187TIP3    H148976   5.770   3.228  13.180 -0.3495  0.3861 -0.5245
 9187TIP3    H248977   5.879   3.158  13.101  0.1965  0.4099  0.2045
 9188TIP3   OH248978   5.028   0.477   0.345  0.4354 -0.0578 -0.6567
 9188TIP3    H148979   5.090   0.550   0.345 -0.2730  0.5546  1.0658
 9188TIP3    H248980   5.083   0.399   0.356  0.9586  0.4241  0.1561
 9189TIP3   OH248981   3.405   3.371  14.025 -0.2624 -0.0919  0.2094
 9189TIP3    H148982   3.356   3.449  14.051 -1.7673 -1.1042  0.5118
 9189TIP3    H248983   3.442   3.337  14.107  0.0710  0.0834  0.1339
 9190TIP3   OH248984   2.736   4.151   2.676 -0.6207 -0.0600 -0.0809
 9190TIP3    H148985   2.721   4.093   2.602 -0.3377  1.1522 -1.1087
 9190TIP3    H248986   2.831   4.153   2.687 -0.6027  0.5545 -0.3342
 9191TIP3   OH248987   4.279   3.592   0.005 -0.9409 -0.3261  0.2597
 9191TIP3    H148988   4.226   3.515   0.027 -2.2793 -0.1983 -2.2951
 9191TIP3    H248989   4.368   3.559  -0.002 -1.0774 -1.0838  1.9422
 9192TIP3   OH248990   5.192   3.821  13.537 -0.0282  0.4466  0.1385
 9192TIP3    H148991   5.283   3.847  13.522 -0.4825  1.7988 -0.3325
 9192TIP3    H248992   5.177   3.835  13.630  0.3308 -0.0662  0.2755
 9193TIP3   OH248993   1.527   1.720   5.829 -0.1678  0.0026  0.4933
 9193TIP3    H148994   1.562   1.660   5.895 -2.9046  2.4616  4.4289
 9193TIP3    H248995   1.604   1.749   5.780  2.3079 -0.5166  3.8696
 9194TIP3   OH248996   3.971   0.909  16.998 -0.1291 -0.3718 -0.0902
 9194TIP3    H148997   3.997   0.975  16.933 -0.6784 -1.1107 -1.0766
 9194TIP3    H248998   4.053   0.885  17.042  0.0182  1.2233  0.5276
 9195TIP3   OH248999   5.041   4.993   0.636  0.2809 -0.1302  0.0552
 9195TIP3    H149000   4.986   4.931   0.587  3.0704 -2.0182 -0.8696
 9195TIP3    H249001   5.078   5.050   0.569  1.8321 -0.8743  0.2351
 9196TIP3   OH249002   3.756   6.075  14.027 -0.1233  0.5085  0.3657
 9196TIP3    H149003   3.737   6.029  14.109 -3.7198  1.6812  0.2404
 9196TIP3    H249004   3.729   6.014  13.958  2.7687 -0.4191 -0.0516
 9197TIP3   OH249005   4.917   6.382   3.522 -0.0622  0.2929  0.3920
 9197TIP3    H149006   4.928   6.432   3.603 -0.5373 -0.8210  1.1552
 9197TIP3    H249007   4.903   6.448   3.454  1.3504  1.2867  1.0453
 9198TIP3   OH249008   4.178   1.845   1.137 -0.2405  0.4501  0.1562
 9198TIP3    H149009   4.225   1.913   1.185 -1.3467  0.6765  0.9299
 9198TIP3    H249010   4.223   1.764   1.161 -0.3591  0.6436  1.0630
 9199TIP3   OH249011   1.477   6.626   5.907  0.3432  0.2291 -0.1986
 9199TIP3    H149012   1.421   6.622   5.985  0.3624  1.9577 -0.0600
 9199TIP3    H249013   1.417   6.619   5.833 -0.2471  3.0503 -0.0709
 9200TIP3   OH249014   3.768   6.771   3.964  0.2680 -0.0489 -0.0530
 9200TIP3    H149015   3.760   6.853   3.915  0.5335 -0.0925 -0.1717
 9200TIP3    H249016   3.707   6.780   4.037 -1.8644 -0.9174 -1.6701
 9201TIP3   OH249017   3.363   2.402   3.618  0.4112 -0.1543 -0.3568
 9201TIP3    H149018   3.314   2.347   3.679  0.5277  1.1223  0.9374
 9201TIP3    H249019   3.354   2.359   3.533  1.8397 -3.0183  0.8687
 9202TIP3   OH249020   2.183   3.784   4.291 -0.2830 -0.4498 -0.0052
 9202TIP3    H149021   2.262   3.764   4.241  1.6052  2.5487  1.6908
 9202TIP3    H249022   2.139   3.852   4.240 -0.5366 -0.3898  0.2923
 9203TIP3   OH249023   5.255   5.698  15.330  0.8207  0.1874  0.0981
 9203TIP3    H149024   5.254   5.729  15.421  2.7581  1.6561 -0.3530
 9203TIP3    H249025   5.248   5.777  15.277  0.7807 -0.5620 -1.0415
 9204TIP3   OH249026   0.147   3.109  15.341 -0.2405  0.0995  0.3702
 9204TIP3    H149027   0.058   3.088  15.369 -0.6509  1.0583 -0.1976
 9204TIP3    H249028   0.199   3.106  15.421 -0.8280 -0.1831  0.7464
 9205TIP3   OH249029   6.769   6.444  17.221  0.2348  0.2912  0.1796
 9205TIP3    H149030   6.832   6.373  17.232  0.0470 -0.1337 -1.3779
 9205TIP3    H249031   6.728   6.453  17.307 -0.0830 -1.8210  0.2818
 9206TIP3   OH249032   2.885   1.777  14.824  0.1445  1.0189 -0.4571
 9206TIP3    H149033   2.792   1.796  14.809  0.2492  1.6096 -0.3727
 9206TIP3    H249034   2.888   1.741  14.913 -0.1985 -0.4589 -1.0386
 9207TIP3   OH249035   5.582   5.571  13.931 -0.2110  0.0577  0.0109
 9207TIP3    H149036   5.604   5.491  13.884 -1.0646  0.6927 -1.5148
 9207TIP3    H249037   5.553   5.541  14.017  0.2697 -1.2058 -0.2584
 9208TIP3   OH249038   0.838   4.781   1.742  0.3008  0.0895 -0.2878
 9208TIP3    H149039   0.849   4.810   1.652 -0.6023  0.4529 -0.2784
 9208TIP3    H249040   0.821   4.687   1.735 -2.1143  0.5360 -0.6471
 9209TIP3   OH249041   3.802   4.454   4.209 -0.0120  0.5892  0.0416
 9209TIP3    H149042   3.794   4.515   4.283 -0.3857 -0.2043  0.6655
 9209TIP3    H249043   3.897   4.447   4.194  0.1627 -0.5042  1.5292
 9210TIP3   OH249044   0.761   2.345   4.821 -0.3484 -0.4974 -0.3418
 9210TIP3    H149045   0.703   2.369   4.893  0.7622 -0.1878  0.4630
 9210TIP3    H249046   0.783   2.428   4.779  0.4152 -0.4910  0.0611
 9211TIP3   OH249047   2.952   5.433   5.810  0.6117  0.5651 -0.4659
 9211TIP3    H149048   2.932   5.431   5.904 -0.5511  2.5166 -0.6503
 9211TIP3    H249049   2.978   5.523   5.793 -0.7244  0.6256 -2.3305
 9212TIP3   OH249050   5.530   2.117   1.543  0.7312 -0.5110  0.2738
 9212TIP3    H149051   5.588   2.073   1.605  0.2930 -1.0617  0.2957
 9212TIP3    H249052   5.588   2.149   1.474  0.9377 -1.9763 -0.2439
 9213TIP3   OH249053   1.747   0.240  16.512  0.5681 -0.2194 -0.1614
 9213TIP3    H149054   1.679   0.306  16.502  1.9808  1.3249  0.3511
 9213TIP3    H249055   1.727   0.175  16.445 -1.5420  0.0918  0.1391
 9214TIP3   OH249056   2.626   6.232  15.112 -0.3919 -0.0446  0.3648
 9214TIP3    H149057   2.536   6.204  15.130 -0.1797 -0.4260  0.8540
 9214TIP3    H249058   2.653   6.180  15.037 -1.3519  1.6917 -1.2183
 9215TIP3   OH249059   4.098   1.018  14.314  0.3292 -0.7081 -0.1666
 9215TIP3    H149060   4.155   1.093  14.293  1.2907 -1.5233 -0.5004
 9215TIP3    H249061   4.158   0.951  14.345 -0.6086 -1.1248  0.7424
 9216TIP3   OH249062   4.612   5.564  12.333 -0.2742  0.4426  0.8135
 9216TIP3    H149063   4.627   5.584  12.241 -2.3432  2.6017  0.8665
 9216TIP3    H249064   4.600   5.469  12.336  1.7541  0.0979 -0.8170
 9217TIP3   OH249065   0.616   4.400  15.465  0.3382 -0.3354  0.6430
 9217TIP3    H149066   0.663   4.452  15.530  1.7173 -0.1193 -0.5042
 9217TIP3    H249067   0.669   4.321  15.455  0.3766 -0.1761 -0.5178
 9218TIP3   OH249068   0.637   3.496  16.197  0.2485 -0.7449  0.0123
 9218TIP3    H149069   0.712   3.442  16.223  1.0887  0.4475  0.0880
 9218TIP3    H249070   0.561   3.438  16.210  1.1006 -1.8130  0.3622
 9219TIP3   OH249071   5.650   0.785   3.901  0.0246  0.0469 -0.2463
 9219TIP3    H149072   5.697   0.703   3.915  1.8491  1.1197  0.0087
 9219TIP3    H249073   5.570   0.775   3.953  1.3333 -0.6337  1.6992
 9220TIP3   OH249074   2.299   3.750  14.422  0.5846  0.0134  0.2012
 9220TIP3    H149075   2.356   3.819  14.389 -0.1111  0.3061 -0.4028
 9220TIP3    H249076   2.226   3.747  14.360 -0.0332 -0.3900  0.9367
 9221TIP3   OH249077   1.410   2.436  16.965  0.4614  0.2444  0.0591
 9221TIP3    H149078   1.409   2.352  17.011  1.0568  0.7325  0.9696
 9221TIP3    H249079   1.498   2.440  16.926  0.1492  0.0786 -0.6656
 9222TIP3   OH249080   6.083   0.726   5.366  0.0898  0.6451 -0.2609
 9222TIP3    H149081   6.168   0.681   5.372  1.0289  2.2566 -0.9299
 9222TIP3    H249082   6.049   0.726   5.455  1.4409  1.1696  0.2723
 9223TIP3   OH249083   3.315   1.705  13.947  0.3929  0.0664 -0.0027
 9223TIP3    H149084   3.251   1.701  13.876 -0.6311 -0.0812  0.9098
 9223TIP3    H249085   3.267   1.744  14.020  1.6235  0.8549  0.4033
 9224TIP3   OH249086   5.576   1.910   4.557  0.5182  0.4950  0.3719
 9224TIP3    H149087   5.516   1.964   4.609 -0.0863 -0.2732  0.4734
 9224TIP3    H249088   5.663   1.934   4.589  0.3134  2.1080 -0.2398
 9225TIP3   OH249089   0.927   4.836  10.314 -0.1769 -0.5089  0.4553
 9225TIP3    H149090   0.980   4.761  10.342  0.0948 -0.0595  1.1639
 9225TIP3    H249091   0.916   4.824  10.220  1.4066 -0.4767  0.2518
 9226TIP3   OH249092   6.542   2.508  15.948 -0.6321  0.2636  0.7862
 9226TIP3    H149093   6.499   2.447  15.888  0.3214 -0.8967  1.2626
 9226TIP3    H249094   6.592   2.566  15.891  0.2452 -0.8158  0.4381
 9227TIP3   OH249095   5.524   0.737  12.134 -0.1270 -0.1880  0.2057
 9227TIP3    H149096   5.528   0.684  12.214  1.1460 -2.3924 -1.2752
 9227TIP3    H249097   5.434   0.769  12.131 -0.3918 -0.6809  2.1222
 9228TIP3   OH249098   1.462   0.894   0.671  0.1296  0.2894 -0.3276
 9228TIP3    H149099   1.408   0.838   0.615  0.0012  0.1775 -0.0957
 9228TIP3    H249100   1.469   0.844   0.753  0.5454  0.3246 -0.3433
 9229TIP3   OH249101   2.670   2.452   4.439 -0.2349  0.1933  0.3933
 9229TIP3    H149102   2.695   2.531   4.392 -2.1118  0.0848 -0.8560
 9229TIP3    H249103   2.586   2.426   4.399  0.2376 -2.2853  0.9401
 9230TIP3   OH249104   4.233   4.553  15.171 -0.5367 -0.1919  0.1862
 9230TIP3    H149105   4.171   4.530  15.240  0.5333  0.4052  1.3793
 9230TIP3    H249106   4.317   4.560  15.216  0.4585 -1.2638 -1.4524
 9231TIP3   OH249107   6.550   0.484  12.134 -0.0819  0.8416 -0.4645
 9231TIP3    H149108   6.564   0.535  12.054 -0.9188  0.8761 -0.5878
 9231TIP3    H249109   6.486   0.417  12.110  0.1966  0.4038 -0.0141
 9232TIP3   OH249110   0.684   5.530  11.754 -0.3442 -0.1619  0.6742
 9232TIP3    H149111   0.705   5.537  11.661  0.5150  1.5298  0.9964
 9232TIP3    H249112   0.767   5.506  11.796 -0.6517 -0.5683  1.0567
 9233TIP3   OH249113   0.240   5.789  11.828 -0.7079  0.0351  0.3709
 9233TIP3    H149114   0.221   5.777  11.921  0.4487 -2.8263  0.3147
 9233TIP3    H249115   0.171   5.740  11.783 -0.9783  0.9936 -0.2726
 9234TIP3   OH249116   4.033   6.436  17.025  0.2643  0.1704 -0.3243
 9234TIP3    H149117   4.099   6.501  17.003  0.0501  0.1582 -0.9949
 9234TIP3    H249118   3.987   6.419  16.943 -0.1868 -0.2571  0.0155
 9235TIP3   OH249119   1.806   2.027   1.095 -0.5125  0.2568  0.2747
 9235TIP3    H149120   1.863   2.021   1.172  0.0215  0.0886 -0.1346
 9235TIP3    H249121   1.741   1.958   1.109  0.0348 -0.2830  0.2131
 9236TIP3   OH249122   4.627   5.729   1.903 -0.2180  0.1211 -0.2559
 9236TIP3    H149123   4.720   5.706   1.908 -0.0466  0.2150 -2.2704
 9236TIP3    H249124   4.599   5.739   1.994  1.9156  0.8239  0.3421
 9237TIP3   OH249125   4.467   3.856   1.052  0.6011 -0.0141  0.2435
 9237TIP3    H149126   4.472   3.851   0.957  1.2294  0.6894  0.2335
 9237TIP3    H249127   4.399   3.921   1.071  1.9298  1.4108  0.2431
 9238TIP3   OH249128   0.612   4.177   6.001 -0.4447 -0.2022 -0.1772
 9238TIP3    H149129   0.574   4.185   6.088  0.1106 -0.6715  0.1179
 9238TIP3    H249130   0.686   4.238   6.002 -1.6916  1.3462 -1.0391
 9239TIP3   OH249131   6.633   3.999   4.551 -0.6986  0.5282  0.1509
 9239TIP3    H149132   6.665   4.089   4.554 -0.9061  0.6026  0.1200
 9239TIP3    H249133   6.555   3.999   4.607  0.3705 -0.0498  1.6598
 9240TIP3   OH249134   3.647   1.265   1.020 -0.2003  0.7313  0.2311
 9240TIP3    H149135   3.730   1.230   1.051 -0.2636  0.4721  0.1130
 9240TIP3    H249136   3.603   1.296   1.099 -0.1529  0.5224  0.3417
 9241TIP3   OH249137   3.948   6.184   4.910  0.7751  0.2854 -0.0637
 9241TIP3    H149138   3.895   6.154   4.836  0.0843  0.9450  0.1597
 9241TIP3    H249139   4.016   6.238   4.870  0.4066  0.6352 -0.2255
 9242TIP3   OH249140   4.513   0.364   2.529  0.4886  0.6293 -0.0994
 9242TIP3    H149141   4.443   0.416   2.489  0.6776  0.4549 -0.6495
 9242TIP3    H249142   4.531   0.295   2.466  1.4222  0.8872 -0.1180
 9243TIP3   OH249143   4.807   2.848   5.834  0.3447 -0.8888  0.1322
 9243TIP3    H149144   4.874   2.856   5.901 -0.0333  0.2864  0.3754
 9243TIP3    H249145   4.854   2.815   5.757  1.1386 -0.4199  0.4107
 9244TIP3   OH249146   0.696   0.382  11.275  0.9049  0.1424  0.1259
 9244TIP3    H149147   0.730   0.352  11.360  0.7973 -0.3617 -0.0029
 9244TIP3    H249148   0.714   0.309  11.215  3.0078  1.3628 -0.7919
 9245TIP3   OH249149   3.398   5.054  13.262  0.0478 -0.4174  0.4476
 9245TIP3    H149150   3.375   4.996  13.335 -0.1436 -0.8683  0.0286
 9245TIP3    H249151   3.482   5.020  13.230 -0.8834 -1.5233 -0.8878
 9246TIP3   OH249152   2.147   2.782  11.064 -0.0576 -0.2137  0.0742
 9246TIP3    H149153   2.224   2.820  11.022 -0.1740 -0.3910 -0.3007
 9246TIP3    H249154   2.145   2.691  11.033 -0.9051  0.0292 -0.6076
 9247TIP3   OH249155   1.527   1.719  11.707 -0.1815 -0.7349 -0.2734
 9247TIP3    H149156   1.509   1.750  11.618  0.8345  1.2228  0.1929
 9247TIP3    H249157   1.586   1.645  11.695  1.5269  0.7217 -1.1652
 9248TIP3   OH249158   0.332   1.039   0.533 -0.2198 -0.3679 -0.3820
 9248TIP3    H149159   0.355   0.957   0.577  1.0439 -0.2540 -0.7886
 9248TIP3    H249160   0.410   1.060   0.480 -1.3527 -0.0167 -1.9369
 9249TIP3   OH249161   5.591   1.680   4.264  0.0134 -0.0475  0.8721
 9249TIP3    H149162   5.679   1.654   4.239  0.3605  1.0745  0.8830
 9249TIP3    H249163   5.588   1.774   4.245 -0.5617  0.3113  2.6385
 9250TIP3   OH249164   5.359   1.998  12.126  0.1899 -0.1247  0.2988
 9250TIP3    H149165   5.297   2.038  12.065  0.7849 -0.6287 -0.6481
 9250TIP3    H249166   5.440   2.048  12.114  0.6812 -1.0489 -0.2625
 9251TIP3   OH249167   0.342   4.685  12.016 -0.0721 -0.3276 -0.0527
 9251TIP3    H149168   0.377   4.595  12.014  1.8694  0.3788  1.0122
 9251TIP3    H249169   0.406   4.736  11.967 -1.2446  0.4671 -0.7614
 9252TIP3   OH249170   2.041   4.343   3.900  0.0425 -0.0263  0.0804
 9252TIP3    H149171   1.947   4.358   3.887 -0.2029 -0.2809  1.4774
 9252TIP3    H249172   2.057   4.258   3.859  0.0259  0.7747 -1.6612
 9253TIP3   OH249173   0.349   4.436  11.896 -0.1433 -0.2222  0.4744
 9253TIP3    H149174   0.430   4.456  11.848  0.1814 -2.5421 -0.0382
 9253TIP3    H249175   0.279   4.451  11.832  0.1723 -1.6874 -0.2499
 9254TIP3   OH249176   5.793   0.203   5.310 -0.1486  0.1120  0.8011
 9254TIP3    H149177   5.840   0.268   5.258 -1.5610  0.8201  0.3822
 9254TIP3    H249178   5.702   0.209   5.280 -0.7196 -0.4634  2.3511
 9255TIP3   OH249179   4.265   4.335  13.631  0.1295  0.0906 -0.5838
 9255TIP3    H149180   4.224   4.349  13.545  0.3419 -1.6953 -1.0041
 9255TIP3    H249181   4.216   4.391  13.691 -3.1840 -2.1798 -1.0257
 9256TIP3   OH249182   6.516   3.825  16.817  0.1474  0.1000 -0.4415
 9256TIP3    H149183   6.497   3.819  16.911  0.5102 -0.3541 -0.3962
 9256TIP3    H249184   6.565   3.906  16.807 -2.3170  1.6413 -0.6372
 9257TIP3   OH249185   0.118   4.320  11.783  0.1204 -0.2351 -0.8269
 9257TIP3    H149186   0.098   4.333  11.875  2.8400  0.7020 -0.3295
 9257TIP3    H249187   0.080   4.234  11.762  0.1314 -0.7894  1.3524
 9258TIP3   OH249188   4.680   6.028   3.006  0.3582  0.7677  0.0647
 9258TIP3    H149189   4.687   6.115   2.967 -3.1329  0.2920 -1.7870
 9258TIP3    H249190   4.600   6.031   3.058  0.3485 -1.2763  0.2139
 9259TIP3   OH249191   2.137   4.363   0.176 -0.0069 -0.4186 -0.6355
 9259TIP3    H149192   2.227   4.341   0.152 -0.1222 -0.8913 -0.6373
 9259TIP3    H249193   2.145   4.442   0.229  0.4021 -0.4155 -0.7019
 9260TIP3   OH249194   5.856   4.708   6.103  0.1925 -0.0931 -0.5031
 9260TIP3    H149195   5.808   4.778   6.149  2.4858  0.7051  0.7335
 9260TIP3    H249196   5.837   4.629   6.154  2.0200  0.6299  1.3649
 9261TIP3   OH249197   5.640   1.849  15.362 -0.9410  0.2421  0.4180
 9261TIP3    H149198   5.684   1.894  15.290 -1.3465  1.6304  1.0062
 9261TIP3    H249199   5.698   1.861  15.437 -1.3477  0.3319  0.7229
 9262TIP3   OH249200   0.376   5.099   1.512  0.4920  0.7275 -0.1137
 9262TIP3    H149201   0.390   5.020   1.563 -1.7292  0.1181 -0.3764
 9262TIP3    H249202   0.291   5.085   1.470  2.1153  1.3747 -3.7121
 9263TIP3   OH249203   1.824   1.464  13.357 -0.2390 -0.2169 -0.3683
 9263TIP3    H149204   1.837   1.370  13.362 -2.1369 -0.4627  0.2817
 9263TIP3    H249205   1.804   1.490  13.447 -1.0395  0.5986 -0.7774
 9264TIP3   OH249206   3.908   5.062   0.691  0.1315 -0.8187 -0.5999
 9264TIP3    H149207   3.812   5.058   0.691  0.1051 -0.3502  0.6454
 9264TIP3    H249208   3.934   5.016   0.771  0.8924  0.2022 -0.2511
 9265TIP3   OH249209   5.068   3.618  16.607 -0.7098  0.6387 -0.5360
 9265TIP3    H149210   5.047   3.665  16.527 -0.9805  1.4605  0.0176
 9265TIP3    H249211   5.123   3.678  16.657 -0.8243  0.2637  0.0481
 9266TIP3   OH249212   1.113   1.114   5.225 -0.5452 -0.2114  0.3336
 9266TIP3    H149213   1.073   1.192   5.186 -0.4595  0.8620  2.3371
 9266TIP3    H249214   1.194   1.145   5.264 -0.5633 -1.2753  1.2584
 9267TIP3   OH249215   3.157   5.042  12.556 -0.3262  0.1174  1.1153
 9267TIP3    H149216   3.239   5.057  12.604 -0.4960  0.3377  1.3368
 9267TIP3    H249217   3.161   5.103  12.483 -1.2491  1.6351  2.2955
 9268TIP3   OH249218   6.594   1.139   1.695 -0.3988  0.2288  0.2038
 9268TIP3    H149219   6.543   1.166   1.772 -0.8037  0.1124 -0.0209
 9268TIP3    H249220   6.638   1.219   1.666 -0.5614  0.3632  0.3235
 9269TIP3   OH249221   6.578   0.186   0.951  0.0335  0.2933  0.5255
 9269TIP3    H149222   6.648   0.123   0.970  0.4264  0.2310 -1.0299
 9269TIP3    H249223   6.497   0.140   0.972  0.2885 -0.9364 -1.0978
 9270TIP3   OH249224   5.102   3.252  16.181 -0.0372  0.1444 -0.2584
 9270TIP3    H149225   5.118   3.160  16.163  1.2806  0.7114 -2.1684
 9270TIP3    H249226   5.152   3.299  16.114 -1.6217  2.2215 -0.0485
 9271TIP3   OH249227   6.404   0.951  13.331 -0.0771 -0.0004 -0.1674
 9271TIP3    H149228   6.329   0.896  13.307 -1.9209  2.1042  0.6234
 9271TIP3    H249229   6.449   0.902  13.400 -1.4811 -0.6446  0.2996
 9272TIP3   OH249230   5.995   3.082   0.879 -0.7559  0.3301 -0.3973
 9272TIP3    H149231   6.038   3.098   0.795 -1.0755 -0.1352 -0.6478
 9272TIP3    H249232   6.046   3.012   0.920 -0.1231  1.0953  0.1490
 9273TIP3   OH249233   0.760   4.460  12.027  0.3216  0.1627 -0.4005
 9273TIP3    H149234   0.685   4.446  11.971  2.2532 -1.6038 -2.6703
 9273TIP3    H249235   0.818   4.518  11.977  1.9920 -1.3056 -0.2586
 9274TIP3   OH249236   3.129   5.204  12.293  0.1638  0.1102  0.0404
 9274TIP3    H149237   3.079   5.261  12.235 -0.6787  1.0429  1.6537
 9274TIP3    H249238   3.192   5.261  12.336  2.5763 -1.0396 -1.8939
 9275TIP3   OH249239   6.757   5.892  13.530  0.3292  0.4410  0.2307
 9275TIP3    H149240   6.740   5.849  13.614 -1.1261 -0.0425 -0.2934
 9275TIP3    H249241   6.673   5.888  13.484  1.3627 -0.2069 -1.6570
 9276TIP3   OH249242   5.140   1.376   5.128  0.2557 -0.5744  0.4265
 9276TIP3    H149243   5.143   1.449   5.066  0.9434 -1.1073 -0.1762
 9276TIP3    H249244   5.161   1.299   5.076  3.2740 -0.7445  1.7630
 9277TIP3   OH249245   5.460   4.719  13.617 -0.7183 -0.3534 -0.3741
 9277TIP3    H149246   5.552   4.723  13.592 -0.2761 -0.4967  1.1884
 9277TIP3    H249247   5.445   4.626  13.636 -1.1666 -0.3141 -0.5331
 9278TIP3   OH249248   4.801   5.117   4.439  0.3480  0.2122 -0.0333
 9278TIP3    H149249   4.801   5.021   4.449 -1.7920  0.2875  0.8406
 9278TIP3    H249250   4.710   5.139   4.421  0.9058  2.0679 -0.6122
 9279TIP3   OH249251   2.455   2.502   1.598 -0.2061  0.9709 -0.2997
 9279TIP3    H149252   2.548   2.524   1.586  0.4601 -1.3286  0.5888
 9279TIP3    H249253   2.427   2.557   1.671  0.4300  1.6930 -0.5830
 9280TIP3   OH249254   1.581   1.602   3.196  0.5396  0.1573 -0.1168
 9280TIP3    H149255   1.633   1.522   3.189  1.1643  0.4427  1.1061
 9280TIP3    H249256   1.600   1.650   3.115  1.1874 -0.3275 -0.2577
 9281TIP3   OH249257   5.261   3.113  15.716  0.3703  0.2108  0.0818
 9281TIP3    H149258   5.243   3.148  15.629  0.0024  0.3141  0.1996
 9281TIP3    H249259   5.178   3.120  15.763  0.4855 -0.1293  0.3434
 9282TIP3   OH249260   0.817   5.364  15.137  0.4021  0.6407 -0.1119
 9282TIP3    H149261   0.848   5.370  15.227 -0.8591  1.2875  0.2930
 9282TIP3    H249262   0.805   5.455  15.110 -1.7116  0.4179 -0.0300
 9283TIP3   OH249263   0.416   0.038  16.284 -0.2137  0.4926  0.0589
 9283TIP3    H149264   0.433   0.125  16.249  0.6394 -0.1571 -1.1939
 9283TIP3    H249265   0.337   0.009  16.239  0.1918  0.1349 -0.4180
 9284TIP3   OH249266   1.210   5.458   3.207 -0.3212 -0.0143 -0.2882
 9284TIP3    H149267   1.229   5.377   3.255 -1.3386  0.9194  1.7214
 9284TIP3    H249268   1.123   5.445   3.170 -0.2886 -0.0095 -0.3679
 9285TIP3   OH249269   1.552   2.531   5.366 -0.3029  0.0212  0.3163
 9285TIP3    H149270   1.475   2.544   5.422  0.3070 -0.2479  1.2285
 9285TIP3    H249271   1.614   2.483   5.421 -0.5240 -2.1952 -1.2908
 9286TIP3   OH249272   6.612   4.610  15.221 -0.2358 -0.2738  0.3515
 9286TIP3    H149273   6.524   4.595  15.256 -0.2171  0.3888  0.6823
 9286TIP3    H249274   6.611   4.701  15.191 -0.1809 -0.7626 -1.1883
 9287TIP3   OH249275   5.872   4.140  16.648 -0.0853 -0.0893  0.0267
 9287TIP3    H149276   5.837   4.088  16.719  1.3123  0.7828  1.3970
 9287TIP3    H249277   5.900   4.077  16.582 -1.0611 -0.9190  0.4110
 9288TIP3   OH249278   4.977   1.333  13.729  0.0181 -0.7444  0.6026
 9288TIP3    H149279   5.027   1.369  13.656  0.0218  0.0453  0.9909
 9288TIP3    H249280   5.039   1.331  13.802 -0.1311 -1.0613  0.7215
 9289TIP3   OH249281   0.607   4.570  16.909  0.2072  0.7295 -0.0675
 9289TIP3    H149282   0.619   4.665  16.909  2.1139  0.5078 -1.2040
 9289TIP3    H249283   0.542   4.555  16.978  1.4976  2.6659  1.6724
 9290TIP3   OH249284   2.387   2.100  16.170  0.1864  0.4438 -0.0297
 9290TIP3    H149285   2.320   2.160  16.138  0.3235  0.5613 -0.0975
 9290TIP3    H249286   2.408   2.045  16.096 -1.8649 -1.4614  0.7482
 9291TIP3   OH249287   2.378   1.821  11.453  0.0247  0.3448  0.3605
 9291TIP3    H149288   2.351   1.863  11.372 -1.3662 -2.0754 -0.4658
 9291TIP3    H249289   2.467   1.854  11.468 -0.0571  1.5573 -1.6320
 9292TIP3   OH249290   1.884   3.641  15.423 -0.3061  0.9615 -0.1184
 9292TIP3    H149291   1.975   3.644  15.393 -0.3140  1.1983 -0.1128
 9292TIP3    H249292   1.837   3.597  15.352 -0.1712  0.7483 -0.0781
 9293TIP3   OH249293   2.760   6.270   4.133 -0.3954 -0.3863 -0.0937
 9293TIP3    H149294   2.709   6.338   4.089 -0.0400  0.5628  0.9107
 9293TIP3    H249295   2.731   6.274   4.224  0.5465 -0.6991  0.2301
 9294TIP3   OH249296   1.938   3.387  11.513 -0.0490 -0.1755  0.2127
 9294TIP3    H149297   1.949   3.457  11.577  2.6575  0.2575 -0.6673
 9294TIP3    H249298   1.888   3.428  11.442  0.4335  0.5013  0.2616
 9295TIP3   OH249299   2.287   3.339  13.307 -0.2000 -0.0276 -0.0779
 9295TIP3    H149300   2.229   3.381  13.243  1.2579  0.9097 -0.8112
 9295TIP3    H249301   2.270   3.245  13.296 -1.8162  0.2470 -0.0327
 9296TIP3   OH249302   6.453   0.542  13.252 -0.8162 -0.0094 -0.3007
 9296TIP3    H149303   6.389   0.597  13.208 -1.5541 -0.7463 -0.1438
 9296TIP3    H249304   6.418   0.453  13.246 -0.4761 -0.2447  0.9588
 9297TIP3   OH249305   2.920   2.140   1.607  0.3304 -0.4794  0.3625
 9297TIP3    H149306   2.846   2.180   1.653 -0.2514  0.3107 -1.2395
 9297TIP3    H249307   2.880   2.082   1.543  1.0847  0.1143 -0.6607
 9298TIP3   OH249308   0.155   1.463   1.994  0.0031  0.3070 -0.2106
 9298TIP3    H149309   0.071   1.477   1.950 -0.1530  0.2821  0.0778
 9298TIP3    H249310   0.132   1.451   2.086  0.3029  0.0557 -0.1682
 9299TIP3   OH249311   1.749   1.157   2.224 -0.5607 -0.0508 -0.2121
 9299TIP3    H149312   1.815   1.124   2.163  0.3802  2.1496 -0.4389
 9299TIP3    H249313   1.726   1.081   2.277  1.8541 -0.9778 -0.4019
 9300TIP3   OH249314   1.976   5.624   6.246  0.2241 -0.1727 -0.3030
 9300TIP3    H149315   2.055   5.667   6.278 -0.4026  1.6741 -1.1915
 9300TIP3    H249316   1.905   5.683   6.271 -0.5330 -0.0149 -2.6884
 9301TIP3   OH249317   5.048   1.184  16.571 -0.1357 -0.3783  0.0403
 9301TIP3    H149318   5.041   1.088  16.577 -2.3356 -0.1608  1.4999
 9301TIP3    H249319   5.072   1.211  16.659  2.0232  0.3321 -0.7383
 9302TIP3   OH249320   6.051   2.126   4.155 -0.1384 -0.1373 -0.4254
 9302TIP3    H149321   5.956   2.132   4.167  0.0032  0.3151  0.5041
 9302TIP3    H249322   6.085   2.104   4.242  0.5520 -0.9851 -0.9038
 9303TIP3   OH249323   3.125   1.686  13.228 -0.3411 -0.5274  0.2672
 9303TIP3    H149324   3.214   1.652  13.236 -0.6907 -1.3420  0.7969
 9303TIP3    H249325   3.129   1.747  13.154  0.8085 -0.0332  0.7232
 9304TIP3   OH249326   3.036   5.766  11.859 -0.3758  0.1883 -0.7441
 9304TIP3    H149327   2.968   5.830  11.837  0.6460  0.4824 -3.2063
 9304TIP3    H249328   3.029   5.699  11.791  1.7682  0.2379 -1.0534
 9305TIP3   OH249329   1.071   1.024   1.779 -0.9078 -0.1789  0.5320
 9305TIP3    H149330   1.041   0.997   1.693 -0.4938 -0.1992  0.3930
 9305TIP3    H249331   0.991   1.044   1.828 -1.2056 -1.5108  0.5894
 9306TIP3   OH249332   1.974   4.951  15.838  0.0992 -0.4249  0.2982
 9306TIP3    H149333   2.040   4.980  15.901 -1.3920 -1.1229  2.2190
 9306TIP3    H249334   1.988   4.857  15.830  0.7207 -0.2341 -0.9531
 9307TIP3   OH249335   6.284   0.967  16.771 -0.6577  0.2508  0.4736
 9307TIP3    H149336   6.339   1.023  16.826  0.0088  0.4361 -0.3778
 9307TIP3    H249337   6.216   1.026  16.738  0.7292  0.8574 -1.3821
 9308TIP3   OH249338   4.475   4.965  12.366  0.0136 -0.3421  0.0999
 9308TIP3    H149339   4.389   4.972  12.408 -0.8350  0.1305 -1.6868
 9308TIP3    H249340   4.464   4.898  12.300  0.3884  1.2509 -1.6199
 9309TIP3   OH249341   4.440   6.443  11.186 -0.0701  0.7070 -0.3574
 9309TIP3    H149342   4.467   6.420  11.097  0.2623 -0.6152  0.0710
 9309TIP3    H249343   4.512   6.495  11.220  1.8901 -2.5486  0.6716
 9310TIP3   OH249344   1.958   3.187  14.076 -0.4847  0.0643 -0.0534
 9310TIP3    H149345   1.904   3.108  14.078 -1.0391  0.4217 -0.6677
 9310TIP3    H249346   1.901   3.254  14.036 -0.3815  1.0318  1.3618
 9311TIP3   OH249347   1.809   5.030  11.075  0.6208  0.3059 -0.3631
 9311TIP3    H149348   1.879   5.016  11.011  1.2318  1.0755  0.1315
 9311TIP3    H249349   1.854   5.060  11.154 -0.2109  0.1780  0.1678
 9312TIP3   OH249350   5.442   0.433   4.590 -0.0274  0.1396  0.2191
 9312TIP3    H149351   5.362   0.446   4.539 -1.0676  0.5976  1.9484
 9312TIP3    H249352   5.421   0.465   4.677  2.3540  1.2078  0.4523
 9313TIP3   OH249353   5.684   2.274  11.694 -0.7963  0.0505  0.3099
 9313TIP3    H149354   5.726   2.330  11.759 -2.0701  1.3026  0.0726
 9313TIP3    H249355   5.666   2.192  11.740  1.6347 -0.4306  0.4899
 9314TIP3   OH249356   3.936   0.471   2.460  0.1382  0.0848  0.0769
 9314TIP3    H149357   3.897   0.384   2.460 -0.7195  0.4656  0.3146
 9314TIP3    H249358   3.999   0.469   2.532 -1.8072  0.5085  1.8388
 9315TIP3   OH249359   5.924   2.656  12.565  0.2430 -0.7813  0.3640
 9315TIP3    H149360   5.840   2.629  12.601  0.2261  1.3573  1.9990
 9315TIP3    H249361   5.904   2.734  12.513  1.1803 -0.4076  0.5534
 9316TIP3   OH249362   1.594   4.741   1.872 -0.2663 -0.5692  0.0885
 9316TIP3    H149363   1.582   4.831   1.843 -0.3104  0.2970  2.6147
 9316TIP3    H249364   1.686   4.722   1.851 -0.1086  0.2567 -0.0110
 9317TIP3   OH249365   4.797   5.299   4.039  0.1515  0.1309  0.7084
 9317TIP3    H149366   4.814   5.382   4.083  0.4341  0.5707 -0.2099
 9317TIP3    H249367   4.838   5.309   3.953 -0.6389 -0.6122  0.2424
 9318TIP3   OH249368   3.147   0.315   5.065 -0.0913  0.3760  0.3504
 9318TIP3    H149369   3.055   0.294   5.081  0.0235 -0.4612 -0.0617
 9318TIP3    H249370   3.148   0.353   4.978 -0.0833  0.6570  0.4717
 9319TIP3   OH249371   1.470   2.276   0.799  0.1158 -0.0953 -0.0817
 9319TIP3    H149372   1.458   2.317   0.713 -0.9672  0.1513  0.1832
 9319TIP3    H249373   1.483   2.183   0.778  2.6165  0.3552 -0.6794
 9320TIP3   OH249374   1.749   5.414  16.730 -0.0277  0.4818 -0.1907
 9320TIP3    H149375   1.655   5.403  16.718  0.0557 -1.1150  0.5036
 9320TIP3    H249376   1.783   5.325  16.744  1.6349  0.9908 -0.7990
 9321TIP3   OH249377   2.343   4.179   2.811  0.0765  0.2574  0.0095
 9321TIP3    H149378   2.250   4.195   2.794  0.5184  2.3744 -0.5304
 9321TIP3    H249379   2.387   4.203   2.730  1.1664  0.0032  0.5182
 9322TIP3   OH249380   6.696   6.689  17.212  0.2143 -0.0925  0.2535
 9322TIP3    H149381   6.699   6.594  17.204 -0.7610 -0.0309 -1.0400
 9322TIP3    H249382   6.779   6.719  17.176 -0.7098 -0.3080 -2.1495
 9323TIP3   OH249383   6.398   6.169   6.235  0.2798 -0.1275  0.2841
 9323TIP3    H149384   6.414   6.256   6.200  3.4719 -0.8677 -0.2024
 9323TIP3    H249385   6.346   6.185   6.314  0.2620  2.1513 -0.1535
 9324TIP3   OH249386   2.244   1.882  16.317  0.3642 -0.0622  0.1644
 9324TIP3    H149387   2.156   1.898  16.283  0.0647 -0.0284  0.9643
 9324TIP3    H249388   2.301   1.927  16.255 -0.1761 -0.1001 -0.3694
 9325TIP3   OH249389   2.287   6.291   6.128  0.3600  0.1787 -0.0863
 9325TIP3    H149390   2.349   6.267   6.196  1.0409  3.3745  0.4769
 9325TIP3    H249391   2.233   6.212   6.116  1.4825 -1.0772  2.7176
 9326TIP3   OH249392   4.174   5.669  13.727 -0.1858 -0.5341 -0.0355
 9326TIP3    H149393   4.152   5.577  13.712  1.1063 -1.1397  1.5353
 9326TIP3    H249394   4.256   5.665  13.776  0.1316  1.4784 -0.3886
 9327TIP3   OH249395   1.700   0.627  10.598 -0.7902 -0.0392 -0.0651
 9327TIP3    H149396   1.684   0.649  10.690  0.2289  0.8608 -0.0993
 9327TIP3    H249397   1.637   0.681  10.549 -0.4939  0.3964  0.0323
 9328TIP3   OH249398   1.331   3.269   0.199  0.1318 -0.2332  0.7531
 9328TIP3    H149399   1.353   3.217   0.275 -0.0692  0.7158  1.4709
 9328TIP3    H249400   1.386   3.348   0.206 -0.3317  0.1449  0.2544
 9329TIP3   OH249401   5.709   4.567   0.633 -0.4436  0.2129 -0.1236
 9329TIP3    H149402   5.716   4.610   0.548  0.0550  0.7784  0.1991
 9329TIP3    H249403   5.626   4.597   0.669 -0.3335  0.5030 -0.1155
 9330TIP3   OH249404   6.197   4.496   0.015  0.2087  0.0933 -0.6376
 9330TIP3    H149405   6.164   4.567  -0.041  1.2364 -0.3219 -1.7942
 9330TIP3    H249406   6.242   4.541   0.086 -0.6337  0.6217 -0.4184
 9331TIP3   OH249407   0.805   3.947  12.633  0.2700  0.0396 -0.0714
 9331TIP3    H149408   0.852   3.901  12.703 -0.1117  1.6609  1.2830
 9331TIP3    H249409   0.874   3.981  12.576  0.5848 -1.2839 -0.5113
 9332TIP3   OH249410   1.124   5.600   4.297  0.2482  0.1829  0.1192
 9332TIP3    H149411   1.094   5.550   4.372 -3.4259  0.3721 -1.1569
 9332TIP3    H249412   1.100   5.690   4.317 -0.6176  0.2551 -1.1755
 9333TIP3   OH249413   1.702   3.260   0.664  0.1976 -0.2262 -0.3411
 9333TIP3    H149414   1.625   3.244   0.717  0.2577  0.7669  0.0654
 9333TIP3    H249415   1.750   3.329   0.710 -0.7602  2.0717 -2.6429
 9334TIP3   OH249416   1.465   4.292  17.019 -0.0084 -0.4069 -0.6551
 9334TIP3    H149417   1.526   4.288  17.093 -0.9939  2.6450  0.4089
 9334TIP3    H249418   1.514   4.335  16.949 -0.4545  0.7117 -0.2901
 9335TIP3   OH249419   6.580   3.878   5.443  0.0371 -0.2937  0.3641
 9335TIP3    H149420   6.557   3.919   5.360  0.7565  0.7315  0.6543
 9335TIP3    H249421   6.509   3.816   5.461 -0.6704  0.2767 -0.4652
 9336TIP3   OH249422   3.800   3.518   4.629 -0.0814  0.3071 -0.4469
 9336TIP3    H149423   3.853   3.510   4.550 -1.9378 -0.7372 -1.6399
 9336TIP3    H249424   3.761   3.431   4.640 -0.7751  0.7775  0.9517
 9337TIP3   OH249425   4.263   4.101  11.204 -0.3142 -0.1029 -0.1032
 9337TIP3    H149426   4.244   4.144  11.287  1.2703  0.9916 -0.2769
 9337TIP3    H249427   4.328   4.158  11.162 -2.4339  0.3665 -2.9160
 9338TIP3   OH249428   5.793   0.922  12.808 -0.2360  0.0445  0.7131
 9338TIP3    H149429   5.729   0.919  12.879 -0.6532 -2.1736  0.2646
 9338TIP3    H249430   5.751   0.878  12.734  1.1848  0.0092 -0.1074
 9339TIP3   OH249431   4.523   6.196  15.609 -0.1316  0.5473  0.4050
 9339TIP3    H149432   4.429   6.176  15.616 -0.4693  2.1747  0.6294
 9339TIP3    H249433   4.566   6.114  15.633 -1.4983 -0.3611 -0.1685
 9340TIP3   OH249434   5.420   5.171   2.467 -0.0374  0.0027 -0.3551
 9340TIP3    H149435   5.431   5.266   2.460 -0.0361  0.0670  0.4321
 9340TIP3    H249436   5.330   5.160   2.499  0.9052 -0.1189  2.4180
 9341TIP3   OH249437   0.562   4.110   5.342 -0.6751 -0.2788  0.3463
 9341TIP3    H149438   0.517   4.136   5.262  2.0905  1.1649 -0.7667
 9341TIP3    H249439   0.509   4.148   5.412 -2.1181 -0.0461 -0.8405
 9342TIP3   OH249440   0.357   1.744   3.325  0.2124  0.3292  0.1505
 9342TIP3    H149441   0.449   1.742   3.352 -0.2821 -1.1464  1.7342
 9342TIP3    H249442   0.360   1.729   3.230  1.4249 -3.0315  0.6538
 9343TIP3   OH249443   1.456   3.689   3.919 -0.1293 -0.0916  0.2722
 9343TIP3    H149444   1.515   3.642   3.977  1.1732 -0.1453 -1.0723
 9343TIP3    H249445   1.409   3.620   3.872  0.0323 -0.0534  0.0534
 9344TIP3   OH249446   5.598   4.157   3.275  0.1555  0.1065 -0.3714
 9344TIP3    H149447   5.550   4.115   3.347 -0.4506 -1.4940 -1.6652
 9344TIP3    H249448   5.568   4.248   3.276 -1.0289 -0.2754  0.4061
 9345TIP3   OH249449   0.665   1.898  13.382 -0.2132  0.1359  0.4944
 9345TIP3    H149450   0.670   1.968  13.317 -0.4777 -0.8419 -0.6185
 9345TIP3    H249451   0.618   1.936  13.456 -1.9656  0.6060 -0.8309
 9346TIP3   OH249452   1.307   4.788  11.789 -0.6527  0.4649  0.1971
 9346TIP3    H149453   1.311   4.703  11.746 -0.5525  0.7615 -0.3866
 9346TIP3    H249454   1.261   4.845  11.727 -0.9102  0.7837  0.6714
 9347TIP3   OH249455   1.392   5.325   0.491  0.3519  0.1180  0.0827
 9347TIP3    H149456   1.438   5.405   0.464 -1.0636  1.9251  2.7162
 9347TIP3    H249457   1.304   5.355   0.514  0.7863 -1.5383  4.4124
 9348TIP3   OH249458   4.031   1.781  14.202  0.0591  0.2974  1.2878
 9348TIP3    H149459   4.121   1.788  14.169  0.8147  1.1688  3.4260
 9348TIP3    H249460   4.022   1.690  14.228  0.1570  0.0969  0.6351
 9349TIP3   OH249461   5.809   4.462   5.660 -0.0050 -0.4696 -0.3836
 9349TIP3    H149462   5.874   4.523   5.696 -1.1341  0.8691 -0.5632
 9349TIP3    H249463   5.856   4.414   5.593  0.6618  0.9077 -0.9158
 9350TIP3   OH249464   3.308   0.046  16.003 -0.3187 -0.4613 -0.0255
 9350TIP3    H149465   3.265   0.006  16.079 -0.0684 -0.6381  0.0243
 9350TIP3    H249466   3.398   0.013  16.007 -0.6917 -1.6823 -1.2677
 9351TIP3   OH249467   2.531   2.485   3.196 -0.6768 -0.4117 -0.1872
 9351TIP3    H149468   2.450   2.434   3.194  0.1637 -1.7584 -1.3915
 9351TIP3    H249469   2.505   2.573   3.172 -1.7293 -0.9352 -1.0212
 9352TIP3   OH249470   3.147   2.782   5.359 -0.2800 -0.3372 -0.1796
 9352TIP3    H149471   3.153   2.712   5.294 -3.1510  0.2487 -1.1131
 9352TIP3    H249472   3.095   2.745   5.430  1.5153 -0.4361  1.1263
 9353TIP3   OH249473   1.059   6.000  14.963  0.2881 -0.9882 -1.2652
 9353TIP3    H149474   0.964   6.012  14.953  0.1947 -2.0318 -1.6550
 9353TIP3    H249475   1.080   5.925  14.907  1.5821  0.1333 -2.3017
 9354TIP3   OH249476   2.469   2.260  13.347  0.4642  0.1934  0.6792
 9354TIP3    H149477   2.501   2.169  13.350  1.1368  0.3412 -1.4153
 9354TIP3    H249478   2.408   2.265  13.420  0.3091 -2.0005  0.7598
 9355TIP3   OH249479   2.717   2.737   2.442  0.0568 -0.3473 -0.0703
 9355TIP3    H149480   2.797   2.735   2.494  0.4670  0.9157 -0.6290
 9355TIP3    H249481   2.702   2.646   2.417  0.7140 -0.7427  0.9380
 9356TIP3   OH249482   3.240   0.948  14.231  0.4884 -0.3568 -0.0407
 9356TIP3    H149483   3.221   1.020  14.170 -0.4530 -1.7193 -1.3644
 9356TIP3    H249484   3.162   0.942  14.286 -0.5560 -2.0882 -1.6614
 9357TIP3   OH249485   5.697   2.547   0.804  0.0273 -0.3858 -0.2141
 9357TIP3    H149486   5.766   2.590   0.854 -0.5849 -1.4273  1.5614
 9357TIP3    H249487   5.712   2.575   0.714  2.2148  0.1227  0.2793
 9358TIP3   OH249488   6.456   3.971  10.221  0.5367 -0.0433 -0.0246
 9358TIP3    H149489   6.512   4.037  10.181  1.4991 -0.2797  0.8679
 9358TIP3    H249490   6.486   3.888  10.183 -0.4208 -0.0054 -0.8745
 9359TIP3   OH249491   3.655   6.581  11.234  0.0096 -0.6989 -1.1798
 9359TIP3    H149492   3.615   6.499  11.207  0.4560 -0.5013 -2.4826
 9359TIP3    H249493   3.743   6.557  11.265 -1.1572 -1.1747  1.9873
 9360TIP3   OH249494   1.476   1.484  13.062  0.3380  0.0913  0.6658
 9360TIP3    H149495   1.392   1.500  13.019  0.4046 -1.4706 -0.1038
 9360TIP3    H249496   1.470   1.529  13.146 -0.3860  1.9078 -0.3283
 9361TIP3   OH249497   2.923   4.284  12.814  0.4618  0.2206 -0.2250
 9361TIP3    H149498   3.006   4.321  12.844  1.3213 -1.0662 -0.9718
 9361TIP3    H249499   2.922   4.195  12.850 -0.4054  0.0996 -0.5469
 9362TIP3   OH249500   0.829   6.720   2.169  0.0563  0.3801  0.1538
 9362TIP3    H149501   0.903   6.780   2.162  2.6722 -3.0157 -3.1842
 9362TIP3    H249502   0.843   6.675   2.252  1.7434 -0.2273 -0.4525
 9363TIP3   OH249503   3.184   0.951   3.769 -0.2704  0.3212  0.5168
 9363TIP3    H149504   3.157   1.043   3.771 -0.1730  0.3931 -1.0180
 9363TIP3    H249505   3.258   0.947   3.830 -0.0292  1.3388  0.3042
 9364TIP3   OH249506   5.925   6.665  15.744  0.0388 -0.3015  0.4228
 9364TIP3    H149507   5.944   6.596  15.680 -0.0593  0.0112  0.0547
 9364TIP3    H249508   5.834   6.650  15.770  1.0027 -2.3529  2.8510
 9365TIP3   OH249509   3.234   6.489  13.503  0.3235  0.4418 -0.0804
 9365TIP3    H149510   3.244   6.401  13.537 -0.7264  0.3658  0.0347
 9365TIP3    H249511   3.310   6.537  13.538  0.1257 -0.0466  1.0273
 9366TIP3   OH249512   4.188   5.399   3.303 -0.3356  0.3438 -0.2149
 9366TIP3    H149513   4.110   5.346   3.286 -0.8087  0.7951  0.5320
 9366TIP3    H249514   4.155   5.473   3.354  0.6112  0.4466  0.2453
 9367TIP3   OH249515   2.821   4.371  11.449  0.1820  0.2965 -0.2810
 9367TIP3    H149516   2.826   4.332  11.362  0.7143 -1.5871  0.5773
 9367TIP3    H249517   2.904   4.348  11.491 -0.3879  0.5125  0.9992
 9368TIP3   OH249518   5.418   3.122  13.907 -0.7562 -0.3392  0.1657
 9368TIP3    H149519   5.466   3.054  13.859 -0.0182  0.1974  0.1446
 9368TIP3    H249520   5.478   3.196  13.912 -1.0760 -0.1531  1.3510
 9369TIP3   OH249521   2.005   4.196   0.617  0.2053 -0.1648  0.5399
 9369TIP3    H149522   2.031   4.266   0.677  0.7619 -0.8183  1.0719
 9369TIP3    H249523   2.084   4.142   0.608  0.4054  0.4055 -1.4653
 9370TIP3   OH249524   3.856   3.588   1.951 -0.6931 -0.3788 -0.4435
 9370TIP3    H149525   3.936   3.633   1.977 -0.6924  0.8848 -2.5347
 9370TIP3    H249526   3.883   3.497   1.939  0.5969  0.1375 -1.6726
 9371TIP3   OH249527   2.383   5.331  17.070  0.5943  0.4922  0.2228
 9371TIP3    H149528   2.313   5.396  17.067 -0.2814 -0.5068 -1.3987
 9371TIP3    H249529   2.345   5.256  17.117  0.2712 -0.3737 -1.3777
 9372TIP3   OH249530   2.111   5.533   4.587  0.0461  0.1744  0.1843
 9372TIP3    H149531   2.193   5.501   4.549 -0.3738  0.3493 -0.8746
 9372TIP3    H249532   2.129   5.536   4.681  0.9974 -0.5408  0.0448
 9373TIP3   OH249533   1.437   3.108   0.711  0.2183 -0.2546  0.1923
 9373TIP3    H149534   1.482   3.048   0.771  2.5955  1.6998  0.4270
 9373TIP3    H249535   1.376   3.156   0.767 -1.3351 -2.0791  0.0924
 9374TIP3   OH249536   4.239   5.611   1.064 -1.0594  0.0593  0.0598
 9374TIP3    H149537   4.189   5.615   1.145 -1.6372  0.1757 -0.3049
 9374TIP3    H249538   4.307   5.678   1.074 -0.3004 -0.8366  0.9991
 9375TIP3   OH249539   1.195   0.881   4.576  0.3376 -0.3854 -0.3313
 9375TIP3    H149540   1.116   0.934   4.584  0.1176 -0.5868 -1.1394
 9375TIP3    H249541   1.249   0.908   4.650 -0.4547 -0.1969  0.1839
 9376TIP3   OH249542   3.662   0.921   6.700 -0.1379 -0.1353  0.0370
 9376TIP3    H149543   3.696   0.840   6.662  0.2893 -0.0613  0.2608
 9376TIP3    H249544   3.654   0.981   6.626  0.5385 -0.0428  0.0414
 9377TIP3   OH249545   2.552   2.186  14.425 -0.1253  0.4562 -0.4150
 9377TIP3    H149546   2.595   2.156  14.505 -0.7161  0.9185  0.0851
 9377TIP3    H249547   2.622   2.225  14.373  0.4463 -0.7645 -0.5694
 9378TIP3   OH249548   0.683   6.778  16.013  0.0449  0.1279  0.0990
 9378TIP3    H149549   0.770   6.746  15.992 -0.3238 -1.1214  0.4309
 9378TIP3    H249550   0.646   6.804  15.929  0.3001 -0.4818 -0.2071
 9379TIP3   OH249551   1.461   6.099  15.233 -0.1653 -0.1385  0.0471
 9379TIP3    H149552   1.496   6.104  15.322 -1.2388  0.9441  0.4200
 9379TIP3    H249553   1.470   6.188  15.199  0.8783 -0.7066 -1.1749
 9380TIP3   OH249554   4.719   5.240   2.551 -0.0551  0.2232  0.3025
 9380TIP3    H149555   4.651   5.173   2.555 -0.6548  0.5681 -2.7828
 9380TIP3    H249556   4.675   5.320   2.580 -0.5641  0.1602 -0.2987
 9381TIP3   OH249557   0.738   3.950  16.801  0.7245  0.2612 -0.5919
 9381TIP3    H149558   0.750   3.874  16.744  0.4726 -1.3836  1.4821
 9381TIP3    H249559   0.652   3.985  16.776  1.6353  1.0056 -2.8170
 9382TIP3   OH249560   6.279   3.355  12.573 -0.2207  0.2290 -0.4339
 9382TIP3    H149561   6.276   3.404  12.491 -0.2274 -2.6830 -2.2065
 9382TIP3    H249562   6.188   3.332  12.591 -0.2064  0.7492  0.3499
 9383TIP3   OH249563   4.871   2.635  12.113 -0.0350 -0.5162  0.5257
 9383TIP3    H149564   4.902   2.546  12.098 -2.2517 -0.8892 -2.3074
 9383TIP3    H249565   4.790   2.625  12.163 -1.6678 -0.3356 -1.9727
 9384TIP3   OH249566   1.079   2.544   0.427  0.5194 -0.0791  0.8476
 9384TIP3    H149567   1.103   2.601   0.354  1.8444 -1.4079  0.2329
 9384TIP3    H249568   1.127   2.580   0.502 -0.5876  1.0868  1.0203
 9385TIP3   OH249569   4.075   3.983  13.537  0.4305 -0.3110 -0.0361
 9385TIP3    H149570   4.082   4.040  13.460  0.5683 -1.5233 -0.9414
 9385TIP3    H249571   3.993   3.935  13.524  0.1493 -0.0900  0.8800
 9386TIP3   OH249572   1.021   6.566  17.087 -0.0246 -0.3137 -0.4989
 9386TIP3    H149573   1.008   6.598  16.997  1.4327  0.0365 -0.6002
 9386TIP3    H249574   1.112   6.588  17.107  0.1305 -1.8116  0.5012
 9387TIP3   OH249575   2.304   3.685   4.842 -0.0628 -1.1538  0.0078
 9387TIP3    H149576   2.345   3.619   4.785  1.3950 -0.6439  0.4400
 9387TIP3    H249577   2.369   3.755   4.848 -0.4688 -0.9037  1.7756
 9388TIP3   OH249578   3.903   5.949   1.241 -0.2463  0.0003  0.5049
 9388TIP3    H149579   3.925   5.886   1.310  2.2332 -0.2945 -0.4768
 9388TIP3    H249580   3.874   5.895   1.167 -1.0780  0.1980  0.6882
 9389TIP3   OH249581   5.907   4.210  15.626 -0.2488 -0.2314  0.9575
 9389TIP3    H149582   5.916   4.290  15.678 -0.1230 -0.2440  0.9538
 9389TIP3    H249583   5.905   4.140  15.691  0.3776 -0.2845  0.9208
 9390TIP3   OH249584   2.246   0.688  11.359 -0.5767  0.6613 -0.0936
 9390TIP3    H149585   2.296   0.694  11.278 -0.2145  2.1811  0.2359
 9390TIP3    H249586   2.231   0.594  11.372 -0.5671  0.4109 -1.8696
 9391TIP3   OH249587   5.408   1.628  12.344  0.1640  0.1367  0.6586
 9391TIP3    H149588   5.398   1.533  12.343 -3.8602  0.5053  0.3997
 9391TIP3    H249589   5.406   1.652  12.437 -1.4031  0.2107  0.6031
 9392TIP3   OH249590   5.469   3.800  16.950  0.0215 -0.4955 -0.6435
 9392TIP3    H149591   5.474   3.888  16.913  0.5586 -0.3874 -0.3193
 9392TIP3    H249592   5.449   3.743  16.875 -0.4373 -0.0835 -0.8335
 9393TIP3   OH249593   1.884   4.753   0.454  0.3764  0.2552  0.2080
 9393TIP3    H149594   1.859   4.689   0.521 -0.1946 -0.2541 -0.4910
 9393TIP3    H249595   1.815   4.748   0.388  0.8543  0.8714 -0.3473
 9394TIP3   OH249596   4.607   6.629   2.736  0.2880 -0.0438  0.5249
 9394TIP3    H149597   4.530   6.618   2.682  0.3579 -0.4281  0.5042
 9394TIP3    H249598   4.677   6.585   2.688  0.6404  0.7889  0.2712
 9395TIP3   OH249599   4.157   4.379   1.091 -0.2332  0.3685  0.4227
 9395TIP3    H149600   4.109   4.403   1.012  1.0094  0.6618 -0.2581
 9395TIP3    H249601   4.147   4.284   1.098 -2.2424  0.6165  1.1841
 9396TIP3   OH249602   5.029   5.712  11.806  0.4190 -0.0321 -0.2274
 9396TIP3    H149603   4.998   5.802  11.800 -0.6491 -0.3572  0.3025
 9396TIP3    H249604   5.026   5.692  11.900  0.8663 -0.5548 -0.3161
 9397TIP3   OH249605   3.802   3.831  15.820 -0.1087 -0.4243  0.5762
 9397TIP3    H149606   3.797   3.829  15.915 -0.3435  1.4813  0.6137
 9397TIP3    H249607   3.731   3.889  15.793 -1.4751 -2.6570 -0.9066
 9398TIP3   OH249608   1.335   4.561  15.651  0.4567  0.0735  0.1199
 9398TIP3    H149609   1.387   4.530  15.725  2.7958 -2.2398 -2.3508
 9398TIP3    H249610   1.399   4.577  15.582 -1.6069  2.6825 -1.2977
 9399TIP3   OH249611   0.118   0.170  15.497  0.0797  0.0441 -0.0196
 9399TIP3    H149612   0.097   0.241  15.558  1.0807 -0.4411  0.9017
 9399TIP3    H249613   0.134   0.094  15.553 -0.7243 -0.8510 -0.9883
 9400TIP3   OH249614   1.296   6.457   0.314 -0.5917  0.5154  0.1090
 9400TIP3    H149615   1.208   6.495   0.322 -1.2610 -0.5415 -1.8928
 9400TIP3    H249616   1.351   6.531   0.288 -1.2379  0.8369 -0.3688
 9401TIP3   OH249617   2.314   0.602  13.054 -0.5344  0.2551  0.6919
 9401TIP3    H149618   2.285   0.557  12.974 -0.8337 -0.0577  0.9692
 9401TIP3    H249619   2.408   0.613  13.043 -0.3874 -0.8101  0.7901
 9402TIP3   OH249620   3.103   3.998  13.845 -0.2244 -0.3098  0.3172
 9402TIP3    H149621   3.026   3.985  13.901 -0.2805  0.8793  0.5305
 9402TIP3    H249622   3.125   3.910  13.814 -1.2301 -0.7560  0.8366
 9403TIP3   OH249623   4.686   4.856  16.772  0.2251  0.0061 -0.5494
 9403TIP3    H149624   4.636   4.887  16.697  0.9403 -0.2287 -1.1284
 9403TIP3    H249625   4.772   4.835  16.737 -0.0691 -2.1476 -0.1021
 9404TIP3   OH249626   6.765   0.115   5.390 -0.6499  0.0074 -0.0022
 9404TIP3    H149627   6.777   0.176   5.316  1.0262 -0.7803 -0.4187
 9404TIP3    H249628   6.854   0.083   5.407 -1.3716 -1.4680  0.9425
 9405TIP3   OH249629   0.344   5.151  12.992 -0.0238  0.2668 -0.0523
 9405TIP3    H149630   0.296   5.072  13.018 -1.9361  1.4424  0.0655
 9405TIP3    H249631   0.296   5.184  12.917 -0.9938  2.9582  1.7054
 9406TIP3   OH249632   0.461   6.565  15.400  0.3826 -0.2498 -0.1334
 9406TIP3    H149633   0.450   6.638  15.338 -1.0787 -0.8283 -0.5933
 9406TIP3    H249634   0.504   6.496  15.348 -0.2352 -0.4967 -0.3209
 9407TIP3   OH249635   3.526   4.016   5.371 -0.3462  0.3086  0.4491
 9407TIP3    H149636   3.570   3.951   5.317 -0.8544 -0.0360  0.4466
 9407TIP3    H249637   3.595   4.049   5.429 -0.4995 -1.7344  1.8848
 9408TIP3   OH249638   6.030   6.136  12.732 -0.2156  0.3571 -0.6039
 9408TIP3    H149639   6.012   6.098  12.646  1.5083  0.0085 -0.8185
 9408TIP3    H249640   6.103   6.085  12.767  0.5205  1.8882  0.1424
 9409TIP3   OH249641   6.323   6.457  10.613  0.4339  0.1520  0.3070
 9409TIP3    H149642   6.302   6.408  10.534 -0.0544  0.7388  0.0697
 9409TIP3    H249643   6.240   6.462  10.661 -0.0568  2.6155 -0.7040
 9410TIP3   OH249644   0.765   4.830   4.218  0.4877 -0.0859  0.0377
 9410TIP3    H149645   0.721   4.914   4.233 -1.0899 -0.8678 -0.0513
 9410TIP3    H249646   0.858   4.851   4.218  0.1194  1.6284  0.2383
 9411TIP3   OH249647   5.136   3.765   2.825  0.2714  0.0712 -0.3721
 9411TIP3    H149648   5.109   3.855   2.807 -1.0128 -0.3847 -0.7743
 9411TIP3    H249649   5.070   3.711   2.782  0.5973 -1.0617  0.5234
 9412TIP3   OH249650   2.237   0.941   0.443 -0.6705  0.3832  0.1887
 9412TIP3    H149651   2.228   0.888   0.363  0.9911  2.7156 -1.6213
 9412TIP3    H249652   2.165   1.004   0.437  1.6552  3.0079 -1.5085
 9413TIP3   OH249653   0.785   6.680  14.735 -0.2421 -0.2457  0.1067
 9413TIP3    H149654   0.718   6.620  14.703  0.9712 -0.9304 -1.2112
 9413TIP3    H249655   0.766   6.691  14.828 -2.3859 -0.1398 -0.3240
 9414TIP3   OH249656   3.836   6.217  11.112  0.3631  0.7119 -0.2421
 9414TIP3    H149657   3.877   6.198  11.196  0.5035 -0.1325 -0.4944
 9414TIP3    H249658   3.742   6.215  11.130  0.4158  2.6792  0.3453
 9415TIP3   OH249659   2.814   0.869   3.334  0.0692  0.0330 -0.2620
 9415TIP3    H149660   2.897   0.907   3.364  0.7058 -0.8315 -0.9023
 9415TIP3    H249661   2.773   0.834   3.413  0.3287  0.4441  0.0538
 9416TIP3   OH249662   2.036   1.908   3.255 -0.8897 -0.3066  0.1498
 9416TIP3    H149663   2.003   1.980   3.202  2.4926  0.5852 -0.8980
 9416TIP3    H249664   2.015   1.829   3.205 -0.8648  0.2839 -0.8072
 9417TIP3   OH249665   5.004   2.863  14.446  0.3642 -0.2392  0.1826
 9417TIP3    H149666   4.961   2.778  14.453 -0.7060  0.1639 -1.1940
 9417TIP3    H249667   5.089   2.844  14.408  0.5405 -0.8087  0.8625
 9418TIP3   OH249668   4.371   6.361   3.979 -0.2154 -0.2046  0.5512
 9418TIP3    H149669   4.352   6.330   3.891  0.2371 -3.2773  1.4711
 9418TIP3    H249670   4.290   6.403   4.008 -0.0966  1.6035 -1.5985
 9419TIP3   OH249671   0.895   5.369   0.490 -0.2876  0.0670  0.1500
 9419TIP3    H149672   0.824   5.370   0.555 -2.1773 -1.5181 -1.7839
 9419TIP3    H249673   0.850   5.381   0.406  1.9337  0.6404 -0.9852
 9420TIP3   OH249674   2.149   0.617  16.935 -0.0359 -0.5175  0.1977
 9420TIP3    H149675   2.183   0.538  16.894 -0.6075 -1.0689  0.7720
 9420TIP3    H249676   2.219   0.646  16.993  0.5559 -0.0498 -0.7534
 9421TIP3   OH249677   1.872   6.331   5.547 -0.5583  0.3681  0.6253
 9421TIP3    H149678   1.900   6.406   5.600 -0.3672  0.8809 -0.1896
 9421TIP3    H249679   1.784   6.355   5.517 -0.5439  0.2140  0.4635
 9422TIP3   OH249680   1.333   6.081   1.930  0.4491 -0.1823  0.1901
 9422TIP3    H149681   1.394   6.050   1.863  0.6646  0.4124  0.1068
 9422TIP3    H249682   1.250   6.091   1.884  0.5080 -0.1260  0.0963
 9423TIP3   OH249683   2.240   4.014   1.810  0.3120 -0.4479 -0.8052
 9423TIP3    H149684   2.164   4.043   1.860  1.4065  1.0759  0.0279
 9423TIP3    H249685   2.254   4.083   1.746  0.5810 -1.0629 -1.4145
 9424TIP3   OH249686   2.920   1.510   3.262  0.8015  0.4896 -0.0874
 9424TIP3    H149687   2.998   1.552   3.226  1.0103  1.2774  1.2355
 9424TIP3    H249688   2.930   1.518   3.357 -0.2646 -0.5589  0.1335
 9425TIP3   OH249689   3.117   4.704  11.874 -0.3577  0.1967  0.3072
 9425TIP3    H149690   3.207   4.698  11.844 -0.8476  0.2298 -1.1733
 9425TIP3    H249691   3.073   4.629  11.833 -0.7970 -0.3721  1.7794
 9426TIP3   OH249692   4.010   2.349   5.608 -0.2233 -0.3743 -0.1241
 9426TIP3    H149693   3.994   2.442   5.619 -0.7352 -0.0954 -2.9088
 9426TIP3    H249694   3.937   2.318   5.554  1.2533 -1.8562 -1.3224
 9427TIP3   OH249695   3.275   3.379   2.531  0.2044  0.1270  0.5415
 9427TIP3    H149696   3.345   3.316   2.552 -0.0618 -1.0843 -2.0419
 9427TIP3    H249697   3.321   3.462   2.518  0.8758 -0.1224  1.2717
 9428TIP3   OH249698   5.622   4.038  11.965  0.2850  0.0113  0.0978
 9428TIP3    H149699   5.576   4.099  11.907  1.9772 -1.7885 -3.2504
 9428TIP3    H249700   5.713   4.067  11.963  0.2495  0.4234  2.5926
 9429TIP3   OH249701   1.929   4.907  11.808 -0.5593 -0.1577  0.5620
 9429TIP3    H149702   1.855   4.917  11.748  0.3661  0.7674 -0.4527
 9429TIP3    H249703   1.957   4.816  11.796 -0.6693 -0.1129 -0.0655
 9430TIP3   OH249704   6.153   2.871  10.787  0.2697 -0.2414 -0.2803
 9430TIP3    H149705   6.167   2.893  10.695 -0.7260  1.4960 -0.0435
 9430TIP3    H249706   6.073   2.818  10.788 -0.6633  1.1348 -0.2713
 9431TIP3   OH249707   0.897   6.367   1.492 -0.3147 -0.2857 -0.1183
 9431TIP3    H149708   0.857   6.427   1.429 -0.3279  0.1640  0.3089
 9431TIP3    H249709   0.822   6.331   1.541 -0.4768 -2.1935 -1.6926
 9432TIP3   OH249710   6.759   3.875  14.228  0.3834 -0.4982 -0.0748
 9432TIP3    H149711   6.688   3.813  14.212 -2.0609  1.8108  1.4194
 9432TIP3    H249712   6.718   3.961  14.217  2.3438  0.9305  3.1291
 9433TIP3   OH249713   6.739   4.936   4.164 -0.0528  0.5556  0.0727
 9433TIP3    H149714   6.735   4.851   4.207 -3.8037  0.2659 -0.6613
 9433TIP3    H249715   6.823   4.974   4.191 -0.0186 -1.7694  3.3898
 9434TIP3   OH249716   4.855   2.891  15.662 -0.3344  0.4950 -0.0414
 9434TIP3    H149717   4.939   2.915  15.703  0.3694 -0.7822 -0.6946
 9434TIP3    H249718   4.795   2.960  15.690  0.9512  1.4935  0.3758
 9435TIP3   OH249719   0.968   1.675  13.890 -0.1320 -0.2055 -0.0640
 9435TIP3    H149720   1.046   1.623  13.907  0.5443  0.5024 -0.9226
 9435TIP3    H249721   1.000   1.765  13.883 -0.6482 -0.1835 -2.7313
 9436TIP3   OH249722   4.726   4.609  10.711 -0.7302 -0.9596 -0.2405
 9436TIP3    H149723   4.751   4.692  10.753 -1.0382 -0.8625 -0.2517
 9436TIP3    H249724   4.794   4.548  10.740  0.4391 -0.3244 -1.5550
 9437TIP3   OH249725   4.318   1.209   4.322 -0.0367  0.2104  1.2245
 9437TIP3    H149726   4.348   1.235   4.235  1.2114 -3.4406  0.4576
 9437TIP3    H249727   4.225   1.234   4.323 -0.2306 -0.1877 -1.4158
 9438TIP3   OH249728   6.687   1.379  14.948  0.2274  0.1522  0.4317
 9438TIP3    H149729   6.632   1.399  15.023 -1.9712 -0.2926 -1.0083
 9438TIP3    H249730   6.701   1.463  14.905 -0.8318  0.0427 -0.1628
 9439TIP3   OH249731   1.838   0.241  10.896 -0.0291  0.2674 -0.2190
 9439TIP3    H149732   1.836   0.156  10.940  0.7520  0.0677 -0.5595
 9439TIP3    H249733   1.746   0.267  10.889 -0.1415  0.4801  1.8411
 9440TIP3   OH249734   0.358   2.258  15.839 -0.2275 -0.2419  0.0598
 9440TIP3    H149735   0.390   2.221  15.921  0.7112 -0.6693 -0.4894
 9440TIP3    H249736   0.291   2.197  15.809 -0.1502 -0.4032  0.2155
 9441TIP3   OH249737   6.773   5.416  12.742  0.0347  0.4737 -0.2087
 9441TIP3    H149738   6.798   5.452  12.657 -1.3126  1.7754 -0.0647
 9441TIP3    H249739   6.680   5.397  12.734  0.4588 -1.9137  0.1157
 9442TIP3   OH249740   5.302   1.183  12.072 -0.3418 -0.5347 -0.2835
 9442TIP3    H149741   5.208   1.182  12.089 -0.4570  4.6351  0.2835
 9442TIP3    H249742   5.309   1.179  11.976 -1.2783  1.1334 -0.4317
 9443TIP3   OH249743   0.762   0.522  13.330  0.0858 -0.1885  0.0624
 9443TIP3    H149744   0.687   0.580  13.343 -0.4345 -0.8525  0.0413
 9443TIP3    H249745   0.788   0.536  13.239 -1.0602 -1.1823 -0.4329
 9444TIP3   OH249746   0.508   6.706   5.680  0.3270  0.3907  0.3088
 9444TIP3    H149747   0.462   6.790   5.690  1.5424  1.0950  0.0533
 9444TIP3    H249748   0.443   6.641   5.705  0.0235  1.5237  2.6559
 9445TIP3   OH249749   2.588   5.078   1.199 -0.1239 -0.2966  0.1039
 9445TIP3    H149750   2.518   5.129   1.238  1.2863  1.9324 -0.2253
 9445TIP3    H249751   2.578   5.091   1.104  0.0960 -0.8273  0.0030
 9446TIP3   OH249752   4.269   0.106   5.402  0.0492  0.1866 -0.2472
 9446TIP3    H149753   4.270   0.199   5.379 -4.4484  0.2945 -0.4644
 9446TIP3    H249754   4.336   0.067   5.346 -0.2959  2.7778 -2.5920
 9447TIP3   OH249755   2.047   5.619   5.132  0.0124 -0.5825  0.3149
 9447TIP3    H149756   2.065   5.649   5.043 -1.1219  0.2177  0.3416
 9447TIP3    H249757   2.079   5.690   5.188  0.8501 -1.1447  0.5583
 9448TIP3   OH249758   0.894   1.621  16.457  0.1770  0.2595  0.5067
 9448TIP3    H149759   0.878   1.591  16.368  0.2273  1.9616 -0.0945
 9448TIP3    H249760   0.989   1.628  16.463  0.2720 -1.5907  1.2890
 9449TIP3   OH249761   0.813   0.988  15.489  0.2876  0.0254  0.2931
 9449TIP3    H149762   0.790   1.018  15.577 -1.4567  0.4747 -0.3086
 9449TIP3    H249763   0.749   0.920  15.469 -0.3368  1.0582 -1.2726
 9450TIP3   OH249764   0.117   3.600   3.131  0.3868  0.4848  0.0679
 9450TIP3    H149765   0.090   3.509   3.135  0.3139  0.5569  1.6284
 9450TIP3    H249766   0.209   3.599   3.159  0.3885  0.8800  0.0830
 9451TIP3   OH249767   0.391   4.479   4.494  0.4028  0.8880  0.3928
 9451TIP3    H149768   0.316   4.535   4.515  1.5156  2.2575  0.7281
 9451TIP3    H249769   0.463   4.539   4.476  1.9447 -0.4098  1.9832
 9452TIP3   OH249770   1.869   1.517  14.068 -0.6803 -0.5189  0.8100
 9452TIP3    H149771   1.860   1.465  14.148 -0.0558 -0.8240  0.6871
 9452TIP3    H249772   1.962   1.510  14.045 -0.8574 -0.4354  0.0567
 9453TIP3   OH249773   0.324   2.893  14.360 -0.4858  0.4751  0.2528
 9453TIP3    H149774   0.345   2.937  14.442  0.1353  0.8597 -0.1105
 9453TIP3    H249775   0.369   2.944  14.292 -0.3331 -0.2938 -0.2433
 9454TIP3   OH249776   4.509   0.789  15.662  0.1532  0.0716  0.7372
 9454TIP3    H149777   4.426   0.821  15.626  0.0310 -1.4356 -0.3793
 9454TIP3    H249778   4.558   0.757  15.586  1.1088 -0.4883  1.5705
 9455TIP3   OH249779   4.603   0.391   0.423  0.7875  0.3449  0.4744
 9455TIP3    H149780   4.675   0.407   0.484  1.2080 -1.1494  0.3921
 9455TIP3    H249781   4.645   0.377   0.338  0.5489 -1.9207  0.6830
 9456TIP3   OH249782   2.083   5.616  13.390  0.2653  0.0740 -0.7100
 9456TIP3    H149783   2.051   5.546  13.448  1.4542  0.5347  0.5179
 9456TIP3    H249784   2.020   5.687  13.402  0.4515  0.1310 -0.0527
 9457TIP3   OH249785   4.127   4.337   2.332 -0.4738  0.0352  0.2337
 9457TIP3    H149786   4.090   4.254   2.300  1.1572  0.0473 -1.7557
 9457TIP3    H249787   4.205   4.311   2.382  0.5182  0.4004 -1.1009
 9458TIP3   OH249788   3.114   0.095  15.067  0.0785  0.1486  0.0075
 9458TIP3    H149789   3.117   0.076  15.161 -1.7997  0.2106  0.0947
 9458TIP3    H249790   3.037   0.150  15.056 -0.1393 -0.4559 -1.6712
 9459TIP3   OH249791   5.228   5.653   2.566  0.1636  0.1723 -0.1750
 9459TIP3    H149792   5.158   5.616   2.513  0.5205  1.7324 -1.8024
 9459TIP3    H249793   5.184   5.713   2.626 -0.2245 -1.4518  1.1684
 9460TIP3   OH249794   1.635   2.577  12.086 -0.5080 -0.8590 -0.0959
 9460TIP3    H149795   1.611   2.670  12.087  0.2489 -0.6694  0.1283
 9460TIP3    H249796   1.727   2.576  12.061  0.1527 -1.4025  2.2105
 9461TIP3   OH249797   0.183   5.822   0.723 -0.2458 -0.3245 -0.1837
 9461TIP3    H149798   0.229   5.905   0.738  0.3460 -1.1789  3.4037
 9461TIP3    H249799   0.239   5.775   0.662 -0.1201  1.5388 -1.5553
 9462TIP3   OH249800   4.630   0.104   2.820 -0.0880 -0.3035  0.3980
 9462TIP3    H149801   4.680   0.166   2.766  1.1618  0.7855  2.7042
 9462TIP3    H249802   4.636   0.021   2.773  2.4270  0.2219 -0.3007
 9463TIP3   OH249803   0.053   2.058   6.430  0.3439 -0.2942 -0.4605
 9463TIP3    H149804   0.092   2.087   6.512 -0.5518  0.2012 -0.2099
 9463TIP3    H249805  -0.021   2.003   6.457 -1.5680  1.9833 -0.9043
 9464TIP3   OH249806   0.455   1.612  14.379  0.1072  0.2207  0.0211
 9464TIP3    H149807   0.549   1.596  14.377  0.0759  0.1481 -0.7975
 9464TIP3    H249808   0.419   1.540  14.430  0.4064 -0.1697 -0.3201
 9465TIP3   OH249809   1.156   2.486  16.859  0.3847 -0.1495 -0.4293
 9465TIP3    H149810   1.246   2.461  16.882 -0.0155 -0.4739  0.8113
 9465TIP3    H249811   1.112   2.404  16.840  0.4574  0.0453 -1.4705
 9466TIP3   OH249812   1.756   5.917   4.999 -0.4235 -0.2958  0.3945
 9466TIP3    H149813   1.815   5.990   5.017  0.1761 -0.9110  0.9521
 9466TIP3    H249814   1.702   5.909   5.078  1.4259 -2.2559  1.4987
 9467TIP3   OH249815   0.532   4.237  11.234 -0.8226  0.1590  0.3109
 9467TIP3    H149816   0.446   4.196  11.242 -0.1868 -0.9282  1.6801
 9467TIP3    H249817   0.515   4.330  11.250 -1.6508 -0.1400  1.2365
 9468TIP3   OH249818   2.113   3.142   1.225 -0.2042 -0.5386 -0.1739
 9468TIP3    H149819   2.165   3.179   1.154 -0.7617  2.0098  0.6726
 9468TIP3    H249820   2.044   3.207   1.240  1.6573  0.5327  4.6477
 9469TIP3   OH249821   2.803   5.278  16.750 -0.2795 -0.5368  0.1491
 9469TIP3    H149822   2.853   5.241  16.823 -1.1278 -1.1749  0.4206
 9469TIP3    H249823   2.719   5.303  16.790 -0.2260  0.4115 -0.3226
 9470TIP3   OH249824   2.445   2.267   5.639  0.2818 -0.4693 -0.1692
 9470TIP3    H149825   2.448   2.362   5.623 -1.0922  0.5345  4.7464
 9470TIP3    H249826   2.537   2.241   5.643  0.6839  0.8185 -0.6248
 9471TIP3   OH249827   1.937   2.864  16.982  0.4177  0.6344 -0.0508
 9471TIP3    H149828   2.027   2.870  17.014 -0.0725  0.8775  1.2932
 9471TIP3    H249829   1.941   2.902  16.894  1.9869 -1.0435 -0.7452
 9472TIP3   OH249830   0.728   0.066   3.890  0.0202  0.1234  0.9790
 9472TIP3    H149831   0.752   0.070   3.798  0.2080  0.5871  1.0501
 9472TIP3    H249832   0.696  -0.024   3.903  2.2554 -0.6769  1.0209
 9473TIP3   OH249833   0.631   2.948   1.069  0.0068 -0.6314 -0.0561
 9473TIP3    H149834   0.632   3.031   1.021 -0.3542  0.6917  2.1373
 9473TIP3    H249835   0.546   2.909   1.050 -1.2997  1.2378  1.6672
 9474TIP3   OH249836   3.516   0.539  13.451 -0.4672  0.3091  0.3076
 9474TIP3    H149837   3.570   0.614  13.477 -1.1975  1.3118 -1.0042
 9474TIP3    H249838   3.529   0.475  13.521  1.2537  1.1081  0.7549
 9475TIP3   OH249839   1.943   4.215  16.121 -0.4131  0.3251  0.1484
 9475TIP3    H149840   1.876   4.166  16.075 -0.8020  0.7369  0.2643
 9475TIP3    H249841   1.983   4.270  16.054 -1.5008  1.4919  0.4304
 9476TIP3   OH249842   3.554   1.122  12.616  0.6937 -0.5388 -0.5342
 9476TIP3    H149843   3.552   1.217  12.609  1.1217 -0.2743  2.2959
 9476TIP3    H249844   3.464   1.094  12.599  0.3741  0.4373 -0.4316
 9477TIP3   OH249845   2.738   3.437   2.822 -0.0230 -0.0481  0.9166
 9477TIP3    H149846   2.695   3.352   2.820 -0.7813  0.3461 -0.8777
 9477TIP3    H249847   2.674   3.496   2.863 -0.3899  0.1066  0.1341
 9478TIP3   OH249848   5.108   6.174   2.671  0.1052 -0.2127 -0.4639
 9478TIP3    H149849   5.145   6.086   2.666  1.7676  0.5152 -1.3675
 9478TIP3    H249850   5.184   6.232   2.682 -1.0555  1.0217  1.3992
 9479TIP3   OH249851   5.819   3.521   4.383  0.0517 -0.4027 -0.2931
 9479TIP3    H149852   5.750   3.474   4.337  0.1863 -0.2839 -0.6176
 9479TIP3    H249853   5.875   3.452   4.420  0.0829 -0.4979 -0.5175
 9480TIP3   OH249854   0.114   1.663  12.417  0.4388  0.1658 -0.3776
 9480TIP3    H149855   0.036   1.613  12.441 -0.1531  0.6278 -1.3065
 9480TIP3    H249856   0.179   1.596  12.395  1.1534 -0.2907  2.8626
 9481TIP3   OH249857   4.973   6.403  13.737  0.2688 -0.4627 -0.1715
 9481TIP3    H149858   4.939   6.369  13.654  2.3129 -0.3841 -1.0572
 9481TIP3    H249859   4.984   6.326  13.792  0.0521 -0.6550 -0.3965
 9482TIP3   OH249860   6.530   1.900  12.976 -0.8406 -0.0968 -0.3870
 9482TIP3    H149861   6.567   1.833  12.917 -0.8375  0.8864 -1.5190
 9482TIP3    H249862   6.443   1.918  12.939 -1.2745 -0.2609  0.5512
 9483TIP3   OH249863   2.489   1.005  16.972 -0.3073 -0.3094  0.4528
 9483TIP3    H149864   2.489   0.940  16.902 -0.7683  0.6641 -0.4619
 9483TIP3    H249865   2.481   1.089  16.927  0.0151  0.3680  1.6407
 9484TIP3   OH249866   2.952   0.666   5.062 -0.1290 -0.4720 -0.0514
 9484TIP3    H149867   2.893   0.714   5.003  0.9762  2.2659  1.0227
 9484TIP3    H249868   3.038   0.673   5.020  0.1244 -1.1384  0.3541
 9485TIP3   OH249869   3.455   2.976  11.655 -0.1469  0.1429 -0.0148
 9485TIP3    H149870   3.475   2.893  11.698  1.9707  0.2841 -0.6790
 9485TIP3    H249871   3.437   3.037  11.726 -0.1359 -0.4863  0.5292
 9486TIP3   OH249872   2.981   0.633  10.139 -0.1654 -0.0305  0.0924
 9486TIP3    H149873   2.941   0.719  10.153 -1.1034 -0.6523  1.3852
 9486TIP3    H249874   2.962   0.585  10.220  1.9942 -0.8239  0.1512
 9487TIP3   OH249875   3.559   1.666  13.519 -0.5087 -0.3174 -0.5313
 9487TIP3    H149876   3.495   1.720  13.472 -1.0096 -1.0639 -0.7149
 9487TIP3    H249877   3.507   1.596  13.558 -0.0008 -0.0769  0.5833
 9488TIP3   OH249878   4.088   3.370  12.091  0.4524 -0.0571 -0.2796
 9488TIP3    H149879   4.098   3.275  12.090 -0.0987 -0.1097 -0.6043
 9488TIP3    H249880   4.086   3.396  11.999 -0.6347  0.1369 -0.2104
 9489TIP3   OH249881   3.668   1.014   2.832  0.1072 -0.2338  0.3409
 9489TIP3    H149882   3.694   1.106   2.817 -0.4910  0.0776  1.2102
 9489TIP3    H249883   3.736   0.963   2.787  1.2290  0.6065  1.0568
 9490TIP3   OH249884   5.507   0.503   5.101 -0.3433 -0.1225  0.0551
 9490TIP3    H149885   5.532   0.424   5.053 -1.0810 -1.4369  1.7767
 9490TIP3    H249886   5.528   0.483   5.192 -0.2952  1.7808  0.4726
 9491TIP3   OH249887   2.093   3.653   4.531 -0.3853  0.0069  0.3186
 9491TIP3    H149888   2.158   3.584   4.543 -0.0999  0.2273  0.0521
 9491TIP3    H249889   2.141   3.724   4.488 -1.0855 -0.2656 -0.9323
 9492TIP3   OH249890   2.346   5.613   4.825 -0.4870 -0.2181 -0.0818
 9492TIP3    H149891   2.359   5.519   4.839  1.0366 -0.2463 -1.5185
 9492TIP3    H249892   2.421   5.640   4.774 -0.4017  2.0150  1.1551
 9493TIP3   OH249893   5.639   4.932   0.749 -0.0499  0.8648 -0.8438
 9493TIP3    H149894   5.660   5.025   0.756 -0.0625  0.7115  1.8412
 9493TIP3    H249895   5.616   4.906   0.838 -1.2762 -1.4312 -1.7775
 9494TIP3   OH249896   3.806   4.012  13.959  0.1854 -0.1948  0.9079
 9494TIP3    H149897   3.719   4.018  13.997 -0.5247 -1.3273 -0.4936
 9494TIP3    H249898   3.858   4.077  14.008 -1.8752  1.8114  0.5244
 9495TIP3   OH249899   1.465   3.793   0.873  0.4058  0.3288 -0.1136
 9495TIP3    H149900   1.512   3.870   0.902  0.9621 -0.1731  0.3368
 9495TIP3    H249901   1.531   3.739   0.830 -0.0186  0.1942 -0.6052
 9496TIP3   OH249902   6.414   1.903  15.067 -0.5037  0.0931 -0.4539
 9496TIP3    H149903   6.384   1.831  15.012 -1.2634  0.6674 -0.8084
 9496TIP3    H249904   6.386   1.982  15.020  0.1740  0.6184  0.0081
 9497TIP3   OH249905   0.626   0.870  16.242  0.4374  0.1756 -0.1549
 9497TIP3    H149906   0.720   0.876  16.225  0.1815  0.7538 -1.4836
 9497TIP3    H249907   0.593   0.959  16.227  0.0151  0.4982  2.5268
 9498TIP3   OH249908   6.395   2.342  15.788 -0.3362 -0.7911 -0.0407
 9498TIP3    H149909   6.334   2.273  15.814 -0.8912 -0.5239 -0.6548
 9498TIP3    H249910   6.437   2.308  15.709 -2.1674  0.4865 -1.5996
 9499TIP3   OH249911   4.316   1.292  15.205 -0.6076 -0.2278  0.0381
 9499TIP3    H149912   4.386   1.306  15.269  0.1147  0.2441 -0.8404
 9499TIP3    H249913   4.253   1.362  15.222 -1.4196 -1.3090  1.5587
 9500TIP3   OH249914   4.664   2.760   5.001  0.1293  0.2461  0.0509
 9500TIP3    H149915   4.723   2.739   5.072  0.3975 -1.5116 -0.6762
 9500TIP3    H249916   4.718   2.811   4.939  0.1595  0.9037  0.6072
 9501TIP3   OH249917   0.097   5.360  14.752  0.4417 -0.7494 -0.1033
 9501TIP3    H149918   0.126   5.308  14.678  2.2854  2.6605 -1.9012
 9501TIP3    H249919   0.003   5.374  14.737  0.5415 -1.1623 -1.1042
 9502TIP3   OH249920   4.792   4.687  12.820  0.8222  0.0703 -0.1614
 9502TIP3    H149921   4.887   4.689  12.824  0.7532  0.9185  1.6976
 9502TIP3    H249922   4.764   4.749  12.887 -1.0371  0.8116 -1.5669
 9503TIP3   OH249923   2.461   4.697  15.331  0.2253 -0.3340  0.5039
 9503TIP3    H149924   2.508   4.618  15.359 -1.7496 -1.4107  0.8491
 9503TIP3    H249925   2.430   4.676  15.243  1.4024  0.8448 -0.2187
 9504TIP3   OH249926   1.689   6.757   3.216  0.2083 -0.0662  0.2961
 9504TIP3    H149927   1.714   6.669   3.245 -1.2871 -0.3087  0.9065
 9504TIP3    H249928   1.593   6.756   3.216  0.1788  1.2924 -0.5485
 9505TIP3   OH249929   1.432   0.658  14.456 -0.3527 -0.6363 -0.3996
 9505TIP3    H149930   1.456   0.578  14.411 -1.2755 -2.0086  1.4971
 9505TIP3    H249931   1.336   0.657  14.457 -0.3613 -0.1918  0.7930
 9506TIP3   OH249932   1.870   6.179  13.592  0.1700  0.2999 -0.3267
 9506TIP3    H149933   1.802   6.125  13.551 -1.4329  0.4414  2.0242
 9506TIP3    H249934   1.824   6.257  13.622  1.1973  0.0984  1.9067
 9507TIP3   OH249935   0.829   0.336   1.778 -0.5314 -0.0594  0.7682
 9507TIP3    H149936   0.783   0.297   1.852 -2.4665  2.0791  0.7428
 9507TIP3    H249937   0.822   0.430   1.791  0.1364  0.3516 -1.4963
 9508TIP3   OH249938   3.783   4.917   4.945  0.0538  0.2069 -0.0916
 9508TIP3    H149939   3.726   4.944   5.017 -0.5658 -0.3949 -0.3511
 9508TIP3    H249940   3.781   4.990   4.884 -0.9533 -0.0728 -0.4022
 9509TIP3   OH249941   0.271   1.534   4.326  0.1662  0.7417 -0.2034
 9509TIP3    H149942   0.351   1.519   4.276 -0.5338  2.2587 -1.8036
 9509TIP3    H249943   0.222   1.453   4.317  1.2554 -0.0013  0.3417
 9510TIP3   OH249944   2.107   1.186  13.388 -0.2718 -0.2045  0.2627
 9510TIP3    H149945   2.044   1.180  13.459  0.6170 -0.4436  1.0469
 9510TIP3    H249946   2.064   1.145  13.313 -1.2608  0.1547  0.6247
 9511TIP3   OH249947   3.908   1.865   3.895 -0.7330 -0.6325  0.3924
 9511TIP3    H149948   3.954   1.805   3.836 -2.5244 -1.2558 -0.4165
 9511TIP3    H249949   3.971   1.884   3.964  2.0693  1.5517 -2.6299
 9512TIP3   OH249950   6.697   1.794   1.594 -0.3678 -0.1671 -0.5801
 9512TIP3    H149951   6.747   1.717   1.618 -0.7399 -0.7846 -1.7563
 9512TIP3    H249952   6.730   1.819   1.508  1.1169  2.1625  0.6268
 9513TIP3   OH249953   5.924   1.724  15.841  0.3201 -0.6696 -0.3175
 9513TIP3    H149954   5.955   1.655  15.899 -0.1553 -0.1827  0.5312
 9513TIP3    H249955   5.943   1.692  15.752 -0.1425 -2.0023  0.0491
 9514TIP3   OH249956   2.772   0.274  12.686 -0.2570  0.3876  0.0106
 9514TIP3    H149957   2.815   0.210  12.742 -1.3310 -1.1491 -0.8788
 9514TIP3    H249958   2.782   0.357  12.732  0.8944 -0.4578  1.3299
 9515TIP3   OH249959   5.217   5.281  11.349  0.4958 -0.1808  1.0554
 9515TIP3    H149960   5.236   5.273  11.442  2.5186 -1.5169  0.5731
 9515TIP3    H249961   5.218   5.190  11.317  2.0157  0.4062 -0.6438
 9516TIP3   OH249962   4.508   0.024   5.249  0.0435 -0.4673  0.7468
 9516TIP3    H149963   4.558   0.103   5.266 -1.1229  0.0744  1.7841
 9516TIP3    H249964   4.567  -0.032   5.198  0.8471  1.0784 -0.0476
 9517TIP3   OH249965   4.859   6.405  11.142 -0.1381 -0.3476 -0.5091
 9517TIP3    H149966   4.803   6.404  11.064  0.4447  0.1853 -0.9377
 9517TIP3    H249967   4.923   6.474  11.125  1.1509 -1.4781 -0.3650
 9518TIP3   OH249968   3.149   4.763  12.390 -0.3158 -0.5750 -0.2039
 9518TIP3    H149969   3.194   4.810  12.460  1.4078  0.0609 -1.7015
 9518TIP3    H249970   3.215   4.754  12.321 -2.5099  0.4894 -2.5098
 9519TIP3   OH249971   0.493   1.350  15.350  0.1907  0.1621  0.3324
 9519TIP3    H149972   0.511   1.272  15.299 -0.8346  0.9341 -1.2494
 9519TIP3    H249973   0.405   1.337  15.385  0.4109  0.1782  0.9078
 9520TIP3   OH249974   3.341   2.522   4.722  0.1802 -0.5256 -0.0969
 9520TIP3    H149975   3.384   2.488   4.644 -0.7482 -2.5332  0.2341
 9520TIP3    H249976   3.302   2.445   4.764  0.7567  0.4780  2.4168
 9521TIP3   OH249977   3.786   0.343  11.162 -0.2462 -0.0625 -0.7479
 9521TIP3    H149978   3.740   0.360  11.245  0.6363  1.6494 -0.5902
 9521TIP3    H249979   3.768   0.421  11.108  1.4548  0.0928 -1.1228
 9522TIP3   OH249980   6.581   2.978   3.212  0.5220 -0.6213  0.0560
 9522TIP3    H149981   6.560   3.057   3.262 -2.0915 -0.7303 -0.7914
 9522TIP3    H249982   6.535   2.908   3.259  1.0376 -1.3059 -0.4530
 9523TIP3   OH249983   4.809   1.861  14.016  0.5706 -0.0532  0.2126
 9523TIP3    H149984   4.764   1.790  13.970 -0.1517 -0.3485  1.3500
 9523TIP3    H249985   4.740   1.910  14.060  1.2677  0.0188  1.2596
 9524TIP3   OH249986   3.379   3.732   5.225 -0.4878  0.1911  0.7373
 9524TIP3    H149987   3.472   3.733   5.202 -0.0757  1.1432  2.3930
 9524TIP3    H249988   3.339   3.798   5.168  0.1623  1.0472  1.2723
 9525TIP3   OH249989   6.648   0.703   2.468 -0.4027 -0.0435 -0.4328
 9525TIP3    H149990   6.726   0.692   2.522 -0.6365 -0.5663 -0.1919
 9525TIP3    H249991   6.596   0.770   2.511  0.0650  0.5294 -0.7669
 9526TIP3   OH249992   5.269   5.971   3.360  0.3942  1.0007  0.1382
 9526TIP3    H149993   5.225   5.946   3.441 -1.6819  0.3432 -1.1601
 9526TIP3    H249994   5.245   6.063   3.347 -0.1535  0.7992 -0.2844
 9527TIP3   OH249995   6.420   3.838  14.592  0.4821  0.2467 -0.9839
 9527TIP3    H149996   6.378   3.762  14.552 -1.8354  1.2367 -0.4941
 9527TIP3    H249997   6.359   3.866  14.660  1.6489  2.1388 -0.6857
 9528TIP3   OH249998   3.424   0.360   4.126  0.4343 -0.0193  0.5647
 9528TIP3    H149999   3.330   0.361   4.145  0.4586 -0.2092  0.6940
 9528TIP3    H250000   3.429   0.342   4.032  0.3014  1.3284  0.2917
 9529TIP3   OH250001   0.024   4.654  16.494 -0.5479  0.1673 -0.1614
 9529TIP3    H150002  -0.049   4.592  16.493  0.2483 -0.8485  2.4213
 9529TIP3    H250003  -0.017   4.740  16.507 -1.2304 -0.5679  2.9303
 9530TIP3   OH250004   0.701   6.120   4.981  0.1814  0.3520 -0.0675
 9530TIP3    H150005   0.714   6.200   4.930 -1.1539  1.3032  1.0567
 9530TIP3    H250006   0.738   6.139   5.067 -3.1313  1.0126  1.2915
 9531TIP3   OH250007   5.571   4.576   5.682 -0.1439  0.3177  0.0707
 9531TIP3    H150008   5.530   4.533   5.607 -0.6396  0.4667  0.2585
 9531TIP3    H250009   5.658   4.536   5.688  0.2929  1.0623 -1.2271
 9532TIP3   OH250010   6.232   2.474   0.581 -0.1495  0.5484  0.8815
 9532TIP3    H150011   6.186   2.558   0.580  2.4053  1.9857  0.2223
 9532TIP3    H250012   6.260   2.462   0.671  0.3440  0.8714  0.7680
 9533TIP3   OH250013   0.353   2.741  16.617 -0.2698 -0.4119  0.0755
 9533TIP3    H150014   0.370   2.817  16.562 -1.4344 -0.9258 -1.0207
 9533TIP3    H250015   0.260   2.747  16.640 -0.2329 -1.1751  0.4760
 9534TIP3   OH250016   6.217   3.640  16.451  0.0756 -0.0169  0.4859
 9534TIP3    H150017   6.123   3.659  16.463  0.3527  0.9235  1.3095
 9534TIP3    H250018   6.242   3.595  16.532  0.3885 -0.0366  0.3761
 9535TIP3   OH250019   2.966   3.425   2.618 -0.0256 -0.5292  0.4452
 9535TIP3    H150020   2.898   3.431   2.685 -1.0752 -0.0999 -0.6491
 9535TIP3    H250021   3.024   3.499   2.636 -1.5976  0.9619 -0.5274
 9536TIP3   OH250022   0.257   2.796  15.157 -0.0549 -0.3029  0.0179
 9536TIP3    H150023   0.297   2.785  15.243 -1.0236 -0.9421  0.3970
 9536TIP3    H250024   0.331   2.807  15.097  0.7283 -2.2468  0.5942
 9537TIP3   OH250025   0.553   4.052  15.104 -0.1577  0.1941  0.0675
 9537TIP3    H150026   0.627   4.044  15.164 -0.0190  0.2159 -0.1014
 9537TIP3    H250027   0.587   4.104  15.031  0.0040 -0.8145 -0.5796
 9538TIP3   OH250028   5.518   1.256  13.773 -0.4077  0.2896 -0.4724
 9538TIP3    H150029   5.601   1.220  13.804 -2.6425 -3.5215  1.4558
 9538TIP3    H250030   5.527   1.259  13.678  2.3264  1.0160 -0.2096
 9539TIP3   OH250031   6.411   4.675  13.570  0.2455  0.6302  0.0879
 9539TIP3    H150032   6.449   4.762  13.562  2.3909 -0.1716  1.0984
 9539TIP3    H250033   6.454   4.623  13.502  0.4810 -0.1296  0.8065
 9540TIP3   OH250034   6.416   4.658  11.727  0.9852  0.1109  0.2661
 9540TIP3    H150035   6.400   4.703  11.810 -1.1598  0.2259 -0.1872
 9540TIP3    H250036   6.447   4.727  11.668  2.8961 -0.0421  1.0472
 9541TIP3   OH250037   1.964   6.724  16.843  0.2098  0.6272  0.1730
 9541TIP3    H150038   1.980   6.643  16.893 -3.1390  1.0027  1.9508
 9541TIP3    H250039   1.959   6.792  16.909  1.8246  2.1755 -1.2431
 9542TIP3   OH250040   2.064   2.799   3.933 -0.2637 -0.6781  0.8437
 9542TIP3    H150041   2.019   2.716   3.922 -2.6284  0.5111  1.2976
 9542TIP3    H250042   2.013   2.846   3.999  1.0485  1.1192  0.6264
 9543TIP3   OH250043   5.141   3.114  13.894  0.0009  0.1371  0.0522
 9543TIP3    H150044   5.100   3.144  13.813 -0.7375 -0.7369  0.1003
 9543TIP3    H250045   5.235   3.117  13.875 -0.1438  0.5593 -0.6203
 9544TIP3   OH250046   4.009   4.268   5.834 -0.6874  0.3452 -0.0175
 9544TIP3    H150047   4.072   4.285   5.903  0.3816 -0.6058 -0.7501
 9544TIP3    H250048   3.932   4.233   5.879  0.0962 -0.5012  0.6593
 9545TIP3   OH250049   4.888   4.142   3.147 -0.4250  0.0485  0.0831
 9545TIP3    H150050   4.811   4.090   3.124 -1.6304  0.8377  2.1350
 9545TIP3    H250051   4.922   4.173   3.063 -1.9960 -0.8226 -0.9093
 9546TIP3   OH250052   1.289   1.039  16.694  0.4255  0.1071  0.5625
 9546TIP3    H150053   1.331   1.098  16.756 -1.3800  1.1026  0.8919
 9546TIP3    H250054   1.227   0.989  16.748  0.6129 -0.7552 -0.0248
 9547TIP3   OH250055   4.535   1.487   5.556 -0.0559 -0.0558 -0.0202
 9547TIP3    H150056   4.501   1.576   5.557  0.0440 -0.0207  0.2634
 9547TIP3    H250057   4.568   1.473   5.645 -0.0360 -0.3602 -0.0766
 9548TIP3   OH250058   5.127   2.794  17.217  0.7768  0.4213 -0.5993
 9548TIP3    H150059   5.111   2.886  17.238  1.6682  0.8071 -1.5743
 9548TIP3    H250060   5.049   2.767  17.168  0.2821  0.5022  0.1377
 9549TIP3   OH250061   6.698   4.478  15.864  0.0602 -0.5591  0.1396
 9549TIP3    H150062   6.788   4.445  15.857  0.5305  0.8614 -0.5076
 9549TIP3    H250063   6.673   4.498  15.774  0.4230  2.5449  0.6814
 9550TIP3   OH250064   2.346   3.003  12.975 -0.2685  0.2156 -0.2063
 9550TIP3    H150065   2.336   2.912  12.945 -2.7243  0.1111  0.8184
 9550TIP3    H250066   2.414   3.040  12.917 -0.3708 -1.7939 -1.6711
 9551TIP3   OH250067   4.229   0.901  15.043 -0.5153 -0.4035 -0.2046
 9551TIP3    H150068   4.271   0.821  15.012 -0.6084 -0.9945  1.1476
 9551TIP3    H250069   4.276   0.972  15.000 -0.4857 -1.1891 -1.4778
 9552TIP3   OH250070   6.613   5.099   6.256  0.1857  0.0982 -0.6778
 9552TIP3    H150071   6.665   5.098   6.176 -0.7938  0.8408 -1.3416
 9552TIP3    H250072   6.544   5.035   6.240  0.3027 -0.1451 -0.2097
 9553TIP3   OH250073   5.042   4.337  11.864 -0.7303  0.1069 -0.5285
 9553TIP3    H150074   5.137   4.344  11.869 -0.5455 -0.7470 -2.2451
 9553TIP3    H250075   5.014   4.329  11.955  0.8764 -0.0635 -0.0204
 9554TIP3   OH250076   5.682   6.344   2.912 -0.6619 -0.2041  0.1593
 9554TIP3    H150077   5.719   6.414   2.965 -0.8884  0.7656 -0.9504
 9554TIP3    H250078   5.671   6.382   2.825 -0.9573 -1.5592 -0.4153
 9555TIP3   OH250079   3.397   1.536   5.225  0.7114 -0.5159 -0.0544
 9555TIP3    H150080   3.405   1.570   5.314  1.9521 -0.3919 -0.2099
 9555TIP3    H250081   3.476   1.565   5.180  1.2000 -2.5384 -0.5496
 9556TIP3   OH250082   5.807   5.627   5.894 -0.1404 -0.0275 -0.0208
 9556TIP3    H150083   5.730   5.653   5.843 -0.7894  0.1360  1.0303
 9556TIP3    H250084   5.881   5.661   5.844 -0.8941  2.9433  0.7550
 9557TIP3   OH250085   5.583   0.724   4.738 -0.1417 -0.2949 -0.5091
 9557TIP3    H150086   5.645   0.729   4.665 -0.5261 -1.0684 -0.8885
 9557TIP3    H250087   5.607   0.798   4.794 -0.0736  0.5204 -1.6011
 9558TIP3   OH250088   3.102   6.283  16.883 -0.9244 -0.1211 -0.2700
 9558TIP3    H150089   3.008   6.270  16.897 -1.1800  1.7246 -0.0988
 9558TIP3    H250090   3.110   6.377  16.862  1.0988  0.1941  1.7132
 9559TIP3   OH250091   2.935   2.853  11.853  0.0025 -0.1483  0.4528
 9559TIP3    H150092   3.015   2.897  11.823 -0.2690 -0.5156 -0.8480
 9559TIP3    H250093   2.868   2.921  11.853  0.2856  0.1342  1.4323
 9560TIP3   OH250094   6.122   5.756  15.696 -0.0579 -0.6102  0.0890
 9560TIP3    H150095   6.137   5.735  15.603  0.9776  0.6744 -0.0439
 9560TIP3    H250096   6.043   5.809  15.696  0.6032  0.3887 -0.1961
 9561TIP3   OH250097   3.214   2.652  15.145 -0.4760 -0.0270  0.2146
 9561TIP3    H150098   3.283   2.707  15.182  0.3728  0.8988 -2.5950
 9561TIP3    H250099   3.139   2.663  15.204  1.2369  0.2520  2.3871
 9562TIP3   OH250100   4.996   1.988   3.750 -0.2296 -0.1159  0.2465
 9562TIP3    H150101   4.921   1.932   3.772 -0.6577 -0.6105 -2.2856
 9562TIP3    H250102   5.043   1.998   3.832 -2.5851 -0.5430  1.6952
 9563TIP3   OH250103   2.941   0.854  16.119  0.0208  0.2349 -0.3459
 9563TIP3    H150104   3.019   0.845  16.175 -0.9210 -0.7493  0.8425
 9563TIP3    H250105   2.896   0.770  16.129 -2.0090  1.3716  0.2056
 9564TIP3   OH250106   5.834   1.682  11.893  0.1789  0.3512  0.8498
 9564TIP3    H150107   5.887   1.691  11.972  1.9351  0.9939 -0.3722
 9564TIP3    H250108   5.758   1.738  11.909  1.0317  1.3004  1.6710
 9565TIP3   OH250109   6.404   5.165   2.888  0.5124 -0.6896 -0.3314
 9565TIP3    H150110   6.388   5.144   2.796 -0.7737  0.2700 -0.3293
 9565TIP3    H250111   6.439   5.254   2.886 -0.3426 -0.3470  0.1800
 9566TIP3   OH250112   3.204   6.666  11.362 -0.3936  0.1915 -0.0746
 9566TIP3    H150113   3.281   6.659  11.419  0.4505 -0.8526 -1.3234
 9566TIP3    H250114   3.144   6.599  11.394 -0.5976  0.6802  0.5893
 9567TIP3   OH250115   6.121   3.452   1.231 -0.0225  0.0915  0.1061
 9567TIP3    H150116   6.143   3.361   1.254  0.5088 -0.0513 -0.9181
 9567TIP3    H250117   6.035   3.466   1.270  0.0419 -0.7436  0.5689
 9568TIP3   OH250118   1.731   3.201   2.860  0.7233  0.0026 -0.8439
 9568TIP3    H150119   1.750   3.134   2.925 -0.0072  0.3823 -0.2404
 9568TIP3    H250120   1.772   3.168   2.779  4.7209  1.1707  0.5572
 9569TIP3   OH250121   0.143   5.803   0.009 -0.8590 -0.4408 -0.2906
 9569TIP3    H150122   0.073   5.847   0.057 -0.1872  0.8687 -0.5053
 9569TIP3    H250123   0.113   5.802  -0.082  0.3709  2.1390 -0.7681
 9570TIP3   OH250124   2.395   5.284   3.055  0.6452  0.4127 -0.0788
 9570TIP3    H150125   2.333   5.240   2.996 -0.8818  1.8431  0.4167
 9570TIP3    H250126   2.412   5.219   3.124 -0.8792  0.2553  0.1648
 9571TIP3   OH250127   1.378   1.950  13.617 -0.3438 -0.0557  0.5106
 9571TIP3    H150128   1.312   1.906  13.670 -0.2716 -0.4448  0.2747
 9571TIP3    H250129   1.342   2.037  13.600 -1.0020 -0.4278 -0.0110
 9572TIP3   OH250130   6.744   3.281   0.600  0.5766 -0.6277  0.1798
 9572TIP3    H150131   6.805   3.303   0.670 -1.1667  0.1692  1.4988
 9572TIP3    H250132   6.733   3.186   0.607  1.6481 -0.7684 -0.0551
 9573TIP3   OH250133   6.014   0.872  11.946 -0.9530 -0.3372 -0.0270
 9573TIP3    H150134   5.967   0.838  12.023 -0.2784 -1.2573 -0.0160
 9573TIP3    H250135   6.006   0.803  11.881  0.7966 -0.7165  0.1389
 9574TIP3   OH250136   6.561   3.351  12.637  0.1299  0.0792  0.5307
 9574TIP3    H150137   6.496   3.387  12.576  0.6362  1.6673  0.9222
 9574TIP3    H250138   6.586   3.424  12.693  1.8225 -0.6554  0.7775
 9575TIP3   OH250139   4.132   0.544   3.527  0.2601 -0.1824  0.8284
 9575TIP3    H150140   4.177   0.523   3.609 -0.6908 -0.5099  1.2739
 9575TIP3    H250141   4.066   0.608   3.552  1.0262  0.9213  0.0303
 9576TIP3   OH250142   1.884   1.063   1.940  0.4156  0.5392  0.0533
 9576TIP3    H150143   1.822   1.038   1.871  0.0279 -1.8280  1.2001
 9576TIP3    H250144   1.861   1.153   1.961 -2.2806 -0.0862  0.0195
 9577TIP3   OH250145   6.584   2.444  14.194 -0.0433  0.0095  0.2775
 9577TIP3    H150146   6.628   2.358  14.195 -0.4152 -0.1844 -0.1184
 9577TIP3    H250147   6.596   2.477  14.283 -0.4713 -0.7420  0.6222
 9578TIP3   OH250148   6.140   2.435  11.900 -0.2349  0.2619  0.2374
 9578TIP3    H150149   6.065   2.377  11.910  0.4519 -0.6987 -0.1515
 9578TIP3    H250150   6.102   2.523  11.898 -1.5153 -0.2987 -1.6169
 9579TIP3   OH250151   3.578   4.696   2.329 -0.2922 -0.0275  0.0161
 9579TIP3    H150152   3.508   4.674   2.268  0.6217 -0.2579 -0.9737
 9579TIP3    H250153   3.536   4.700   2.414 -1.4798 -0.2865 -0.5524
 9580TIP3   OH250154   4.393   5.613   3.273 -0.4734  0.4053 -0.0722
 9580TIP3    H150155   4.457   5.570   3.217 -0.7548  0.7141 -0.6391
 9580TIP3    H250156   4.417   5.586   3.361 -0.1640 -0.2763 -0.3543
 9581TIP3   OH250157   4.424   4.456  11.999 -1.1544 -0.1630 -0.4977
 9581TIP3    H150158   4.480   4.531  11.977 -0.8719 -0.1119  0.3849
 9581TIP3    H250159   4.462   4.421  12.079 -3.0666  0.5645  0.7675
 9582TIP3   OH250160   4.879   1.587  13.246  0.3521  0.3268  0.2637
 9582TIP3    H150161   4.915   1.675  13.244  0.3671  0.3037 -0.8924
 9582TIP3    H250162   4.906   1.551  13.330  0.7558  1.2540  0.5286
 9583TIP3   OH250163   5.092   6.387  11.449 -0.3253  0.2376 -0.4817
 9583TIP3    H150164   5.067   6.433  11.369  0.6778  0.4846 -0.6640
 9583TIP3    H250165   5.053   6.300  11.440 -0.4813  0.3675 -1.0951
 9584TIP3   OH250166   4.926   1.469   3.998 -0.2947 -0.5334  0.9681
 9584TIP3    H150167   5.000   1.444   4.052 -0.1492  1.1163  1.5492
 9584TIP3    H250168   4.942   1.560   3.974 -1.3830 -0.6085 -0.1484
 9585TIP3   OH250169   1.841   5.162   2.123 -0.7246 -0.6521  0.3520
 9585TIP3    H150170   1.810   5.211   2.199  1.9867 -0.7238  1.5930
 9585TIP3    H250171   1.820   5.070   2.143 -2.1771 -0.4309 -0.1176
 9586TIP3   OH250172   6.372   2.804  15.322  0.0523 -0.7183  0.0763
 9586TIP3    H150173   6.334   2.890  15.303  2.8049  0.6504  0.5580
 9586TIP3    H250174   6.304   2.742  15.297 -1.4243  1.5397 -1.6837
 9587TIP3   OH250175   1.982   4.206   2.555 -0.0471 -0.1371  0.7018
 9587TIP3    H150176   2.065   4.168   2.527 -0.4160  0.7620 -1.7243
 9587TIP3    H250177   1.916   4.142   2.526 -0.2679 -0.4927  1.9589
 9588TIP3   OH250178   4.387   1.367  11.098 -0.6189  0.2977  0.5812
 9588TIP3    H150179   4.416   1.276  11.091 -0.2384  0.3566  1.3323
 9588TIP3    H250180   4.468   1.417  11.097 -0.8854  0.7067 -1.0097
 9589TIP3   OH250181   6.272   4.384  16.435 -0.1880 -0.4251 -0.0359
 9589TIP3    H150182   6.207   4.323  16.400  2.2836 -2.3712 -1.4299
 9589TIP3    H250183   6.312   4.337  16.508  0.3284  0.3678  0.1921
 9590TIP3   OH250184   1.543   3.979  15.333  0.0304  0.8950  0.0511
 9590TIP3    H150185   1.626   3.955  15.292 -0.5987 -0.3669 -0.4766
 9590TIP3    H250186   1.547   3.939  15.420 -0.2641  0.3812 -0.1751
 9591TIP3   OH250187   0.999   4.165  15.934 -0.1952 -0.5990  0.6846
 9591TIP3    H150188   1.075   4.135  15.884  0.0651 -0.6745  1.1229
 9591TIP3    H250189   0.985   4.096  15.999 -1.3710 -1.1645 -0.1551
 9592TIP3   OH250190   6.252   2.338   1.436  0.3685  0.3638  0.2833
 9592TIP3    H150191   6.254   2.428   1.468 -0.9135 -0.1482  1.9001
 9592TIP3    H250192   6.342   2.308   1.441  0.7173  1.3923  0.2257
 9593TIP3   OH250193   4.421   1.636   4.244 -0.6083  0.4891 -0.0922
 9593TIP3    H150194   4.446   1.543   4.248 -1.5637  0.0693 -2.8371
 9593TIP3    H250195   4.503   1.683   4.258  0.5717 -0.8116 -2.4576
 9594TIP3   OH250196   6.021   4.655   5.712  0.0064  0.3240  0.4188
 9594TIP3    H150197   6.061   4.669   5.626 -1.3529 -1.5983 -0.5620
 9594TIP3    H250198   6.042   4.734   5.761 -1.4641  2.6697 -2.5723
 9595TIP3   OH250199   2.509   3.596  16.181  0.4377  0.7570  0.4474
 9595TIP3    H150200   2.467   3.520  16.141 -0.6915  1.2453  0.6699
 9595TIP3    H250201   2.452   3.670  16.158  0.4499  1.2326  1.8808
 9596TIP3   OH250202   6.300   4.148   1.144 -0.5216  0.5657 -0.0412
 9596TIP3    H150203   6.220   4.098   1.130  0.5855 -0.7001 -2.1636
 9596TIP3    H250204   6.354   4.092   1.200 -0.3582  0.5503 -0.2120
 9597TIP3   OH250205   2.881   5.054  13.844  0.1176  0.1514  0.4448
 9597TIP3    H150206   2.846   5.143  13.842  0.8942  0.4534 -0.3869
 9597TIP3    H250207   2.811   4.999  13.810 -0.2157  0.5009  0.5666
 9598TIP3   OH250208   3.661   4.081   3.018 -0.3397 -0.2036 -0.2924
 9598TIP3    H150209   3.712   4.024   3.077 -1.7563 -0.7024  0.4619
 9598TIP3    H250210   3.718   4.156   3.004  0.2339 -0.3094  1.3153
 9599TIP3   OH250211   0.194   4.151  13.497  0.4421  0.2091 -0.4883
 9599TIP3    H150212   0.206   4.068  13.451  0.5177  0.6001 -1.1889
 9599TIP3    H250213   0.236   4.138  13.582  0.5694 -0.4243 -0.6417
 9600TIP3   OH250214   3.920   1.435  14.130  0.2540  0.1820 -0.7743
 9600TIP3    H150215   3.848   1.415  14.190 -0.0635 -0.1369 -1.2574
 9600TIP3    H250216   3.880   1.488  14.061  0.4898  0.0436 -1.0193
 9601TIP3   OH250217   0.326   3.094   2.977  0.1205  0.1474  0.2171
 9601TIP3    H150218   0.242   3.059   3.006  0.3116 -0.8055 -0.3604
 9601TIP3    H250219   0.313   3.189   2.976 -1.3257 -0.0328 -0.9466
 9602TIP3   OH250220   4.250   2.807  13.330 -0.1064 -0.2361  0.3438
 9602TIP3    H150221   4.282   2.856  13.253 -1.4083  2.6585  1.5591
 9602TIP3    H250222   4.314   2.826  13.398 -1.1161  0.5550  1.0811
 9603TIP3   OH250223   5.591   3.343  13.634  0.3842  0.2691  0.1939
 9603TIP3    H150224   5.546   3.426  13.619 -1.0706 -0.0938  2.2377
 9603TIP3    H250225   5.527   3.276  13.607  0.8487 -0.2046  0.2495
 9604TIP3   OH250226   3.828   0.996   0.775 -0.2208 -0.4082  0.6043
 9604TIP3    H150227   3.734   1.013   0.771 -0.2760 -0.6027  1.1061
 9604TIP3    H250228   3.865   1.057   0.711 -0.9215 -2.0291 -1.4170
 9605TIP3   OH250229   5.037   1.877   2.361 -0.0417  0.5180  0.4312
 9605TIP3    H150230   5.091   1.955   2.359  2.2515 -1.0401 -0.9385
 9605TIP3    H250231   5.050   1.840   2.449  1.0253  0.2441  0.1667
 9606TIP3   OH250232   3.561   4.974  12.131 -0.3543 -0.2683 -0.2217
 9606TIP3    H150233   3.479   5.012  12.163 -0.2577 -0.6397  0.4608
 9606TIP3    H250234   3.600   4.932  12.207  0.5509  0.0326 -0.5070
 9607TIP3   OH250235   5.360   5.425   5.409 -0.1502 -0.0772 -0.2736
 9607TIP3    H150236   5.422   5.465   5.348  1.0015 -0.5427  0.5612
 9607TIP3    H250237   5.294   5.492   5.424  0.3125  0.5419 -0.9427
 9608TIP3   OH250238   4.566   2.700   3.130  0.5330 -0.9305 -0.5105
 9608TIP3    H150239   4.611   2.675   3.049 -1.1301 -1.7207 -1.2123
 9608TIP3    H250240   4.539   2.791   3.116  2.5748 -0.1944  0.2266
 9609TIP3   OH250241   1.503   1.047   2.721  0.3592 -0.7041 -0.1296
 9609TIP3    H150242   1.590   1.083   2.703  0.0215 -0.1913 -0.7264
 9609TIP3    H250243   1.442   1.108   2.680 -0.2183 -1.8913 -1.0890
 9610TIP3   OH250244   5.779   1.652   6.534 -0.7704  0.0985  0.2795
 9610TIP3    H150245   5.862   1.610   6.556 -0.1055 -0.0161 -2.3447
 9610TIP3    H250246   5.791   1.743   6.563  0.1375  0.0070  0.2124
 9611TIP3   OH250247   2.148   5.852  16.928 -0.1030  0.3534 -0.0066
 9611TIP3    H150248   2.138   5.768  16.972 -0.2445  0.2160 -0.3054
 9611TIP3    H250249   2.066   5.899  16.947 -0.6109 -0.1165 -1.0103
 9612TIP3   OH250250   6.766   6.376  14.547 -0.5198 -0.4247  0.0357
 9612TIP3    H150251   6.708   6.340  14.614 -0.1331 -2.2497 -0.5653
 9612TIP3    H250252   6.752   6.319  14.471  3.4175 -2.1428  0.4579
 9613TIP3   OH250253   1.782   4.711   4.181 -0.7337 -0.0680  0.0125
 9613TIP3    H150254   1.738   4.708   4.096 -1.6876  1.0782  0.4644
 9613TIP3    H250255   1.722   4.758   4.239  0.1632 -0.3180  1.1757
 9614TIP3   OH250256   3.836   2.267   1.605  0.5459 -0.3998 -0.3950
 9614TIP3    H150257   3.772   2.331   1.577  0.5754 -0.3302 -0.3061
 9614TIP3    H250258   3.870   2.302   1.688 -1.6629 -2.0242  1.2615
 9615TIP3   OH250259   0.281   5.549   3.087 -0.2640 -0.2959 -0.2046
 9615TIP3    H150260   0.360   5.588   3.047 -0.1126  0.1065  0.4775
 9615TIP3    H250261   0.292   5.564   3.180 -1.6553  0.6923 -0.1836
 9616TIP3   OH250262   5.255   4.756   5.410 -0.2655 -0.4508  0.0107
 9616TIP3    H150263   5.325   4.759   5.476 -0.3256 -2.3081  0.1686
 9616TIP3    H250264   5.176   4.734   5.460 -0.9415  1.3839 -0.2070
 9617TIP3   OH250265   4.080   3.366   3.481 -0.1329  0.3724  0.6148
 9617TIP3    H150266   4.128   3.394   3.403  0.7482  0.8950  1.3354
 9617TIP3    H250267   4.007   3.314   3.447  1.2826 -0.9577 -0.4580
 9618TIP3   OH250268   6.245   2.173   4.814 -0.1365 -0.9503  0.3261
 9618TIP3    H150269   6.310   2.106   4.794 -0.0253 -0.5014 -0.8728
 9618TIP3    H250270   6.256   2.239   4.744  0.3778  0.7658  1.9805
 9619TIP3   OH250271   6.783   3.336  14.180 -0.5594  0.3375 -0.2901
 9619TIP3    H150272   6.743   3.315  14.264 -1.7608 -0.6613 -1.1080
 9619TIP3    H250273   6.734   3.285  14.115 -0.4142  1.9780 -1.7422
 9620TIP3   OH250274   1.380   1.067  15.910 -0.1327  0.3986 -0.7060
 9620TIP3    H150275   1.407   1.007  15.841  1.9202  1.2177 -0.6483
 9620TIP3    H250276   1.290   1.092  15.886 -0.0089 -0.5346 -2.2076
 9621TIP3   OH250277   4.802   0.661   0.802  0.4685  0.4492 -0.5646
 9621TIP3    H150278   4.851   0.732   0.760  1.4916  1.1790  1.7511
 9621TIP3    H250279   4.868   0.612   0.850 -0.3407 -1.7118 -1.6099
 9622TIP3   OH250280   2.310   1.116  14.505  0.1292 -0.2819  0.1600
 9622TIP3    H150281   2.385   1.130  14.562  0.7775 -0.0448 -0.7322
 9622TIP3    H250282   2.234   1.118  14.563  0.8151 -0.5419  1.0668
 9623TIP3   OH250283   2.220   2.056   2.148  0.7165 -0.3687  0.0232
 9623TIP3    H150284   2.213   2.010   2.064  0.1429 -0.6486  0.2194
 9623TIP3    H250285   2.135   2.100   2.158  0.4023 -1.1476  0.9160
 9624TIP3   OH250286   2.541   0.046   5.484 -0.4479 -0.6429  0.1006
 9624TIP3    H150287   2.483  -0.030   5.489  0.5309 -1.3611  0.8259
 9624TIP3    H250288   2.628   0.009   5.476 -0.0024  0.4156 -0.0155
 9625TIP3   OH250289   6.338   2.599  17.109 -0.7109 -0.0336  0.2940
 9625TIP3    H150290   6.368   2.553  17.188 -1.1941  1.1454  1.1731
 9625TIP3    H250291   6.303   2.682  17.142 -2.1996 -0.1255 -1.0266
 9626TIP3   OH250292   2.599   0.240   0.118 -0.3560  0.0229 -0.4237
 9626TIP3    H150293   2.533   0.193   0.169 -0.2720  0.7165  0.3393
 9626TIP3    H250294   2.550   0.305   0.068 -0.5188 -1.1461 -1.8073
 9627TIP3   OH250295   5.467   5.714   0.292 -0.1291  0.8351 -0.2417
 9627TIP3    H150296   5.454   5.806   0.312 -2.7125  0.7814 -1.5267
 9627TIP3    H250297   5.395   5.669   0.335 -0.2388 -0.3299 -1.6061
 9628TIP3   OH250298   3.071   4.684  14.109  0.0141 -0.0150  0.3161
 9628TIP3    H150299   3.005   4.698  14.042 -0.9136 -1.4700  0.8905
 9628TIP3    H250300   3.128   4.616  14.073 -0.4874 -0.8006  0.9536
 9629TIP3   OH250301   4.344   2.565  17.114  0.6743 -0.2666 -0.4999
 9629TIP3    H150302   4.314   2.622  17.184 -0.6571  0.3891 -1.5865
 9629TIP3    H250303   4.271   2.504  17.100  1.1576 -0.7522 -0.9370
 9630TIP3   OH250304   4.267   1.428  13.229  0.5955 -0.3823 -0.4665
 9630TIP3    H150305   4.299   1.391  13.147  3.6581  1.0775  0.0060
 9630TIP3    H250306   4.235   1.515  13.205  2.5491  0.5070 -0.0007
 9631TIP3   OH250307   4.581   3.703  16.943  0.1659  0.7530  0.0336
 9631TIP3    H150308   4.675   3.698  16.959  0.3838  0.7969 -1.1855
 9631TIP3    H250309   4.543   3.641  17.006  1.1667 -0.6456 -0.6995
 9632TIP3   OH250310   4.535   6.543  13.111 -0.2406  0.8791  0.7525
 9632TIP3    H150311   4.532   6.483  13.186  2.5563 -0.0926  0.1611
 9632TIP3    H250312   4.626   6.573  13.108 -0.3525  1.0848 -2.1106
 9633TIP3   OH250313   3.343   2.939  16.088  0.5246  0.4071 -0.1992
 9633TIP3    H150314   3.381   2.988  16.016  0.7741  1.0996  0.3940
 9633TIP3    H250315   3.282   3.001  16.129  0.1052 -0.1035 -0.0504
 9634TIP3   OH250316   2.620   1.671   3.805 -0.0506 -0.9616 -0.1299
 9634TIP3    H150317   2.594   1.580   3.793 -2.6019 -0.5043  1.4579
 9634TIP3    H250318   2.594   1.714   3.724  1.8826 -1.7748 -1.1992
 9635TIP3   OH250319   0.097   5.252  11.285  0.5786  0.1326 -0.1084
 9635TIP3    H150320   0.104   5.335  11.331  0.2827  0.5043 -0.7334
 9635TIP3    H250321   0.015   5.214  11.317  0.8692 -0.0610  0.4080
 9636TIP3   OH250322   5.332   1.509   2.270  0.1261  0.2848 -0.0784
 9636TIP3    H150323   5.288   1.551   2.344  0.1763 -0.2658  0.2685
 9636TIP3    H250324   5.270   1.517   2.198 -0.7662 -0.9257  0.5342
 9637TIP3   OH250325   1.775   3.759   5.693  0.1784  0.7930  0.4035
 9637TIP3    H150326   1.713   3.711   5.638  0.5817 -0.1788  0.8041
 9637TIP3    H250327   1.789   3.842   5.646 -0.7733  0.6661 -0.1068
 9638TIP3   OH250328   0.554   4.585  17.200 -0.6954  0.0066 -0.3212
 9638TIP3    H150329   0.645   4.600  17.177 -1.3963  0.3896 -2.9828
 9638TIP3    H250330   0.538   4.643  17.275  1.9457 -2.1040  1.9821
 9639TIP3   OH250331   4.258   1.559   0.652 -0.5045 -0.2379 -0.0388
 9639TIP3    H150332   4.218   1.473   0.660 -1.3397 -0.1943 -3.2430
 9639TIP3    H250333   4.185   1.621   0.655 -0.2326  0.1437 -1.1819
 9640TIP3   OH250334   5.738   4.630   5.204 -0.4656  0.2161 -0.7782
 9640TIP3    H150335   5.713   4.707   5.153 -1.6576 -0.9637 -2.0083
 9640TIP3    H250336   5.738   4.661   5.295 -3.5603  1.0397 -1.0025
 9641TIP3   OH250337   3.391   1.672  16.366  0.2196  0.0983  0.1400
 9641TIP3    H150338   3.367   1.588  16.406 -0.6754 -0.9013 -2.4339
 9641TIP3    H250339   3.312   1.726  16.374  0.1290 -0.0085 -0.0321
 9642TIP3   OH250340   1.150   2.106   1.376 -0.5040  0.8832 -0.1905
 9642TIP3    H150341   1.063   2.143   1.359 -1.7355 -2.0754 -0.5929
 9642TIP3    H250342   1.202   2.130   1.299 -1.9582 -0.2271 -1.5328
 9643TIP3   OH250343   2.065   4.909   3.715  0.1004 -0.2499  0.0565
 9643TIP3    H150344   2.021   4.826   3.697  1.3274 -0.9424  0.2436
 9643TIP3    H250345   2.082   4.907   3.809 -1.7826  1.1640  0.4661
 9644TIP3   OH250346   0.920   1.596   3.974  0.0376  0.2019 -0.0384
 9644TIP3    H150347   0.925   1.692   3.968  0.3807  0.3011  1.7216
 9644TIP3    H250348   1.006   1.566   3.946  0.3096  0.4700  0.5040
 9645TIP3   OH250349   6.005   3.408   1.623 -0.1687  0.1291  0.6235
 9645TIP3    H150350   6.054   3.327   1.638 -0.2778 -0.0943 -0.1918
 9645TIP3    H250351   6.065   3.478   1.650  0.6646 -0.1329 -0.5350
 9646TIP3   OH250352   6.320   1.272  15.232 -0.1363 -0.6702  0.4530
 9646TIP3    H150353   6.304   1.200  15.293  0.7086 -0.8811  0.4270
 9646TIP3    H250354   6.249   1.265  15.168  0.3442 -1.9137  0.0467
 9647TIP3   OH250355   6.544   6.755  14.571  0.5266  0.3884  0.2367
 9647TIP3    H150356   6.473   6.808  14.609 -0.6160 -0.0337 -1.3016
 9647TIP3    H250357   6.583   6.711  14.647 -0.2545  1.3212  1.2072
 9648TIP3   OH250358   3.963   0.623  12.383 -0.2877  0.2127  0.1020
 9648TIP3    H150359   3.997   0.693  12.327  0.0361 -0.9542 -1.2020
 9648TIP3    H250360   4.019   0.548  12.363 -0.9891 -0.5772  1.0619
 9649TIP3   OH250361   5.277   0.966  13.573 -0.0478  0.2046  0.5105
 9649TIP3    H150362   5.261   0.958  13.479 -0.7083 -1.5551  0.7589
 9649TIP3    H250363   5.264   0.878  13.607 -1.7177  1.1991  2.5495
 9650TIP3   OH250364   0.296   4.610   5.669  0.3961  0.1364 -0.2193
 9650TIP3    H150365   0.386   4.643   5.676  0.6496 -0.6199  0.0944
 9650TIP3    H250366   0.303   4.517   5.688 -0.3376 -0.0892 -1.0175
 9651TIP3   OH250367   4.681   0.089  13.801 -0.1501  0.4298 -0.0989
 9651TIP3    H150368   4.634   0.106  13.719  0.1493  0.5620 -0.2457
 9651TIP3    H250369   4.736   0.166  13.814 -0.3248  0.4842  0.3191
 9652TIP3   OH250370   1.584   4.647  11.955 -0.0818 -0.6641  0.1532
 9652TIP3    H150371   1.511   4.587  11.937 -0.3441 -0.1138 -0.6064
 9652TIP3    H250372   1.578   4.663  12.049 -0.5818 -1.0931  0.1993
 9653TIP3   OH250373   6.277   1.776   6.748 -0.1410 -0.7065  0.5614
 9653TIP3    H150374   6.350   1.813   6.698  0.5853 -0.4189  1.8058
 9653TIP3    H250375   6.299   1.683   6.758 -1.0997 -1.1262 -1.0513
 9654TIP3   OH250376   5.111   5.480  15.175  0.1308 -0.8381 -0.1972
 9654TIP3    H150377   5.137   5.471  15.267  0.8016 -0.8075 -0.3840
 9654TIP3    H250378   5.192   5.501  15.129 -0.7129  2.3357 -0.3363
 9655TIP3   OH250379   4.722   2.392   5.196  0.4233 -0.3198 -0.2369
 9655TIP3    H150380   4.716   2.424   5.107  1.2713 -1.8807 -0.8819
 9655TIP3    H250381   4.816   2.392   5.216  0.3642 -1.3201  0.1218
 9656TIP3   OH250382   1.771   0.773   0.630  0.0753 -0.2383  0.3338
 9656TIP3    H150383   1.684   0.778   0.590  0.3172 -1.5199 -0.3774
 9656TIP3    H250384   1.762   0.822   0.712 -1.0718  0.3978 -0.1507
 9657TIP3   OH250385   2.615   0.642  13.673 -0.3423  0.3546 -0.5308
 9657TIP3    H150386   2.664   0.647  13.592  0.5711  1.7558  0.0837
 9657TIP3    H250387   2.620   0.550  13.699  0.8270  0.2398 -1.1551
 9658TIP3   OH250388   5.341   0.452   2.719 -0.2501 -0.2097 -0.1726
 9658TIP3    H150389   5.393   0.527   2.690 -0.5577  0.5249  1.1219
 9658TIP3    H250390   5.364   0.442   2.812 -1.0171 -1.0518 -0.0713
 9659TIP3   OH250391   1.752   5.758  16.558  0.3259 -0.0401 -0.4058
 9659TIP3    H150392   1.680   5.765  16.496 -0.9412 -0.2974  0.9999
 9659TIP3    H250393   1.750   5.841  16.606  1.7547  0.4568 -1.1682
 9660TIP3   OH250394   4.937   4.140  16.507  0.4926  0.8455  0.0650
 9660TIP3    H150395   4.982   4.095  16.435  0.9735 -2.5730  2.4020
 9660TIP3    H250396   5.005   4.191  16.550  1.4799 -1.6202  1.5115
 9661TIP3   OH250397   6.245   0.007  11.641  0.4578  0.2475 -0.5122
 9661TIP3    H150398   6.305   0.014  11.567 -0.3555  1.2922 -1.0863
 9661TIP3    H250399   6.164   0.047  11.611  0.1520  0.8058  0.9766
 9662TIP3   OH250400   0.482   3.578  16.747  0.1749 -0.0918  0.1224
 9662TIP3    H150401   0.537   3.522  16.692 -0.1712 -0.1325 -0.1780
 9662TIP3    H250402   0.507   3.554  16.837  1.6958  0.9423 -0.0209
 9663TIP3   OH250403   6.002   5.159  13.094 -0.0717  0.0739  0.0706
 9663TIP3    H150404   6.011   5.200  13.181 -4.1427 -0.8223  1.0294
 9663TIP3    H250405   6.049   5.218  13.035 -0.0942  2.5448  2.3890
 9664TIP3   OH250406   0.550   2.306  13.427 -0.1648  0.3298 -0.3197
 9664TIP3    H150407   0.632   2.346  13.396  0.3067 -0.5486 -0.2097
 9664TIP3    H250408   0.484   2.335  13.363  0.9188 -2.0436 -2.5986
 9665TIP3   OH250409   0.292   2.027  16.850 -0.0018 -0.1568  0.0970
 9665TIP3    H150410   0.270   2.100  16.909 -0.8824 -0.0575 -0.3461
 9665TIP3    H250411   0.374   1.992  16.885 -0.1413  0.3596  0.9593
 9666TIP3   OH250412   4.619   4.599   5.019  0.4663  0.3222  0.8723
 9666TIP3    H150413   4.702   4.552   5.022  0.6060  0.0862 -3.4688
 9666TIP3    H250414   4.644   4.691   5.010  0.2300  0.4304  1.2993
 9667TIP3   OH250415   5.602   0.440  11.606 -0.1809 -0.0088  0.3231
 9667TIP3    H150416   5.601   0.491  11.525  2.5634 -0.3210  0.0561
 9667TIP3    H250417   5.549   0.363  11.586 -1.3772  0.9914 -0.4344
 9668TIP3   OH250418   2.910   4.596   0.880  0.3646  0.1085  0.0666
 9668TIP3    H150419   2.947   4.543   0.950 -0.3982 -1.5439 -0.7653
 9668TIP3    H250420   2.888   4.534   0.811 -2.3212  1.2289 -0.1693
 9669TIP3   OH250421   6.197   2.676   4.942 -0.4710 -0.6116 -0.8818
 9669TIP3    H150422   6.189   2.602   5.002 -1.5471 -0.5937 -1.0002
 9669TIP3    H250423   6.172   2.640   4.857  0.0119 -0.3676 -1.1274
 9670TIP3   OH250424   1.656   2.019  14.793  0.4246  0.0296  0.2808
 9670TIP3    H150425   1.658   2.104  14.749  0.2226 -1.0164 -1.7788
 9670TIP3    H250426   1.564   1.993  14.791  0.6530 -0.7595 -0.0929
 9671TIP3   OH250427   1.269   1.268  13.586 -1.0838 -0.1585  0.1269
 9671TIP3    H150428   1.362   1.284  13.568 -1.0332 -0.3026  0.2575
 9671TIP3    H250429   1.255   1.303  13.674 -1.3467  0.6091 -0.2158
 9672TIP3   OH250430   2.975   2.301   5.377  0.1994 -0.2160 -0.3398
 9672TIP3    H150431   2.949   2.212   5.353  1.1443 -0.4935 -0.3392
 9672TIP3    H250432   3.066   2.307   5.350 -0.2027  1.1396 -1.3961
 9673TIP3   OH250433   2.715   5.799  12.174  0.4848  0.7168 -0.2796
 9673TIP3    H150434   2.679   5.818  12.088  0.7226 -2.2393 -1.0895
 9673TIP3    H250435   2.639   5.797  12.233  0.1599  1.3665 -0.6800
 9674TIP3   OH250436   0.282   4.062  15.377  0.3707 -0.2816  0.1938
 9674TIP3    H150437   0.266   4.132  15.314  0.1592  0.1854  0.7645
 9674TIP3    H250438   0.198   4.046  15.418  0.1605 -1.6381 -0.6960
 9675TIP3   OH250439   0.967   3.757  14.496 -0.7283 -0.3133 -0.3429
 9675TIP3    H150440   1.041   3.700  14.515 -1.6110 -2.6848 -3.5936
 9675TIP3    H250441   0.896   3.722  14.550  0.7318  2.9864  4.0880
 9676TIP3   OH250442   0.451   3.764   2.361  0.1680 -0.0540 -0.3340
 9676TIP3    H150443   0.384   3.696   2.372  1.4587 -1.6308 -1.9105
 9676TIP3    H250444   0.423   3.813   2.283 -0.5288  0.9798  0.5480
 9677TIP3   OH250445   1.475   2.440  11.911  0.1995  0.2042 -0.0748
 9677TIP3    H150446   1.525   2.489  11.977 -0.3256  0.6504 -0.0039
 9677TIP3    H250447   1.537   2.426  11.840  1.0206 -1.0101  0.8607
 9678TIP3   OH250448   6.114   2.514   3.668 -0.0905  0.2140 -0.2076
 9678TIP3    H150449   6.119   2.489   3.576 -1.5499  1.7131 -0.7042
 9678TIP3    H250450   6.054   2.451   3.707  1.2690 -1.0178 -0.0468
 9679TIP3   OH250451   6.339   3.556   1.434 -0.0554  0.4333 -0.5856
 9679TIP3    H150452   6.349   3.501   1.357 -0.8738  0.8514 -1.0083
 9679TIP3    H250453   6.365   3.643   1.405 -0.4086  0.6023 -0.4113
 9680TIP3   OH250454   1.055   2.008   1.062  0.4280 -0.0787 -0.0639
 9680TIP3    H150455   1.143   1.993   1.097  0.3859 -0.0356  0.0592
 9680TIP3    H250456   1.068   2.073   0.993  0.5507 -0.3738 -0.3202
 9681TIP3   OH250457   3.837   0.252  15.186  0.7644 -0.1190  0.1234
 9681TIP3    H150458   3.923   0.242  15.147  0.5270 -1.2003 -0.1338
 9681TIP3    H250459   3.801   0.331  15.146  2.1818  1.1251  1.2608
 9682TIP3   OH250460   1.963   0.206   0.273  0.0690 -0.5319  0.0692
 9682TIP3    H150461   1.935   0.223   0.183 -1.0355 -0.8122  0.3484
 9682TIP3    H250462   1.977   0.111   0.276  1.3006 -0.3701 -0.1250
 9683TIP3   OH250463   0.193   6.773  16.130  0.5055  0.0127  0.5937
 9683TIP3    H150464   0.110   6.811  16.104  1.2288  0.7363 -0.6989
 9683TIP3    H250465   0.219   6.719  16.055  1.8857  0.9270  0.4077
 9684TIP3   OH250466   5.653   3.903   0.904 -0.0148 -0.4073 -0.1271
 9684TIP3    H150467   5.614   3.966   0.844 -2.5856 -0.3480  1.5375
 9684TIP3    H250468   5.636   3.818   0.863 -2.1814 -0.4000  0.6635
 9685TIP3   OH250469   1.763   6.180   3.444  0.4809  0.0146 -0.3962
 9685TIP3    H150470   1.679   6.173   3.398 -0.0058 -0.0555  0.5010
 9685TIP3    H250471   1.824   6.213   3.378 -0.2998  0.2583 -0.9960
 9686TIP3   OH250472   5.822   4.897   3.683 -0.3597  0.4999 -0.3593
 9686TIP3    H150473   5.863   4.963   3.738 -0.6204 -0.5405  1.1112
 9686TIP3    H250474   5.815   4.939   3.597  0.7789  1.8588  0.1776
 9687TIP3   OH250475   4.015   4.137   5.588 -0.4239  0.4347  0.0964
 9687TIP3    H150476   3.992   4.205   5.651 -0.2082 -0.6595  1.3668
 9687TIP3    H250477   3.932   4.109   5.550 -0.5923  0.7596  0.2243
 9688TIP3   OH250478   5.367   4.303  15.331  0.6728 -0.2265 -0.4788
 9688TIP3    H150479   5.381   4.309  15.425  1.3757 -0.4144 -0.5734
 9688TIP3    H250480   5.384   4.211  15.310  3.0312  0.3436 -1.2023
 9689TIP3   OH250481   5.298   2.642  12.070 -0.0236  0.5299 -0.4187
 9689TIP3    H150482   5.220   2.593  12.097  0.1550  0.5234  0.0945
 9689TIP3    H250483   5.282   2.731  12.100 -1.3187  1.3042 -3.2987
 9690TIP3   OH250484   4.001   0.754   3.292 -0.2321 -0.6789  0.3466
 9690TIP3    H150485   4.001   0.753   3.388 -1.8522  0.5567  0.3821
 9690TIP3    H250486   3.953   0.676   3.266  0.2808 -1.0585  0.5362
 9691TIP3   OH250487   1.959   0.342  12.770  0.0311  0.1777  0.3306
 9691TIP3    H150488   1.965   0.409  12.838  0.0454  1.5321 -0.9710
 9691TIP3    H250489   1.876   0.361  12.725  1.1876  0.8221 -1.5708
 9692TIP3   OH250490   4.669   3.552  14.185 -0.2835  0.2723 -0.5310
 9692TIP3    H150491   4.758   3.549  14.151 -0.0129 -1.4363  0.2904
 9692TIP3    H250492   4.660   3.471  14.237 -1.2318  1.9839  2.0745
 9693TIP3   OH250493   2.204   0.430   2.727  0.6385 -0.0088 -0.0820
 9693TIP3    H150494   2.281   0.469   2.685  0.5321 -0.2332 -0.4892
 9693TIP3    H250495   2.184   0.489   2.799  0.2608  0.8903 -0.9137
 9694TIP3   OH250496   3.207   5.717   2.846 -0.9026  0.0226  0.0949
 9694TIP3    H150497   3.204   5.773   2.769 -2.6482  0.4278  0.4424
 9694TIP3    H250498   3.132   5.744   2.899  1.1455  0.8106  2.6953
 9695TIP3   OH250499   5.913   0.453   5.830  0.2207 -0.6750  0.3746
 9695TIP3    H150500   5.971   0.454   5.753  0.3255  0.7085  0.4734
 9695TIP3    H250501   5.973   0.459   5.904 -0.0035  0.0907  0.4965
 9696TIP3   OH250502   0.686   0.689  14.803  0.4320 -0.0928 -0.2781
 9696TIP3    H150503   0.748   0.760  14.820  2.3954 -1.6311 -0.8182
 9696TIP3    H250504   0.629   0.723  14.734  0.4188  1.4835  0.4797
 9697TIP3   OH250505   0.818   3.631  12.739 -0.4020  0.4965 -0.4428
 9697TIP3    H150506   0.847   3.717  12.767  0.7423 -0.1474  0.4248
 9697TIP3    H250507   0.724   3.640  12.725 -0.8563  1.1139  2.6523
 9698TIP3   OH250508   2.804   5.602   6.063 -0.1749 -0.3759 -0.5536
 9698TIP3    H150509   2.769   5.539   6.126 -0.3532 -0.5832 -0.8577
 9698TIP3    H250510   2.876   5.644   6.109 -2.0934  1.5023  0.8194
 9699TIP3   OH250511   1.195   2.344   3.298  0.0841  0.0645  0.1030
 9699TIP3    H150512   1.250   2.421   3.282 -1.0625  0.8621 -0.0558
 9699TIP3    H250513   1.256   2.276   3.327  1.2237  0.7677 -0.6186
 9700TIP3   OH250514   5.253   2.731  13.769  0.1633 -0.0132  0.4954
 9700TIP3    H150515   5.273   2.650  13.816 -0.0989 -0.8217 -0.7641
 9700TIP3    H250516   5.333   2.751  13.720  0.3038  0.6182  0.9736
 9701TIP3   OH250517   0.156   5.500  11.403  0.4371 -0.1406 -0.0737
 9701TIP3    H150518   0.251   5.495  11.414  0.4004  1.3548  1.1909
 9701TIP3    H250519   0.139   5.592  11.381 -0.9370  0.2348  2.3659
 9702TIP3   OH250520   0.183   2.139  11.214  0.0583 -0.4723  0.0328
 9702TIP3    H150521   0.098   2.141  11.257  0.7031 -0.6264  1.3586
 9702TIP3    H250522   0.227   2.218  11.246 -0.0238  0.2436 -1.5738
 9703TIP3   OH250523   2.231   4.107  14.236 -0.7904  0.1893 -0.2447
 9703TIP3    H150524   2.269   4.118  14.323  0.5143  0.9036 -0.8832
 9703TIP3    H250525   2.215   4.196  14.205  1.0147  0.0374 -1.6886
 9704TIP3   OH250526   2.730   3.790  17.195  1.0456 -0.7010  0.8674
 9704TIP3    H150527   2.742   3.761  17.105  2.6190  0.6148  0.6332
 9704TIP3    H250528   2.815   3.826  17.221  0.5375 -0.8128  2.7853
 9705TIP3   OH250529   2.183   5.440   4.190 -0.3305  0.1972 -0.0324
 9705TIP3    H150530   2.186   5.534   4.170 -0.6711  0.5278  1.4483
 9705TIP3    H250531   2.091   5.423   4.212  0.0913 -0.0890  1.5523
 9706TIP3   OH250532   4.171   5.492  14.676  0.1478  0.1697  0.0694
 9706TIP3    H150533   4.210   5.535  14.752  0.9355 -1.1269  0.4192
 9706TIP3    H250534   4.160   5.401  14.703 -0.1991 -0.1519 -1.1353
 9707TIP3   OH250535   4.405   4.319   2.476  0.4108 -0.1520  0.2360
 9707TIP3    H150536   4.466   4.284   2.411  1.6634  1.1917  0.6623
 9707TIP3    H250537   4.446   4.300   2.560  0.2444  0.7427  0.5243
 9708TIP3   OH250538   0.517   2.513  15.340 -0.2148 -0.2679 -0.1298
 9708TIP3    H150539   0.438   2.459  15.336 -0.3752  0.0313 -1.0392
 9708TIP3    H250540   0.489   2.594  15.381 -0.2218 -0.4390  0.2032
 9709TIP3   OH250541   3.965   5.412   2.048 -0.4414 -0.2083 -0.1386
 9709TIP3    H150542   4.012   5.368   2.118 -0.5803 -0.2490 -0.0712
 9709TIP3    H250543   3.933   5.341   1.992 -1.2916 -0.2265  0.3658
 9710TIP3   OH250544   3.746   1.508   3.751  0.4656 -0.1328  0.0968
 9710TIP3    H150545   3.836   1.487   3.726 -0.1075  0.0381 -2.1951
 9710TIP3    H250546   3.692   1.463   3.686 -1.0065  2.4482 -0.5198
 9711TIP3   OH250547   1.293   1.909   3.169  0.0303 -0.6048 -0.5410
 9711TIP3    H150548   1.271   1.896   3.262 -0.7051  0.1239 -0.6046
 9711TIP3    H250549   1.320   1.823   3.138 -0.8881 -1.1022  0.0443
 9712TIP3   OH250550   5.571   2.916   3.767  0.0960  0.1285 -0.0544
 9712TIP3    H150551   5.616   2.854   3.824  2.3934  1.2004 -0.6468
 9712TIP3    H250552   5.584   3.001   3.808  2.5584  1.0339 -2.5826
 9713TIP3   OH250553   2.907   6.003  15.318 -0.0060 -0.1166  0.4920
 9713TIP3    H150554   2.975   6.029  15.380  0.0792 -0.2875  0.4696
 9713TIP3    H250555   2.900   6.077  15.257 -0.2209  0.1303  0.8150
 9714TIP3   OH250556   3.747   0.141   4.575 -0.3600 -0.0524 -0.3427
 9714TIP3    H150557   3.722   0.049   4.568 -1.7006  0.3133 -0.5794
 9714TIP3    H250558   3.673   0.182   4.620  1.9046  0.2284  3.3052
 9715TIP3   OH250559   3.897   3.880  11.200 -0.2910 -0.1535 -0.4642
 9715TIP3    H150560   3.930   3.949  11.142 -1.8173  0.4449 -0.6385
 9715TIP3    H250561   3.938   3.898  11.285 -1.9151  1.9249 -0.0961
 9716TIP3   OH250562   5.088   6.546   0.614  0.5453 -0.4846 -0.5144
 9716TIP3    H150563   5.135   6.628   0.601  1.2977 -0.8529 -0.1763
 9716TIP3    H250564   5.156   6.483   0.639 -0.4153 -0.4695  2.3496
 9717TIP3   OH250565   3.898   6.335   4.301  0.0231 -0.6342 -0.0676
 9717TIP3    H150566   3.865   6.352   4.390 -0.9980  1.6783 -0.8452
 9717TIP3    H250567   3.911   6.422   4.264  1.1509 -1.5848 -1.9542
 9718TIP3   OH250568   4.552   6.459   1.571  0.0652  0.1923  0.0330
 9718TIP3    H150569   4.634   6.506   1.560  0.0160  0.0089 -1.1395
 9718TIP3    H250570   4.499   6.485   1.496 -1.2446  0.9218  1.1955
 9719TIP3   OH250571   2.948   3.873   1.845 -0.3089 -0.4928 -0.1427
 9719TIP3    H150572   2.939   3.787   1.886  0.7633 -0.9147 -0.7709
 9719TIP3    H250573   2.985   3.854   1.759  1.4612  0.7421  0.3370
 9720TIP3   OH250574   0.829   5.527   2.169 -0.4990  0.5408  0.5927
 9720TIP3    H150575   0.888   5.512   2.095 -1.5185 -0.5477 -0.0348
 9720TIP3    H250576   0.820   5.622   2.175 -0.6437  0.6336 -0.9009
 9721TIP3   OH250577   4.273   5.113  16.985  0.2322  0.0401  0.6329
 9721TIP3    H150578   4.357   5.160  16.977 -0.6021  1.4757  0.0325
 9721TIP3    H250579   4.298   5.024  17.009  2.0317  0.0591 -0.9984
 9722TIP3   OH250580   2.979   4.786  13.225 -0.4667  0.1043  0.3609
 9722TIP3    H150581   3.037   4.718  13.260  1.7501  2.4325  1.3845
 9722TIP3    H250582   2.896   4.774  13.272  0.8646 -0.0054  2.7761
 9723TIP3   OH250583   2.271   5.307   3.936 -0.2680  0.3259  0.0763
 9723TIP3    H150584   2.200   5.276   3.993  0.8594  2.4156  2.7157
 9723TIP3    H250585   2.230   5.316   3.850 -3.1056  1.0131  1.4320
 9724TIP3   OH250586   2.468   4.000  13.192  0.2706 -0.3927 -0.5970
 9724TIP3    H150587   2.482   4.022  13.284 -1.6257 -1.2842 -0.0697
 9724TIP3    H250588   2.556   3.989  13.156  1.0118 -0.9953  1.3419
 9725TIP3   OH250589   1.406   0.331  13.554  0.2210  0.2406  0.0524
 9725TIP3    H150590   1.420   0.346  13.648  0.9526 -0.4526  0.0546
 9725TIP3    H250591   1.426   0.238  13.541 -1.2815 -0.0221 -0.5255
 9726TIP3   OH250592   2.050   3.315   4.575  0.2827 -0.6887 -0.0364
 9726TIP3    H150593   2.120   3.375   4.551 -0.6271  0.7106  0.7041
 9726TIP3    H250594   1.984   3.371   4.616 -0.5345 -2.2179  0.7829
 9727TIP3   OH250595   0.808   4.925  11.839 -0.5805  0.2849 -0.1557
 9727TIP3    H150596   0.770   5.007  11.870 -1.9037 -0.7062  0.9370
 9727TIP3    H250597   0.783   4.920  11.747 -4.5509 -1.0467  0.8719
 9728TIP3   OH250598   6.056   0.851   5.091  0.3719 -0.2085  0.0289
 9728TIP3    H150599   6.049   0.837   5.185  0.0488 -1.2135 -0.1438
 9728TIP3    H250600   6.081   0.943   5.082 -1.6505  0.4554  1.0321
 9729TIP3   OH250601   4.690   6.471  11.338 -0.9796  0.6781  0.0142
 9729TIP3    H150602   4.691   6.380  11.366 -0.6163  0.3451 -1.0451
 9729TIP3    H250603   4.754   6.475  11.266 -2.6705  1.2545 -1.5009
 9730TIP3   OH250604   6.295   1.313   5.339 -0.3072  0.0900  0.5198
 9730TIP3    H150605   6.386   1.282   5.331 -0.4547 -0.1918 -0.1437
 9730TIP3    H250606   6.302   1.408   5.333 -0.1449  0.0216 -0.5386
 9731TIP3   OH250607   3.104   3.924   1.610  0.0068  0.0326 -0.6067
 9731TIP3    H150608   3.070   4.005   1.573 -0.4230 -0.0041 -0.3025
 9731TIP3    H250609   3.199   3.934   1.610 -0.0624  0.6833 -0.2425
 9732TIP3   OH250610   0.295   2.337  15.037  0.1738  0.2876 -0.5654
 9732TIP3    H150611   0.206   2.303  15.045  0.0657  0.4086 -1.1614
 9732TIP3    H250612   0.333   2.328  15.124  0.2526 -1.6140 -0.7825
 9733TIP3   OH250613   3.306   2.773  12.039 -0.1711  0.0507  0.2157
 9733TIP3    H150614   3.257   2.744  11.963  0.9162 -1.2472 -0.0078
 9733TIP3    H250615   3.248   2.754  12.113 -0.6979  0.1050 -0.1785
 9734TIP3   OH250616   2.049   4.306   2.252  0.2596  0.7742 -0.2357
 9734TIP3    H150617   2.002   4.311   2.335  1.0001  1.6292  0.1336
 9734TIP3    H250618   1.995   4.356   2.191 -0.5429 -0.2723 -0.4041
 9735TIP3   OH250619   2.009   6.065  10.587  0.4271 -0.2539 -0.3012
 9735TIP3    H150620   2.098   6.030  10.579  1.0536  0.5209  2.5883
 9735TIP3    H250621   1.960   5.997  10.632 -0.6662 -0.9940 -2.5875
 9736TIP3   OH250622   4.109   5.291   0.058 -0.2053  0.2423  0.6467
 9736TIP3    H150623   4.084   5.201   0.078  0.3799  0.0509  0.5198
 9736TIP3    H250624   4.077   5.306  -0.031 -1.4845  0.6072  1.1402
 9737TIP3   OH250625   4.844   3.923  14.826  0.2923  0.0511 -0.4931
 9737TIP3    H150626   4.802   3.960  14.904  0.0368 -1.3926  0.0759
 9737TIP3    H250627   4.773   3.915  14.762  0.1731 -0.2627 -0.3209
 9738TIP3   OH250628   5.121   3.386  15.275 -0.8037  0.1873 -0.1889
 9738TIP3    H150629   5.199   3.399  15.330 -1.1143  0.1885  0.2578
 9738TIP3    H250630   5.069   3.465  15.287 -1.8910 -0.7014  1.2085
 9739TIP3   OH250631   2.524   2.936  10.617 -0.1803 -0.5553  0.3793
 9739TIP3    H150632   2.470   2.862  10.587 -0.6911 -0.0481  0.0375
 9739TIP3    H250633   2.570   2.902  10.693  0.0944 -1.4381 -0.1676
 9740TIP3   OH250634   0.873   5.063  16.671 -0.3516  0.0340  0.1198
 9740TIP3    H150635   0.779   5.043  16.662 -0.0772 -2.0836  1.7115
 9740TIP3    H250636   0.877   5.129  16.740 -0.7009  0.5653 -0.3620
 9741TIP3   OH250637   1.166   0.255   6.117 -0.1285 -0.0589 -0.3372
 9741TIP3    H150638   1.156   0.268   6.212  0.4734  0.2780 -0.3206
 9741TIP3    H250639   1.252   0.215   6.108  0.0844  0.5152 -0.8053
 9742TIP3   OH250640   3.564   2.290  12.569 -0.2196 -0.1750 -0.2128
 9742TIP3    H150641   3.577   2.284  12.474 -1.6714 -3.3354 -0.2849
 9742TIP3    H250642   3.603   2.209  12.603 -0.6902  0.4207  1.7752
 9743TIP3   OH250643   4.610   2.286  15.640  0.2065  0.1665  0.9760
 9743TIP3    H150644   4.538   2.248  15.589  1.6942  0.3893 -1.3735
 9743TIP3    H250645   4.659   2.210  15.672  0.7539  0.0330 -0.1493
 9744TIP3   OH250646   6.432   6.195   3.588  0.1530 -0.5768 -0.3676
 9744TIP3    H150647   6.498   6.237   3.643 -0.1702 -1.3219  0.5997
 9744TIP3    H250648   6.441   6.239   3.503  0.5421  0.6976  0.3126
 9745TIP3   OH250649   2.092   5.864  16.150  0.1721  0.1819  0.1225
 9745TIP3    H150650   2.020   5.920  16.123  0.3973  0.0690 -0.7079
 9745TIP3    H250651   2.074   5.780  16.109  1.0849  0.3184 -0.5848
 9746TIP3   OH250652   0.703   2.760  12.500  0.1159  0.3311 -0.1402
 9746TIP3    H150653   0.770   2.798  12.557  1.0769 -1.8655  0.2207
 9746TIP3    H250654   0.744   2.682  12.463 -1.1489  0.7097 -2.4026
 9747TIP3   OH250655   0.209   1.974   3.690 -0.9547  0.7489  0.0295
 9747TIP3    H150656   0.260   2.002   3.766  0.1882  0.3801 -0.5715
 9747TIP3    H250657   0.178   2.055   3.650 -1.2030  0.9618  0.6513
 9748TIP3   OH250658   1.825   4.980   4.949  0.1050 -0.1693  0.1548
 9748TIP3    H150659   1.797   5.071   4.961 -0.8166 -0.5788  1.1801
 9748TIP3    H250660   1.859   4.977   4.859  0.8391  1.3615  0.3559
 9749TIP3   OH250661   2.912   0.389   1.164 -0.2371  0.0155 -0.2444
 9749TIP3    H150662   2.987   0.330   1.156 -0.9468 -0.6788 -1.8448
 9749TIP3    H250663   2.891   0.415   1.074 -2.4499 -0.4696  0.0966
 9750TIP3   OH250664   1.310   0.298  15.352 -0.7017  0.0002 -0.7715
 9750TIP3    H150665   1.221   0.325  15.374  0.1774 -0.3228  3.7649
 9750TIP3    H250666   1.360   0.380  15.348 -0.9127  0.0775 -1.8303
 9751TIP3   OH250667   1.627   1.572   0.922 -0.5503 -0.3884 -0.1340
 9751TIP3    H150668   1.615   1.496   0.979 -0.5841 -0.8734 -0.7806
 9751TIP3    H250669   1.540   1.611   0.916 -0.6887 -0.7306 -0.3956
 9752TIP3   OH250670   6.318   4.114  12.351 -0.0434  0.1238 -0.3789
 9752TIP3    H150671   6.270   4.139  12.430  0.1698  1.0701 -0.5527
 9752TIP3    H250672   6.404   4.153  12.361  0.1482 -0.1692 -0.8541
 9753TIP3   OH250673   4.312   2.618   4.518 -0.4217 -0.6232 -0.0723
 9753TIP3    H150674   4.376   2.585   4.581  0.4904  0.4261 -0.4281
 9753TIP3    H250675   4.365   2.652   4.445 -1.3882 -0.0424 -0.5158
 9754TIP3   OH250676   3.060   2.619   2.329 -0.0625 -0.0823  0.3713
 9754TIP3    H150677   3.033   2.667   2.408 -2.6133 -0.5502 -0.1592
 9754TIP3    H250678   3.015   2.535   2.336  1.3729 -0.9452 -0.5699
 9755TIP3   OH250679   3.672   1.418  12.908 -0.2485  0.1747 -0.3214
 9755TIP3    H150680   3.756   1.387  12.939  0.3409  0.9253 -1.1361
 9755TIP3    H250681   3.674   1.513  12.923 -0.4764  0.3611 -1.4101
 9756TIP3   OH250682   5.259   0.202   1.676  0.3378  0.1381  0.1320
 9756TIP3    H150683   5.272   0.294   1.697 -2.1905  0.5735 -0.0367
 9756TIP3    H250684   5.272   0.197   1.581  1.4936  0.1308  0.2932
 9757TIP3   OH250685   5.464   6.666  15.633  0.1693 -0.3392  0.3163
 9757TIP3    H150686   5.379   6.640  15.597  0.3767 -1.4047  0.5729
 9757TIP3    H250687   5.520   6.673  15.556 -0.1734  0.4629  0.1350
 9758TIP3   OH250688   6.385   2.164  14.927  0.1865 -0.2048  0.1837
 9758TIP3    H150689   6.352   2.154  14.837 -1.2556  0.1740  0.6515
 9758TIP3    H250690   6.410   2.257  14.933  2.1206 -0.6666 -0.4106
 9759TIP3   OH250691   5.414   1.600   2.743  0.2509 -0.0688  0.3770
 9759TIP3    H150692   5.388   1.516   2.782 -0.5535 -0.4979 -1.0452
 9759TIP3    H250693   5.466   1.643   2.811 -0.8317 -0.9415  1.7843
 9760TIP3   OH250694   4.670   2.715  14.085  0.1894 -0.0940  0.4627
 9760TIP3    H150695   4.716   2.783  14.132  1.7720 -1.6186  1.1806
 9760TIP3    H250696   4.732   2.685  14.018 -1.0084  0.1494 -0.7810
 9761TIP3   OH250697   0.062   5.266  16.221  0.1441  0.5685  0.0677
 9761TIP3    H150698  -0.003   5.336  16.227 -1.4966 -0.8381 -0.8739
 9761TIP3    H250699   0.108   5.268  16.306 -2.7133  0.0521  1.6706
 9762TIP3   OH250700   6.699   0.556  16.503 -0.0609  0.0687  0.0027
 9762TIP3    H150701   6.617   0.514  16.527 -0.3731 -0.1776 -1.4490
 9762TIP3    H250702   6.706   0.544  16.408  0.5816  1.9643 -0.2246
 9763TIP3   OH250703   6.163   4.282  10.629  0.2517  0.5347  0.7841
 9763TIP3    H150704   6.245   4.324  10.601  0.5479 -0.2658  0.4314
 9763TIP3    H250705   6.108   4.355  10.658  0.9835  1.1124  0.7601
 9764TIP3   OH250706   2.280   6.125  11.563 -0.4369  0.4903  0.4126
 9764TIP3    H150707   2.209   6.110  11.501 -0.4029 -0.6116  0.6395
 9764TIP3    H250708   2.352   6.158  11.509 -0.4989 -0.1860 -0.0816
 9765TIP3   OH250709   3.267   6.582   2.433  0.0843 -0.1860  0.3120
 9765TIP3    H150710   3.301   6.526   2.504 -1.7739 -0.9377  0.6454
 9765TIP3    H250711   3.255   6.667   2.475 -0.0895 -0.3717  0.6480
 9766TIP3   OH250712   4.063   1.155  14.042  0.6876  0.1766 -0.2921
 9766TIP3    H150713   4.034   1.240  14.076 -0.4844 -1.0584  1.9611
 9766TIP3    H250714   4.001   1.135  13.972 -0.8815 -0.1076  1.1208
 9767TIP3   OH250715   1.082   6.080   2.365  0.0180 -0.2547 -0.1529
 9767TIP3    H150716   1.162   6.097   2.415 -1.2908  1.3599  1.4338
 9767TIP3    H250717   1.029   6.024   2.422 -1.3876  1.4080  0.1904
 9768TIP3   OH250718   3.173   2.051   2.730  0.1847 -0.2727 -0.1528
 9768TIP3    H150719   3.229   2.030   2.804  0.0050 -1.0073 -0.2243
 9768TIP3    H250720   3.233   2.079   2.661  0.5510 -2.0379 -0.5698
 9769TIP3   OH250721   0.227   2.406  16.509  0.1638 -0.1115  0.5402
 9769TIP3    H150722   0.285   2.408  16.585 -0.5316  1.4235  1.0535
 9769TIP3    H250723   0.151   2.356  16.538  0.7807 -1.2600  0.1946
 9770TIP3   OH250724   5.091   0.907   2.578 -0.1381  0.0921 -0.2119
 9770TIP3    H150725   5.131   0.867   2.655 -0.3221  0.5307  0.1159
 9770TIP3    H250726   5.060   0.833   2.526  1.1439 -0.2517 -0.5060
 9771TIP3   OH250727   4.636   2.303  16.260  0.1382  0.5351 -0.3165
 9771TIP3    H150728   4.668   2.363  16.328 -0.2177  0.2806  0.0739
 9771TIP3    H250729   4.542   2.319  16.256  0.1702  0.6225 -0.8285
 9772TIP3   OH250730   0.139   6.197   4.409 -0.0203  0.4674  0.0268
 9772TIP3    H150731   0.175   6.284   4.424 -0.5774  1.0473 -1.9037
 9772TIP3    H250732   0.215   6.142   4.392  0.5981 -0.1044  4.1678
 9773TIP3   OH250733   4.789   1.267  16.607  0.4048 -0.1954  0.5268
 9773TIP3    H150734   4.877   1.261  16.569  0.3423 -0.6461  0.4476
 9773TIP3    H250735   4.792   1.345  16.662  1.2016 -0.8239  1.3944
 9774TIP3   OH250736   0.434   5.001  14.441 -0.3107  0.5881 -0.1610
 9774TIP3    H150737   0.367   5.042  14.386  1.0482  0.7794 -1.7209
 9774TIP3    H250738   0.462   5.071  14.500  2.2744  2.1328 -3.0695
 9775TIP3   OH250739   4.967   1.307  14.858 -0.4766  0.3266 -0.4220
 9775TIP3    H150740   5.019   1.317  14.938 -2.2748 -0.1295  0.8366
 9775TIP3    H250741   4.970   1.214  14.838  1.5825  0.7003 -2.0358
 9776TIP3   OH250742   3.394   1.775  11.388 -0.1086 -0.0870  0.6540
 9776TIP3    H150743   3.370   1.739  11.302 -1.6244  0.4148  0.8537
 9776TIP3    H250744   3.488   1.760  11.394 -0.3383 -2.0293 -0.1980
 9777TIP3   OH250745   4.455   1.467  14.726  0.1752  0.2605 -0.0043
 9777TIP3    H150746   4.458   1.405  14.653  1.0257  0.7721 -0.4072
 9777TIP3    H250747   4.484   1.416  14.802  0.3353  0.0154 -0.2306
 9778TIP3   OH250748   6.253   3.918   4.274 -0.1838 -0.2822 -0.1956
 9778TIP3    H150749   6.208   3.951   4.352  1.6563  0.8726  0.3986
 9778TIP3    H250750   6.306   3.992   4.243  0.2090 -1.1734 -1.7190
 9779TIP3   OH250751   0.849   5.372   0.193  0.1556 -0.6232 -0.5106
 9779TIP3    H150752   0.760   5.349   0.168 -1.3759  2.8120  1.5120
 9779TIP3    H250753   0.885   5.418   0.117 -0.9761  0.9216 -0.1230
 9780TIP3   OH250754   0.153   0.358  16.018 -0.0709 -0.1034 -0.3430
 9780TIP3    H150755   0.089   0.385  16.083  0.5196 -1.0536  0.6358
 9780TIP3    H250756   0.100   0.326  15.945 -0.7233  0.3727 -0.0880
 9781TIP3   OH250757   5.529   5.782   4.161  0.2831  0.1074 -0.1846
 9781TIP3    H150758   5.573   5.758   4.079 -0.0496 -1.6449  0.1289
 9781TIP3    H250759   5.486   5.702   4.190 -1.9053  1.4075  0.3064
 9782TIP3   OH250760   2.723   1.524  14.124 -0.0238  0.1267 -0.1545
 9782TIP3    H150761   2.679   1.447  14.161  0.3559  0.0065  0.0458
 9782TIP3    H250762   2.684   1.534  14.037  0.5523 -0.8193 -0.5308
 9783TIP3   OH250763   6.066   6.399   4.051  0.1243 -0.8530 -0.3306
 9783TIP3    H150764   6.092   6.418   3.961 -0.1299  0.3694 -0.1496
 9783TIP3    H250765   6.102   6.471   4.102 -2.8641  0.4256  0.0440
 9784TIP3   OH250766   3.096   2.163  12.408  0.6328 -0.4220 -0.0066
 9784TIP3    H150767   3.027   2.205  12.356 -0.2937 -1.6911  0.1655
 9784TIP3    H250768   3.155   2.234  12.431 -0.8784  0.7883  0.2526
 9785TIP3   OH250769   0.354   2.075  11.794 -0.3956  0.5589 -0.2891
 9785TIP3    H150770   0.361   2.084  11.699 -0.4434 -0.1180 -0.3589
 9785TIP3    H250771   0.444   2.068  11.824 -0.4442 -1.1938 -0.4898
 9786TIP3   OH250772   0.740   5.209  12.533 -0.0643  0.0047 -0.6420
 9786TIP3    H150773   0.660   5.235  12.580  0.1785 -0.6727  0.1520
 9786TIP3    H250774   0.788   5.292  12.522 -0.0560  0.1584  0.4466
 9787TIP3   OH250775   4.309   1.980  16.231 -0.1871 -0.0057 -0.7004
 9787TIP3    H150776   4.293   2.037  16.306  1.7213  0.4956 -0.6622
 9787TIP3    H250777   4.348   1.901  16.269 -3.0260 -1.4797 -0.7261
 9788TIP3   OH250778   6.700   1.191   5.259  0.2238  0.5106  0.2622
 9788TIP3    H150779   6.744   1.152   5.334 -1.5504 -0.6766  0.7220
 9788TIP3    H250780   6.621   1.138   5.247 -0.3425  1.6890 -1.4218
 9789TIP3   OH250781   2.311   2.638  13.686  0.1542  0.2801 -0.2025
 9789TIP3    H150782   2.370   2.568  13.659 -0.6519 -2.4059  4.5783
 9789TIP3    H250783   2.370   2.711  13.707  1.3722 -0.5376 -0.6709
 9790TIP3   OH250784   5.160   1.733  15.238  0.1234 -0.1789  0.0148
 9790TIP3    H150785   5.082   1.764  15.283  0.6789 -0.5484  1.2795
 9790TIP3    H250786   5.232   1.753  15.299  0.8635 -0.9486 -0.5941
 9791TIP3   OH250787   2.926   6.374   0.640  0.5723 -0.0477 -0.5588
 9791TIP3    H150788   2.943   6.284   0.611  1.6061  0.5552 -1.8828
 9791TIP3    H250789   2.985   6.387   0.714 -0.9463 -1.0722  0.8659
 9792TIP3   OH250790   4.191   4.912  10.657 -0.4094 -0.3394 -0.3573
 9792TIP3    H150791   4.264   4.951  10.609  1.9163 -1.9979  1.7229
 9792TIP3    H250792   4.158   4.843  10.599 -0.3190  0.3691 -1.2646
 9793TIP3   OH250793   3.359   1.676   1.757  0.2075 -0.2264  0.1296
 9793TIP3    H150794   3.343   1.759   1.801 -1.7485 -0.2646 -0.4687
 9793TIP3    H250795   3.392   1.618   1.825 -0.0008  0.5745  0.9106
 9794TIP3   OH250796   1.550   3.444   1.242  0.3859  0.4323 -0.0544
 9794TIP3    H150797   1.573   3.377   1.177 -0.2919  2.4541 -2.4865
 9794TIP3    H250798   1.624   3.504   1.241 -0.1182  1.0561  0.2436
 9795TIP3   OH250799   4.181   2.613   1.799 -0.2779  0.3676  0.2898
 9795TIP3    H150800   4.215   2.527   1.827 -2.3753 -0.3407  0.7462
 9795TIP3    H250801   4.215   2.674   1.865  1.7959  0.0393 -0.4147
 9796TIP3   OH250802   0.064   2.508   4.407 -0.4364  0.5811  0.1972
 9796TIP3    H150803   0.086   2.423   4.367  0.2474  0.5767  0.5772
 9796TIP3    H250804   0.017   2.485   4.487 -1.3458  0.5815 -0.3361
 9797TIP3   OH250805   5.152   5.694  15.875 -0.0767 -0.1225 -0.0612
 9797TIP3    H150806   5.067   5.733  15.854  0.6922  0.3719 -2.3544
 9797TIP3    H250807   5.165   5.714  15.968 -2.8622 -0.9891  0.5854
 9798TIP3   OH250808   0.676   2.244   0.902  0.6259 -0.2893 -0.2464
 9798TIP3    H150809   0.757   2.293   0.890  0.1211  0.4246 -0.8043
 9798TIP3    H250810   0.609   2.296   0.857 -0.0592 -1.1011 -0.1914
 9799TIP3   OH250811   0.187   2.919  12.627 -0.1373 -0.0003  0.0207
 9799TIP3    H150812   0.164   2.891  12.538  2.7271  0.6530 -0.9867
 9799TIP3    H250813   0.236   2.845  12.664  2.6637  1.4102 -0.6690
 9800TIP3   OH250814   1.776   3.147  16.554 -0.1284  0.1506  0.0232
 9800TIP3    H150815   1.748   3.238  16.546  0.9259  0.3793 -1.1327
 9800TIP3    H250816   1.742   3.105  16.475  1.1984  0.0187 -0.4881
 9801TIP3   OH250817   1.020   6.471  16.321 -0.4914  0.4884 -0.1136
 9801TIP3    H150818   0.928   6.467  16.345 -0.5858  0.1856 -0.5180
 9801TIP3    H250819   1.025   6.428  16.235  0.1458 -0.1827  0.2524
 9802TIP3   OH250820   5.935   3.569  14.902 -0.0733 -0.6866  0.1134
 9802TIP3    H150821   6.020   3.532  14.926  0.8257  0.2045 -1.6059
 9802TIP3    H250822   5.928   3.552  14.808  0.0802  2.8809 -0.5876
 9803TIP3   OH250823   3.973   5.926   4.029 -0.2062 -0.8056 -0.1709
 9803TIP3    H150824   3.887   5.961   4.054  0.1799  0.3509 -0.4314
 9803TIP3    H250825   4.035   5.991   4.060  0.4605 -0.6980 -1.6994
 9804TIP3   OH250826   2.721   1.133   0.186 -0.4631  0.3660 -0.1043
 9804TIP3    H150827   2.771   1.079   0.125 -0.7070  1.0313 -0.9072
 9804TIP3    H250828   2.761   1.220   0.179 -0.6882  0.5176  0.4599
 9805TIP3   OH250829   1.856   0.078  12.590 -0.4062 -0.1183  0.0904
 9805TIP3    H150830   1.899   0.083  12.676  0.4923 -1.0612 -0.2935
 9805TIP3    H250831   1.899   0.147  12.539  0.9324 -1.3057 -0.4066
 9806TIP3   OH250832   3.701   4.269   4.790 -0.3541 -0.2261 -0.0838
 9806TIP3    H150833   3.608   4.248   4.790 -0.4958  0.0662 -4.2558
 9806TIP3    H250834   3.743   4.192   4.753  0.7853  0.6207 -0.5843
 9807TIP3   OH250835   3.729   6.140  11.866 -0.0838 -0.4554 -0.3694
 9807TIP3    H150836   3.782   6.084  11.922  1.5123  1.0872 -0.3145
 9807TIP3    H250837   3.651   6.087  11.847  0.1321 -1.6434  1.8838
 9808TIP3   OH250838   4.569   4.374  12.592 -0.2908  0.3069 -0.2433
 9808TIP3    H150839   4.620   4.327  12.526 -1.0494  0.3523 -0.8598
 9808TIP3    H250840   4.612   4.459  12.598  0.9566 -0.3597  0.7215
 9809TIP3   OH250841   1.269   6.430   2.465  0.2468  0.1718 -0.1208
 9809TIP3    H150842   1.247   6.415   2.373  0.5509 -2.1106  0.1426
 9809TIP3    H250843   1.191   6.404   2.513  0.1460  1.2013  0.2862
 9810TIP3   OH250844   0.052   3.566   5.514  0.1833  0.0055  0.1643
 9810TIP3    H150845   0.082   3.631   5.577  1.0113  1.5319 -1.7668
 9810TIP3    H250846   0.052   3.483   5.563 -1.5913  1.5335  2.8360
 9811TIP3   OH250847   3.485   1.774   4.066  0.2389 -0.7078 -0.3247
 9811TIP3    H150848   3.393   1.750   4.071 -0.3711  1.6440  0.8267
 9811TIP3    H250849   3.495   1.844   4.131  2.7282 -0.6076 -0.7485
 9812TIP3   OH250850   6.373   0.260   0.060 -0.7033  0.4332  0.0483
 9812TIP3    H150851   6.445   0.228   0.006 -1.1698  1.8325 -1.4364
 9812TIP3    H250852   6.295   0.216   0.026 -0.7813  0.1260  0.6160
 9813TIP3   OH250853   3.632   2.432   4.143 -0.3478  0.3382  0.9926
 9813TIP3    H150854   3.682   2.458   4.220  0.7429 -0.0730  0.4342
 9813TIP3    H250855   3.655   2.340   4.129  0.7214  0.8392 -0.7535
 9814TIP3   OH250856   0.252   1.820   0.575 -0.5715 -0.0379  0.7122
 9814TIP3    H150857   0.179   1.832   0.636 -2.5435  0.3797 -1.6599
 9814TIP3    H250858   0.239   1.733   0.538  1.5388 -0.9450  2.0528
 9815TIP3   OH250859   6.201   6.750  15.441  0.0986 -0.2563 -0.0847
 9815TIP3    H150860   6.286   6.792  15.450 -0.4172  0.2716  3.0036
 9815TIP3    H250861   6.195   6.690  15.516 -2.2401 -0.2293 -0.1903
 9816TIP3   OH250862   5.642   2.473   0.334 -0.0578  0.7217  0.1705
 9816TIP3    H150863   5.603   2.491   0.248 -2.6876  0.2658  1.2265
 9816TIP3    H250864   5.690   2.391   0.322 -2.9358 -0.9960 -0.1632
 9817TIP3   OH250865   4.165   5.353  15.763  0.3440  0.0930 -0.7091
 9817TIP3    H150866   4.185   5.355  15.857  3.2560 -1.6596 -1.2221
 9817TIP3    H250867   4.072   5.331  15.759 -0.3597  2.3544  1.7906
 9818TIP3   OH250868   1.494   4.644   2.092  0.2993  0.1877 -0.3889
 9818TIP3    H150869   1.523   4.690   2.014  0.9881  3.4238  1.6589
 9818TIP3    H250870   1.410   4.683   2.114 -0.2154 -1.1640  0.1272
 9819TIP3   OH250871   3.648   1.177   3.805  0.7223 -0.2143 -0.1237
 9819TIP3    H150872   3.635   1.143   3.894  1.3120  0.3684  0.1958
 9819TIP3    H250873   3.731   1.225   3.810 -0.4182  1.8429 -0.3889
 9820TIP3   OH250874   6.704   1.560  11.722 -0.2788 -0.0148 -0.3771
 9820TIP3    H150875   6.778   1.572  11.663 -1.2607 -1.7197 -2.0136
 9820TIP3    H250876   6.631   1.606  11.680 -0.3695  0.9515  0.8096
 9821TIP3   OH250877   5.130   5.987  16.236  0.1166 -0.2047 -0.5945
 9821TIP3    H150878   5.131   6.010  16.329 -0.3427 -1.2898 -0.3067
 9821TIP3    H250879   5.221   5.966  16.215  0.2216  0.0426 -0.3856
 9822TIP3   OH250880   5.798   4.630   1.376 -0.5721 -0.0527 -0.0822
 9822TIP3    H150881   5.805   4.548   1.328 -1.2900 -0.6400  0.7848
 9822TIP3    H250882   5.819   4.607   1.467 -1.4050  0.5837  0.2845
 9823TIP3   OH250883   0.235   1.350  15.443 -0.8371 -0.5856  0.8340
 9823TIP3    H150884   0.214   1.295  15.368  1.4713 -2.4734  1.5136
 9823TIP3    H250885   0.183   1.315  15.515  1.8000 -2.9419  1.6448
 9824TIP3   OH250886   5.724   5.943  16.213 -0.1372 -0.3203  0.6845
 9824TIP3    H150887   5.752   6.020  16.264  0.3822 -1.0776  1.5695
 9824TIP3    H250888   5.792   5.933  16.147 -0.9489  0.8258 -0.3422
 9825TIP3   OH250889   4.406   5.073  14.979 -0.1638 -0.0765 -0.3085
 9825TIP3    H150890   4.318   5.087  15.012  0.6046 -1.2717  2.4445
 9825TIP3    H250891   4.462   5.121  15.039  1.2164 -1.2699 -0.5992
 9826TIP3   OH250892   5.171   2.439   2.303  0.2250  0.4911 -0.4531
 9826TIP3    H150893   5.089   2.486   2.287 -0.3484 -0.7829 -1.2997
 9826TIP3    H250894   5.237   2.508   2.309 -0.5284  1.3943 -2.1714
 9827TIP3   OH250895   1.982   1.497  11.232 -0.2777  0.2276  0.2203
 9827TIP3    H150896   1.892   1.505  11.202  0.4561  1.1187 -1.7732
 9827TIP3    H250897   2.036   1.524  11.158  1.7248 -3.0545  0.3760
 9828TIP3   OH250898   3.676   6.727  13.641 -0.1678 -0.2517  0.2883
 9828TIP3    H150899   3.647   6.743  13.731 -1.0947 -0.3089  0.0122
 9828TIP3    H250900   3.771   6.724  13.646 -0.2071 -0.0601  1.2367
 9829TIP3   OH250901   6.384   5.833   3.067  0.4017  0.3608 -0.0214
 9829TIP3    H150902   6.392   5.819   3.162 -0.8604  1.5209  0.2840
 9829TIP3    H250903   6.474   5.837   3.035  0.8345 -0.4327  1.0724
 9830TIP3   OH250904   1.232   2.732  16.731 -0.0192  0.0903  0.4452
 9830TIP3    H150905   1.209   2.673  16.803 -0.9474  0.6471  0.6140
 9830TIP3    H250906   1.326   2.745  16.739  0.4018 -2.1726 -0.1895
 9831TIP3   OH250907   1.934   3.129  11.815  0.4082  0.0989  0.3910
 9831TIP3    H150908   1.939   3.045  11.860  0.0454 -0.9221 -1.4036
 9831TIP3    H250909   2.025   3.158  11.808  0.8311 -1.5907 -1.5703
 9832TIP3   OH250910   2.064   5.291   0.662 -0.0391  0.0582  0.4271
 9832TIP3    H150911   2.084   5.208   0.619  0.1474  0.4136 -0.1734
 9832TIP3    H250912   2.149   5.329   0.681 -0.1291  0.4602  0.0292
 9833TIP3   OH250913   2.197   4.523  15.736  0.2533  0.0075  0.5399
 9833TIP3    H150914   2.141   4.565  15.801 -1.1243 -1.8304  0.5831
 9833TIP3    H250915   2.236   4.595  15.687 -1.0802  1.3405  1.4127
 9834TIP3   OH250916   3.633   0.964   0.317 -0.1834  0.4122 -0.0222
 9834TIP3    H150917   3.585   0.927   0.391  1.0397  1.1627  1.1644
 9834TIP3    H250918   3.583   0.936   0.240 -0.8360 -1.3297  1.0089
 9835TIP3   OH250919   4.779   2.005   2.416  0.4989 -0.0172  0.0997
 9835TIP3    H150920   4.873   1.999   2.403  0.5974  0.4697  0.5741
 9835TIP3    H250921   4.742   1.939   2.357  1.0857  0.4616 -0.8330
 9836TIP3   OH250922   3.168   6.710   0.920  0.0668  0.0363 -0.2012
 9836TIP3    H150923   3.184   6.700   1.014 -0.7622 -0.7599 -0.1367
 9836TIP3    H250924   3.073   6.704   0.911  0.0316  1.5074 -0.9382
 9837TIP3   OH250925   1.218   4.112  16.813 -0.6910 -0.3133 -0.3334
 9837TIP3    H150926   1.124   4.129  16.804 -0.8527 -0.8989  0.2428
 9837TIP3    H250927   1.260   4.189  16.774 -1.3895 -1.0039 -2.5173
 9838TIP3   OH250928   5.697   2.032  10.858  0.0867 -0.2601 -1.1569
 9838TIP3    H150929   5.719   2.101  10.795  1.0653 -0.4367 -1.0169
 9838TIP3    H250930   5.602   2.038  10.868  0.0507  0.4327 -1.8842
 9839TIP3   OH250931   5.260   1.195   0.810  0.0175  0.2227 -0.2537
 9839TIP3    H150932   5.169   1.191   0.779 -0.1124 -0.5321  0.1949
 9839TIP3    H250933   5.313   1.200   0.731 -0.3567 -0.6777 -0.5657
 9840TIP3   OH250934   6.231   2.364  12.136  0.5877  0.2089 -0.0782
 9840TIP3    H150935   6.200   2.385  12.048  1.3461 -1.9687 -0.8953
 9840TIP3    H250936   6.151   2.341  12.184  0.3029  0.1608 -0.5651
 9841TIP3   OH250937   6.756   4.788   3.852  0.1733  0.2043 -0.4512
 9841TIP3    H150938   6.852   4.795   3.859  0.3685 -1.9489 -0.4647
 9841TIP3    H250939   6.730   4.743   3.932 -0.5257 -1.5634 -1.6463
 9842TIP3   OH250940   5.833   3.258   5.110 -0.3264 -0.2317  0.1793
 9842TIP3    H150941   5.880   3.200   5.170 -1.2582  0.2751  1.4201
 9842TIP3    H250942   5.785   3.317   5.168 -0.6457  0.7398 -1.0811
 9843TIP3   OH250943   2.575   3.969  16.968  0.2861  0.7039 -0.3413
 9843TIP3    H150944   2.554   4.062  16.959  0.1723  0.7179  0.0701
 9843TIP3    H250945   2.620   3.963  17.052  0.4659  0.4148 -0.4570
 9844TIP3   OH250946   4.953   0.971  11.294 -0.3340 -0.5624 -0.0461
 9844TIP3    H150947   4.986   0.994  11.381  0.1295 -1.1427 -0.0642
 9844TIP3    H250948   4.960   1.053  11.243 -0.3249 -0.3001  0.3768
 9845TIP3   OH250949   5.079   1.101  16.837  0.1726  1.0556  0.1710
 9845TIP3    H150950   5.046   1.125  16.924 -0.6474  0.5350  0.0023
 9845TIP3    H250951   5.174   1.095  16.849  0.2147  2.4032  0.6842
 9846TIP3   OH250952   4.798   5.640   0.573 -0.0505  0.5611 -0.3098
 9846TIP3    H150953   4.749   5.639   0.491 -1.2474 -0.7013  0.4085
 9846TIP3    H250954   4.840   5.554   0.577 -1.0632  0.1090  1.0107
 9847TIP3   OH250955   1.397   4.407  14.257 -0.0350 -0.0952 -0.6920
 9847TIP3    H150956   1.404   4.363  14.342  1.3108 -0.2602 -0.8816
 9847TIP3    H250957   1.370   4.496  14.279  3.4115  0.8352  0.2070
 9848TIP3   OH250958   0.046   0.530  14.422 -0.1575  0.5201  0.1584
 9848TIP3    H150959   0.000   0.607  14.389  0.2330  0.7634  0.1872
 9848TIP3    H250960   0.060   0.475  14.345  2.3267  1.8831 -0.4103
 9849TIP3   OH250961   2.900   1.250   2.757  0.1339 -0.3487  0.0299
 9849TIP3    H150962   2.881   1.341   2.780  2.3326 -0.5858  3.1540
 9849TIP3    H250963   2.988   1.253   2.718 -0.6480 -0.9069 -1.8483
 9850TIP3   OH250964   3.495   6.678  12.651 -0.1229 -0.6659 -0.0161
 9850TIP3    H150965   3.441   6.605  12.679 -0.2846 -1.5165 -2.4385
 9850TIP3    H250966   3.438   6.755  12.660 -0.6103 -1.1015  0.6397
 9851TIP3   OH250967   5.581   2.882   4.210 -0.0590  0.1165  0.0684
 9851TIP3    H150968   5.639   2.809   4.187  0.5163  0.5852  0.0049
 9851TIP3    H250969   5.532   2.900   4.130  0.4987  0.4313 -0.2087
 9852TIP3   OH250970   2.673   4.188  11.027  1.0331 -0.0604  0.1287
 9852TIP3    H150971   2.595   4.148  11.066  0.6384 -0.3711 -0.9589
 9852TIP3    H250972   2.662   4.176  10.932  0.8953  2.6636 -0.2272
 9853TIP3   OH250973   2.748   2.072   4.749  0.2312  0.4925  0.3880
 9853TIP3    H150974   2.715   2.154   4.783 -0.5072 -0.2517  1.5072
 9853TIP3    H250975   2.709   2.064   4.662 -1.3125  0.3645  1.0797
 9854TIP3   OH250976   1.798   4.069   1.815  0.6828  0.1824  0.5243
 9854TIP3    H150977   1.836   4.072   1.727  0.8614  0.8677  0.6179
 9854TIP3    H250978   1.785   3.976   1.832 -1.1228  0.1328 -0.9719
 9855TIP3   OH250979   6.781   4.974  15.969  0.1202  0.7806  0.5803
 9855TIP3    H150980   6.836   4.897  15.986 -3.5842 -2.1546 -0.1736
 9855TIP3    H250981   6.744   4.997  16.054 -2.7057 -1.4841  0.0333
 9856TIP3   OH250982   5.145   2.306   1.932  0.2443 -0.1700  0.5666
 9856TIP3    H150983   5.203   2.286   2.006 -0.1711 -1.9834  0.4358
 9856TIP3    H250984   5.189   2.267   1.856 -2.5311 -4.2387  0.9271
 9857TIP3   OH250985   1.097   2.417  16.386  0.6899  0.0566 -0.1037
 9857TIP3    H150986   1.150   2.345  16.420  0.6946  0.4516  0.7315
 9857TIP3    H250987   1.133   2.495  16.428 -1.6357  0.1650  1.8031
 9858TIP3   OH250988   0.500   3.800  11.988  0.3118 -0.7570 -0.5187
 9858TIP3    H150989   0.530   3.777  11.900  0.7837 -0.9654 -0.3085
 9858TIP3    H250990   0.470   3.891  11.981 -0.4397 -1.0502 -1.0829
 9859TIP3   OH250991   3.529   3.196   3.000  0.1503  0.4051 -0.3036
 9859TIP3    H150992   3.482   3.279   3.003  0.1657  0.4186 -0.4831
 9859TIP3    H250993   3.529   3.166   3.091  0.9719  1.0549 -0.0867
 9860TIP3   OH250994   3.697   5.699  15.729  0.3604  0.7570 -0.1031
 9860TIP3    H150995   3.781   5.707  15.685 -0.6254 -4.4059 -3.3030
 9860TIP3    H250996   3.715   5.648  15.807  0.2396 -0.1615 -0.6745
 9861TIP3   OH250997   6.198   0.077  15.966  0.0842  0.0919  0.6052
 9861TIP3    H150998   6.236   0.026  16.037 -0.7722 -2.0303 -0.3994
 9861TIP3    H250999   6.103   0.072  15.981 -0.1096 -0.4211 -0.6874
 9862TIP3   OH251000   5.146   2.995   4.346  0.4783 -0.5221 -0.1396
 9862TIP3    H151001   5.171   3.027   4.432 -0.5358  1.2640 -0.4878
 9862TIP3    H251002   5.224   3.008   4.291  0.8698 -0.9506  0.3120
 9863TIP3   OH251003   6.409   2.790  10.805  0.7734  0.1638  0.1056
 9863TIP3    H151004   6.320   2.812  10.778  0.3599 -1.1845  0.3603
 9863TIP3    H251005   6.462   2.862  10.772 -0.3385  0.7195 -0.4938
 9864TIP3   OH251006   6.575   3.347   3.703  0.3726 -0.2956 -0.0971
 9864TIP3    H151007   6.559   3.402   3.626 -0.1665  3.2022  2.4091
 9864TIP3    H251008   6.498   3.291   3.709 -1.1420  1.7125 -0.2657
 9865TIP3   OH251009   5.285   0.312  16.393  0.0501  0.2246  0.3545
 9865TIP3    H151010   5.247   0.232  16.357 -0.4058 -0.3666  2.1081
 9865TIP3    H251011   5.232   0.332  16.470  0.4172  1.9951  0.1711
 9866TIP3   OH251012   2.225   6.096  12.539 -0.1276 -0.5342 -0.1463
 9866TIP3    H151013   2.214   6.188  12.514 -0.4414 -0.2537  1.0070
 9866TIP3    H251014   2.307   6.095  12.588  0.1025 -0.9530 -0.5392
 9867TIP3   OH251015   3.013   1.759   4.271 -0.1801 -0.3837  0.0002
 9867TIP3    H151016   2.999   1.853   4.278  0.1272 -0.3937  0.7617
 9867TIP3    H251017   3.008   1.727   4.361 -0.1714 -1.0800 -0.2439
 9868TIP3   OH251018   4.052   5.271   2.280  0.0370  0.3799 -0.0614
 9868TIP3    H151019   4.101   5.225   2.348 -0.5313  0.1310  0.1880
 9868TIP3    H251020   3.964   5.282   2.317  0.7135  3.5568  0.7520
 9869TIP3   OH251021   2.882   5.308  11.025 -0.4629 -0.0889  0.3734
 9869TIP3    H151022   2.950   5.355  10.977  0.0270 -0.6693  0.4961
 9869TIP3    H251023   2.800   5.347  10.995 -0.0691  0.6513  0.2702
 9870TIP3   OH251024   5.815   5.318  13.807  0.4611  0.1054 -0.2296
 9870TIP3    H151025   5.862   5.395  13.776  1.1731 -0.0713  0.4181
 9870TIP3    H251026   5.867   5.243  13.777  1.6903 -0.0646  2.1651
 9871TIP3   OH251027   6.185   6.312   3.314  0.1035  0.1935 -0.7056
 9871TIP3    H151028   6.256   6.248   3.307 -1.3314 -1.4309 -0.8953
 9871TIP3    H251029   6.145   6.293   3.400 -1.1915 -0.1135 -1.3552
 9872TIP3   OH251030   0.127   1.729   5.332 -0.0765  0.0048  0.1155
 9872TIP3    H151031   0.151   1.747   5.241 -0.5002 -0.2104 -0.0402
 9872TIP3    H251032   0.187   1.783   5.384  1.2197 -1.0528 -0.2501
 9873TIP3   OH251033   1.037   5.643  11.971  0.2305 -0.5530  0.4155
 9873TIP3    H151034   1.038   5.737  11.959  2.1816 -0.4982  0.7440
 9873TIP3    H251035   1.068   5.630  12.061 -2.3369 -1.4104  1.2051
 9874TIP3   OH251036   1.768   0.401   3.295  0.2841  0.4823 -0.0510
 9874TIP3    H151037   1.765   0.490   3.261 -1.6023 -1.1532 -4.5661
 9874TIP3    H251038   1.705   0.401   3.368  2.0594  3.3126  1.6083
 9875TIP3   OH251039   4.686   1.412  11.039  0.1169 -0.6056  0.3118
 9875TIP3    H151040   4.779   1.410  11.017 -0.3600  0.2791 -1.9574
 9875TIP3    H251041   4.679   1.475  11.110  1.0679  0.5146 -0.5753
 9876TIP3   OH251042   5.237   0.746   2.351 -0.3016 -0.4333  0.3477
 9876TIP3    H151043   5.300   0.700   2.407 -1.7075 -2.2643  0.4719
 9876TIP3    H251044   5.267   0.729   2.262 -0.3972 -0.9709  0.4175
 9877TIP3   OH251045   1.639   1.121  14.560 -0.0575 -0.5441 -0.0947
 9877TIP3    H151046   1.592   1.050  14.516  0.0491 -0.4064 -0.4325
 9877TIP3    H251047   1.578   1.150  14.629 -0.6047 -0.1578 -0.7318
 9878TIP3   OH251048   4.765   0.281   0.193 -0.2693 -0.0219  0.4757
 9878TIP3    H151049   4.857   0.281   0.220 -0.3518 -0.0881  0.7646
 9878TIP3    H251050   4.766   0.318   0.105  0.2758 -1.8236 -0.3031
 9879TIP3   OH251051   1.202   6.206   4.529  0.3127 -0.4178  1.0651
 9879TIP3    H151052   1.138   6.141   4.560  1.1580 -0.8012  2.0381
 9879TIP3    H251053   1.264   6.214   4.601  1.2408  0.1129  0.2101
 9880TIP3   OH251054   0.455   3.120  11.222 -0.3346 -0.3270 -0.1871
 9880TIP3    H151055   0.479   3.033  11.189 -1.3265 -0.5672 -0.2901
 9880TIP3    H251056   0.524   3.178  11.191  1.1360 -1.3370  1.1488
 9881TIP3   OH251057   4.280   6.607   1.644  1.0998  0.1773 -0.0974
 9881TIP3    H151058   4.200   6.613   1.697  0.9374  1.8532 -0.4880
 9881TIP3    H251059   4.351   6.600   1.709  0.5380 -3.3711  0.2220
 9882TIP3   OH251060   3.323   1.892   2.253 -0.1801  0.5010 -0.4609
 9882TIP3    H151061   3.256   1.879   2.186  0.0234 -2.5745 -0.1616
 9882TIP3    H251062   3.395   1.835   2.226 -0.1342 -0.8668  2.3636
 9883TIP3   OH251063   2.520   1.573   0.742  0.5136 -0.3501 -0.4160
 9883TIP3    H151064   2.543   1.493   0.789  1.4494 -0.2687 -0.7315
 9883TIP3    H251065   2.471   1.542   0.665 -0.3846 -0.5229  0.2155
 9884TIP3   OH251066   0.143   4.358  12.313 -0.3126 -0.2735  0.1412
 9884TIP3    H151067   0.114   4.270  12.289  1.2779 -1.1033  1.1116
 9884TIP3    H251068   0.087   4.417  12.264 -1.9058 -1.8306  0.0605
 9885TIP3   OH251069   0.989   5.111   3.955  0.1106 -0.0550  0.1935
 9885TIP3    H151070   0.951   5.192   3.989  1.5701  0.9044 -0.3921
 9885TIP3    H251071   1.048   5.081   4.023  1.5459  0.8081 -0.6339
 9886TIP3   OH251072   0.965   0.962  11.701  0.4357  0.1441 -0.2044
 9886TIP3    H151073   0.968   0.872  11.732  0.4841 -0.0849 -0.8636
 9886TIP3    H251074   0.897   1.004  11.754 -0.4716 -0.6123 -0.7577
 9887TIP3   OH251075   4.066   3.945  11.398  0.4463 -0.5639 -0.1693
 9887TIP3    H151076   4.145   3.892  11.399  0.9492  0.1574 -0.6439
 9887TIP3    H251077   4.068   3.993  11.481 -0.4049 -1.8399  0.6062
 9888TIP3   OH251078   0.902   1.911  11.477  0.0622  0.4498  0.3457
 9888TIP3    H151079   0.918   1.867  11.561 -0.9758  0.1604  0.4011
 9888TIP3    H251080   0.889   2.003  11.501  0.4972  0.4915  0.4220
 9889TIP3   OH251081   6.411   6.032  13.854  0.1457  0.0508  0.1347
 9889TIP3    H151082   6.338   6.089  13.828  0.2407  0.6497  1.1688
 9889TIP3    H251083   6.369   5.955  13.893  0.0573  0.1912  0.3149
 9890TIP3   OH251084   4.684   0.195  14.669 -0.0647  0.1855  0.4580
 9890TIP3    H151085   4.699   0.146  14.588 -0.4298 -0.4462  0.7698
 9890TIP3    H251086   4.741   0.154  14.734  0.7246  1.1150  0.3716
 9891TIP3   OH251087   2.380   3.789  17.163  0.0078  0.5012 -0.0208
 9891TIP3    H151088   2.340   3.768  17.078  0.0627  1.5628 -0.3188
 9891TIP3    H251089   2.336   3.731  17.225  1.8154 -2.1331 -1.1516
 9892TIP3   OH251090   4.921   2.938   6.103 -0.4087  0.5787  0.0590
 9892TIP3    H151091   4.986   2.871   6.125  0.7015  1.6870  0.2386
 9892TIP3    H251092   4.844   2.915   6.156 -0.9157 -1.9263 -1.6991
 9893TIP3   OH251093   1.760   0.435   1.210 -0.3580 -0.2064  0.1363
 9893TIP3    H151094   1.786   0.485   1.133  1.1229 -0.5025  0.4347
 9893TIP3    H251095   1.712   0.498   1.264  1.6427  0.9805  0.5928
 9894TIP3   OH251096   3.689   3.282   6.137  0.4540  0.1397  0.3680
 9894TIP3    H151097   3.768   3.257   6.089  0.3962  1.4342 -0.4519
 9894TIP3    H251098   3.721   3.322   6.218  0.7652  2.5792 -0.8883
 9895TIP3   OH251099   1.487   0.350   5.593  0.3519 -0.4229 -0.0113
 9895TIP3    H151100   1.559   0.319   5.647  0.1115  2.5272  2.1098
 9895TIP3    H251101   1.529   0.375   5.510  1.2852 -1.3762  0.1508
 9896TIP3   OH251102   4.898   2.752  17.081 -0.0215 -0.4268 -0.4702
 9896TIP3    H151103   4.898   2.808  17.004  0.1498  1.1244  0.6391
 9896TIP3    H251104   4.814   2.770  17.124 -0.1613 -1.3503 -0.3447
 9897TIP3   OH251105   1.564   5.357   5.194 -0.0998  0.6067  0.3804
 9897TIP3    H151106   1.659   5.363   5.192 -0.1478  1.0332 -1.5123
 9897TIP3    H251107   1.545   5.268   5.165 -0.3023  0.7667  0.0190
 9898TIP3   OH251108   2.214   2.231  13.146 -0.0629  0.5010 -0.2167
 9898TIP3    H151109   2.283   2.283  13.188  0.4544  0.1247 -0.5933
 9898TIP3    H251110   2.249   2.209  13.060 -0.6502  0.2937 -0.4064
 9899TIP3   OH251111   5.697   4.180  11.588  0.0506  0.5647 -0.2780
 9899TIP3    H151112   5.789   4.161  11.607 -0.7759 -0.7223  2.6463
 9899TIP3    H251113   5.689   4.166  11.493  3.1538  2.1379 -0.8499
 9900TIP3   OH251114   4.122   4.534   0.279  0.4303  0.0838  0.1274
 9900TIP3    H151115   4.113   4.467   0.347  1.3854  1.0816  1.2544
 9900TIP3    H251116   4.062   4.603   0.305  0.6615  0.3931 -0.1587
 9901TIP3   OH251117   3.769   1.271   2.750  1.1280 -0.2213  0.5773
 9901TIP3    H151118   3.709   1.309   2.686  4.1485 -0.6670 -2.6805
 9901TIP3    H251119   3.790   1.343   2.809  2.2524  1.6208 -2.0096
 9902TIP3   OH251120   3.289   3.078   3.603  0.5829 -0.3941  0.2804
 9902TIP3    H151121   3.204   3.067   3.646  0.3747 -1.5524 -0.4176
 9902TIP3    H251122   3.279   3.033   3.519  0.7871  2.3312 -1.2656
 9903TIP3   OH251123   6.343   5.546  12.047  0.1084  0.4288  0.0116
 9903TIP3    H151124   6.306   5.605  11.981 -0.3874  0.2086  0.0890
 9903TIP3    H251125   6.435   5.538  12.024  0.4670  2.2593  0.7499
 9904TIP3   OH251126   1.384   3.623  15.303 -0.3359  0.3501  0.2460
 9904TIP3    H151127   1.372   3.711  15.338 -1.9095  0.4463 -0.4905
 9904TIP3    H251128   1.298   3.599  15.268  1.1184  0.2744 -3.5020
 9905TIP3   OH251129   4.072   0.921  16.651 -0.3025  0.1942  0.1091
 9905TIP3    H151130   4.056   0.835  16.611 -0.8996  1.3648 -2.2998
 9905TIP3    H251131   3.985   0.951  16.677  0.0447 -0.4061  1.9999
 9906TIP3   OH251132   3.784   3.919   0.094  0.5468  0.2058 -0.1094
 9906TIP3    H151133   3.855   3.855   0.094 -2.0057 -2.7719  1.4673
 9906TIP3    H251134   3.731   3.897   0.017  0.1125  0.9507 -0.0273
 9907TIP3   OH251135   0.965   2.042   5.115 -0.7529 -0.0653  0.2379
 9907TIP3    H151136   1.045   2.085   5.142 -0.8353 -0.8043  1.6985
 9907TIP3    H251137   0.988   1.949   5.110 -1.1466 -0.1220 -0.7519
 9908TIP3   OH251138   2.860   3.313  12.921  0.1063  0.3937  0.0623
 9908TIP3    H151139   2.913   3.234  12.912  2.6624  1.9171  1.2430
 9908TIP3    H251140   2.870   3.359  12.838 -2.1577 -0.9185 -0.9923
 9909TIP3   OH251141   0.772   6.266   2.475  0.4633 -0.0869  0.2071
 9909TIP3    H151142   0.776   6.293   2.384  2.6178 -0.5305  0.1572
 9909TIP3    H251143   0.787   6.171   2.473 -1.8360 -0.5157  0.8440
 9910TIP3   OH251144   2.423   2.066  12.049 -0.6513 -0.5642  0.5193
 9910TIP3    H151145   2.353   2.006  12.022  0.1479  0.0114 -3.0788
 9910TIP3    H251146   2.395   2.151  12.017  0.2496  0.2346  1.8305
 9911TIP3   OH251147   6.595   3.283  16.804 -0.2544  0.7885  0.3477
 9911TIP3    H151148   6.677   3.318  16.838  0.4200 -1.2028  0.8449
 9911TIP3    H251149   6.543   3.262  16.882 -0.5995  0.5888  0.0682
 9912TIP3   OH251150   3.177   1.976  13.775 -0.0151 -0.2976  0.3840
 9912TIP3    H151151   3.151   1.886  13.793 -0.2983 -0.3247 -0.1706
 9912TIP3    H251152   3.164   1.987  13.681  0.9050  0.0358  0.2960
 9913TIP3   OH251153   4.136   2.423   4.388  0.2685  0.0354 -0.4020
 9913TIP3    H151154   4.202   2.479   4.428  0.0099  0.5378 -0.6851
 9913TIP3    H251155   4.109   2.363   4.458 -0.1174  0.8504  0.1502
 9914TIP3   OH251156   5.451   4.946   2.728  0.7299  0.0400  0.0375
 9914TIP3    H151157   5.454   4.978   2.638 -0.3078  1.2592  0.4154
 9914TIP3    H251158   5.430   5.024   2.780 -1.0338 -1.0817  1.0715
 9915TIP3   OH251159   2.434   3.139   2.326 -0.2553 -0.6384  0.4906
 9915TIP3    H151160   2.349   3.126   2.369 -0.2967 -0.6101  0.4164
 9915TIP3    H251161   2.496   3.093   2.383 -0.5479 -2.0842 -0.3403
 9916TIP3   OH251162   6.204   0.056   2.380  0.1275  0.0742  0.0454
 9916TIP3    H151163   6.236   0.119   2.315  1.4729 -0.4192  0.1992
 9916TIP3    H251164   6.116   0.034   2.351  0.3120  0.6837 -1.0094
 9917TIP3   OH251165   5.338   2.597  16.078 -0.2846 -0.6584 -0.3603
 9917TIP3    H151166   5.307   2.685  16.098 -1.9290 -1.3932  0.3773
 9917TIP3    H251167   5.416   2.611  16.023 -0.8113  1.2329 -0.6545
 9918TIP3   OH251168   6.731   2.838  14.630 -0.2061  0.3276  0.3041
 9918TIP3    H151169   6.665   2.786  14.583 -0.9377  1.8753 -0.4596
 9918TIP3    H251170   6.700   2.841  14.720 -0.9633  0.6685  0.0409
 9919TIP3   OH251171   0.769   3.395   5.429 -0.4665 -0.0901  0.4241
 9919TIP3    H151172   0.845   3.454   5.434  2.2565 -3.3137 -0.8538
 9919TIP3    H251173   0.753   3.384   5.336 -0.6810 -1.6439  0.6306
 9920TIP3   OH251174   0.402   0.253  11.434  0.0236  0.0747 -0.3776
 9920TIP3    H151175   0.326   0.259  11.490  0.5425 -0.2881  0.3786
 9920TIP3    H251176   0.438   0.342  11.431 -0.0461  0.1074 -0.2026
 9921TIP3   OH251177   2.293   1.220   1.160  0.2871 -0.0095  0.1465
 9921TIP3    H151178   2.388   1.211   1.170  0.2434  1.5859  2.2810
 9921TIP3    H251179   2.281   1.308   1.125 -0.4116 -0.4622 -0.8061
 9922TIP3   OH251180   1.012   0.539   4.230  0.4918  0.5284 -0.3635
 9922TIP3    H151181   1.049   0.549   4.142  0.5514  0.7543 -0.3145
 9922TIP3    H251182   1.071   0.590   4.286  0.2822  0.6326 -0.2386
 9923TIP3   OH251183   0.402   5.613   4.072 -0.2634 -0.8231 -0.0663
 9923TIP3    H151184   0.474   5.613   4.136 -0.7846  0.5896  0.5394
 9923TIP3    H251185   0.445   5.609   3.987  0.5664  0.6523  0.2665
 9924TIP3   OH251186   0.282   6.651   3.732  0.5621 -0.2537  0.1558
 9924TIP3    H151187   0.354   6.707   3.704  0.8744  0.3960  2.1749
 9924TIP3    H251188   0.294   6.642   3.827 -2.1922  0.1528  0.5923
 9925TIP3   OH251189   4.063   1.572   3.021  0.2045  0.1657 -0.0087
 9925TIP3    H151190   4.089   1.657   3.056  0.2438 -0.7708  2.2788
 9925TIP3    H251191   4.142   1.519   3.023  0.0282 -0.1398 -0.8200
 9926TIP3   OH251192   5.204   2.329  12.311 -0.5066  0.4311  0.0621
 9926TIP3    H151193   5.188   2.317  12.217 -0.0539  0.2106  0.0130
 9926TIP3    H251194   5.280   2.387  12.315 -1.5738  1.8362  0.2947
 9927TIP3   OH251195   3.863   1.065   4.489 -0.0045 -0.2384 -0.7832
 9927TIP3    H151196   3.947   1.023   4.506  0.7016  1.1502 -0.7792
 9927TIP3    H251197   3.885   1.156   4.468 -1.4915  0.1084 -0.9098
 9928TIP3   OH251198   1.734   4.168   5.694  0.4297 -0.4929 -0.4517
 9928TIP3    H151199   1.660   4.212   5.736  2.1235  1.5722  0.4718
 9928TIP3    H251200   1.768   4.108   5.761  1.2601  0.5796  0.1065
 9929TIP3   OH251201   5.242   1.972   0.012  0.2815  0.0102 -0.6671
 9929TIP3    H151202   5.246   2.038   0.081  0.2264 -2.1234  1.4368
 9929TIP3    H251203   5.316   1.993  -0.045  0.7659  1.3673  0.4256
 9930TIP3   OH251204   2.247   3.751  14.702 -0.3892  0.9081  0.4376
 9930TIP3    H151205   2.335   3.724  14.727 -0.6524 -0.6202 -0.2167
 9930TIP3    H251206   2.244   3.739  14.607 -1.2192  1.1729  0.4217
 9931TIP3   OH251207   5.851   0.681  14.707  0.5348  0.5128  0.2935
 9931TIP3    H151208   5.814   0.765  14.734  0.7468  1.1233 -1.2487
 9931TIP3    H251209   5.792   0.651  14.637  0.9470 -0.2063  0.2494
 9932TIP3   OH251210   4.067   0.750  12.666 -0.2235 -0.0779 -0.2475
 9932TIP3    H151211   4.041   0.758  12.758 -0.6408 -2.5319 -0.1337
 9932TIP3    H251212   4.162   0.740  12.668 -0.0903  1.0565 -0.1880
 9933TIP3   OH251213   2.852   0.201  10.954  0.6324  0.0082  0.1565
 9933TIP3    H151214   2.847   0.260  11.029 -0.2184 -1.6765  1.4552
 9933TIP3    H251215   2.764   0.205  10.915  0.8128  0.1906 -0.2421
 9934TIP3   OH251216   4.750   0.663  11.093 -0.2806 -0.0765  0.0559
 9934TIP3    H151217   4.793   0.587  11.053 -0.3042  0.0456 -0.2019
 9934TIP3    H251218   4.751   0.730  11.024 -1.6915 -0.3653 -0.2655
 9935TIP3   OH251219   2.753   5.472   3.299  0.1008  0.5108 -0.0261
 9935TIP3    H151220   2.706   5.423   3.232 -0.5554 -0.0420  0.8237
 9935TIP3    H251221   2.805   5.405   3.345  0.6837  0.9114 -0.1000
 9936TIP3   OH251222   5.267   6.560  13.168 -0.1756  0.8966 -0.2768
 9936TIP3    H151223   5.208   6.485  13.175  0.0695  0.8724  2.1434
 9936TIP3    H251224   5.218   6.632  13.209  0.5726  1.4359 -0.3258
 9937TIP3   OH251225   2.932   1.106   5.166  0.2066 -0.1538 -0.1791
 9937TIP3    H151226   2.921   1.022   5.211 -0.1017  0.3393  0.6841
 9937TIP3    H251227   2.958   1.083   5.077 -0.8297 -1.1988 -0.2261
 9938TIP3   OH251228   2.826   4.164  13.862  0.1411  0.2573  0.5572
 9938TIP3    H151229   2.824   4.202  13.950 -0.1088 -0.2673  0.7807
 9938TIP3    H251230   2.739   4.181  13.826  0.8321  2.1174 -0.2991
 9939TIP3   OH251231   6.759   3.214  13.354  0.4568 -0.2601 -0.4197
 9939TIP3    H151232   6.669   3.198  13.325  0.8690 -1.0556 -1.3023
 9939TIP3    H251233   6.813   3.163  13.293  1.5530  0.9409 -0.4754
 9940TIP3   OH251234   1.240   4.388  15.442 -0.2150 -0.2107 -0.1597
 9940TIP3    H151235   1.281   4.430  15.517  0.4691 -1.5209  0.2236
 9940TIP3    H251236   1.236   4.295  15.466 -1.6781 -0.3720 -0.9820
 9941TIP3   OH251237   5.785   2.004  15.144 -0.2652 -0.0347  0.0880
 9941TIP3    H151238   5.807   2.077  15.202  2.6781  1.1235 -2.3389
 9941TIP3    H251239   5.870   1.967  15.120 -1.5834 -2.2299 -1.2823
 9942TIP3   OH251240   5.317   5.898   4.021 -0.0515 -0.4137 -0.1544
 9942TIP3    H151241   5.281   5.974   4.066 -0.5869 -1.2584  0.8869
 9942TIP3    H251242   5.392   5.872   4.075 -0.0626 -0.8142 -0.3286
 9943TIP3   OH251243   5.506   6.023  13.911 -0.1230  0.6896 -0.8961
 9943TIP3    H151244   5.564   6.056  13.980 -1.5445  1.4890 -0.0316
 9943TIP3    H251245   5.446   6.096  13.894 -2.7953 -1.1126  0.4345
 9944TIP3   OH251246   2.783   2.374  13.578 -0.0706 -0.0432  0.0060
 9944TIP3    H151247   2.836   2.357  13.656 -0.5058 -1.1346  0.0763
 9944TIP3    H251248   2.761   2.467  13.583 -0.6857 -0.2656  1.5569
 9945TIP3   OH251249   2.504   3.884   3.461  0.2941  0.3037  0.0260
 9945TIP3    H151250   2.524   3.791   3.474  0.4966  0.1601 -1.2876
 9945TIP3    H251251   2.561   3.911   3.390  0.3545  1.4855  0.5185
 9946TIP3   OH251252   0.127   4.397   4.772 -0.1952 -0.4550 -0.2411
 9946TIP3    H151253   0.103   4.490   4.771 -0.5699 -0.5504 -1.5509
 9946TIP3    H251254   0.074   4.358   4.841 -0.8274  0.1079 -0.4110
 9947TIP3   OH251255   3.976   1.734   5.365 -0.0448 -0.2041  0.2138
 9947TIP3    H151256   4.047   1.693   5.317 -0.5284 -0.0272 -0.6558
 9947TIP3    H251257   4.017   1.764   5.447  0.3011 -2.4186  0.8702
 9948TIP3   OH251258   0.717   1.219   3.367 -0.1404 -0.2962 -0.3210
 9948TIP3    H151259   0.675   1.148   3.415  1.2893 -0.3513  0.8980
 9948TIP3    H251260   0.783   1.175   3.313  1.5888  0.1860  1.3575
 9949TIP3   OH251261   3.079   3.153   5.100  0.1901 -0.4618 -0.2093
 9949TIP3    H151262   3.126   3.143   5.017 -0.5146 -0.0689 -0.6709
 9949TIP3    H251263   3.018   3.080   5.101  2.7017 -2.6021  1.7111
 9950TIP3   OH251264   4.403   2.021   0.104  0.1690 -0.2835 -0.2136
 9950TIP3    H151265   4.389   1.927   0.121 -1.5058 -0.3265 -1.7118
 9950TIP3    H251266   4.443   2.024   0.018 -2.3042  0.4960 -1.3726
 9951TIP3   OH251267   4.655   4.946  14.657  0.1056 -0.4434 -0.4247
 9951TIP3    H151268   4.738   4.956  14.703 -0.4133 -0.9417  0.6265
 9951TIP3    H251269   4.599   5.015  14.693 -0.2299 -0.6946 -0.4681
 9952TIP3   OH251270   1.953   2.241  16.253 -0.4529  0.2554  0.8416
 9952TIP3    H151271   1.908   2.314  16.211  1.0173  1.5940  1.5753
 9952TIP3    H251272   2.015   2.210  16.186 -1.7213 -0.9332  0.1945
 9953TIP3   OH251273   3.337   3.594   0.013 -0.4302  0.3794  0.1476
 9953TIP3    H151274   3.276   3.645   0.066  1.0575  2.4053  0.0077
 9953TIP3    H251275   3.330   3.633  -0.075  0.6089  0.2345 -0.0025
 9954TIP3   OH251276   5.454   2.423   2.167  0.0357  0.0957 -0.2041
 9954TIP3    H151277   5.413   2.339   2.185  1.9966 -0.9434 -0.5928
 9954TIP3    H251278   5.539   2.420   2.210  0.0240  1.9958  0.0267
 9955TIP3   OH251279   0.251   6.334  16.313 -0.5507  0.0161  0.3169
 9955TIP3    H151280   0.334   6.288  16.302 -0.6338  0.3992 -2.0816
 9955TIP3    H251281   0.275   6.426  16.323 -0.6689  0.0355  0.4308
 9956TIP3   OH251282   0.329   3.019   2.539 -0.7767 -0.4934 -0.4668
 9956TIP3    H151283   0.249   2.972   2.559 -0.9720  0.1560  0.2890
 9956TIP3    H251284   0.303   3.111   2.533 -0.1360 -0.3044 -0.4901
 9957TIP3   OH251285   6.103   5.272   3.208  0.0171 -0.8593 -0.0835
 9957TIP3    H151286   6.140   5.327   3.139 -1.1943 -0.3707 -0.3535
 9957TIP3    H251287   6.072   5.334   3.274  1.6590 -1.3394  1.1777
 9958TIP3   OH251288   5.264   0.250   4.256 -0.5910 -0.1397  0.5826
 9958TIP3    H151289   5.237   0.228   4.167 -0.1412 -1.0384  0.6613
 9958TIP3    H251290   5.183   0.271   4.302 -0.8694 -0.1301  0.0866
 9959TIP3   OH251291   3.096   0.634  16.679 -0.1301  0.0630 -0.5120
 9959TIP3    H151292   3.017   0.624  16.733 -0.0667 -1.0864 -0.6291
 9959TIP3    H251293   3.063   0.657  16.593 -0.2971  0.3963 -0.3616
 9960TIP3   OH251294   5.989   2.847  16.229 -0.1213  0.5637 -0.0561
 9960TIP3    H151295   6.039   2.921  16.196  0.2381 -0.0365 -0.8774
 9960TIP3    H251296   5.982   2.787  16.155  0.0057 -0.4423  0.7273
 9961TIP3   OH251297   1.044   3.162  16.954  0.3139 -0.6000  0.3706
 9961TIP3    H151298   0.993   3.111  16.891  0.4465  0.0399 -0.2655
 9961TIP3    H251299   1.134   3.155  16.922  0.5597 -1.2750  1.1797
 9962TIP3   OH251300   6.753   6.227  12.803  0.4111 -0.5361 -0.5041
 9962TIP3    H151301   6.761   6.237  12.898  0.0097 -4.0204 -0.0339
 9962TIP3    H251302   6.837   6.256  12.769  0.2405  1.6033  0.8245
 9963TIP3   OH251303   0.409   3.047  12.980  0.4928 -0.0835  0.3939
 9963TIP3    H151304   0.407   3.053  13.076  0.0031 -0.7121  0.4326
 9963TIP3    H251305   0.380   2.958  12.962  1.9523 -0.4268 -0.3016
 9964TIP3   OH251306   1.817   6.708   5.412 -0.3538  0.2923 -0.2672
 9964TIP3    H151307   1.893   6.658   5.383 -1.7991 -1.8123 -0.5507
 9964TIP3    H251308   1.847   6.752   5.491  1.1556 -0.5367 -0.3471
 9965TIP3   OH251309   1.839   5.003   1.586 -0.2219 -0.2807  0.2387
 9965TIP3    H151310   1.880   5.007   1.500  2.0554 -1.3751  1.2342
 9965TIP3    H251311   1.844   4.911   1.611 -1.6497 -0.1244  1.1906
 9966TIP3   OH251312   3.509   0.243   2.933 -0.0699 -0.4262 -0.7373
 9966TIP3    H151313   3.440   0.299   2.897  0.4573 -0.5353 -1.9064
 9966TIP3    H251314   3.577   0.240   2.866  0.2123 -1.9375 -0.4155
 9967TIP3   OH251315   5.786   2.582  14.834 -0.8844  0.0943 -0.2822
 9967TIP3    H151316   5.814   2.597  14.744 -1.8100  1.7614 -0.3278
 9967TIP3    H251317   5.742   2.498  14.832  1.6560 -1.2745 -0.7589
 9968TIP3   OH251318   1.478   3.111   1.747  0.6450 -0.1791  0.4813
 9968TIP3    H151319   1.398   3.058   1.750 -0.6009  1.6780  0.9909
 9968TIP3    H251320   1.477   3.152   1.660  0.0039  1.3750  1.2018
 9969TIP3   OH251321   1.577   5.075  11.868 -0.3385 -0.6858  0.7330
 9969TIP3    H151322   1.621   5.017  11.929 -3.5919 -2.5958  1.3447
 9969TIP3    H251323   1.534   5.140  11.923 -0.3301 -0.2952  0.2809
 9970TIP3   OH251324   6.036   0.154   3.632  0.0292  0.1256 -0.0964
 9970TIP3    H151325   6.124   0.120   3.619 -0.3169 -0.6422 -0.5060
 9970TIP3    H251326   5.990   0.133   3.550 -1.2535 -1.8268  1.0722
 9971TIP3   OH251327   1.413   1.823   1.693 -0.1344 -0.0292 -0.1512
 9971TIP3    H151328   1.500   1.785   1.679 -0.2509 -1.0705  1.7963
 9971TIP3    H251329   1.430   1.917   1.704  0.9277 -0.4286  1.7393
 9972TIP3   OH251330   1.367   3.090   2.385  0.1841  0.0370  0.8408
 9972TIP3    H151331   1.370   2.998   2.409  2.4470  0.2396  1.4435
 9972TIP3    H251332   1.326   3.134   2.460 -0.2442 -0.3770  0.8487
 9973TIP3   OH251333   1.112   0.079   0.795  0.2233  0.0088 -0.4789
 9973TIP3    H151334   1.207   0.095   0.797  0.3327 -0.1745 -2.9116
 9973TIP3    H251335   1.087   0.095   0.704 -2.0745 -0.1036  0.1041
 9974TIP3   OH251336   2.976   0.730   3.814 -0.1803 -0.4421  0.2974
 9974TIP3    H151337   3.028   0.810   3.808 -0.6891 -0.2278 -1.4387
 9974TIP3    H251338   3.040   0.660   3.829  0.3462  0.1556  0.8589
 9975TIP3   OH251339   5.930   5.009  12.393 -0.1398  0.1680 -0.2857
 9975TIP3    H151340   5.932   4.927  12.443  0.5432 -0.1623 -0.8468
 9975TIP3    H251341   5.841   5.043  12.406 -0.5252 -0.8201 -0.3036
 9976TIP3   OH251342   0.371   2.185  13.611 -0.8479 -0.6012  0.5142
 9976TIP3    H151343   0.316   2.159  13.537 -1.9941 -2.3720  1.9320
 9976TIP3    H251344   0.439   2.240  13.573 -3.0700  0.9033 -1.4429
 9977TIP3   OH251345   0.903   1.615   1.081 -0.0466  0.0906  0.2937
 9977TIP3    H151346   0.924   1.634   1.172 -0.6513  1.0450  0.2437
 9977TIP3    H251347   0.987   1.591   1.042  0.6071  1.7587  0.6102
 9978TIP3   OH251348   3.979   1.471  13.530  0.1394  0.2899 -0.0590
 9978TIP3    H151349   3.930   1.531  13.474  2.4623  1.2271 -1.1625
 9978TIP3    H251350   3.995   1.395  13.475  0.3587  0.2100  0.1135
 9979TIP3   OH251351   2.640   1.364  12.042 -0.1763 -0.0345 -0.2763
 9979TIP3    H151352   2.725   1.384  12.001  0.1858 -1.5545 -0.3115
 9979TIP3    H251353   2.577   1.414  11.991  0.9128  3.0606  1.2438
 9980TIP3   OH251354   1.675   4.358   1.454 -0.1162 -0.3157 -0.2193
 9980TIP3    H151355   1.755   4.354   1.506  1.3513  1.2813 -2.2484
 9980TIP3    H251356   1.605   4.336   1.515  1.8268 -1.2789  1.7066
 9981TIP3   OH251357   5.947   0.609   4.276 -0.4299 -0.8622  0.6880
 9981TIP3    H151358   6.014   0.639   4.215 -0.6392 -0.3958  0.6932
 9981TIP3    H251359   5.989   0.536   4.322 -0.6909 -2.0014 -0.8393
 9982TIP3   OH251360   4.587   5.213   1.021  0.2084  0.1359  0.4545
 9982TIP3    H151361   4.584   5.225   0.926 -0.3752 -0.4132  0.3983
 9982TIP3    H251362   4.558   5.298   1.057 -0.5496  0.0231  0.1226
 9983TIP3   OH251363   3.880   1.909   1.227  0.2543 -0.3275  0.3780
 9983TIP3    H151364   3.906   1.986   1.277  1.1815 -1.0048  0.9551
 9983TIP3    H251365   3.788   1.895   1.251  0.7586 -0.7957  2.1144
 9984TIP3   OH251366   0.207   6.654   5.572  0.0295  0.5132 -0.2983
 9984TIP3    H151367   0.136   6.591   5.562 -0.4327  1.0603 -0.4505
 9984TIP3    H251368   0.228   6.652   5.666  1.0076 -0.9386 -0.5222
 9985TIP3   OH251369   0.833   4.918   0.226  0.0873 -0.8108 -0.9357
 9985TIP3    H151370   0.898   4.849   0.210 -0.5211 -1.7178  0.4117
 9985TIP3    H251371   0.830   4.925   0.321  0.8857  1.8182 -1.0707
 9986TIP3   OH251372   4.429   6.605   5.676 -0.3211  0.2942  0.0463
 9986TIP3    H151373   4.336   6.625   5.682  0.1540  1.8005  3.3174
 9986TIP3    H251374   4.433   6.510   5.682 -1.6306  0.2016 -0.3026
 9987TIP3   OH251375   3.596   0.095   5.591 -0.1067  0.6356  0.2813
 9987TIP3    H151376   3.560   0.154   5.525  0.1899  0.6494  0.1288
 9987TIP3    H251377   3.667   0.049   5.546  1.4300  2.1075  1.1544
 9988TIP3   OH251378   1.120   2.047  14.064 -0.6482 -0.1476 -0.2228
 9988TIP3    H151379   1.069   2.036  14.144 -1.2201  0.1243 -0.5536
 9988TIP3    H251380   1.069   2.107  14.010  0.7042  1.2792  0.0409
 9989TIP3   OH251381   3.785   5.784  11.658 -0.6915  0.4470 -0.1556
 9989TIP3    H151382   3.720   5.716  11.640 -2.3052  0.9777  3.2603
 9989TIP3    H251383   3.866   5.736  11.678 -0.7415 -0.2976 -1.6764
 9990TIP3   OH251384   2.345   0.439   5.754 -0.2238  0.2253  0.5093
 9990TIP3    H151385   2.370   0.447   5.846 -0.9230  0.5947  0.6708
 9990TIP3    H251386   2.326   0.346   5.742  2.6967 -0.3407 -0.0079
 9991TIP3   OH251387   6.685   5.471  11.909 -0.1979  0.2394  0.6448
 9991TIP3    H151388   6.674   5.397  11.850 -1.2016  0.5125  0.4844
 9991TIP3    H251389   6.628   5.539  11.874  0.7212  1.0955  0.7875
 9992TIP3   OH251390   2.875   5.581   3.062  0.6991  0.0041 -0.1029
 9992TIP3    H151391   2.866   5.491   3.031  0.4145 -0.0445  0.1196
 9992TIP3    H251392   2.794   5.599   3.108  1.8553 -0.5398  2.2218
 9993TIP3   OH251393   1.815   2.847  15.829  0.4685  0.5601  0.1619
 9993TIP3    H151394   1.826   2.779  15.762 -0.1025  0.9861 -0.3713
 9993TIP3    H251395   1.802   2.927  15.779 -0.1597  0.8541  0.7868
 9994TIP3   OH251396   2.278   6.335   4.500  0.3289 -0.0642  0.2154
 9994TIP3    H151397   2.274   6.398   4.428 -0.9062 -0.8088 -0.3865
 9994TIP3    H251398   2.233   6.378   4.573  0.7401  0.3095  0.2485
 9995TIP3   OH251399   0.600   4.295  13.388  0.0407 -0.1004  0.8369
 9995TIP3    H151400   0.666   4.358  13.357 -0.5209  1.2430  2.3117
 9995TIP3    H251401   0.554   4.268  13.308  1.0045  0.5276  0.0533
 9996TIP3   OH251402   2.782   0.568   2.568 -0.1848  0.0052 -0.1460
 9996TIP3    H151403   2.867   0.568   2.524  0.2670  3.5463  0.5970
 9996TIP3    H251404   2.724   0.614   2.507 -0.4241  1.7185  1.3483
 9997TIP3   OH251405   4.549   1.985  16.050  0.4909  0.0448  0.7047
 9997TIP3    H151406   4.472   1.984  15.993 -0.8700  1.7284  2.4501
 9997TIP3    H251407   4.521   2.032  16.128  3.1281  0.1800  1.6334
 9998TIP3   OH251408   0.628   5.138  11.941 -0.3906  0.0118 -0.0102
 9998TIP3    H151409   0.630   5.176  11.853  0.8402 -1.2302 -0.5426
 9998TIP3    H251410   0.656   5.209  11.998 -0.7444  0.6951 -0.6783
 9999TIP3   OH251411   3.357   2.330  13.854 -0.2743 -0.3414 -0.0922
 9999TIP3    H151412   3.391   2.393  13.918  0.3048  0.2496 -0.9747
 9999TIP3    H251413   3.294   2.277  13.903 -1.7371  1.7520  0.3415
10000TIP3   OH251414   1.298   4.036  16.230  0.1590  0.2024 -0.5157
10000TIP3    H151415   1.384   4.007  16.258 -0.4140 -0.7452  0.3250
10000TIP3    H251416   1.268   4.094  16.300  0.0095  0.3421 -0.6937
10001TIP3   OH251417   2.240   0.783   1.475  0.2122 -0.0992 -0.5726
10001TIP3    H151418   2.267   0.857   1.421  0.1511  0.4034  0.0791
10001TIP3    H251419   2.179   0.821   1.538  1.7762 -0.2913  1.1104
10002TIP3   OH251420   4.187   3.913   6.688 -0.7198 -0.4388 -0.1968
10002TIP3    H151421   4.095   3.889   6.699 -0.6318 -0.7307 -0.1051
10002TIP3    H251422   4.234   3.862   6.754 -0.3755 -1.0155 -0.8828
10003TIP3   OH251423   6.334   0.566   5.435 -0.1443  0.0848 -0.0837
10003TIP3    H151424   6.409   0.625   5.435  0.9499 -1.2654  1.6264
10003TIP3    H251425   6.372   0.478   5.434 -1.7309 -0.6173 -0.8033
10004TIP3   OH251426   5.568   1.094  14.011  0.0911 -0.0532  0.1562
10004TIP3    H151427   5.545   1.184  14.033  0.4835  0.3381 -0.9524
10004TIP3    H251428   5.627   1.103  13.935  1.0051 -1.1856  0.7186
10005TIP3   OH251429   4.066   1.355   6.136  0.1298 -0.0832 -0.0168
10005TIP3    H151430   3.971   1.363   6.140 -0.0386 -2.1742  0.9571
10005TIP3    H251431   4.083   1.295   6.064  0.8640  2.0286 -1.6591
10006TIP3   OH251432   0.699   1.924  13.000 -0.0834  0.2957 -0.0786
10006TIP3    H151433   0.605   1.903  13.001 -0.1551  0.6422  0.6842
10006TIP3    H251434   0.719   1.939  12.908 -0.4403 -1.2860 -0.4377
10007TIP3   OH251435   4.129   6.096  16.015  0.2554  0.1806  0.3239
10007TIP3    H151436   4.192   6.100  15.943 -1.6519  1.0202 -1.3364
10007TIP3    H251437   4.063   6.161  15.992 -0.1131  0.8422  3.1259
10008TIP3   OH251438   5.960   4.620   2.597  0.8573  0.1308 -0.0571
10008TIP3    H151439   5.950   4.663   2.681 -0.4854 -1.8388  0.8239
10008TIP3    H251440   5.886   4.652   2.544  0.5605 -0.1378  0.1907
10009TIP3   OH251441   2.707   1.176  12.717  0.5129  0.0069 -0.4195
10009TIP3    H151442   2.797   1.197  12.690  0.4653 -1.3408 -1.6795
10009TIP3    H251443   2.658   1.170  12.635 -0.6095  0.1151  0.2300
10010TIP3   OH251444   1.093   3.814   4.914  0.3350 -0.4062  0.2540
10010TIP3    H151445   1.088   3.867   4.834 -1.7488  0.0284  0.6307
10010TIP3    H251446   1.122   3.875   4.982 -2.2743  0.3514  0.7314
10011TIP3   OH251447   1.036   4.645  13.186  0.1877 -0.0242  0.3379
10011TIP3    H151448   1.074   4.646  13.273  0.9140 -1.8723  0.0661
10011TIP3    H251449   1.023   4.552  13.166 -0.3284  0.3872 -1.3549
10012TIP3   OH251450   1.309   5.356   3.739  0.5825  0.6930  0.2874
10012TIP3    H151451   1.374   5.417   3.774  0.8081  1.0463 -0.7285
10012TIP3    H251452   1.224   5.396   3.762  0.7033 -0.0085  2.0283
10013TIP3   OH251453   3.413   0.950   3.930  0.0265  0.4400 -0.3631
10013TIP3    H151454   3.440   1.008   4.000  0.1800 -0.5948  0.4460
10013TIP3    H251455   3.491   0.937   3.877 -0.1476  1.4053 -0.8628
10014TIP3   OH251456   0.965   1.159  14.708 -0.4085 -0.4860 -0.4895
10014TIP3    H151457   1.031   1.206  14.759 -0.9451 -0.2864  0.0276
10014TIP3    H251458   0.884   1.167  14.760 -1.4694  1.5211 -2.3751
10015TIP3   OH251459   2.443   5.803   5.044 -0.2008  0.7739 -0.0284
10015TIP3    H151460   2.411   5.720   5.010 -1.1359  1.1656 -0.1117
10015TIP3    H251461   2.512   5.778   5.107  1.1574  0.0311 -1.7591
10016TIP3   OH251462   3.823   0.542  14.088  0.2941  0.2849  0.5960
10016TIP3    H151463   3.916   0.552  14.108  0.2884  1.0837  0.2631
10016TIP3    H251464   3.811   0.590  14.005 -0.9485  2.5668  2.0390
10017TIP3   OH251465   4.832   4.832   4.445 -0.3137 -0.0001 -0.0850
10017TIP3    H151466   4.923   4.820   4.475 -0.2834  1.3236  0.4093
10017TIP3    H251467   4.836   4.815   4.351  0.3299 -0.5353  0.0293
10018TIP3   OH251468   4.618   3.590   1.874  0.3404 -0.0522  0.1568
10018TIP3    H151469   4.607   3.496   1.860 -1.8506  0.3550 -1.0561
10018TIP3    H251470   4.542   3.616   1.925  0.8415  1.1045  0.3259
10019TIP3   OH251471   2.765   1.169  13.349  0.1350 -0.2031  0.1384
10019TIP3    H151472   2.856   1.166  13.318  0.3967 -0.1877  0.9031
10019TIP3    H251473   2.761   1.103  13.418 -0.3504  0.0303  0.3362
10020TIP3   OH251474   3.758   5.929   4.964  0.0898  0.4708  0.0086
10020TIP3    H151475   3.814   5.854   4.946 -0.9035 -0.9642  2.5948
10020TIP3    H251476   3.761   5.939   5.059 -5.2137 -0.6263  0.4100
10021TIP3   OH251477   1.241   4.294   4.193  0.2171 -0.3768  0.2322
10021TIP3    H151478   1.304   4.344   4.141 -0.0834 -0.0509  0.1795
10021TIP3    H251479   1.242   4.206   4.154  0.3060 -0.2497 -0.0559
10022TIP3   OH251480   1.167   3.094  10.352  0.2433 -0.3675  0.1503
10022TIP3    H151481   1.113   3.170  10.329 -0.2730 -0.2119  1.7975
10022TIP3    H251482   1.253   3.131  10.371  0.2522 -0.3060 -0.0123
10023TIP3   OH251483   6.658   4.780  14.870 -0.5394  0.1346  0.4664
10023TIP3    H151484   6.721   4.815  14.806 -1.2103 -0.7159 -0.6749
10023TIP3    H251485   6.657   4.846  14.940  0.4197  0.9493 -0.2588
10024TIP3   OH251486   5.364   5.947   5.014  0.4585 -0.1430  0.0908
10024TIP3    H151487   5.428   5.896   4.964 -0.2565  0.7907 -1.8048
10024TIP3    H251488   5.417   5.998   5.076  1.2276 -2.6082  1.5272
10025TIP3   OH251489   3.602   0.258  15.841  0.2660  0.2684  0.0645
10025TIP3    H151490   3.554   0.272  15.923 -2.2013 -2.1661 -0.8708
10025TIP3    H251491   3.685   0.304  15.853 -0.7197  1.3236  3.2804
10026TIP3   OH251492   0.117   4.257   5.938 -0.9141  0.1215 -0.5904
10026TIP3    H151493   0.073   4.173   5.951 -0.9363  0.1980 -0.1761
10026TIP3    H251494   0.150   4.281   6.024 -1.0716  0.6342 -0.6704
10027TIP3   OH251495   5.150   6.173  14.323 -0.4413  0.0580 -0.2995
10027TIP3    H151496   5.240   6.152  14.348 -0.9301  0.2591  1.7991
10027TIP3    H251497   5.148   6.269  14.320 -0.7960  0.0960  0.6527
10028TIP3   OH251498   3.503   1.524   1.986 -0.4716  0.2525  0.2328
10028TIP3    H151499   3.501   1.429   1.975 -0.5501  0.3826 -1.0256
10028TIP3    H251500   3.546   1.538   2.070 -0.1788 -0.8940  0.2821
10029TIP3   OH251501   4.362   6.181   1.096 -0.2030 -1.4302  0.2213
10029TIP3    H151502   4.281   6.204   1.142  0.5092 -0.0258  0.8069
10029TIP3    H251503   4.365   6.240   1.021  0.1752 -1.6185  0.0879
10030TIP3   OH251504   4.177   1.273   0.560 -0.3254 -0.2930  0.2938
10030TIP3    H151505   4.113   1.284   0.631  0.0356 -2.2572  0.9703
10030TIP3    H251506   4.249   1.225   0.601  1.9750  2.6077 -0.2706
10031TIP3   OH251507   1.044   4.939   1.303 -0.0261  0.4907 -0.3745
10031TIP3    H151508   1.105   4.876   1.343  0.1704  1.4977  0.9891
10031TIP3    H251509   1.099   4.990   1.243 -0.0250 -0.1402 -0.9090
10032TIP3   OH251510   6.007   0.335   2.058 -0.3726  0.1257 -0.1300
10032TIP3    H151511   5.962   0.273   2.001 -0.7501  0.4357 -0.1697
10032TIP3    H251512   5.997   0.419   2.015  2.7704 -0.2078 -1.6545
10033TIP3   OH251513   1.108   5.248  15.584 -0.0824 -0.1790  0.3863
10033TIP3    H151514   1.140   5.167  15.545 -0.3853 -0.6613  1.1369
10033TIP3    H251515   1.018   5.257  15.550  0.2233  0.2720 -0.3358
10034TIP3   OH251516   1.096   0.217  16.196  0.2732  0.0146 -0.6440
10034TIP3    H151517   1.133   0.147  16.142 -2.2328  0.4004 -2.9590
10034TIP3    H251518   1.153   0.292  16.181 -0.6160  0.2298 -3.1452
10035TIP3   OH251519   5.265   5.035  11.848 -0.0271  0.1500  0.1718
10035TIP3    H151520   5.303   5.123  11.843 -0.5217  0.3627  0.1050
10035TIP3    H251521   5.252   5.020  11.942  1.1448 -0.3278  0.2716
10036TIP3   OH251522   1.741   5.175  12.937 -0.3787 -0.2687 -0.2593
10036TIP3    H151523   1.727   5.270  12.930 -0.6423 -0.2497  0.5637
10036TIP3    H251524   1.756   5.147  12.846 -1.1903  0.4204 -0.6193
10037TIP3   OH251525   4.354   4.760  12.892 -0.1430 -0.2434 -0.6599
10037TIP3    H151526   4.417   4.779  12.822 -0.0372  0.0616 -0.4789
10037TIP3    H251527   4.380   4.817  12.964 -0.9902  0.3149 -0.7897
10038TIP3   OH251528   5.461   2.728   5.175 -0.4293 -0.0171  0.6972
10038TIP3    H151529   5.377   2.694   5.205 -0.0211 -0.1579  1.7254
10038TIP3    H251530   5.456   2.822   5.192 -0.1224 -0.1250  1.4222
10039TIP3   OH251531   2.255   3.401  15.539  0.2520 -0.1585  0.3347
10039TIP3    H151532   2.163   3.378  15.552  0.6545 -0.5771  2.5889
10039TIP3    H251533   2.290   3.329  15.485 -0.7306 -0.0009 -0.5174
10040TIP3   OH251534   1.295   3.983   5.287  0.1931  0.5719 -0.2286
10040TIP3    H151535   1.376   4.031   5.306  0.1947  1.5539 -2.5085
10040TIP3    H251536   1.321   3.891   5.291  2.0596  0.8770 -3.2130
10041TIP3   OH251537   5.612   1.373   4.863 -0.1725  0.4332  0.3949
10041TIP3    H151538   5.527   1.394   4.824 -0.6404 -1.1476  0.5374
10041TIP3    H251539   5.650   1.458   4.884 -0.6514  1.2362 -1.9296
10042TIP3   OH251540   4.030   5.161   3.523 -0.1932 -0.4932  0.4480
10042TIP3    H151541   4.024   5.077   3.568  0.6212  0.1194  1.7156
10042TIP3    H251542   4.097   5.146   3.455 -0.6322 -1.0964  0.1419
10043TIP3   OH251543   3.578   1.729  15.443  0.0400  0.0743  0.7367
10043TIP3    H151544   3.644   1.784  15.486  1.7579 -2.1676  1.0696
10043TIP3    H251545   3.592   1.642  15.480 -1.6684 -0.8958 -0.8287
10044TIP3   OH251546   1.430   3.016   1.103 -0.3346 -0.1266 -0.3464
10044TIP3    H151547   1.340   2.997   1.127 -0.4169 -0.8808 -1.2492
10044TIP3    H251548   1.482   2.955   1.156 -0.3988 -0.2688 -0.4473
10045TIP3   OH251549   3.573   4.240   3.368 -0.1804 -0.4582  0.2925
10045TIP3    H151550   3.632   4.285   3.308  0.3087 -0.7986  0.5224
10045TIP3    H251551   3.493   4.226   3.317 -0.2065  0.3372  0.0989
10046TIP3   OH251552   0.022   6.348  15.859  0.5122  0.0366  0.1993
10046TIP3    H151553   0.076   6.300  15.921  2.2334 -0.3998 -1.5742
10046TIP3    H251554   0.080   6.366  15.785 -1.4371  0.6031 -1.2567
10047TIP3   OH251555   6.701   3.752  15.361 -0.5226 -0.5186  0.3074
10047TIP3    H151556   6.792   3.753  15.329 -1.0761 -1.6803 -1.3905
10047TIP3    H251557   6.660   3.828  15.319 -0.2002  0.3345  1.5204
10048TIP3   OH251558   3.134   4.991   1.773  0.1201 -0.3927  0.2232
10048TIP3    H151559   3.155   5.070   1.724 -0.0867  0.7152  1.9145
10048TIP3    H251560   3.039   4.988   1.776  0.0548 -1.8920 -1.6900
10049TIP3   OH251561   1.714   1.843   5.687  0.6729  0.3451  0.5463
10049TIP3    H151562   1.800   1.831   5.646  0.5674 -0.6859  0.5970
10049TIP3    H251563   1.727   1.911   5.753  1.2651  0.7410  0.0174
10050TIP3   OH251564   4.835   5.163   6.421  0.2054 -0.3356 -0.4414
10050TIP3    H151565   4.886   5.097   6.469  2.3261  1.2213 -0.5215
10050TIP3    H251566   4.794   5.215   6.490  0.7549 -0.0203 -0.3536
10051TIP3   OH251567   1.866   3.007   2.231 -0.5790 -0.0479 -0.1399
10051TIP3    H151568   1.824   3.051   2.157 -0.3049 -0.3931 -0.5056
10051TIP3    H251569   1.959   3.025   2.221 -0.5191 -0.2699 -0.0013
10052TIP3   OH251570   2.847   2.161   6.094 -0.4841 -0.0799  0.1610
10052TIP3    H151571   2.914   2.104   6.058  1.9632  2.1073  1.0213
10052TIP3    H251572   2.849   2.143   6.188  0.8408  1.8495  0.5414
10053TIP3   OH251573   5.400   3.030   5.986 -0.0740  0.5958  0.1532
10053TIP3    H151574   5.359   3.116   5.971 -1.0409  0.1553  0.2184
10053TIP3    H251575   5.469   3.025   5.920  0.9898  2.0649  1.1321
10054TIP3   OH251576   0.761   5.963  16.431 -0.3072  0.2346 -0.2448
10054TIP3    H151577   0.719   5.946  16.347 -0.6272 -0.3444  0.0363
10054TIP3    H251578   0.697   6.013  16.481 -0.1090  0.5968 -0.3475
10055TIP3   OH251579   5.394   6.683   4.979  0.4455  1.2304  0.2074
10055TIP3    H151580   5.360   6.764   4.939 -1.1812  1.4197  1.8676
10055TIP3    H251581   5.372   6.692   5.072  0.4534 -1.0236  0.4442
10056TIP3   OH251582   1.479   3.216   3.230  0.1321 -0.1852 -0.2671
10056TIP3    H151583   1.561   3.174   3.256  0.9046  1.4690  0.0468
10056TIP3    H251584   1.412   3.150   3.248  1.1911 -0.9094  1.1653
10057TIP3   OH251585   1.760   4.585   0.976 -0.3590 -0.3677 -0.4619
10057TIP3    H151586   1.788   4.499   0.944 -0.6861 -0.1670 -1.3182
10057TIP3    H251587   1.664   4.584   0.968 -0.7707 -1.6114  3.8923
10058TIP3   OH251588   0.064   6.717   0.526 -0.4196  0.4436 -0.8756
10058TIP3    H151589   0.013   6.712   0.445 -3.0875  3.4576  0.5365
10058TIP3    H251590   0.133   6.781   0.507  0.7079 -0.9124 -1.5713
10059TIP3   OH251591   4.560   5.255  12.414 -0.1179 -0.4748  0.6864
10059TIP3    H151592   4.555   5.273  12.508  0.6775  0.4631  0.5632
10059TIP3    H251593   4.505   5.178  12.401 -2.9365  1.3075  1.4151
10060TIP3   OH251594   6.372   1.340  15.927 -0.0796 -0.2738  0.2348
10060TIP3    H151595   6.299   1.296  15.970  0.5629  0.1919  1.8608
10060TIP3    H251596   6.448   1.286  15.948 -0.0019 -1.0254 -1.8514
10061TIP3   OH251597   2.203   3.114  16.618  0.2868 -0.7717 -0.2492
10061TIP3    H151598   2.249   3.197  16.627  0.6604 -0.8915 -0.9743
10061TIP3    H251599   2.206   3.095  16.524 -1.3775 -0.7134 -0.3252
10062TIP3   OH251600   6.536   0.861   0.040  0.4115 -0.3777  0.6392
10062TIP3    H151601   6.607   0.897   0.093  0.1625  0.6399  0.2802
10062TIP3    H251602   6.543   0.907  -0.043  0.6070 -1.7414 -0.1189
10063TIP3   OH251603   1.736   1.067   1.721 -0.3091  0.1525 -0.5263
10063TIP3    H151604   1.751   1.158   1.697  1.6564 -0.5299 -1.9557
10063TIP3    H251605   1.641   1.061   1.730 -0.5521  2.0983 -1.4214
10064TIP3   OH251606   6.198   4.359  15.291  0.1458 -0.3286 -0.3186
10064TIP3    H151607   6.109   4.327  15.278  0.0799  1.2964 -4.8954
10064TIP3    H251608   6.188   4.454  15.302  1.2664 -0.2253 -0.0819
10065TIP3   OH251609   6.370   1.447   0.542 -0.2956 -0.2048 -0.0048
10065TIP3    H151610   6.444   1.425   0.485 -0.7430 -0.2252 -0.5918
10065TIP3    H251611   6.386   1.537   0.569  0.5953 -0.6347  0.9047
10066TIP3   OH251612   6.746   3.472  15.642 -0.4434  0.3988  0.0659
10066TIP3    H151613   6.738   3.418  15.720 -1.4499 -1.1980 -1.1146
10066TIP3    H251614   6.664   3.519  15.636 -0.0885  1.0616  0.3557
10067TIP3   OH251615   6.078   5.647   4.216 -0.2667 -0.4925  0.1246
10067TIP3    H151616   6.126   5.691   4.145  1.0547 -1.8284  0.1726
10067TIP3    H251617   6.147   5.608   4.271 -1.3985 -3.0927 -0.2352
10068TIP3   OH251618   0.006   1.785   1.938 -0.0334 -0.2411  0.0090
10068TIP3    H151619  -0.047   1.707   1.953 -1.0093  0.6515  1.4045
10068TIP3    H251620   0.079   1.777   2.000 -0.3862  0.1768  0.4797
10069TIP3   OH251621   0.297   5.460   4.376  0.2497  0.0379  0.6590
10069TIP3    H151622   0.206   5.477   4.401  0.3156  1.0539  0.2184
10069TIP3    H251623   0.337   5.546   4.372  0.2549 -0.0546 -2.9346
10070TIP3   OH251624   5.253   0.000   5.417  0.4873  0.2299 -0.3613
10070TIP3    H151625   5.238  -0.046   5.500 -1.8296  0.4557 -0.6153
10070TIP3    H251626   5.210  -0.054   5.351  1.1474  0.7514 -1.2376
10071TIP3   OH251627   5.844   6.032  11.363 -0.3354 -0.1488 -0.0948
10071TIP3    H151628   5.828   6.075  11.278  1.8078  2.5498  0.7746
10071TIP3    H251629   5.800   6.089  11.427 -0.4793 -1.2190  0.7642
10072TIP3   OH251630   0.836   4.076   5.264 -0.0553  0.3460 -0.4402
10072TIP3    H151631   0.883   4.050   5.343  0.4521 -0.6328 -1.0583
10072TIP3    H251632   0.748   4.099   5.295 -0.1759 -1.0171  0.2732
10073TIP3   OH251633   5.017   3.854   3.033 -0.1859  0.4877  0.9038
10073TIP3    H151634   5.076   3.799   2.981 -2.1828 -2.6267  1.7910
10073TIP3    H251635   5.026   3.942   2.995  2.6782 -0.5398 -0.9371
10074TIP3   OH251636   3.035   1.203   1.931  0.1348  0.3199  0.2228
10074TIP3    H151637   2.978   1.225   2.005  0.4045  2.0448 -0.0669
10074TIP3    H251638   3.100   1.273   1.929  0.5654 -0.0975 -1.2150
10075TIP3   OH251639   6.074   4.033  11.615  0.5300  0.0300  0.0537
10075TIP3    H151640   6.083   3.974  11.540 -0.9063 -0.4511  0.2525
10075TIP3    H251641   6.062   4.120  11.576  0.3013 -0.1471 -0.2715
10076TIP3   OH251642   2.726   4.864  13.685 -0.5178  0.7005 -0.1176
10076TIP3    H151643   2.749   4.811  13.609  0.0109  0.5868  0.1165
10076TIP3    H251644   2.668   4.809  13.737 -2.2094  1.3898 -1.2479
10077TIP3   OH251645   1.739   4.508  13.350 -0.0646  0.5507 -0.1124
10077TIP3    H151646   1.743   4.567  13.426  1.4691 -0.3418  0.5171
10077TIP3    H251647   1.830   4.486  13.332 -0.6466 -2.3787  0.2540
10078TIP3   OH251648   5.701   4.960  10.898  0.5946  0.5156 -0.4891
10078TIP3    H151649   5.773   4.943  10.837  1.8190  2.0247  0.4896
10078TIP3    H251650   5.693   5.055  10.900 -0.5805  0.4102  0.4019
10079TIP3   OH251651   4.773   5.045   4.734 -0.4869  0.4133  0.5238
10079TIP3    H151652   4.826   4.989   4.790 -0.3028 -2.1430 -2.0866
10079TIP3    H251653   4.835   5.108   4.697 -0.4275  1.4360  2.3147
10080TIP3   OH251654   2.451   2.041   3.255 -0.5728  0.0961 -0.0418
10080TIP3    H151655   2.417   2.012   3.340  0.5432 -1.8211 -0.2300
10080TIP3    H251656   2.398   1.994   3.191 -0.4490  0.4339 -0.3973
10081TIP3   OH251657   2.787   6.704   5.535 -0.5276  0.1204 -0.0614
10081TIP3    H151658   2.789   6.742   5.623 -0.8996 -0.9304  0.4038
10081TIP3    H251659   2.761   6.613   5.549 -0.5076 -0.0692 -1.2544
10082TIP3   OH251660   6.559   3.556   4.332 -0.2208 -0.1667 -0.6903
10082TIP3    H151661   6.520   3.622   4.388 -0.3770 -0.1863 -0.7738
10082TIP3    H251662   6.561   3.596   4.245 -0.7671 -0.4458 -0.8392
10083TIP3   OH251663   5.142   5.901   4.859  0.0317 -0.0550  0.4070
10083TIP3    H151664   5.147   5.805   4.865 -1.7512 -0.1357  1.0407
10083TIP3    H251665   5.220   5.932   4.905 -0.1249 -1.1999  1.4793
10084TIP3   OH251666   4.110   6.345   0.062  0.5737 -0.1854 -0.4441
10084TIP3    H151667   4.070   6.390   0.136 -0.3507 -0.2691 -0.8799
10084TIP3    H251668   4.102   6.406  -0.011  0.6669 -0.4516 -0.6806
10085TIP3   OH251669   3.151   3.617  12.986  0.7547  0.4013  0.0682
10085TIP3    H151670   3.119   3.623  12.896  0.4663 -0.9205  0.0766
10085TIP3    H251671   3.075   3.637  13.040  0.9048  1.1018  0.0269
10086TIP3   OH251672   2.285   4.411   2.461 -0.0552 -0.2666 -0.4731
10086TIP3    H151673   2.344   4.358   2.514 -2.2877 -0.4842  1.9134
10086TIP3    H251674   2.223   4.348   2.424 -0.4913  0.2619 -0.6547
10087TIP3   OH251675   3.258   2.328   5.241 -0.1751 -0.1657 -0.1838
10087TIP3    H151676   3.268   2.416   5.205  0.1254  0.4866  1.4352
10087TIP3    H251677   3.312   2.272   5.185  0.3386  0.8370 -0.6947
10088TIP3   OH251678   1.551   2.720   4.843 -0.3541  0.4872 -0.1697
10088TIP3    H151679   1.617   2.768   4.793 -1.1844  1.5535 -0.2583
10088TIP3    H251680   1.591   2.708   4.930  0.5367 -0.1761 -0.6532
10089TIP3   OH251681   4.469   3.350  15.249  0.5850 -0.1873  0.8691
10089TIP3    H151682   4.404   3.378  15.314  2.0311  0.7188  1.9482
10089TIP3    H251683   4.533   3.301  15.299  0.0088 -2.3163 -0.4342
10090TIP3   OH251684   3.348   6.437  15.970 -0.0483  0.0870  0.1856
10090TIP3    H151685   3.387   6.387  16.042 -1.8939 -0.2122  1.0071
10090TIP3    H251686   3.283   6.492  16.011  0.1631  1.2946 -1.0528
10091TIP3   OH251687   0.695   3.638   2.341 -0.4287  0.8443  0.5270
10091TIP3    H151688   0.657   3.570   2.398 -0.0325  0.5221  0.4027
10091TIP3    H251689   0.619   3.687   2.310 -0.6789  0.7977  1.0464
10092TIP3   OH251690   4.078   1.381   3.243 -0.4329  0.2738 -0.9498
10092TIP3    H151691   4.147   1.446   3.259 -0.9935  0.6984 -0.2490
10092TIP3    H251692   4.014   1.427   3.189 -0.1344 -0.1466 -1.6680
10093TIP3   OH251693   6.438   0.480   1.887  0.2973 -0.1369 -0.3184
10093TIP3    H151694   6.432   0.414   1.956  1.0519  0.0245 -0.0941
10093TIP3    H251695   6.481   0.554   1.929  0.7334 -0.0282 -0.9524
10094TIP3   OH251696   0.947   5.908   5.946 -0.0531  0.4729 -0.2969
10094TIP3    H151697   0.925   5.909   6.039 -1.1593  1.0157 -0.5514
10094TIP3    H251698   0.908   5.828   5.912  2.2416 -0.8643  0.1240
10095TIP3   OH251699   2.499   2.422   5.228  0.0167 -0.9075  0.0089
10095TIP3    H151700   2.563   2.366   5.272  0.8693  0.8948  1.1127
10095TIP3    H251701   2.424   2.424   5.287  0.9791  1.1330  1.2082
10096TIP3   OH251702   4.984   0.917  16.567  0.5067  0.6056 -0.7452
10096TIP3    H151703   4.955   0.935  16.478  1.2366 -1.0320 -1.3281
10096TIP3    H251704   4.908   0.879  16.611  0.2483  1.1024 -0.7612
10097TIP3   OH251705   5.199   0.537  12.479  0.0299  0.1464  0.3806
10097TIP3    H151706   5.115   0.509  12.444  0.6550  0.6133 -1.5808
10097TIP3    H251707   5.187   0.630  12.499  0.0652  0.2222  0.0651
10098TIP3   OH251708   0.965   5.823  17.237 -0.0428 -0.0202  0.3612
10098TIP3    H151709   0.909   5.780  17.171 -0.3711  0.2084  0.4923
10098TIP3    H251710   1.048   5.774  17.233 -0.0716 -0.0241 -0.2055
10099TIP3   OH251711   5.244   4.129  17.208 -0.0183 -0.3803 -0.3025
10099TIP3    H151712   5.218   4.052  17.157 -2.0897 -0.3159  0.6068
10099TIP3    H251713   5.329   4.153  17.173  0.3184 -2.6429 -1.1199
10100TIP3   OH251714   4.897   1.268  11.637  0.3722 -0.1433 -0.0977
10100TIP3    H151715   4.808   1.302  11.627  0.5132  0.0093 -0.8616
10100TIP3    H251716   4.948   1.343  11.667  0.5325  0.1368 -1.0603
10101TIP3   OH251717   0.640   4.829   5.692  0.0019 -0.3895 -0.2769
10101TIP3    H151718   0.602   4.912   5.664 -1.3323 -1.2157 -0.9477
10101TIP3    H251719   0.663   4.842   5.784 -0.8399  0.4981 -0.1941
10102TIP3   OH251720   6.162   6.145   5.484  0.2577  0.0382  0.9895
10102TIP3    H151721   6.159   6.121   5.391  3.2109  0.9044  0.6245
10102TIP3    H251722   6.101   6.219   5.491 -0.3108 -0.3071 -0.1664
10103TIP3   OH251723   6.521   4.759  16.776  0.7334  0.0072  0.4795
10103TIP3    H151724   6.603   4.806  16.787 -0.4485  1.7076  2.2062
10103TIP3    H251725   6.526   4.723  16.687  1.6585  3.3992 -0.9004
10104TIP3   OH251726   3.289   5.155   3.823 -0.0586  0.2900  0.4384
10104TIP3    H151727   3.329   5.068   3.831 -2.5397 -1.1560 -2.1556
10104TIP3    H251728   3.224   5.157   3.894  0.4834  0.3024  0.9376
10105TIP3   OH251729   4.884   3.157   4.768 -0.0747 -0.5349  0.5436
10105TIP3    H151730   4.959   3.214   4.784 -0.2970  0.3523 -1.4659
10105TIP3    H251731   4.809   3.207   4.798 -0.4187  0.8591 -2.4378
10106TIP3   OH251732   2.192   0.329  12.623  0.1191  0.0250 -0.2559
10106TIP3    H151733   2.109   0.357  12.662 -2.1570 -3.1985 -2.5719
10106TIP3    H251734   2.250   0.316  12.698 -2.2527 -0.1671  1.6359
10107TIP3   OH251735   6.610   1.862   5.200 -0.0370 -0.1069  0.4383
10107TIP3    H151736   6.579   1.842   5.112 -0.8655 -0.0751  0.7165
10107TIP3    H251737   6.705   1.866   5.192 -0.1162 -0.0287 -0.4676
10108TIP3   OH251738   2.133   0.611  13.240  0.1531  0.1444  0.1551
10108TIP3    H151739   2.203   0.615  13.305 -0.1080 -0.7294  0.4859
10108TIP3    H251740   2.178   0.601  13.156  0.4771  0.9922  0.2263
10109TIP3   OH251741   5.423   1.408  14.882  0.1235 -0.3478  0.4196
10109TIP3    H151742   5.377   1.491  14.875 -0.6483 -0.8081 -0.0121
10109TIP3    H251743   5.515   1.430  14.864 -0.0540  0.4298  0.4630
10110TIP3   OH251744   5.219   3.369  13.058  0.0342  0.4095  0.0317
10110TIP3    H151745   5.290   3.305  13.044  0.7534  1.3055 -0.5030
10110TIP3    H251746   5.251   3.449  13.015 -1.7078  0.5541 -1.0199
10111TIP3   OH251747   0.456   1.343   1.269 -0.6868 -0.1423 -0.4587
10111TIP3    H151748   0.446   1.437   1.252  0.8898 -0.0289 -0.8315
10111TIP3    H251749   0.407   1.300   1.199 -1.3721  0.3859 -0.3140
10112TIP3   OH251750   5.836   0.830   6.581 -0.1571 -0.1586  0.0530
10112TIP3    H151751   5.924   0.822   6.544 -0.9873 -0.9866 -1.8019
10112TIP3    H251752   5.851   0.845   6.674  2.0084  1.9854 -0.5684
10113TIP3   OH251753   4.541   1.649   1.761 -0.2781 -0.0638 -0.4059
10113TIP3    H151754   4.579   1.584   1.821 -1.3527 -1.4245 -1.1566
10113TIP3    H251755   4.617   1.689   1.718  0.3913 -1.3860 -0.4854
10114TIP3   OH251756   3.695   1.336   3.087 -0.0969  0.0277 -0.0946
10114TIP3    H151757   3.693   1.374   2.999  1.0518  1.1829  0.3591
10114TIP3    H251758   3.607   1.351   3.121  0.1499  1.7820 -0.1561
10115TIP3   OH251759   0.600   5.701  12.135 -0.9695  0.1423  0.3806
10115TIP3    H151760   0.543   5.681  12.061 -1.2403  1.5027  0.2093
10115TIP3    H251761   0.676   5.744  12.095  1.1193 -3.3724  0.3834
10116TIP3   OH251762   5.663   6.624  15.825 -0.0625  0.2351  0.1058
10116TIP3    H151763   5.588   6.662  15.778 -1.5185 -0.7183  1.6069
10116TIP3    H251764   5.639   6.533  15.839  2.0953 -0.4978 -0.7733
10117TIP3   OH251765   6.349   2.823   2.701  0.3638  0.0337 -0.2598
10117TIP3    H151766   6.255   2.836   2.689  0.6931  2.1214 -0.7202
10117TIP3    H251767   6.356   2.774   2.783 -1.0534  1.1671  0.5600
10118TIP3   OH251768   0.753   1.042   1.343  0.0510  0.0320 -0.5244
10118TIP3    H151769   0.750   1.019   1.250 -2.2845 -0.1047 -0.4276
10118TIP3    H251770   0.743   1.137   1.344  2.5465  0.3302 -0.5186
10119TIP3   OH251771   0.986   4.697   0.133 -0.2810  0.4884 -0.2330
10119TIP3    H151772   1.056   4.640   0.101 -1.2641 -0.5493 -0.5851
10119TIP3    H251773   0.962   4.660   0.218 -1.0627  0.2477 -0.5551
10120TIP3   OH251774   1.470   4.213   2.435  0.2816 -0.1862 -0.1546
10120TIP3    H151775   1.480   4.210   2.340 -2.5836 -1.6136 -0.4677
10120TIP3    H251776   1.496   4.126   2.465 -2.8359 -1.1722 -0.1364
10121TIP3   OH251777   5.877   1.278   4.938 -0.5314  0.2838  0.4799
10121TIP3    H151778   5.924   1.292   4.855  0.7103 -1.5344  0.8437
10121TIP3    H251779   5.786   1.298   4.918  0.3725  3.9966 -0.2248
10122TIP3   OH251780   4.119   5.224  11.956  0.0056 -0.0911 -0.4654
10122TIP3    H151781   4.043   5.196  12.006 -0.4138 -0.9284 -1.5676
10122TIP3    H251782   4.106   5.318  11.943 -1.3142 -0.3899 -1.4373
10123TIP3   OH251783   5.673   2.630   1.389  0.0007 -0.1105 -0.5190
10123TIP3    H151784   5.648   2.549   1.433 -0.4668 -1.5043 -3.2692
10123TIP3    H251785   5.766   2.640   1.410 -0.2436 -0.6559  0.8836
10124TIP3   OH251786   0.935   0.821   6.215 -0.1766 -0.1872 -0.3600
10124TIP3    H151787   0.988   0.808   6.294  0.8124 -1.4987 -1.2092
10124TIP3    H251788   0.845   0.815   6.246  0.2004 -1.1229  0.6232
10125TIP3   OH251789   6.012   1.674   5.885  0.6186 -0.2442  0.0254
10125TIP3    H151790   5.973   1.739   5.944  0.5888  0.4824 -0.7919
10125TIP3    H251791   5.939   1.615   5.865  0.6612 -0.5793  0.8222
10126TIP3   OH251792   3.956   5.800   1.463  0.0974  0.3923 -0.2043
10126TIP3    H151793   3.943   5.738   1.535  1.8666 -2.4078 -2.1468
10126TIP3    H251794   4.023   5.860   1.495 -1.1054  0.8680  1.4666
10127TIP3   OH251795   1.790   4.033   2.461  0.4529  0.5086 -0.6289
10127TIP3    H151796   1.703   4.013   2.498  0.1942  2.1829 -0.2882
10127TIP3    H251797   1.789   3.991   2.375  0.1919 -1.4715  0.2985
10128TIP3   OH251798   1.089   4.330   4.790  0.0900 -0.4339 -0.1369
10128TIP3    H151799   1.035   4.253   4.804 -0.2094 -0.2616 -0.3345
10128TIP3    H251800   1.168   4.297   4.748 -1.0209 -0.3399 -2.3878
10129TIP3   OH251801   6.015   3.917   5.869 -0.1547 -0.1844  0.4333
10129TIP3    H151802   5.932   3.900   5.913 -0.8667  0.8920 -0.4653
10129TIP3    H251803   6.064   3.972   5.930 -0.3099 -0.3908  0.7428
10130TIP3   OH251804   0.534   5.107  11.213  0.3192  0.1102 -0.1945
10130TIP3    H151805   0.445   5.091  11.180 -0.2454  2.8888 -0.1403
10130TIP3    H251806   0.587   5.038  11.173 -2.0024 -2.1073  0.4620
10131TIP3   OH251807   2.093   1.128  11.532  0.2550 -0.1593 -0.1607
10131TIP3    H151808   2.008   1.085  11.523  0.4777 -0.9537  1.3494
10131TIP3    H251809   2.156   1.064  11.498  0.5752 -0.9937  1.9675
10132TIP3   OH251810   6.475   5.533  10.571 -0.2109 -0.0826 -0.0896
10132TIP3    H151811   6.434   5.589  10.505  0.5076  0.4862 -0.0577
10132TIP3    H251812   6.458   5.579  10.654 -1.4588 -0.9921  0.1830
10133TIP3   OH251813   4.156   5.400   2.842 -0.4529 -0.2059 -0.1572
10133TIP3    H151814   4.081   5.436   2.888  0.5281  1.6584  0.0344
10133TIP3    H251815   4.221   5.470   2.844  0.9538 -1.4553 -1.1206
10134TIP3   OH251816   6.437   3.584   2.364  1.2738  0.6391  0.2452
10134TIP3    H151817   6.343   3.581   2.344  1.5221  0.5154 -0.9650
10134TIP3    H251818   6.472   3.503   2.327  1.5263 -0.3446  2.5894
10135TIP3   OH251819   6.349   3.134  12.410 -0.1524  0.0693  0.1197
10135TIP3    H151820   6.320   3.183  12.487 -0.3120 -3.4115  2.3978
10135TIP3    H251821   6.443   3.148  12.406 -0.1989  0.5688  0.7251
10136TIP3   OH251822   2.480   0.896   6.048 -0.0982  0.1566  0.4848
10136TIP3    H151823   2.409   0.926   6.106  0.7162  0.6779  1.2197
10136TIP3    H251824   2.553   0.954   6.068  0.0844  0.5697 -1.3412
10137TIP3   OH251825   5.362   5.598  16.834 -0.5473  0.2875 -0.3747
10137TIP3    H151826   5.456   5.612  16.818 -0.5174  0.4912 -0.0136
10137TIP3    H251827   5.322   5.604  16.748 -0.2233  0.1859 -0.5358
10138TIP3   OH251828   0.827   4.043   3.205  0.1450  0.2246  0.1475
10138TIP3    H151829   0.746   3.991   3.202  0.1895  0.1294  0.6495
10138TIP3    H251830   0.797   4.134   3.194  0.1819 -0.0018 -2.0754
10139TIP3   OH251831   4.254   6.443  12.150  0.0224  0.3055 -0.0127
10139TIP3    H151832   4.251   6.538  12.154 -0.3815  0.2527  0.8773
10139TIP3    H251833   4.313   6.424  12.076  1.7202  1.2419  1.0693
10140TIP3   OH251834   6.704   5.735   5.770  0.6582 -0.6235  0.6627
10140TIP3    H151835   6.739   5.701   5.852 -1.6051 -0.5624  1.6841
10140TIP3    H251836   6.622   5.687   5.757 -1.1728  2.3761  0.6766
10141TIP3   OH251837   4.869   0.664   1.425 -0.1148 -0.1046 -0.1093
10141TIP3    H151838   4.864   0.589   1.366  0.9224  0.9294 -1.5234
10141TIP3    H251839   4.877   0.740   1.368  2.7497  0.7729  1.3675
10142TIP3   OH251840   3.751   3.616   1.119  0.3933  0.0652 -0.5825
10142TIP3    H151841   3.674   3.560   1.122  0.7841 -0.5016 -1.2547
10142TIP3    H251842   3.729   3.689   1.178 -0.0516 -0.8501  0.4006
10143TIP3   OH251843   1.494   2.800   6.514  0.2224 -0.5085 -0.2388
10143TIP3    H151844   1.577   2.770   6.551  0.4748  0.4424  0.0013
10143TIP3    H251845   1.437   2.724   6.517  1.2266 -1.2920 -0.8278
10144TIP3   OH251846   2.473   5.965   0.335  0.1245  0.0576  0.7349
10144TIP3    H151847   2.383   5.992   0.317 -0.1058 -1.8011 -1.0702
10144TIP3    H251848   2.468   5.870   0.346  1.7966  0.0024  1.1795
10145TIP3   OH251849   6.429   2.292  16.157 -0.1774  0.1110  0.2259
10145TIP3    H151850   6.371   2.342  16.214 -0.3469  0.3282 -0.1374
10145TIP3    H251851   6.423   2.336  16.072  1.1385  0.6373  0.3851
10146TIP3   OH251852   4.994   0.138  14.469 -0.6689 -0.4435  0.9030
10146TIP3    H151853   5.006   0.067  14.532 -0.1553 -1.0058  0.1822
10146TIP3    H251854   4.900   0.138  14.451 -0.7693 -0.4948  1.4204
10147TIP3   OH251855   5.367   0.106  13.195  0.1480  0.1647  0.4021
10147TIP3    H151856   5.311   0.178  13.166 -0.9602 -0.8304  0.0418
10147TIP3    H251857   5.322   0.069  13.271 -1.2885 -2.5209 -1.6473
10148TIP3   OH251858   3.573   1.936   4.271 -0.4635 -0.1911  0.3003
10148TIP3    H151859   3.520   1.981   4.336 -1.5267  0.2076 -0.8158
10148TIP3    H251860   3.577   1.845   4.301  0.4986  0.3349  1.8043
10149TIP3   OH251861   5.494   4.488   3.825  0.5178  0.0549  0.1710
10149TIP3    H151862   5.420   4.536   3.788 -1.3134 -2.0017  1.0532
10149TIP3    H251863   5.561   4.491   3.757 -1.2089  0.0205 -1.5710
10150TIP3   OH251864   0.237   6.065  14.126  0.5161 -0.0309 -0.1145
10150TIP3    H151865   0.199   6.085  14.211  0.3767  0.4083 -0.2797
10150TIP3    H251866   0.292   5.988  14.142 -1.7083 -1.6985 -0.2134
10151TIP3   OH251867   1.952   4.117  11.118 -0.2605 -0.2139  0.3035
10151TIP3    H151868   1.864   4.080  11.119  0.8290 -2.9529  1.5815
10151TIP3    H251869   2.003   4.057  11.064  1.3333  0.0455  1.4823
10152TIP3   OH251870   4.309   6.012   0.490 -0.3862  0.4622  0.2434
10152TIP3    H151871   4.314   6.036   0.583  2.5257 -1.0402  0.5313
10152TIP3    H251872   4.382   5.953   0.477 -1.5757 -0.4307 -2.7372
10153TIP3   OH251873   4.945   4.538   4.831  0.2288  0.2430  0.1778
10153TIP3    H151874   4.872   4.597   4.811 -0.2506 -0.3416  0.1764
10153TIP3    H251875   4.916   4.489   4.908  0.6525  0.0607  0.2229
10154TIP3   OH251876   3.414   3.187  11.358  0.2155 -0.0292 -0.6658
10154TIP3    H151877   3.414   3.237  11.277 -0.4802  0.1439 -0.5689
10154TIP3    H251878   3.331   3.140  11.356  0.9905 -1.4010 -0.8867
10155TIP3   OH251879   2.149   1.475  10.647  0.4264  0.5556 -0.9167
10155TIP3    H151880   2.231   1.426  10.650  0.1101 -0.0287 -1.7168
10155TIP3    H251881   2.169   1.558  10.691  1.2171  0.0904 -0.3869
10156TIP3   OH251882   1.121   0.295   4.066  0.6813  0.1811 -0.2539
10156TIP3    H151883   1.204   0.251   4.047  1.1401  0.7331  0.4340
10156TIP3    H251884   1.117   0.297   4.162  0.4985  1.3252 -0.2851
10157TIP3   OH251885   0.606   3.009  16.399 -0.3068 -0.9871  0.1486
10157TIP3    H151886   0.598   3.066  16.475 -0.0708 -0.4725 -0.2131
10157TIP3    H251887   0.650   2.930  16.433 -0.7392 -1.0050  0.6663
10158TIP3   OH251888   2.998   5.667  12.115  0.1648 -0.0232  0.2160
10158TIP3    H151889   3.026   5.714  12.036  2.6727  1.4415  1.8913
10158TIP3    H251890   3.008   5.574  12.092  2.0148  0.4083 -0.8175
10159TIP3   OH251891   0.011   0.427  16.255  0.2337 -0.5210 -0.6311
10159TIP3    H151892   0.064   0.364  16.304  0.1599 -1.0207 -1.1889
10159TIP3    H251893   0.065   0.506  16.251 -1.0601  0.6600  3.0960
10160TIP3   OH251894   0.060   4.894  14.665  0.4350 -0.2292  0.4073
10160TIP3    H151895   0.120   4.822  14.646 -0.1817 -0.2922 -1.3150
10160TIP3    H251896   0.038   4.931  14.580 -2.5133 -0.6392  0.9302
10161TIP3   OH251897   4.425   3.549   4.093 -0.1436 -0.0447  0.4308
10161TIP3    H151898   4.377   3.555   4.010  0.8567 -1.4671 -0.2738
10161TIP3    H251899   4.479   3.628   4.094 -0.0926 -0.0590 -0.3264
10162TIP3   OH251900   6.623   3.927  12.987  0.8070 -0.5759  0.1038
10162TIP3    H151901   6.553   3.913  13.051  1.0819  1.2871  0.8698
10162TIP3    H251902   6.681   3.990  13.030  0.7289  1.1041 -2.1843
10163TIP3   OH251903   1.528   3.549   1.878  0.3003  0.4037 -0.2942
10163TIP3    H151904   1.545   3.635   1.917  2.0387  0.3481 -0.8748
10163TIP3    H251905   1.609   3.499   1.894  0.4974 -0.0955 -2.6598
10164TIP3   OH251906   6.404   4.205   0.338 -0.6960 -0.5546 -0.5668
10164TIP3    H151907   6.345   4.143   0.382 -1.0637  0.1598 -0.0649
10164TIP3    H251908   6.439   4.259   0.407 -0.7583  0.1313 -1.0667
10165TIP3   OH251909   6.403   4.986   3.129 -0.0754 -0.5060 -1.0683
10165TIP3    H151910   6.492   4.975   3.097  0.2531 -1.2614  0.0770
10165TIP3    H251911   6.356   5.025   3.055  1.1440 -0.2979 -1.7544
10166TIP3   OH251912   3.864   3.922   0.557 -0.3902 -0.4994 -0.6700
10166TIP3    H151913   3.774   3.932   0.526 -0.5604  1.4504  0.3247
10166TIP3    H251914   3.855   3.873   0.639 -0.9480  2.5570  1.1835
10167TIP3   OH251915   4.025   1.729  16.033 -0.1867  0.0900 -0.3475
10167TIP3    H151916   4.110   1.727  16.077 -0.4603  0.1477  0.1919
10167TIP3    H251917   3.972   1.665  16.081 -0.0605 -0.8817 -1.4916
10168TIP3   OH251918   0.658   0.799  11.542  0.0602  0.9298  0.1891
10168TIP3    H151919   0.704   0.875  11.506  0.4455  0.8559  0.5322
10168TIP3    H251920   0.651   0.739  11.468  0.6069  0.8949  0.1679
10169TIP3   OH251921   1.122   2.989   0.408  0.0467 -0.1297  0.6909
10169TIP3    H151922   1.104   2.895   0.401  0.2916 -0.1059 -0.4042
10169TIP3    H251923   1.204   3.001   0.360 -0.1691  0.6985  0.5254
10170TIP3   OH251924   5.883   2.354  12.797  0.0820 -0.3000 -0.1282
10170TIP3    H151925   5.887   2.448  12.813 -1.9233  0.0312 -1.3893
10170TIP3    H251926   5.794   2.329  12.821  0.5182 -1.8238 -0.0439
10171TIP3   OH251927   5.540   6.425  12.448  0.4455 -0.0414 -0.6926
10171TIP3    H151928   5.522   6.480  12.524  0.0880 -0.1423 -0.7032
10171TIP3    H251929   5.635   6.412  12.450  0.7453  1.8475 -1.5497
10172TIP3   OH251930   1.991   3.097  13.422 -0.5455 -0.3872 -0.4239
10172TIP3    H151931   1.908   3.050  13.427 -1.0518  0.4630 -0.6327
10172TIP3    H251932   2.008   3.125  13.511  0.0482 -1.4607 -0.2004
10173TIP3   OH251933   3.603   1.219  15.697  0.2103  0.0788  0.3343
10173TIP3    H151934   3.588   1.127  15.676  0.2757  0.4409 -1.4117
10173TIP3    H251935   3.619   1.220  15.791  2.6536 -2.0134 -0.0125
10174TIP3   OH251936   5.043   3.276  17.159  0.4283 -0.2060 -0.1350
10174TIP3    H151937   5.035   3.271  17.064  2.7139 -2.7919 -0.2319
10174TIP3    H251938   5.025   3.368  17.179  2.8026  1.0428 -3.3341
10175TIP3   OH251939   2.097   2.157  13.946  0.7976 -0.4424 -0.0110
10175TIP3    H151940   2.173   2.212  13.968 -0.2479  1.4945 -1.1745
10175TIP3    H251941   2.052   2.204  13.876 -0.4547 -2.5144 -0.6387
10176TIP3   OH251942   0.585   6.401  17.199  0.9240 -0.3650  0.3378
10176TIP3    H151943   0.627   6.479  17.163 -1.5740  0.1907 -1.4741
10176TIP3    H251944   0.557   6.427  17.287  1.4574  0.2772  0.3180
10177TIP3   OH251945   3.313   6.233   0.664  0.3656  0.0505 -0.3624
10177TIP3    H151946   3.305   6.326   0.683  0.7098  0.0976 -0.4521
10177TIP3    H251947   3.237   6.214   0.609  0.1655  0.2259 -0.1499
10178TIP3   OH251948   1.234   0.572   1.762 -0.3685  0.6939  0.2823
10178TIP3    H151949   1.230   0.646   1.823  0.4986  2.2920 -1.5667
10178TIP3    H251950   1.170   0.593   1.695 -0.3828 -0.4314 -0.0599
10179TIP3   OH251951   5.873   2.157   2.703  0.4026 -0.5494  0.1287
10179TIP3    H151952   5.956   2.167   2.656  0.1696 -1.7852 -0.5657
10179TIP3    H251953   5.856   2.243   2.741  1.3943  0.0322 -0.7313
10180TIP3   OH251954   0.735   1.233   2.248 -0.4365  0.0505 -0.3115
10180TIP3    H151955   0.773   1.296   2.187  0.6547 -0.0575  0.2437
10180TIP3    H251956   0.788   1.154   2.238  0.0135  0.1634  1.0512
10181TIP3   OH251957   4.280   4.990  11.847 -0.3072 -0.5346  0.0898
10181TIP3    H151958   4.243   5.074  11.875  1.9965  0.6536 -0.3149
10181TIP3    H251959   4.365   5.013  11.810 -0.0511 -2.9647 -0.8731
10182TIP3   OH251960   0.618   6.403  15.872  0.2150 -0.0701  0.8194
10182TIP3    H151961   0.697   6.395  15.926  0.6725 -1.6043 -0.0535
10182TIP3    H251962   0.648   6.451  15.794  0.0412  0.2518  0.9485
10183TIP3   OH251963   3.441   2.431   0.743 -0.1737  0.7302 -0.1678
10183TIP3    H151964   3.360   2.476   0.765 -0.3970 -0.0483  0.6371
10183TIP3    H251965   3.418   2.373   0.671 -0.0973  1.2252 -0.5949
10184TIP3   OH251966   2.476   4.932  14.260 -0.3934 -0.2952  0.1206
10184TIP3    H151967   2.556   4.984  14.248 -1.4260  1.4870  0.8456
10184TIP3    H251968   2.497   4.873  14.332 -0.0360  0.8214  0.9442
10185TIP3   OH251969   2.181   3.243   3.091  0.1860 -0.0691  0.1546
10185TIP3    H151970   2.114   3.276   3.031  0.8363 -1.4083 -1.3549
10185TIP3    H251971   2.181   3.306   3.164  0.3075  2.3740 -1.8682
10186TIP3   OH251972   0.016   5.360   5.979  0.1005  0.6286  0.3350
10186TIP3    H151973   0.072   5.437   5.967 -0.9353  1.6093  1.6350
10186TIP3    H251974  -0.032   5.353   5.897 -0.2885  1.7806  0.4559
10187TIP3   OH251975   2.541   3.663  13.154  0.3454  0.3122 -0.1264
10187TIP3    H151976   2.506   3.692  13.238  0.7998 -0.9272  0.5005
10187TIP3    H251977   2.464   3.653  13.098 -0.0594  0.1237  0.4634
10188TIP3   OH251978   4.271   2.621  11.157 -0.3430 -0.0652  0.0483
10188TIP3    H151979   4.273   2.629  11.062 -1.2560 -1.8047 -0.1352
10188TIP3    H251980   4.312   2.536  11.175 -1.0789 -0.2106  1.1244
10189TIP3   OH251981   3.217   0.428   0.100  0.0573 -0.1224 -0.4822
10189TIP3    H151982   3.262   0.513   0.098 -0.2134  0.1434  2.6969
10189TIP3    H251983   3.287   0.364   0.090  0.5649  0.4146 -0.4464
10190TIP3   OH251984   3.802   2.874   0.989  0.5448  0.1632 -0.0333
10190TIP3    H151985   3.767   2.799   0.941  0.9662 -0.4861  0.6671
10190TIP3    H251986   3.871   2.838   1.043 -0.8994  0.6232  2.1822
10191TIP3   OH251987   5.883   5.467   4.234 -0.2080  0.0642  0.6009
10191TIP3    H151988   5.941   5.529   4.191 -0.6270 -0.2906 -0.4955
10191TIP3    H251989   5.877   5.498   4.324 -0.6698  1.8051 -0.0167
10192TIP3   OH251990   3.109   1.110  16.019  1.2453  0.0706  0.2516
10192TIP3    H151991   3.063   1.161  16.084  1.4664 -0.4907  0.8593
10192TIP3    H251992   3.065   1.025  16.019  1.7070 -0.1755  0.2043
10193TIP3   OH251993   2.891   3.675  16.445 -0.0485  0.5722 -0.1597
10193TIP3    H151994   2.927   3.756  16.481  0.4505  0.1582  0.2780
10193TIP3    H251995   2.892   3.689  16.350 -1.0960  1.5535 -0.0395
10194TIP3   OH251996   6.245   2.962   5.022  0.0855 -0.3410  0.1369
10194TIP3    H151997   6.222   2.873   4.995  0.4281  0.0144 -1.3570
10194TIP3    H251998   6.259   2.955   5.117  0.6692 -1.9917 -0.0529
10195TIP3   OH251999   1.144   1.982   3.675  0.1900  0.2507  0.1819
10195TIP3    H152000   1.064   2.030   3.698  1.0335  1.2090  1.1838
10195TIP3    H252001   1.123   1.890   3.693 -1.3233  0.2635 -1.4268
10196TIP3   OH252002   2.678   4.973  11.147 -0.2308  0.0065 -0.0536
10196TIP3    H152003   2.718   4.886  11.153  0.5628  0.4033  0.5089
10196TIP3    H252004   2.736   5.023  11.090  1.4009  1.2913  2.6615
10197TIP3   OH252005   4.671   3.343   1.575 -0.4307  0.4214 -0.5711
10197TIP3    H152006   4.591   3.379   1.537 -1.7804 -2.2933 -0.4391
10197TIP3    H252007   4.645   3.316   1.663  1.0387  0.8415  0.0050
10198TIP3   OH252008   1.161   1.704  13.604  0.4897  0.0191  0.1322
10198TIP3    H152009   1.153   1.769  13.674 -1.2952 -0.0083 -0.0144
10198TIP3    H252010   1.087   1.722  13.546  0.5507 -1.4952 -0.4496
10199TIP3   OH252011   4.711   3.047  13.890  0.1693  0.2424  0.2543
10199TIP3    H152012   4.783   3.033  13.829  0.8385  0.3271  1.0152
10199TIP3    H252013   4.718   3.140  13.914  1.3414 -0.3377  2.2518
10200TIP3   OH252014   4.018   5.457  16.466 -0.3494 -0.2387 -0.3967
10200TIP3    H152015   3.956   5.478  16.535 -0.9127  0.3217 -1.0680
10200TIP3    H252016   4.041   5.365  16.481  1.2961  0.4870  1.9235
10201TIP3   OH252017   4.623   3.344   0.664  0.5001 -0.2152  0.4460
10201TIP3    H152018   4.691   3.392   0.710 -1.0717  0.8657  1.7162
10201TIP3    H252019   4.571   3.412   0.620  1.1814 -1.1330 -1.8840
10202TIP3   OH252020   5.912   1.739  14.389 -0.5803 -0.3050  0.2388
10202TIP3    H152021   5.888   1.717  14.479 -1.0941  0.8066  0.3796
10202TIP3    H252022   5.865   1.821  14.371  1.0688  0.5226 -0.3682
10203TIP3   OH252023   2.687   2.418  13.185 -0.1052 -0.1030 -0.0955
10203TIP3    H152024   2.631   2.487  13.221  0.0765  0.1042 -0.2031
10203TIP3    H252025   2.643   2.337  13.208 -0.6501  0.0696 -0.5022
10204TIP3   OH252026   1.740   6.697   3.617 -0.3020  0.2760 -0.2783
10204TIP3    H152027   1.751   6.603   3.627 -0.4837  0.1770 -0.9854
10204TIP3    H252028   1.646   6.711   3.627 -0.0065  0.7031  2.3584
10205TIP3   OH252029   5.620   0.139  15.923 -0.3430 -0.0556 -0.3056
10205TIP3    H152030   5.653   0.087  15.849  1.0202  0.0771  0.2023
10205TIP3    H252031   5.533   0.167  15.895 -0.6842 -1.7366 -1.0231
10206TIP3   OH252032   2.332   1.485  16.001 -0.2574 -0.3431 -0.2336
10206TIP3    H152033   2.369   1.527  16.079  1.0727  1.6767 -1.8879
10206TIP3    H252034   2.238   1.505  16.006  0.0932  1.3437 -0.0681
10207TIP3   OH252035   4.670   4.345   6.027  0.0224 -0.5820 -0.2960
10207TIP3    H152036   4.670   4.432   6.066  0.4182 -0.4979 -0.4840
10207TIP3    H252037   4.762   4.317   6.030 -0.2191 -1.3266  0.5159
10208TIP3   OH252038   2.070   0.904  17.179 -0.2970 -0.3545 -0.2060
10208TIP3    H152039   2.001   0.946  17.127 -0.0282 -1.2831 -1.3381
10208TIP3    H252040   2.043   0.812  17.186  1.9812 -1.2759 -2.7099
10209TIP3   OH252041   6.777   0.833   4.506  0.0939  0.0646 -0.6029
10209TIP3    H152042   6.797   0.740   4.519 -1.0556 -0.2320 -0.8313
10209TIP3    H252043   6.760   0.867   4.594 -2.1870 -0.6165 -0.7254
10210TIP3   OH252044   0.118   3.409   0.825 -0.7280  0.2473  0.4692
10210TIP3    H152045   0.198   3.413   0.773  0.2543 -1.1908  1.8010
10210TIP3    H252046   0.073   3.492   0.807 -0.3469 -0.1578 -2.4908
10211TIP3   OH252047   1.350   3.140   1.360  0.3931 -0.4658  0.2814
10211TIP3    H152048   1.353   3.191   1.441  0.8860 -0.4343  0.2419
10211TIP3    H252049   1.441   3.132   1.334  0.3700 -1.9516  0.6515
10212TIP3   OH252050   3.444   5.207   5.082  0.4177  0.1696  0.1843
10212TIP3    H152051   3.357   5.175   5.057 -0.2027 -0.1829  2.6575
10212TIP3    H252052   3.445   5.298   5.053 -0.5053 -0.0400 -0.5148
10213TIP3   OH252053   2.041   4.709   4.145 -0.3952  0.1951 -0.0056
10213TIP3    H152054   1.950   4.702   4.174  0.0640 -0.0409  1.3943
10213TIP3    H252055   2.039   4.679   4.054 -1.5684 -0.6542  0.2877
10214TIP3   OH252056   6.334   3.193  11.581 -0.0738  0.2322  0.5025
10214TIP3    H152057   6.268   3.261  11.594 -0.0671  0.1726  0.8619
10214TIP3    H252058   6.284   3.116  11.556  0.0904  0.9493 -2.1502
10215TIP3   OH252059   5.753   0.134  16.349  0.3681 -0.2891  0.3740
10215TIP3    H152060   5.706   0.210  16.315 -0.1703 -0.4830  0.6874
10215TIP3    H252061   5.733   0.064  16.288  0.8780 -0.1806  0.0765
10216TIP3   OH252062   0.615   3.308  15.955  0.4252 -0.4762  0.3390
10216TIP3    H152063   0.558   3.294  16.031 -0.1503 -0.8901 -0.1621
10216TIP3    H252064   0.639   3.400  15.960  1.1100 -0.7051  1.5182
10217TIP3   OH252065   4.209   2.736   0.074  0.3585 -0.3232 -0.0972
10217TIP3    H152066   4.165   2.787   0.007  0.5536 -0.7977 -0.5893
10217TIP3    H252067   4.271   2.798   0.114  2.3299 -0.7838 -2.3241
10218TIP3   OH252068   2.034   3.140  15.685 -0.2848 -0.1619  0.3908
10218TIP3    H152069   2.029   3.221  15.635  2.1950 -1.6903 -2.4386
10218TIP3    H252070   1.944   3.107  15.686 -1.2516  2.3449  1.2531
10219TIP3   OH252071   2.488   3.540  14.427  0.4790 -0.3799 -0.2219
10219TIP3    H152072   2.581   3.553  14.440  0.3659  0.8374 -0.6009
10219TIP3    H252073   2.448   3.626  14.442 -0.2917 -0.2935 -2.5323
10220TIP3   OH252074   3.634   5.143  16.483  0.0052 -0.0737  0.4862
10220TIP3    H152075   3.701   5.166  16.549  0.9742  0.9616 -0.8347
10220TIP3    H252076   3.677   5.160  16.399 -1.5554 -0.4910 -0.4005
10221TIP3   OH252077   2.103   6.592   4.425 -0.2530  0.5513 -0.3143
10221TIP3    H152078   2.048   6.581   4.503  1.1580  0.8171  0.7238
10221TIP3    H252079   2.145   6.677   4.436  0.2611  0.4202 -1.1890
10222TIP3   OH252080   5.939   6.325   5.519 -0.0443 -0.2788  0.1353
10222TIP3    H152081   5.927   6.413   5.554  1.5423 -0.5270  1.3606
10222TIP3    H252082   5.903   6.267   5.587 -1.3522 -0.5751 -0.7921
10223TIP3   OH252083   1.868   6.282  10.810 -0.0377 -0.3436  0.6446
10223TIP3    H152084   1.900   6.192  10.804  2.2318  0.3095  2.1718
10223TIP3    H252085   1.882   6.318  10.723 -0.1145 -1.1935  0.2737
10224TIP3   OH252086   6.377   6.096   4.734 -0.1282 -0.0213  0.5050
10224TIP3    H152087   6.417   6.125   4.816 -0.2664 -1.3298  1.0432
10224TIP3    H252088   6.408   6.159   4.669  1.7911 -0.2602  1.1562
10225TIP3   OH252089   1.304   0.351  14.043  0.4523 -0.4684  0.4383
10225TIP3    H152090   1.271   0.353  13.953 -1.4620 -1.0204  1.1075
10225TIP3    H252091   1.355   0.270  14.048 -0.4314 -1.0483  0.1735
10226TIP3   OH252092   4.631   1.749   3.157 -0.0032  0.2225  0.0297
10226TIP3    H152093   4.703   1.703   3.199 -0.5574 -0.4129  0.2935
10226TIP3    H252094   4.670   1.829   3.122  0.3403  1.0982  2.3326
10227TIP3   OH252095   5.802   2.959   1.895 -0.2802 -0.6676  0.5209
10227TIP3    H152096   5.761   2.962   1.981  0.9800  1.1681  1.0733
10227TIP3    H252097   5.774   3.039   1.851 -0.5355 -1.3637 -0.6045
10228TIP3   OH252098   3.322   5.715   4.828 -0.1746  0.5647 -0.1628
10228TIP3    H152099   3.345   5.801   4.792  0.5301  0.1042 -0.8433
10228TIP3    H252100   3.229   5.721   4.848 -0.0722  1.5754  0.0504
10229TIP3   OH252101   5.707   3.782  14.716 -0.1498 -0.0262 -0.0385
10229TIP3    H152102   5.794   3.751  14.691  0.1129  2.6368 -2.7873
10229TIP3    H252103   5.646   3.722  14.671  0.3161  0.8404 -1.8607
10230TIP3   OH252104   1.708   5.736  14.407 -0.1103  0.2288  0.0795
10230TIP3    H152105   1.749   5.816  14.373 -0.3659 -0.0323 -0.8379
10230TIP3    H252106   1.631   5.767  14.455 -0.5796  0.4875 -0.8356
10231TIP3   OH252107   3.287   5.614   1.545 -0.2927  0.2204  0.1332
10231TIP3    H152108   3.220   5.647   1.605 -0.4902  0.9345 -0.4693
10231TIP3    H252109   3.364   5.601   1.600 -0.8226 -0.2913  0.7674
10232TIP3   OH252110   1.000   5.716   1.819  0.1513 -0.3133  0.0625
10232TIP3    H152111   1.002   5.811   1.832  0.8402 -0.3054 -0.0953
10232TIP3    H252112   0.972   5.705   1.729  0.3428 -0.2540 -0.0043
10233TIP3   OH252113   1.883   2.841  11.116 -0.1983  0.7395  0.0408
10233TIP3    H152114   1.971   2.804  11.110 -0.2797  0.8266 -2.4095
10233TIP3    H252115   1.849   2.809  11.200  2.3072  1.0776  1.2200
10234TIP3   OH252116   0.107   1.436   5.023 -0.4078  0.2197  0.0382
10234TIP3    H152117   0.124   1.359   4.970 -0.0784  1.2809 -1.4275
10234TIP3    H252118   0.130   1.410   5.112  0.3156 -1.1662 -0.5450
10235TIP3   OH252119   3.075   5.858   5.889  0.0100  0.7978  0.3786
10235TIP3    H152120   3.124   5.922   5.941 -0.0560  1.4589 -0.3644
10235TIP3    H252121   3.019   5.911   5.832 -0.9510  0.0683  0.6177
10236TIP3   OH252122   1.304   2.193  13.783  0.0637 -0.1977  0.1546
10236TIP3    H152123   1.291   2.100  13.805  0.3531 -0.5558 -1.1379
10236TIP3    H252124   1.230   2.214  13.727 -0.1884  0.4544  0.7332
10237TIP3   OH252125   2.529   0.088   0.408 -0.4052 -0.0982  0.5619
10237TIP3    H152126   2.493   0.157   0.464 -0.7643  0.2120 -0.0441
10237TIP3    H252127   2.477   0.010   0.429 -2.1733  0.6038 -1.0780
10238TIP3   OH252128   2.344   4.280  15.482 -0.2154 -0.1253  0.3423
10238TIP3    H152129   2.258   4.266  15.444 -0.7105  0.7952  1.0992
10238TIP3    H252130   2.339   4.241  15.569  0.9312 -2.2732 -0.5186
10239TIP3   OH252131   4.641   3.534  15.449 -0.4935  0.5611  0.3426
10239TIP3    H152132   4.582   3.462  15.425 -0.2619 -0.3320  2.3783
10239TIP3    H252133   4.696   3.547  15.371 -2.0772  0.1015 -0.8646
10240TIP3   OH252134   5.748   3.417  11.479 -0.0626  0.0490  0.2455
10240TIP3    H152135   5.743   3.388  11.571  0.0318  0.0960  0.2666
10240TIP3    H252136   5.661   3.398  11.443  0.2594 -1.0745  0.0210
10241TIP3   OH252137   2.806   6.391  15.571 -0.1863 -0.6629 -0.3958
10241TIP3    H152138   2.740   6.439  15.521 -0.4699 -0.2121  0.3955
10241TIP3    H252139   2.869   6.458  15.598  2.0133 -1.4732 -3.3179
10242TIP3   OH252140   6.612   3.036  14.402  0.1113  0.1073  0.1783
10242TIP3    H152141   6.679   3.062  14.339 -0.8241  1.7289 -0.1931
10242TIP3    H252142   6.654   2.970  14.457  1.5549  0.0948 -0.9218
10243TIP3   OH252143   1.258   3.993  14.933 -0.1536  0.1410 -0.3022
10243TIP3    H152144   1.190   4.059  14.921 -0.0010  0.2373 -0.6199
10243TIP3    H252145   1.213   3.910  14.918 -0.5638  0.1088  0.9854
10244TIP3   OH252146   2.271   3.020  16.127 -0.3581  0.3204 -0.3522
10244TIP3    H152147   2.203   3.029  16.193 -0.7681 -0.2562 -0.6965
10244TIP3    H252148   2.336   3.088  16.149 -1.7428  1.8521 -0.8861
10245TIP3   OH252149   6.614   6.114   2.302 -0.1890  0.3145  0.0081
10245TIP3    H152150   6.660   6.037   2.268  0.5251  0.8046 -0.1409
10245TIP3    H252151   6.669   6.188   2.277 -0.9157  0.8866  0.0732
10246TIP3   OH252152   6.579   3.546   3.186 -0.0881 -0.0304 -0.1114
10246TIP3    H152153   6.639   3.616   3.213 -1.6186  0.7088  1.4791
10246TIP3    H252154   6.540   3.578   3.105  0.6633  0.0791 -0.4358
10247TIP3   OH252155   4.612   1.199   1.414 -0.1510  0.1231  0.1117
10247TIP3    H152156   4.649   1.252   1.485  3.0459  0.5536 -1.7545
10247TIP3    H252157   4.647   1.111   1.428  1.3009  0.4189 -1.3951
10248TIP3   OH252158   4.648   2.989  11.321  0.1663  0.1790  0.5399
10248TIP3    H152159   4.613   2.960  11.405  0.6057  0.7001  0.9039
10248TIP3    H252160   4.587   3.056  11.291  0.9968  1.2914  1.3098
10249TIP3   OH252161   5.431   0.805   3.722  0.2841  0.1310 -0.6800
10249TIP3    H152162   5.363   0.741   3.745 -0.5107  1.6295  1.3554
10249TIP3    H252163   5.507   0.777   3.773  0.5618 -0.3556 -1.3587
10250TIP3   OH252164   0.814   5.644   2.582 -0.7939 -0.8800  0.2489
10250TIP3    H152165   0.800   5.614   2.672 -1.6797 -1.9007 -0.2089
10250TIP3    H252166   0.765   5.582   2.529  0.8266 -1.0764 -1.0496
10251TIP3   OH252167   3.071   0.079  11.230 -0.2286  0.2662  0.1194
10251TIP3    H152168   3.115   0.164  11.238  0.8254 -0.2763  0.2843
10251TIP3    H252169   3.115   0.023  11.295 -0.4389 -0.5861 -0.4553
10252TIP3   OH252170   0.063   6.295   2.265  0.0230 -0.0258 -0.1158
10252TIP3    H152171   0.138   6.240   2.289  0.0912 -0.1485 -0.6006
10252TIP3    H252172   0.064   6.366   2.329  2.2142  1.4913 -1.7575
10253TIP3   OH252173   2.360   1.271   3.265  0.1940 -0.2948  0.6397
10253TIP3    H152174   2.440   1.242   3.310  0.8865 -0.7633 -0.8539
10253TIP3    H252175   2.295   1.279   3.335  1.2047 -1.1322  1.7072
10254TIP3   OH252176   3.582   3.823  14.602 -0.5694 -0.6849 -0.1144
10254TIP3    H152177   3.667   3.849  14.637 -1.6632  2.0934  0.6229
10254TIP3    H252178   3.573   3.875  14.521  0.2675 -4.1768 -2.5609
10255TIP3   OH252179   5.834   2.250  14.407  0.4446  0.0014  0.3207
10255TIP3    H152180   5.875   2.327  14.367 -1.0926  0.2053 -0.9203
10255TIP3    H252181   5.751   2.239  14.360 -0.6023 -0.8296  2.2737
10256TIP3   OH252182   0.735   6.433  16.321  0.3580 -0.2530  0.0638
10256TIP3    H152183   0.670   6.365  16.340  1.3041 -1.1900 -0.0532
10256TIP3    H252184   0.682   6.508  16.293 -0.7555 -0.5803  1.2037
10257TIP3   OH252185   5.558   1.376   5.401 -0.4356 -0.1500  0.2758
10257TIP3    H152186   5.631   1.313   5.411  0.9296  0.8110 -2.9625
10257TIP3    H252187   5.504   1.338   5.332 -1.9639  0.1275  1.3176
10258TIP3   OH252188   2.879   2.292   2.196 -0.1692 -0.4476  0.3251
10258TIP3    H152189   2.804   2.234   2.201  0.1880 -0.9535 -0.1396
10258TIP3    H252190   2.863   2.346   2.118  0.5504 -1.4146 -0.5094
10259TIP3   OH252191   4.087   1.956  12.275  0.4470  0.3955  0.1745
10259TIP3    H152192   4.076   1.870  12.315 -1.4165  0.7822  0.5314
10259TIP3    H252193   4.108   1.938  12.184 -1.3910 -0.4406 -0.1014
10260TIP3   OH252194   3.717   1.612   3.990  0.1282 -0.5204 -0.0855
10260TIP3    H152195   3.710   1.594   3.896 -0.9000  0.1280 -0.1383
10260TIP3    H252196   3.632   1.650   4.013 -0.6177 -3.1384  1.6543
10261TIP3   OH252197   4.910   4.554  14.578 -0.3311 -0.3503  0.2915
10261TIP3    H152198   4.882   4.492  14.511  1.4098 -1.2609  0.3649
10261TIP3    H252199   4.870   4.522  14.659  0.4769 -1.3425  0.3083
10262TIP3   OH252200   0.754   1.376   4.415  0.3031  0.2789  0.0627
10262TIP3    H152201   0.757   1.288   4.376  1.1796 -0.2860  1.3904
10262TIP3    H252202   0.826   1.423   4.374 -0.1343  0.3693 -0.6104
10263TIP3   OH252203   2.670   4.895  14.734 -0.3018  0.4045 -0.7494
10263TIP3    H152204   2.590   4.948  14.740 -0.2079  0.6112 -1.3527
10263TIP3    H252205   2.702   4.890  14.824 -1.7850 -0.9045 -0.2699
10264TIP3   OH252206   4.430   2.473  10.941 -0.1035  0.1145 -0.8593
10264TIP3    H152207   4.518   2.448  10.966  0.3815  0.7016 -1.9714
10264TIP3    H252208   4.441   2.542  10.876 -1.3556 -0.9442 -2.2443
10265TIP3   OH252209   4.954   2.358   2.586  0.4284  0.5038  0.1781
10265TIP3    H152210   4.901   2.310   2.650  1.0238  0.1927  0.4410
10265TIP3    H252211   4.916   2.446   2.585  0.9520  0.7650  1.6092
10266TIP3   OH252212   3.769   2.263   5.242  0.3863  0.2512 -0.3435
10266TIP3    H152213   3.766   2.193   5.307  2.0453  0.5883  0.1254
10266TIP3    H252214   3.680   2.270   5.209 -0.0521 -1.2247  0.5211
10267TIP3   OH252215   6.424   5.851  12.954  0.3198 -0.2913 -0.4039
10267TIP3    H152216   6.454   5.942  12.949  0.9450 -0.4582  0.2299
10267TIP3    H252217   6.495   5.804  12.998 -1.1980 -0.5132  1.8989
10268TIP3   OH252218   0.685   2.630   3.195 -0.3071  0.0946  0.1551
10268TIP3    H152219   0.729   2.639   3.110 -1.1415  0.2312 -0.2703
10268TIP3    H252220   0.592   2.620   3.173 -0.6159  0.8427  1.0901
10269TIP3   OH252221   0.553   5.565  15.559  0.2367  0.1050  0.2760
10269TIP3    H152222   0.541   5.470  15.557 -0.7373  0.2373 -2.4168
10269TIP3    H252223   0.632   5.580  15.506 -0.3372  0.8677 -0.3750
10270TIP3   OH252224   5.844   2.589   5.912  0.1645  0.4057  0.1199
10270TIP3    H152225   5.892   2.668   5.936  0.2135  0.9769 -1.7579
10270TIP3    H252226   5.909   2.519   5.918  0.4284  0.6940  0.6360
10271TIP3   OH252227   1.720   6.746  14.830 -0.0039 -0.1042 -0.5897
10271TIP3    H152228   1.671   6.798  14.767  0.3967  0.6769 -0.2594
10271TIP3    H252229   1.750   6.809  14.895  0.9464 -0.6632 -0.4819
10272TIP3   OH252230   1.346   2.431   5.054 -0.8286  0.1306  0.9222
10272TIP3    H152231   1.360   2.347   5.012 -0.8197 -0.1813  1.5412
10272TIP3    H252232   1.367   2.416   5.147  1.3886  1.3644  0.6625
10273TIP3   OH252233   0.733   2.146  13.652  0.3992  0.1715 -0.0876
10273TIP3    H152234   0.789   2.134  13.575  2.7929  0.6894  1.5237
10273TIP3    H252235   0.710   2.238  13.650 -0.1774  0.0198 -0.5955
10274TIP3   OH252236   4.479   1.803   2.522  0.3760  0.6866  0.0379
10274TIP3    H152237   4.429   1.782   2.601 -3.4403  0.5384 -2.2896
10274TIP3    H252238   4.564   1.760   2.535 -0.5949 -0.3077  3.5320
10275TIP3   OH252239   2.876   4.279  11.164 -0.0949  0.0294 -0.0118
10275TIP3    H152240   2.803   4.239  11.117 -1.8995  2.4235  0.6504
10275TIP3    H252241   2.872   4.371  11.141  1.7397  0.4802  1.3193
10276TIP3   OH252242   6.042   0.779   2.828 -0.3457  0.0254  0.0388
10276TIP3    H152243   6.011   0.726   2.755 -2.1496  1.3137 -0.1812
10276TIP3    H252244   6.023   0.869   2.802  1.7580  0.7290  0.8222
10277TIP3   OH252245   2.310   6.761   0.794 -0.0969 -0.3661 -0.0993
10277TIP3    H152246   2.314   6.734   0.886 -0.8956  0.5116  0.1951
10277TIP3    H252247   2.401   6.765   0.766  0.1596 -0.3514  0.7382
10278TIP3   OH252248   6.475   1.262  14.751 -0.2498  0.2369 -0.2961
10278TIP3    H152249   6.559   1.300  14.776  0.5297 -0.6262 -1.4886
10278TIP3    H252250   6.459   1.194  14.816 -0.7588  1.4016  0.7951
10279TIP3   OH252251   2.621   5.425  12.356  0.1352  0.0013  0.1574
10279TIP3    H152252   2.575   5.347  12.388 -1.8742  1.0527 -0.0688
10279TIP3    H252253   2.590   5.436  12.266  1.6115  0.1754 -0.3465
10280TIP3   OH252254   2.959   2.300   5.038  0.3628  0.5082  0.2452
10280TIP3    H152255   2.885   2.265   4.988  0.3995  0.1446  0.4410
10280TIP3    H252256   3.009   2.223   5.064  0.0130  0.6463  1.3598
10281TIP3   OH252257   5.080   2.535   0.442 -0.2228  0.6417 -0.1642
10281TIP3    H152258   5.061   2.613   0.390  0.3701 -1.9594 -4.6011
10281TIP3    H252259   5.080   2.463   0.378  1.1163 -2.7442  3.4062
10282TIP3   OH252260   1.289   4.312  13.847  0.0682 -0.3365 -0.0410
10282TIP3    H152261   1.219   4.264  13.892 -0.0724 -0.3066 -0.2284
10282TIP3    H252262   1.368   4.261  13.865 -0.1038 -0.7152 -0.3582
10283TIP3   OH252263   1.519   3.004  15.812  0.3397 -0.0749 -1.1245
10283TIP3    H152264   1.533   3.099  15.819  4.1331 -0.3639 -3.5530
10283TIP3    H252265   1.486   2.991  15.724 -1.2186 -0.9366 -0.4196
10284TIP3   OH252266   6.132   3.875  12.200  0.0659 -0.3166 -0.1470
10284TIP3    H152267   6.066   3.937  12.233 -0.2126 -1.7289  2.0526
10284TIP3    H252268   6.092   3.838  12.122 -2.1660 -1.7440  1.5833
10285TIP3   OH252269   0.367   4.239   2.102 -0.1917  0.5937  0.3299
10285TIP3    H152270   0.421   4.160   2.093 -0.3994  0.5261 -0.3928
10285TIP3    H252271   0.312   4.222   2.179 -0.0144  0.1608  0.3637
10286TIP3   OH252272   0.031   0.563   3.444 -0.0171 -0.2405 -0.0400
10286TIP3    H152273  -0.002   0.598   3.527  1.1972 -1.4405  0.9634
10286TIP3    H252274   0.126   0.563   3.454  0.1271 -0.6713 -1.3174
10287TIP3   OH252275   5.759   1.310  14.849  0.1348  0.3868 -0.4764
10287TIP3    H152276   5.708   1.349  14.920 -2.1100 -1.0572 -1.2316
10287TIP3    H252277   5.743   1.216  14.856  1.1150  0.0809 -1.9608
10288TIP3   OH252278   6.563   6.736  11.575 -0.1550  0.2246  0.3901
10288TIP3    H152279   6.552   6.814  11.520 -1.7980  0.3639  0.8688
10288TIP3    H252280   6.579   6.665  11.514 -1.1054  0.5318 -0.2256
10289TIP3   OH252281   0.064   0.935  16.710  0.2342  0.3427  0.2467
10289TIP3    H152282   0.154   0.913  16.685  0.0215 -1.0493  0.6465
10289TIP3    H252283   0.071   1.021  16.751  1.5779 -0.3132  1.4383
10290TIP3   OH252284   2.730   5.404   2.207 -0.0470 -0.6516  0.9098
10290TIP3    H152285   2.729   5.496   2.234 -0.1352 -0.7305  1.1810
10290TIP3    H252286   2.805   5.366   2.254 -0.2699 -0.8177  1.1293
10291TIP3   OH252287   6.304   5.963  11.685 -0.5799 -0.6030  0.0239
10291TIP3    H152288   6.231   5.949  11.625 -1.8718 -1.5995  1.7765
10291TIP3    H252289   6.314   6.058  11.687 -2.0842 -0.4211  0.0198
10292TIP3   OH252290   2.546   4.428   4.693  0.3030 -0.6330  0.4153
10292TIP3    H152291   2.626   4.383   4.665  0.4721 -0.4421  0.5891
10292TIP3    H252292   2.516   4.473   4.615  2.2189  2.0663  1.1564
10293TIP3   OH252293   3.977   0.188   5.618 -0.1658  0.1397 -0.1655
10293TIP3    H152294   3.968   0.104   5.573  1.8399  0.5618 -1.4063
10293TIP3    H252295   3.944   0.253   5.556 -1.3803  0.3128  0.6508
10294TIP3   OH252296   6.460   1.038   3.142  0.5044 -0.0892 -0.3400
10294TIP3    H152297   6.544   1.030   3.186  0.9388  1.9019 -0.7538
10294TIP3    H252298   6.398   1.064   3.210  0.8706  1.5031 -0.5965
10295TIP3   OH252299   2.336   2.623   5.337 -0.6803  0.2136 -0.2267
10295TIP3    H152300   2.399   2.679   5.291  1.2397 -2.3849 -0.9029
10295TIP3    H252301   2.250   2.656   5.310  0.3800  2.8399 -0.5371
10296TIP3   OH252302   0.829   5.473   5.709  0.2495 -0.3212 -0.1342
10296TIP3    H152303   0.867   5.502   5.626 -0.0282  0.4161 -0.0078
10296TIP3    H252304   0.790   5.388   5.689 -0.4169  0.1683 -0.9249
10297TIP3   OH252305   0.020   1.560   3.346  0.5238 -0.2909  0.2624
10297TIP3    H152306  -0.041   1.632   3.330  0.6803 -0.3763 -0.7419
10297TIP3    H252307   0.102   1.604   3.369  0.6396 -0.1415 -0.4222
10298TIP3   OH252308   6.758   0.427  13.687  0.4964  0.3541  0.2734
10298TIP3    H152309   6.683   0.412  13.744 -0.3561  0.1779 -0.8679
10298TIP3    H252310   6.832   0.388  13.733 -0.0430  0.8111  1.5663
10299TIP3   OH252311   1.536   2.428   1.951  0.3115 -0.6465 -0.1006
10299TIP3    H152312   1.567   2.419   1.861  1.1950  0.3619  0.0861
10299TIP3    H252313   1.509   2.520   1.958 -2.5748 -1.4524 -0.1960
10300TIP3   OH252314   0.599   1.177  16.276 -0.1917  0.4330  0.5386
10300TIP3    H152315   0.564   1.263  16.255  1.1111  0.9693  0.5020
10300TIP3    H252316   0.654   1.192  16.353 -1.3216 -0.6863  1.5806
10301TIP3   OH252317   5.643   0.753  13.767  0.0791 -0.3928 -0.3463
10301TIP3    H152318   5.720   0.779  13.718  0.7681 -0.3204  0.7445
10301TIP3    H252319   5.678   0.723  13.852 -1.1836  0.9190  0.6511
10302TIP3   OH252320   0.101   6.023   3.771 -0.4675 -0.1141  0.3629
10302TIP3    H152321   0.030   5.979   3.724 -0.4371 -0.8152  0.9588
10302TIP3    H252322   0.154   6.062   3.703 -0.8694 -0.4446 -0.1435
10303TIP3   OH252323   4.624   6.048   5.757 -0.0297 -0.1780  0.1235
10303TIP3    H152324   4.641   5.999   5.837  1.9327  0.9018  0.4275
10303TIP3    H252325   4.700   6.029   5.701 -1.6290 -1.3240 -1.6939
10304TIP3   OH252326   1.688   0.375  12.706  0.6062 -0.6319 -0.0551
10304TIP3    H152327   1.640   0.332  12.777 -0.0552 -1.2791 -0.8912
10304TIP3    H252328   1.637   0.454  12.687  2.0626  0.8025  1.7890
10305TIP3   OH252329   5.471   4.882   4.222 -0.1311  0.3092  0.0129
10305TIP3    H152330   5.507   4.848   4.304  1.6055 -0.1210 -0.9076
10305TIP3    H252331   5.404   4.818   4.197 -0.0581 -0.0208  0.6534
10306TIP3   OH252332   0.419   2.908  14.644  0.4331 -0.0490 -0.5280
10306TIP3    H152333   0.358   2.887  14.714 -0.6400  0.7009 -1.2215
10306TIP3    H252334   0.457   2.823  14.619  2.0744 -0.1265  2.0370
10307TIP3   OH252335   1.585   0.508  11.849 -0.0692  0.1766  0.3625
10307TIP3    H152336   1.649   0.564  11.894  0.5888  0.8284 -1.3505
10307TIP3    H252337   1.626   0.421  11.849  0.7266  0.5411 -0.5199
10308TIP3   OH252338   5.133   5.174   2.219 -0.0940  0.6159  0.0596
10308TIP3    H152339   5.150   5.107   2.285  2.5620  1.3789  0.2293
10308TIP3    H252340   5.060   5.224   2.254  1.3348  1.0718  2.5280
10309TIP3   OH252341   3.935   1.224  15.486 -0.3074 -1.0130 -0.5356
10309TIP3    H152342   3.931   1.285  15.412 -2.2998  0.0586  0.4020
10309TIP3    H252343   3.928   1.280  15.564  1.7016 -2.1311  0.4748
10310TIP3   OH252344   2.264   1.880   5.550  0.0148  0.3750  0.0664
10310TIP3    H152345   2.204   1.931   5.495 -0.5565 -0.7550 -0.3799
10310TIP3    H252346   2.342   1.934   5.556 -0.0988  0.7463 -1.4728
10311TIP3   OH252347   3.087   3.523  14.489 -0.0021 -0.4192  0.0234
10311TIP3    H152348   3.100   3.560  14.577 -0.5494 -1.4094  0.5298
10311TIP3    H252349   3.091   3.599  14.431  2.3228  0.0087  0.7029
10312TIP3   OH252350   0.152   3.565   1.466 -0.0441 -0.3299  0.2548
10312TIP3    H152351   0.060   3.540   1.461 -0.7258  2.3052 -1.2274
10312TIP3    H252352   0.197   3.505   1.406 -0.9563 -0.8795  0.1205
10313TIP3   OH252353   5.538   0.413   3.052  0.0969  0.7649 -0.2138
10313TIP3    H152354   5.590   0.466   3.112 -0.2855 -2.3808  3.0713
10313TIP3    H252355   5.577   0.326   3.057 -2.0642 -0.3455 -1.9639
10314TIP3   OH252356   3.004   1.478  12.253  0.1695  0.1415  0.5959
10314TIP3    H152357   2.924   1.459  12.204  0.4989  1.5125 -0.5156
10314TIP3    H252358   3.062   1.404  12.235  0.1180  0.4138 -0.7550
10315TIP3   OH252359   2.431   4.977   3.797 -0.8599  0.1491  0.1469
10315TIP3    H152360   2.370   4.911   3.829 -0.7088  1.0441  2.3215
10315TIP3    H252361   2.517   4.947   3.825 -0.6405  0.5871 -0.0446
10316TIP3   OH252362   5.001   3.619  15.362  0.4911  0.5717  0.2111
10316TIP3    H152363   5.031   3.634  15.452 -0.1142  0.4876  0.4293
10316TIP3    H252364   5.062   3.668  15.308  1.5216 -0.2640  0.5958
10317TIP3   OH252365   4.604   1.097  12.523  0.1813  0.6062  0.4281
10317TIP3    H152366   4.510   1.115  12.534  0.2828  1.5539 -0.2499
10317TIP3    H252367   4.614   1.006  12.552 -0.9747  0.4513  0.3662
10318TIP3   OH252368   1.901   2.829  11.819 -0.1787  0.8252 -0.4003
10318TIP3    H152369   1.902   2.836  11.915 -0.7339  0.1550 -0.3404
10318TIP3    H252370   1.864   2.742  11.802  1.6602  0.1769 -1.1913
10319TIP3   OH252371   5.192   3.675  14.393 -0.5138 -0.2726  0.1760
10319TIP3    H152372   5.116   3.617  14.396 -0.7733  0.0713  0.3747
10319TIP3    H252373   5.192   3.718  14.479 -1.7645  1.8404 -0.8347
10320TIP3   OH252374   3.902   2.659  14.095 -0.2396 -0.1026  0.1810
10320TIP3    H152375   3.962   2.712  14.147 -0.6573  0.0485  0.5052
10320TIP3    H252376   3.815   2.697  14.112 -0.3226  0.2810 -1.0105
10321TIP3   OH252377   0.856   3.968   5.785  0.0230  0.2739  0.1630
10321TIP3    H152378   0.872   3.899   5.850 -0.3783  0.9705  1.0112
10321TIP3    H252379   0.904   3.939   5.707  1.7763  0.1794  1.2539
10322TIP3   OH252380   2.425   6.774  14.146 -0.1797  0.2876 -0.0753
10322TIP3    H152381   2.429   6.738  14.058 -1.0624 -2.0015  0.7549
10322TIP3    H252382   2.499   6.834  14.152  0.3793 -0.1755 -2.0861
10323TIP3   OH252383   4.149   3.765   5.137  0.1693 -0.1491 -0.4754
10323TIP3    H152384   4.220   3.776   5.074  0.3777 -2.0296 -0.6187
10323TIP3    H252385   4.187   3.786   5.222  0.1831  1.3321 -0.8320
10324TIP3   OH252386   6.148   0.878  12.234  0.3528 -0.1256 -0.0163
10324TIP3    H152387   6.223   0.843  12.187 -0.4109 -2.2809  0.2869
10324TIP3    H252388   6.126   0.959  12.188  3.5995  1.2296  0.6551
10325TIP3   OH252389   5.929   5.566  14.564 -0.6496 -0.2104 -0.3965
10325TIP3    H152390   5.913   5.636  14.628  0.5565 -1.3592  1.2059
10325TIP3    H252391   5.979   5.610  14.495 -0.2125  0.6156  0.4182
10326TIP3   OH252392   6.400   5.758  13.839 -0.5370 -0.3119  0.8339
10326TIP3    H152393   6.475   5.797  13.884  0.0825  1.3315 -1.5563
10326TIP3    H252394   6.436   5.723  13.757 -2.3104  0.3205 -0.2593
10327TIP3   OH252395   1.903   2.078   3.113  0.0891  0.4523 -0.2223
10327TIP3    H152396   1.959   2.049   3.041 -1.0959 -0.3656 -0.8258
10327TIP3    H252397   1.866   2.161   3.083 -0.9950 -0.2598 -0.8835
10328TIP3   OH252398   4.808   3.617  11.712 -0.0477  0.1856 -0.2997
10328TIP3    H152399   4.859   3.657  11.782 -0.4253 -0.0786  0.1265
10328TIP3    H252400   4.856   3.639  11.632  0.9390 -0.3537  0.1230
10329TIP3   OH252401   5.228   4.860   3.560  0.7609 -0.3781 -0.2231
10329TIP3    H152402   5.190   4.838   3.475 -0.2945 -1.6708  0.5537
10329TIP3    H252403   5.224   4.955   3.565 -0.3302 -0.3663 -1.1054
10330TIP3   OH252404   5.227   3.802   2.529 -0.0541  0.0439  0.4521
10330TIP3    H152405   5.315   3.782   2.561  1.1874  1.7339 -1.7723
10330TIP3    H252406   5.210   3.890   2.561 -0.6455  0.0099  0.2287
10331TIP3   OH252407   4.921   5.539  13.744  0.2027 -0.0892 -0.4152
10331TIP3    H152408   4.888   5.500  13.825  0.7611  1.3706  0.5331
10331TIP3    H252409   5.006   5.576  13.767  1.2608 -1.3354 -2.1550
10332TIP3   OH252410   3.603   5.274   1.981  1.1203 -0.1235 -0.3207
10332TIP3    H152411   3.537   5.248   2.045 -0.5583  2.8807 -0.7433
10332TIP3    H252412   3.670   5.320   2.033  0.3743  1.2069 -0.4975
10333TIP3   OH252413   3.951   2.090  12.479 -0.3166  0.2685  0.5010
10333TIP3    H152414   3.961   2.045  12.563  2.6920  0.5585  0.3664
10333TIP3    H252415   4.009   2.042  12.419 -1.1144  1.1121 -0.9726
10334TIP3   OH252416   5.287   2.781   0.798  0.0298 -1.0131  0.3540
10334TIP3    H152417   5.373   2.786   0.757  0.0239 -1.0975  0.3318
10334TIP3    H252418   5.234   2.845   0.750  0.9481  1.4076  2.4775
10335TIP3   OH252419   3.395   3.292  12.040 -0.0839  0.1278 -0.0565
10335TIP3    H152420   3.363   3.202  12.032  0.8467 -0.1787 -0.4214
10335TIP3    H252421   3.467   3.298  11.977  1.2324  0.4908  1.4326
10336TIP3   OH252422   0.711   5.058  11.559  0.0607 -0.2763  0.1991
10336TIP3    H152423   0.629   5.088  11.519  0.1889 -0.0680  0.0913
10336TIP3    H252424   0.756   5.139  11.584 -0.4531 -0.4135  1.6438
10337TIP3   OH252425   5.311   6.391   2.735 -0.5406  0.1619  0.9055
10337TIP3    H152426   5.351   6.468   2.694  0.6942 -0.2808  1.2349
10337TIP3    H252427   5.323   6.406   2.829  1.4189 -1.2869  0.9272
10338TIP3   OH252428   4.382   3.035  11.185  0.3349  0.1425 -1.0948
10338TIP3    H152429   4.314   3.101  11.170  0.2200  0.5137  0.9034
10338TIP3    H252430   4.427   3.027  11.101 -2.1478 -0.0837 -2.4372
10339TIP3   OH252431   3.542   4.396   4.517 -0.1251 -0.4861  0.3389
10339TIP3    H152432   3.624   4.352   4.494  0.3960  0.0274  1.1697
10339TIP3    H252433   3.570   4.476   4.562 -1.0794 -0.1100  0.2767
10340TIP3   OH252434   1.455   6.588  16.091 -0.2411 -0.0900  0.3686
10340TIP3    H152435   1.496   6.507  16.062  1.3523  1.1959 -1.0901
10340TIP3    H252436   1.366   6.584  16.056  0.9308  0.3619 -2.7786
10341TIP3   OH252437   2.579   0.424  15.137 -0.0142  0.9120  0.1976
10341TIP3    H152438   2.484   0.423  15.148  0.0054 -0.1165  0.3457
10341TIP3    H252439   2.613   0.373  15.210  0.5522  0.0300 -0.6637
10342TIP3   OH252440   5.204   3.709   4.054  0.8352  0.1425  0.0977
10342TIP3    H152441   5.212   3.748   3.967 -0.3572  2.0298  0.8124
10342TIP3    H252442   5.124   3.658   4.051  0.1014  1.2434  0.4458
10343TIP3   OH252443   3.655   1.727  11.371  0.7047  0.7299 -0.1027
10343TIP3    H152444   3.649   1.634  11.395 -0.5400  0.7001 -0.5235
10343TIP3    H252445   3.748   1.740  11.355  0.7324 -0.7820 -1.3335
10344TIP3   OH252446   4.604   1.019   2.949 -0.8373  0.1615  0.2278
10344TIP3    H152447   4.586   1.012   3.043 -1.0749 -0.8031  0.1196
10344TIP3    H252448   4.527   0.979   2.907  0.2670 -1.4695 -0.3117
10345TIP3   OH252449   4.542   2.272   3.239  0.2641 -0.1992 -0.2215
10345TIP3    H152450   4.486   2.314   3.174  0.7489  1.1577  0.2394
10345TIP3    H252451   4.492   2.273   3.320  0.6781  0.3893  0.0278
10346TIP3   OH252452   1.895   4.738   1.169  0.3078  0.6709 -0.3630
10346TIP3    H152453   1.856   4.825   1.172  1.5641  1.3176 -1.6832
10346TIP3    H252454   1.855   4.696   1.093 -1.5483 -0.5589  1.2505
10347TIP3   OH252455   3.542   2.070  14.434  0.6215  0.5511  0.3616
10347TIP3    H152456   3.472   2.127  14.466  0.5822 -0.4963  2.2210
10347TIP3    H252457   3.610   2.076  14.502  0.9896 -0.8960  0.1280
10348TIP3   OH252458   3.394   4.471  13.406 -0.3480 -0.0921 -0.0632
10348TIP3    H152459   3.398   4.476  13.502  0.4775 -0.0151 -0.0956
10348TIP3    H252460   3.485   4.459  13.380 -0.3130  2.0234 -0.9664
10349TIP3   OH252461   3.586   3.802   5.074  0.0269 -0.5756  0.0364
10349TIP3    H152462   3.678   3.826   5.086 -0.4511  1.0632  0.5613
10349TIP3    H252463   3.545   3.880   5.037 -1.5238 -0.6306  1.5408
10350TIP3   OH252464   2.167   0.056   0.144  0.1546  0.2901  0.4060
10350TIP3    H152465   2.174   0.143   0.183 -1.8562  0.4263  0.5406
10350TIP3    H252466   2.240   0.007   0.180  0.9371  1.7446  0.8147
10351TIP3   OH252467   2.874   0.042   1.738 -0.2387  0.8893 -0.4537
10351TIP3    H152468   2.799   0.076   1.786 -0.0660 -0.5787  0.9001
10351TIP3    H252469   2.842  -0.039   1.698  0.4702  0.5320 -0.3068
10352TIP3   OH252470   5.457   4.123  12.595 -0.1195 -0.3848 -0.5420
10352TIP3    H152471   5.513   4.067  12.540 -0.6154 -1.1135 -0.3155
10352TIP3    H252472   5.468   4.211  12.558  1.2814 -0.4881 -0.4105
10353TIP3   OH252473   3.560   2.775   1.573 -0.4693  0.1357  0.5079
10353TIP3    H152474   3.653   2.797   1.563 -0.0808  0.2093  3.6568
10353TIP3    H252475   3.541   2.715   1.501  2.5136 -1.3157  0.8465
10354TIP3   OH252476   2.302   2.611   3.310  0.1905 -0.1820  0.4862
10354TIP3    H152477   2.286   2.518   3.298 -0.8287  0.1273 -0.6171
10354TIP3    H252478   2.322   2.620   3.404  0.4051 -1.5075  0.5763
10355TIP3   OH252479   0.659   3.402   0.136 -0.0052  0.5365 -0.8651
10355TIP3    H152480   0.567   3.407   0.161 -0.2642 -2.2118 -1.0884
10355TIP3    H252481   0.692   3.491   0.147 -2.8167  1.6972 -1.3221
10356TIP3   OH252482   2.994   1.355  16.667  0.5950 -0.1711 -0.7167
10356TIP3    H152483   3.035   1.384  16.585  1.4406  0.6306 -0.0237
10356TIP3    H252484   3.068   1.333  16.724  0.0857  1.4426  0.6072
10357TIP3   OH252485   1.181   1.057  11.988  0.3521  0.0361 -0.4458
10357TIP3    H152486   1.230   1.105  12.054 -0.9279  1.4428 -0.4983
10357TIP3    H252487   1.150   0.979  12.033  0.0893  0.6399  0.4249
10358TIP3   OH252488   2.076   0.107  10.501 -0.0557 -0.5716 -0.3083
10358TIP3    H152489   2.107   0.152  10.580 -0.1972 -0.6723 -0.1978
10358TIP3    H252490   2.155   0.100  10.446 -0.0280 -0.2060 -0.3186
10359TIP3   OH252491   5.755   2.539  14.569 -0.3071 -0.7731  0.2877
10359TIP3    H152492   5.707   2.587  14.502 -1.1472 -0.5566  1.0277
10359TIP3    H252493   5.736   2.447  14.552  0.2821 -0.7768 -0.3651
10360TIP3   OH252494   3.634   4.449  13.320 -0.3109 -0.9179 -0.5755
10360TIP3    H152495   3.706   4.409  13.370 -0.6466 -1.0543 -0.1944
10360TIP3    H252496   3.610   4.383  13.255 -0.4458 -1.0868 -0.3556
10361TIP3   OH252497   4.485   0.849  13.796 -0.0618  0.2140  0.3201
10361TIP3    H152498   4.461   0.940  13.814 -0.5647  0.1619 -0.0750
10361TIP3    H252499   4.452   0.800  13.871 -0.1430  0.3071  0.3451
10362TIP3   OH252500   0.105   6.723  13.390  0.0762 -0.0114 -0.1342
10362TIP3    H152501   0.197   6.739  13.371 -0.0413 -0.0044 -0.7003
10362TIP3    H252502   0.103   6.632  13.421  0.3646  0.2054  0.5220
10363TIP3   OH252503   5.459   0.850  14.038 -0.0957 -0.1297  0.5933
10363TIP3    H152504   5.458   0.827  13.946  0.6594 -1.2590  0.8548
10363TIP3    H252505   5.489   0.941  14.040 -0.8509  0.1525 -0.3023
10364TIP3   OH252506   2.466   2.601   5.900  0.0239  0.4935  0.2221
10364TIP3    H152507   2.474   2.559   5.986 -0.5229 -1.0702 -0.4801
10364TIP3    H252508   2.552   2.639   5.884  1.2648 -2.3581 -0.1560
10365TIP3   OH252509   4.748   2.009  16.936  0.5479 -0.2581 -0.1169
10365TIP3    H152510   4.789   1.930  16.972  1.1083 -0.3604 -0.9609
10365TIP3    H252511   4.813   2.045  16.876  0.8999  1.7157  1.4063
10366TIP3   OH252512   3.610   2.810  15.739  0.4316 -0.4433  0.3515
10366TIP3    H152513   3.620   2.848  15.826  0.1646 -0.0925  0.2303
10366TIP3    H252514   3.543   2.743  15.750 -1.0332  0.9441  0.0027
10367TIP3   OH252515   2.166   2.351  11.147 -0.1547  0.4540  0.1268
10367TIP3    H152516   2.186   2.300  11.069 -0.8018  0.9418 -0.3679
10367TIP3    H252517   2.251   2.367  11.188  0.2392  0.6034 -0.7386
10368TIP3   OH252518   5.907   4.546  14.918 -0.3018 -0.5443  0.3231
10368TIP3    H152519   6.002   4.544  14.930 -0.2904  1.2939  0.7149
10368TIP3    H252520   5.877   4.460  14.947  0.9273 -0.0983  2.9978
10369TIP3   OH252521   1.440   6.237  11.951 -0.3229 -0.1983 -0.3331
10369TIP3    H152522   1.512   6.271  11.897 -0.5315 -0.4992 -0.8005
10369TIP3    H252523   1.418   6.153  11.912  0.7365 -1.2648  1.3221
10370TIP3   OH252524   3.617   2.966  16.819 -0.7108  0.6712  0.8227
10370TIP3    H152525   3.523   2.980  16.830 -0.9407 -1.9047  2.4624
10370TIP3    H252526   3.653   3.054  16.806 -3.3699  1.6409 -0.2052
10371TIP3   OH252527   5.098   5.856   1.710  0.5642  0.1074 -0.2298
10371TIP3    H152528   5.146   5.818   1.636  1.4590  0.5910  0.0881
10371TIP3    H252529   5.166   5.876   1.774 -0.0613  0.9019  0.1933
10372TIP3   OH252530   1.997   3.358  15.518 -0.0991  0.0679 -0.2678
10372TIP3    H152531   2.019   3.331  15.429 -0.3670 -0.2930 -0.2236
10372TIP3    H252532   1.907   3.388  15.513  0.6810  2.4980 -0.6583
10373TIP3   OH252533   2.691   2.412   3.418  0.2533  0.2017 -0.9656
10373TIP3    H152534   2.712   2.320   3.429  1.3522  0.4102 -1.2758
10373TIP3    H252535   2.648   2.416   3.332 -1.5844 -0.2984 -0.1020
10374TIP3   OH252536   5.588   1.166   4.389 -0.4456 -0.5868 -0.2989
10374TIP3    H152537   5.593   1.236   4.454 -0.2733 -0.3916 -0.5178
10374TIP3    H252538   5.672   1.120   4.397 -1.2539 -1.8487  1.0371
10375TIP3   OH252539   3.401   0.787  14.080  0.2848 -0.0491  0.5851
10375TIP3    H152540   3.471   0.791  14.145 -0.0009 -0.6069  0.9265
10375TIP3    H252541   3.322   0.813  14.127  0.2506  0.5475  0.2080
10376TIP3   OH252542   1.801   1.864  11.031 -0.2987 -0.2480  0.0237
10376TIP3    H152543   1.740   1.871  11.105  1.1314 -0.6598  1.2622
10376TIP3    H252544   1.747   1.881  10.954 -1.8018  0.2681  1.1665
10377TIP3   OH252545   2.342   1.527   3.561  0.3407 -0.1192 -0.6224
10377TIP3    H152546   2.429   1.508   3.596  0.7867  0.9265 -1.1525
10377TIP3    H252547   2.355   1.536   3.466 -0.4978 -0.8527 -0.8191
10378TIP3   OH252548   1.746   4.595  13.072 -0.6937 -0.0792  0.1917
10378TIP3    H152549   1.752   4.598  13.168 -0.6922 -0.7996  0.2177
10378TIP3    H252550   1.819   4.649  13.042  2.2790 -3.7404  0.5687
10379TIP3   OH252551   0.904   6.663  11.508  0.6963  0.1491 -0.0339
10379TIP3    H152552   0.860   6.748  11.521  0.4261  0.2049 -1.2810
10379TIP3    H252553   0.992   6.686  11.479  1.2731  0.0181  1.5365
10380TIP3   OH252554   3.519   1.945   0.609 -0.1934 -0.2704 -0.5303
10380TIP3    H152555   3.468   1.871   0.642 -1.1634  0.0140 -1.3607
10380TIP3    H252556   3.556   1.913   0.527 -2.0103  0.7153 -1.7543
10381TIP3   OH252557   0.678   0.016   3.204 -0.1797 -0.3213 -0.0769
10381TIP3    H152558   0.744   0.036   3.138 -0.0139  0.8047  0.4271
10381TIP3    H252559   0.701   0.070   3.279 -1.0399 -0.7324  0.4924
10382TIP3   OH252560   3.653   1.402   0.754 -0.2005 -0.2897  0.3605
10382TIP3    H152561   3.622   1.323   0.708 -0.4177  0.3396 -0.5880
10382TIP3    H252562   3.651   1.377   0.846 -0.1756 -1.4337  0.0702
10383TIP3   OH252563   2.252   3.424   2.540 -0.6167  0.0739  0.2600
10383TIP3    H152564   2.241   3.484   2.466  0.8773 -0.2243 -0.2163
10383TIP3    H252565   2.347   3.424   2.557 -0.7773 -1.0109  1.2098
10384TIP3   OH252566   4.384   2.800  15.218 -0.4994  0.4562 -0.3672
10384TIP3    H152567   4.346   2.712  15.212 -0.6485  0.4162  0.9993
10384TIP3    H252568   4.442   2.797  15.294  0.1231  1.3114 -0.7963
10385TIP3   OH252569   2.717   0.632  12.581  0.1534  0.1450  0.3221
10385TIP3    H152570   2.649   0.568  12.601 -3.6256  3.0694 -2.2746
10385TIP3    H252571   2.691   0.710  12.630  1.2548  1.5086 -1.2110
10386TIP3   OH252572   5.034   4.134  14.738  0.2110  0.0470 -0.2600
10386TIP3    H152573   5.015   4.214  14.787  1.0709 -0.9048  1.6521
10386TIP3    H252574   4.972   4.070  14.771 -0.5590 -0.0849 -1.8831
10387TIP3   OH252575   0.914   1.293   5.112 -0.3844  0.4058 -0.0973
10387TIP3    H152576   0.868   1.377   5.103 -1.6304 -0.4548 -1.8298
10387TIP3    H252577   0.850   1.235   5.153  0.0838 -0.0603 -0.0201
10388TIP3   OH252578   0.848   4.467   3.860  0.2613  0.3147  0.1068
10388TIP3    H152579   0.926   4.522   3.870 -0.5453  2.5149 -4.6343
10388TIP3    H252580   0.782   4.507   3.916  1.6012  0.2315  1.7780
10389TIP3   OH252581   2.678   2.416   0.750  0.1968 -0.2422 -0.3486
10389TIP3    H152582   2.707   2.450   0.666  2.7276 -2.9471 -0.6472
10389TIP3    H252583   2.697   2.485   0.813 -1.5935  1.7515 -1.9111
10390TIP3   OH252584   2.385   5.960  13.035  0.1722 -0.2257 -0.3587
10390TIP3    H152585   2.463   5.951  13.090 -0.3688  1.1279  0.6450
10390TIP3    H252586   2.359   5.870  13.017  0.7028 -0.7025  1.1227
10391TIP3   OH252587   1.150   5.953  12.614  0.0129  0.1980  0.1515
10391TIP3    H152588   1.143   6.043  12.582 -0.3451  0.3193  0.5568
10391TIP3    H252589   1.237   5.925  12.587  0.2382  0.7674  0.2693
10392TIP3   OH252590   6.025   0.674   0.668 -0.3558 -0.4231 -0.0858
10392TIP3    H152591   6.115   0.701   0.686  0.1654 -2.0711 -0.1007
10392TIP3    H252592   5.980   0.681   0.752 -1.2029  3.9197 -0.8101
10393TIP3   OH252593   5.289   1.504   5.396  0.0229 -0.0582 -0.3695
10393TIP3    H152594   5.234   1.540   5.326 -0.1660  0.0159 -0.1828
10393TIP3    H252595   5.289   1.410   5.380  1.1499  0.0818 -1.3239
10394TIP3   OH252596   6.308   2.150   3.347  0.7942 -0.2115 -0.1321
10394TIP3    H152597   6.226   2.143   3.298  0.6329  2.5724 -0.3027
10394TIP3    H252598   6.290   2.103   3.429 -1.0446  0.5431 -0.0745
10395TIP3   OH252599   0.927   4.819   3.304 -0.2784 -0.1028  0.2322
10395TIP3    H152600   0.864   4.772   3.359  1.4795 -2.5413  0.2513
10395TIP3    H252601   0.901   4.797   3.214  0.0287 -0.4245  0.2211
10396TIP3   OH252602   0.292   3.207  10.422  0.4983  0.1306 -1.0014
10396TIP3    H152603   0.328   3.164  10.344  0.3699  0.9990 -1.5466
10396TIP3    H252604   0.359   3.268  10.450  0.3098  0.2307 -0.7649
10397TIP3   OH252605   4.572   4.823  12.665  0.2685  0.2840  0.1181
10397TIP3    H152606   4.657   4.807  12.706  0.2794  0.5924  0.2187
10397TIP3    H252607   4.566   4.757  12.597 -1.0037 -2.1222  2.4648
10398TIP3   OH252608   1.090   1.963   0.307  0.3588 -0.1214 -0.4134
10398TIP3    H152609   1.174   1.960   0.260 -0.7581 -0.1696 -2.4314
10398TIP3    H252610   1.093   2.046   0.355  1.5992 -0.1516 -0.4205
10399TIP3   OH252611   0.343   4.688   4.904  0.6029 -0.3070  0.3845
10399TIP3    H152612   0.310   4.622   4.844  0.1255  1.1627 -0.9886
10399TIP3    H252613   0.322   4.654   4.991  0.3485 -1.9386 -0.3045
10400TIP3   OH252614   4.466   3.846  12.463 -0.5393  0.2048 -0.5843
10400TIP3    H152615   4.460   3.942  12.463  2.0919  0.4213 -0.9477
10400TIP3    H252616   4.497   3.824  12.375 -0.9998 -0.9767 -0.4555
10401TIP3   OH252617   3.407   5.672   3.595 -0.1005  0.3638  0.2844
10401TIP3    H152618   3.473   5.622   3.642  1.4233  1.6005 -0.5056
10401TIP3    H252619   3.324   5.635   3.623  0.7948  0.6464  3.4376
10402TIP3   OH252620   6.744   1.878   0.076 -0.2765 -0.6149 -0.6409
10402TIP3    H152621   6.792   1.846   0.152  0.4277  0.5050 -0.6027
10402TIP3    H252622   6.671   1.928   0.112  1.9803  2.8058 -0.6423
10403TIP3   OH252623   1.474   3.561  12.720  0.5926  0.6747 -0.2189
10403TIP3    H152624   1.388   3.525  12.699  0.8087 -0.5210  0.8775
10403TIP3    H252625   1.532   3.525  12.652  0.6080 -0.1910  0.2482
10404TIP3   OH252626   2.103   2.916   2.961 -0.4311  0.1089  0.3920
10404TIP3    H152627   2.163   2.988   2.980 -1.3656  0.7700  0.9368
10404TIP3    H252628   2.145   2.839   2.997  2.4989 -0.3811 -3.7056
10405TIP3   OH252629   0.474   6.433   6.068  0.3570  0.1263  0.7535
10405TIP3    H152630   0.418   6.388   6.005  1.5477 -0.4923  0.1103
10405TIP3    H252631   0.562   6.400   6.049  1.3037  2.9315  0.0480
10406TIP3   OH252632   2.815   1.030  14.027 -0.0008  0.5137 -0.0246
10406TIP3    H152633   2.805   0.938  14.005  0.5422  0.5536 -0.4503
10406TIP3    H252634   2.731   1.070  14.005  0.1571  0.3389 -0.9518
10407TIP3   OH252635   4.438   4.406  10.273  0.5996  0.3839 -0.4638
10407TIP3    H152636   4.455   4.323  10.317 -1.4661 -0.0428 -0.3945
10407TIP3    H252637   4.451   4.472  10.341  0.2084 -0.0630  0.0550
10408TIP3   OH252638   1.242   6.309   3.251  0.8070  0.3548  0.8128
10408TIP3    H152639   1.183   6.383   3.255  0.0137 -0.3465  2.9965
10408TIP3    H252640   1.297   6.325   3.175 -2.0021  1.1534 -1.1103
10409TIP3   OH252641   5.454   1.692   4.606 -0.2768  0.5054 -0.3207
10409TIP3    H152642   5.398   1.741   4.666 -0.3166  0.3327 -0.2171
10409TIP3    H252643   5.514   1.757   4.571 -1.0720  0.8631 -1.0638
10410TIP3   OH252644   0.605   2.458  10.870 -0.0684  0.2998  0.0051
10410TIP3    H152645   0.547   2.458  10.793 -3.7520  1.5804  2.6372
10410TIP3    H252646   0.649   2.542  10.867  0.0330  0.2173 -0.8776
10411TIP3   OH252647   2.171   0.034   2.978  0.3573 -0.4469 -0.6340
10411TIP3    H152648   2.202   0.059   3.066  0.3585 -0.1918 -0.7059
10411TIP3    H252649   2.108  -0.037   2.994 -0.0864  0.0011 -0.3836
10412TIP3   OH252650   3.383   4.052   2.065  0.1349 -0.1766 -0.0681
10412TIP3    H152651   3.424   4.138   2.067 -0.9018  0.3314 -0.1821
10412TIP3    H252652   3.292   4.069   2.090 -0.5175 -0.9783 -1.8533
10413TIP3   OH252653   4.906   5.439  13.993 -0.3090 -0.0974  0.3901
10413TIP3    H152654   4.815   5.440  14.022 -0.0746 -0.9376  1.1735
10413TIP3    H252655   4.951   5.497  14.055 -0.2410  0.0058  0.2442
10414TIP3   OH252656   6.354   0.468   5.972  0.0922 -0.2352 -0.0967
10414TIP3    H152657   6.268   0.425   5.967  0.0190 -0.2119  0.8782
10414TIP3    H252658   6.341   0.541   6.032  0.6814  0.0504 -0.3127
10415TIP3   OH252659   2.963   1.960   0.928  0.5199 -0.0398 -0.3749
10415TIP3    H152660   3.015   1.923   0.999  0.5951  0.4900 -0.1543
10415TIP3    H252661   2.873   1.957   0.961  0.5819  0.4243 -0.1635
10416TIP3   OH252662   3.505   2.937   0.968  0.5167  0.2756  0.0525
10416TIP3    H152663   3.592   2.978   0.978  0.8570 -0.4433  0.0761
10416TIP3    H252664   3.523   2.843   0.968 -0.0019  0.1373 -2.2120
10417TIP3   OH252665   0.864   2.444   2.500  0.1446  0.0499  0.4211
10417TIP3    H152666   0.876   2.433   2.594  1.2439 -1.2561  0.1494
10417TIP3    H252667   0.930   2.508   2.475 -0.0700  0.3099  0.5207
10418TIP3   OH252668   0.885   6.005   4.156  0.2793 -0.5217 -0.7434
10418TIP3    H152669   0.857   6.095   4.140 -0.7708 -0.6978  0.0701
10418TIP3    H252670   0.907   5.971   4.069 -2.6537 -0.5916 -1.5014
10419TIP3   OH252671   3.258   0.378   1.350 -0.1625 -0.0306  0.4480
10419TIP3    H152672   3.326   0.428   1.395 -0.2297  0.4766 -0.0204
10419TIP3    H252673   3.176   0.405   1.392 -0.3395  1.2643 -0.7276
10420TIP3   OH252674   6.515   3.007   1.797 -0.0952  0.0172 -0.2734
10420TIP3    H152675   6.430   3.052   1.794 -0.2044 -0.0345  1.7153
10420TIP3    H252676   6.492   2.914   1.798 -0.1111  0.0148  2.0550
10421TIP3   OH252677   5.637   4.243   5.630  0.4211  0.0188 -0.0932
10421TIP3    H152678   5.679   4.328   5.643 -0.2582  0.1608  1.2972
10421TIP3    H252679   5.708   4.179   5.639  1.1131  0.4665 -2.0925
10422TIP3   OH252680   1.585   6.641  12.430  0.4070 -0.5514  0.2032
10422TIP3    H152681   1.605   6.652  12.523 -1.0221  0.8879  0.3611
10422TIP3    H252682   1.490   6.643  12.425  0.4356 -1.7499 -1.1775
10423TIP3   OH252683   2.619   3.731  10.679  0.1284  0.3631 -0.0451
10423TIP3    H152684   2.615   3.636  10.674  1.1176  0.2016  1.8260
10423TIP3    H252685   2.687   3.755  10.617  0.4412 -0.2193  0.0670
10424TIP3   OH252686   3.497   0.578   5.506  0.8769  0.2865 -0.4467
10424TIP3    H152687   3.477   0.553   5.416 -0.6991  0.6876 -0.2075
10424TIP3    H252688   3.412   0.591   5.548  1.5814 -0.3155  1.2276
10425TIP3   OH252689   0.125   4.932   2.147 -0.1820  0.1550 -0.1449
10425TIP3    H152690   0.035   4.965   2.148 -0.1594  0.3297 -2.1487
10425TIP3    H252691   0.155   4.944   2.237 -1.3893  2.2594  0.0195
10426TIP3   OH252692   5.928   2.354   1.472  0.1722 -0.0580 -0.4392
10426TIP3    H152693   5.940   2.449   1.482  0.5523  0.1500 -2.5648
10426TIP3    H252694   6.001   2.327   1.416  0.4984 -1.7492  0.7717
10427TIP3   OH252695   4.799   1.952   1.144  1.0358 -0.5128 -1.0493
10427TIP3    H152696   4.718   1.960   1.094  0.3997 -1.0421 -0.1080
10427TIP3    H252697   4.868   1.950   1.078  0.2627 -0.3424 -1.8635
10428TIP3   OH252698   5.888   2.254   5.045  0.4882  0.7223 -0.0877
10428TIP3    H152699   5.947   2.193   5.000  2.5532  0.8064  2.3619
10428TIP3    H252700   5.809   2.202   5.062  2.0097 -1.1522  1.4989
10429TIP3   OH252701   3.684   3.310   0.090 -0.7069  0.2169  0.0020
10429TIP3    H152702   3.675   3.336   0.182 -0.7507  0.2073  0.0006
10429TIP3    H252703   3.754   3.366   0.056 -0.2098 -0.2727  0.2211
10430TIP3   OH252704   4.683   5.689   3.318  0.5643 -0.1724  0.0237
10430TIP3    H152705   4.625   5.750   3.273  0.5537 -0.3886 -0.2488
10430TIP3    H252706   4.754   5.744   3.351 -0.4718  0.3042  1.5095
10431TIP3   OH252707   1.933   2.719   4.873  0.0385  0.4782 -0.0314
10431TIP3    H152708   1.878   2.698   4.797 -0.3492 -0.0197  0.3801
10431TIP3    H252709   2.016   2.746   4.836 -0.6281  1.6537 -0.6836
10432TIP3   OH252710   0.546   3.041   4.375  0.2016 -0.1803 -0.2345
10432TIP3    H152711   0.493   3.120   4.361  0.3161 -0.1670 -0.5836
10432TIP3    H252712   0.534   3.021   4.468  1.9673  1.5726  0.4116
10433TIP3   OH252713   1.346   2.574   3.243 -0.1959  0.8586  0.5885
10433TIP3    H152714   1.435   2.598   3.216  0.3619 -0.5990  1.0722
10433TIP3    H252715   1.289   2.637   3.198  0.7268 -1.1112 -3.5458
10434TIP3   OH252716   0.425   0.574  11.669  0.4341 -0.0664  0.5107
10434TIP3    H152717   0.382   0.496  11.634  0.4488  0.5030 -0.8320
10434TIP3    H252718   0.355   0.637  11.682  0.6440  0.3151 -0.1588
10435TIP3   OH252719   5.283   5.133   3.568 -0.4563  0.4878 -0.0717
10435TIP3    H152720   5.327   5.191   3.506 -2.0433 -0.6582 -2.3279
10435TIP3    H252721   5.224   5.190   3.617 -2.8291  0.6814 -3.0333
10436TIP3   OH252722   5.423   5.444   2.472 -0.1922  0.2853 -0.3188
10436TIP3    H152723   5.462   5.508   2.533  1.0048  0.7008 -1.4954
10436TIP3    H252724   5.330   5.463   2.474  0.0652  1.5935 -0.0811
10437TIP3   OH252725   4.248   1.750   2.351 -0.3882  0.2081  0.5134
10437TIP3    H152726   4.288   1.692   2.287 -1.0796  0.6858 -0.3622
10437TIP3    H252727   4.316   1.763   2.418 -0.4734 -2.1855  1.1263
10438TIP3   OH252728   5.572   0.070  12.489  0.7615  0.1572  0.2785
10438TIP3    H152729   5.563   0.098  12.398  4.3547 -2.9286 -1.1643
10438TIP3    H252730   5.507   0.001  12.501  1.1396 -0.3018 -0.3342
10439TIP3   OH252731   0.723   3.239  13.464 -0.5186 -0.5481  0.0943
10439TIP3    H152732   0.765   3.316  13.427  1.1769 -0.8411  1.3421
10439TIP3    H252733   0.750   3.166  13.408  0.6754 -0.7394  0.9093
10440TIP3   OH252734   6.299   3.223  13.692  0.2468 -0.6241 -0.0659
10440TIP3    H152735   6.338   3.274  13.621  1.4255 -1.0705  0.2458
10440TIP3    H252736   6.256   3.150  13.647 -1.1108  0.4236 -0.4819
10441TIP3   OH252737   1.208   6.065   0.533 -0.7407  0.1958  0.5486
10441TIP3    H152738   1.146   6.048   0.462 -0.9111 -0.2793  0.8087
10441TIP3    H252739   1.287   6.019   0.506 -0.7309  0.2084  0.5570
10442TIP3   OH252740   6.331   2.782   4.691 -0.0194  0.4848 -0.2889
10442TIP3    H152741   6.399   2.764   4.754 -0.6693 -0.5433  0.1286
10442TIP3    H252742   6.308   2.697   4.654 -0.6270  0.8965 -0.8949
10443TIP3   OH252743   5.287   4.660  14.359 -0.1605  0.0230  0.3631
10443TIP3    H152744   5.282   4.691  14.268  0.5070 -1.8050 -0.3393
10443TIP3    H252745   5.381   4.662  14.379 -0.2056 -0.5200  0.6504
10444TIP3   OH252746   3.993   0.894  12.267  0.1335  0.2611  0.3250
10444TIP3    H152747   3.936   0.964  12.234  0.8611  0.8460  0.2875
10444TIP3    H252748   4.073   0.903  12.215 -1.0913 -2.9411 -2.3260
10445TIP3   OH252749   1.193   1.040   0.940 -0.0643  0.3070 -0.1099
10445TIP3    H152750   1.124   0.986   0.902 -0.6907  1.3475 -0.4598
10445TIP3    H252751   1.272   0.986   0.932 -1.2212 -1.8914  2.4887
10446TIP3   OH252752   0.363   5.555   4.651  0.1228  0.4145  0.2260
10446TIP3    H152753   0.323   5.639   4.629 -0.9828 -0.0327  0.4539
10446TIP3    H252754   0.346   5.500   4.575  1.2280  0.5196 -0.1034
10447TIP3   OH252755   2.520   5.251  14.672  0.4004 -0.2994  0.2266
10447TIP3    H152756   2.578   5.251  14.595  0.2301  1.1895  0.0788
10447TIP3    H252757   2.548   5.327  14.722 -0.7390 -0.1802  0.6880
10448TIP3   OH252758   3.916   1.306  12.999 -0.4546  0.7030  0.1691
10448TIP3    H152759   3.965   1.233  12.961 -0.4716  1.4150 -1.2562
10448TIP3    H252760   3.967   1.383  12.976 -0.7324  1.1852  1.1916
10449TIP3   OH252761   1.286   3.421  12.548  0.5797  0.5166 -0.6676
10449TIP3    H152762   1.258   3.398  12.459 -0.2656  1.9809 -0.8045
10449TIP3    H252763   1.205   3.430  12.597  1.1005 -1.9939  0.7356
10450TIP3   OH252764   1.053   2.308  12.341 -0.4413 -0.2859 -0.0562
10450TIP3    H152765   1.096   2.283  12.259 -0.1419  1.7899 -0.5601
10450TIP3    H252766   1.037   2.402  12.332  2.5513  0.6687  3.6301
10451TIP3   OH252767   2.006   6.211   1.563  0.1667  0.1140  0.5589
10451TIP3    H152768   1.980   6.251   1.646 -1.9432 -0.6597  0.2717
10451TIP3    H252769   2.055   6.133   1.588 -0.0369  0.1465  1.0592
10452TIP3   OH252770   5.797   6.731   1.423 -0.5319 -0.0301  0.2555
10452TIP3    H152771   5.734   6.666   1.392 -1.1860  0.1086  1.2487
10452TIP3    H252772   5.754   6.816   1.408 -0.5852  0.0653  0.9255
10453TIP3   OH252773   3.721   3.617   2.191 -0.4308 -0.6667 -0.2729
10453TIP3    H152774   3.776   3.647   2.119  0.0689  1.0357  0.7807
10453TIP3    H252775   3.669   3.546   2.154  0.5159 -0.4685 -2.0303
10454TIP3   OH252776   5.149   6.301   3.399  0.0814 -0.8085  0.0186
10454TIP3    H152777   5.110   6.294   3.311  0.8903  1.5633 -0.5780
10454TIP3    H252778   5.095   6.366   3.444  1.4182  0.1415  0.2690
10455TIP3   OH252779   4.835   3.285   3.388  0.0361 -0.3990 -0.1817
10455TIP3    H152780   4.883   3.208   3.359  0.0273 -0.5081  0.0952
10455TIP3    H252781   4.900   3.356   3.386 -0.0502 -0.3321 -0.8005
10456TIP3   OH252782   2.959   4.054  12.556 -0.5300  0.4187  0.8106
10456TIP3    H152783   2.916   4.138  12.541 -1.6106 -0.2276  0.2208
10456TIP3    H252784   3.011   4.041  12.476  0.0339  0.7600  1.1196
10457TIP3   OH252785   1.218   5.045  11.301 -0.2747 -0.3083  0.0946
10457TIP3    H152786   1.141   4.990  11.285 -0.4166 -0.3474  0.9361
10457TIP3    H252787   1.184   5.134  11.303 -0.3083 -0.3290  0.5139
10458TIP3   OH252788   2.345   3.877   5.682 -0.1209 -0.0725  0.1271
10458TIP3    H152789   2.279   3.834   5.737  0.5741 -1.4435 -0.0794
10458TIP3    H252790   2.429   3.846   5.716  0.3384 -0.1559 -1.0525
10459TIP3   OH252791   3.521   6.256  16.972 -0.3561 -0.7418  0.3939
10459TIP3    H152792   3.524   6.238  16.878 -1.7485 -2.7951  0.6994
10459TIP3    H252793   3.438   6.302  16.985  0.4397  0.6962  0.4504
10460TIP3   OH252794   1.583   5.790   2.935 -0.0824 -0.4869 -0.6277
10460TIP3    H152795   1.630   5.796   2.852 -0.3774 -0.4472 -0.7942
10460TIP3    H252796   1.491   5.784   2.909 -0.1889 -0.2524 -0.2944
10461TIP3   OH252797   4.032   3.485  13.189  0.2612  0.2273 -0.1046
10461TIP3    H152798   3.980   3.522  13.260 -1.6560 -1.3399 -0.6311
10461TIP3    H252799   4.122   3.486  13.222 -0.4223  0.7083  1.8219
10462TIP3   OH252800   2.208   6.550  13.429 -0.2628 -0.1234  0.1383
10462TIP3    H152801   2.236   6.584  13.345  0.5780 -0.7107  0.1770
10462TIP3    H252802   2.170   6.464  13.409  0.0360 -0.3115  0.3646
10463TIP3   OH252803   3.624   6.518  17.009  0.4886 -0.1188  0.4033
10463TIP3    H152804   3.612   6.423  17.010  1.1267 -0.2100  2.1508
10463TIP3    H252805   3.557   6.551  17.069 -0.5116  0.6567 -1.1186
10464TIP3   OH252806   4.684   2.065  16.451  0.5656  0.1337 -0.5620
10464TIP3    H152807   4.664   2.121  16.376  2.2285  1.3053 -0.1665
10464TIP3    H252808   4.739   1.995  16.414 -0.1413 -0.3190 -0.7610
10465TIP3   OH252809   6.452   0.281  15.745  0.1323  0.3921  0.6388
10465TIP3    H152810   6.451   0.194  15.784  1.1223  1.3035  2.7905
10465TIP3    H252811   6.385   0.330  15.794 -0.5870  0.7635 -0.7132
10466TIP3   OH252812   5.203   0.919   0.299  0.4198 -0.1666 -0.1310
10466TIP3    H152813   5.135   0.918   0.231 -0.5405 -0.1309  0.8193
10466TIP3    H252814   5.271   0.976   0.263 -0.6576  0.9117 -0.5197
10467TIP3   OH252815   2.961   1.110   1.245 -0.1267  0.2858 -0.9630
10467TIP3    H152816   2.978   1.097   1.339 -1.4653 -0.5241 -0.8170
10467TIP3    H252817   2.903   1.185   1.242  0.5803  0.8269 -1.2106
10468TIP3   OH252818   0.136   0.084   5.086 -0.2458  0.6497  0.2426
10468TIP3    H152819   0.100   0.040   5.009 -1.4155 -0.2329  1.2722
10468TIP3    H252820   0.166   0.013   5.142 -0.1028  1.2670  0.9470
10469TIP3   OH252821   3.764   2.043  14.590  0.3742  0.5562  0.4219
10469TIP3    H152822   3.827   2.104  14.551 -1.6302  1.6413 -1.2274
10469TIP3    H252823   3.786   1.958  14.552  0.7775  0.9491 -0.2306
10470TIP3   OH252824   3.510   1.346  17.144  0.1909  0.0336 -0.5199
10470TIP3    H152825   3.497   1.431  17.101 -0.4499  1.2970  2.0601
10470TIP3    H252826   3.570   1.365  17.216 -0.5499 -1.5323  0.5400
10471TIP3   OH252827   6.426   4.690  17.053 -0.4035 -0.3419 -0.5578
10471TIP3    H152828   6.397   4.758  17.113  0.2545  0.1692 -0.8083
10471TIP3    H252829   6.462   4.738  16.978  2.1328 -0.9091  0.2484
10472TIP3   OH252830   0.764   5.643   3.888 -0.0227  0.8075  0.2107
10472TIP3    H152831   0.689   5.691   3.851  0.3504  1.3514  0.1547
10472TIP3    H252832   0.833   5.708   3.895  0.3005  0.4174  0.7188
10473TIP3   OH252833   4.789   0.636  11.508  0.2535 -0.2647  0.3384
10473TIP3    H152834   4.747   0.691  11.441  0.9640 -0.1350 -0.0087
10473TIP3    H252835   4.731   0.643  11.584  1.0484  2.1333  0.7916
10474TIP3   OH252836   6.545   0.338  13.529  0.3038  0.5379 -0.0158
10474TIP3    H152837   6.613   0.405  13.536  0.6957  0.0331  1.1986
10474TIP3    H252838   6.592   0.255  13.539 -0.2276  0.0966 -1.1113
10475TIP3   OH252839   5.417   3.820  16.073 -0.0289  0.1493  0.5261
10475TIP3    H152840   5.501   3.831  16.118  1.2961 -0.6868 -1.6798
10475TIP3    H252841   5.393   3.729  16.089  0.2318 -0.0259 -0.0411
10476TIP3   OH252842   2.204   4.349   3.340 -0.2827 -0.2239 -0.5207
10476TIP3    H152843   2.176   4.332   3.250 -0.4229 -0.6744 -0.3940
10476TIP3    H252844   2.279   4.292   3.353 -1.0474 -1.1256  0.0628
10477TIP3   OH252845   2.899   2.228   0.683  0.7311  0.1013 -0.4458
10477TIP3    H152846   2.850   2.146   0.684  0.9021 -0.0002  0.6265
10477TIP3    H252847   2.833   2.296   0.690  0.7407 -0.0570  1.7550
10478TIP3   OH252848   6.779   5.573   4.405  0.0332 -0.0952  0.3195
10478TIP3    H152849   6.726   5.509   4.452 -0.9091 -0.8807 -1.7306
10478TIP3    H252850   6.723   5.651   4.401  1.0845  0.8020  2.6043
10479TIP3   OH252851   0.665   5.405  12.777  0.0710  0.2152  0.0539
10479TIP3    H152852   0.682   5.497  12.797  0.8650 -0.1710  1.1974
10479TIP3    H252853   0.571   5.395  12.789 -0.2308  1.1811 -1.3684
10480TIP3   OH252854   0.277   1.370   5.987 -0.1284 -0.1649 -0.0853
10480TIP3    H152855   0.320   1.379   5.901  1.0924  2.3441  0.7290
10480TIP3    H252856   0.340   1.322   6.040 -0.8772 -1.7035 -0.5573
10481TIP3   OH252857   6.303   3.382   5.341 -0.0729 -0.3546  0.1450
10481TIP3    H152858   6.341   3.398   5.255  0.1579 -0.1097  0.2932
10481TIP3    H252859   6.335   3.294   5.365  1.4821  0.3851  0.8456
10482TIP3   OH252860   5.349   2.963   0.269  0.0989 -0.2632  0.5638
10482TIP3    H152861   5.344   2.901   0.196  1.7172  0.3122 -0.0468
10482TIP3    H252862   5.360   3.048   0.227 -2.2250  0.4819  1.3909
10483TIP3   OH252863   2.916   0.007  11.513 -0.7801  0.0196  0.0758
10483TIP3    H152864   2.918  -0.064  11.577 -0.6799 -0.2229 -0.2007
10483TIP3    H252865   2.984  -0.015  11.450 -1.0144  0.1603 -0.2265
10484TIP3   OH252866   2.161   6.551  11.993 -0.2985 -0.2270 -0.1537
10484TIP3    H152867   2.228   6.597  11.941 -1.5770  1.6535 -0.1611
10484TIP3    H252868   2.163   6.462  11.959  1.7223 -0.0254 -0.6432
10485TIP3   OH252869   3.347   2.123   5.058  0.1129  0.2885 -0.0437
10485TIP3    H152870   3.411   2.194   5.060  0.4035  0.0737 -1.3089
10485TIP3    H252871   3.385   2.058   4.998 -0.7388 -0.3666  0.1112
10486TIP3   OH252872   2.036   0.330   3.278  1.1498  0.1461 -0.0624
10486TIP3    H152873   1.947   0.362   3.296  1.0242  0.3496 -1.0152
10486TIP3    H252874   2.050   0.261   3.344  0.1170 -0.1931 -0.1804
10487TIP3   OH252875   3.619   4.091  11.019  0.2982  0.1554  0.0961
10487TIP3    H152876   3.579   4.092  10.932  0.7685 -1.4683 -0.1520
10487TIP3    H252877   3.590   4.173  11.060 -0.1241  0.8190 -1.4910
10488TIP3   OH252878   1.742   3.434  17.013 -0.3362  0.7585 -0.1722
10488TIP3    H152879   1.743   3.513  16.960  0.2924  1.0555  0.2907
10488TIP3    H252880   1.828   3.430  17.054  0.0748 -0.7878 -1.1173
10489TIP3   OH252881   1.732   1.478   0.536  0.2952  0.2763 -0.1103
10489TIP3    H152882   1.802   1.520   0.586 -1.0342  0.9356  1.2338
10489TIP3    H252883   1.652   1.504   0.581 -0.6892 -2.1554 -0.4137
10490TIP3   OH252884   0.179   3.116   5.466  0.5688 -0.2638 -0.4105
10490TIP3    H152885   0.189   3.092   5.559  0.2944  0.8466 -0.0827
10490TIP3    H252886   0.116   3.188   5.467  1.2688  0.3794 -1.3712
10491TIP3   OH252887   1.642   5.737   1.164  0.4649  0.4174 -0.2264
10491TIP3    H152888   1.647   5.768   1.074 -1.2971  0.6304 -0.2654
10491TIP3    H252889   1.637   5.817   1.216 -0.8535  0.2540 -0.1010
10492TIP3   OH252890   5.465   5.523   3.714  0.3739 -0.7074  0.3609
10492TIP3    H152891   5.449   5.489   3.803 -1.1654 -1.4282 -0.1693
10492TIP3    H252892   5.435   5.613   3.717 -2.4985 -1.6012 -0.2066
10493TIP3   OH252893   4.916   0.004  16.162  0.3125 -0.0749  0.1578
10493TIP3    H152894   4.915  -0.091  16.176 -0.1468 -0.0614  0.2351
10493TIP3    H252895   4.943   0.015  16.071  0.5438 -0.2762  0.2035
10494TIP3   OH252896   0.444   1.708  15.325  0.5717 -0.4625  0.4522
10494TIP3    H152897   0.406   1.702  15.237  1.8317 -1.2561 -0.0469
10494TIP3    H252898   0.506   1.781  15.319 -1.9124  1.8564  1.6885
10495TIP3   OH252899   4.594   6.426   5.436  0.6499  0.1044  0.1868
10495TIP3    H152900   4.669   6.461   5.484  0.0566 -3.0147  3.6477
10495TIP3    H252901   4.630   6.353   5.386  0.5804  0.9644 -1.1215
10496TIP3   OH252902   4.665   2.686  14.397 -0.5339  0.3453 -0.1191
10496TIP3    H152903   4.637   2.613  14.452 -0.4499  0.0104 -0.5247
10496TIP3    H252904   4.627   2.668  14.311 -0.3367  0.6695 -0.2724
10497TIP3   OH252905   4.678   1.666   4.848 -0.0820 -0.0279 -0.1560
10497TIP3    H152906   4.702   1.575   4.829 -1.6753 -0.6385  0.7523
10497TIP3    H252907   4.691   1.676   4.942  1.6810  1.1817 -0.4968
10498TIP3   OH252908   6.538   1.926  15.649 -0.3173  0.1753 -0.1485
10498TIP3    H152909   6.530   1.888  15.561 -1.2668  2.1739 -0.9549
10498TIP3    H252910   6.456   1.903  15.692  0.4987 -1.5399  0.5404
10499TIP3   OH252911   5.364   2.353   1.188  0.7572 -0.4393  0.0940
10499TIP3    H152912   5.358   2.404   1.269  2.6459  0.8897 -0.5740
10499TIP3    H252913   5.321   2.407   1.122  3.6021  0.7850 -0.8150
10500TIP3   OH252914   4.879   3.099  16.243  0.3512 -0.0222  1.0146
10500TIP3    H152915   4.939   3.171  16.224  0.0018  0.4465  1.6884
10500TIP3    H252916   4.932   3.033  16.287  1.1025 -0.9771 -1.2401
10501TIP3   OH252917   1.973   3.291   3.343 -0.2355 -0.4729  0.3539
10501TIP3    H152918   1.893   3.318   3.297 -0.8994 -1.3034  0.9993
10501TIP3    H252919   2.004   3.215   3.295  1.2368  0.9423 -1.0260
10502TIP3   OH252920   3.686   4.064   4.050 -0.0238  0.2948 -0.0722
10502TIP3    H152921   3.597   4.095   4.035  0.1269  1.0812  0.6005
10502TIP3    H252922   3.735   4.091   3.973  0.3391  2.6845  0.9485
10503TIP3   OH252923   3.581   4.566  17.219 -0.4233 -0.0896 -0.1863
10503TIP3    H152924   3.507   4.524  17.176  0.3205  1.2035 -2.8081
10503TIP3    H252925   3.543   4.609  17.295 -2.2954  0.1569 -1.2300
10504TIP3   OH252926   4.717   0.704  15.498  0.1454 -0.7527  0.6332
10504TIP3    H152927   4.749   0.626  15.542  0.5072 -1.0954 -0.2422
10504TIP3    H252928   4.706   0.678  15.407  1.3309  0.5275  0.1136
10505TIP3   OH252929   2.800   6.406  14.779 -0.3752 -0.3231 -0.1839
10505TIP3    H152930   2.767   6.443  14.861 -1.4785 -0.8606 -0.3779
10505TIP3    H252931   2.803   6.312  14.795  1.3435 -0.2534 -0.0730
10506TIP3   OH252932   2.148   0.651  14.506 -0.3045  0.2337  0.3148
10506TIP3    H152933   2.236   0.628  14.536  0.0914  1.1431 -0.1139
10506TIP3    H252934   2.128   0.733  14.551  0.2959  1.6053 -1.8022
10507TIP3   OH252935   3.315   0.125   1.517 -0.3354  0.0014  0.4155
10507TIP3    H152936   3.324   0.203   1.463  0.1343 -0.4911 -0.2248
10507TIP3    H252937   3.223   0.122   1.541 -0.1725  1.2777  1.2385
10508TIP3   OH252938   3.499   5.606   1.168 -0.3276  0.0053  0.3886
10508TIP3    H152939   3.558   5.552   1.221  0.7779  1.5412  0.7362
10508TIP3    H252940   3.510   5.572   1.079 -1.3073 -1.7966  0.9288
10509TIP3   OH252941   4.330   2.008   3.681 -0.0008  0.5735  0.4183
10509TIP3    H152942   4.301   2.093   3.713  0.9642  1.5481 -1.2431
10509TIP3    H252943   4.357   2.024   3.591  3.1235 -0.8117  1.0220
10510TIP3   OH252944   2.141   5.556  13.851  0.8525  0.1165  0.0304
10510TIP3    H152945   2.180   5.635  13.814  0.3941  0.6693  0.7035
10510TIP3    H252946   2.155   5.564  13.946  0.1884 -0.2609  0.1680
10511TIP3   OH252947   2.305   0.516  14.720  0.1640  0.3862  0.0565
10511TIP3    H152948   2.375   0.482  14.665  0.6943 -1.8595  2.0376
10511TIP3    H252949   2.225   0.486  14.679  0.4738  0.5022 -0.6339
10512TIP3   OH252950   1.872   2.039   4.460  0.6259  0.1576  0.2225
10512TIP3    H152951   1.819   2.041   4.380  1.2628  1.6268 -0.1580
10512TIP3    H252952   1.828   2.100   4.519  0.6240 -0.3196  0.7220
10513TIP3   OH252953   1.793   3.555  15.183  0.0762  0.0805 -0.4071
10513TIP3    H152954   1.840   3.516  15.109 -1.3999 -2.1114 -0.2233
10513TIP3    H252955   1.706   3.516  15.179 -0.1544  0.2724  2.2211
10514TIP3   OH252956   2.147   6.103  15.599  0.1548  0.0081 -0.1874
10514TIP3    H152957   2.241   6.088  15.590  0.2431  0.0595  0.6302
10514TIP3    H252958   2.127   6.172  15.535  0.9215  0.9681  0.6084
10515TIP3   OH252959   6.161   0.437   1.058  0.2408 -0.3620 -0.6655
10515TIP3    H152960   6.088   0.384   1.026  0.1225  0.0106 -1.0230
10515TIP3    H252961   6.215   0.453   0.980  0.5191 -0.3483 -0.4694
10516TIP3   OH252962   6.059   1.532  15.364  0.2546  0.8012  0.2447
10516TIP3    H152963   6.152   1.527  15.386  0.4653  2.0761 -0.3011
10516TIP3    H252964   6.026   1.443  15.379  2.1245 -0.3764 -2.2094
10517TIP3   OH252965   1.847   2.874   5.073 -0.3660  0.2469 -0.4997
10517TIP3    H152966   1.836   2.790   5.029 -1.3806 -0.1400  0.4707
10517TIP3    H252967   1.921   2.915   5.028 -0.5778 -0.6796 -1.7153
10518TIP3   OH252968   5.592   1.660   5.599  0.5031  0.1417  0.1058
10518TIP3    H152969   5.632   1.701   5.523  0.6893  0.0144  0.1340
10518TIP3    H252970   5.581   1.731   5.663  1.6271 -0.0220  0.4834
10519TIP3   OH252971   5.470   6.367  16.998  0.0287 -0.6102 -0.1071
10519TIP3    H152972   5.485   6.461  16.991 -0.6185 -0.4522  0.5799
10519TIP3    H252973   5.376   6.358  17.010 -0.1489 -1.4580 -1.9364
10520TIP3   OH252974   6.417   3.587  12.381  0.1905 -0.0111 -0.4803
10520TIP3    H152975   6.426   3.673  12.338 -1.0826  1.3709  1.9387
10520TIP3    H252976   6.348   3.543  12.332  0.2675  0.6765 -1.2234
10521TIP3   OH252977   4.040   0.695  15.234  0.4780  0.1471  0.4421
10521TIP3    H152978   3.954   0.718  15.267  0.6860  3.2547 -1.0034
10521TIP3    H252979   4.027   0.683  15.139  1.4258 -0.4792  0.3808
10522TIP3   OH252980   5.818   5.761  15.763 -0.3333  0.0565 -0.1224
10522TIP3    H152981   5.766   5.744  15.685 -1.2937  0.9519  0.3215
10522TIP3    H252982   5.793   5.692  15.825  0.6051 -0.7974 -0.6767
10523TIP3   OH252983   1.998   3.229  13.687  0.3362  0.5184 -0.3654
10523TIP3    H152984   2.092   3.218  13.671  0.6076 -0.3694  1.7137
10523TIP3    H252985   1.993   3.298  13.753 -0.4532  0.5088 -0.4120
10524TIP3   OH252986   6.213   6.464  11.456  0.2621 -0.0644  0.1238
10524TIP3    H152987   6.284   6.401  11.464 -0.3688 -0.8658 -0.4606
10524TIP3    H252988   6.221   6.498  11.367  0.1621  0.1439  0.1943
10525TIP3   OH252989   6.488   5.017   4.101  0.6550 -0.1252  0.3021
10525TIP3    H152990   6.583   5.025   4.111  0.5403  1.1320  0.4072
10525TIP3    H252991   6.476   4.995   4.008  1.1344 -2.0591  0.6606
10526TIP3   OH252992   5.560   5.482  14.649  0.4322 -0.9068  0.4039
10526TIP3    H152993   5.516   5.554  14.695  1.4204  0.0563 -0.1407
10526TIP3    H252994   5.502   5.407  14.662 -0.8267  0.0819  0.6218
10527TIP3   OH252995   5.796   6.021  15.717 -0.1299  0.0468  0.2120
10527TIP3    H152996   5.884   6.055  15.698 -0.2451  0.1488 -0.1325
10527TIP3    H252997   5.806   5.926  15.715  0.2093  0.0524  1.2588
10528TIP3   OH252998   6.675   6.560   5.786  0.2093  0.4419  0.0973
10528TIP3    H152999   6.581   6.578   5.795  0.2242 -0.2522  1.9244
10528TIP3    H253000   6.696   6.504   5.861  1.6757 -1.0511 -1.3980
10529TIP3   OH253001   5.673   2.532  13.446  0.1567 -0.6420 -0.1117
10529TIP3    H153002   5.611   2.580  13.391 -1.8261 -1.2559  1.5262
10529TIP3    H253003   5.655   2.440  13.429 -0.4447 -0.8411  1.4645
10530TIP3   OH253004   4.838   3.396   0.841  0.3708 -0.1712 -0.1123
10530TIP3    H153005   4.843   3.465   0.908  0.3189 -0.9011  0.6592
10530TIP3    H253006   4.867   3.317   0.886 -0.4020 -0.8242 -0.7389
10531TIP3   OH253007   1.341   4.463  11.893 -0.0253 -0.2520  0.5739
10531TIP3    H153008   1.257   4.418  11.886 -0.5822  0.9637 -0.7451
10531TIP3    H253009   1.326   4.530  11.960 -0.3410  0.4580 -0.2009
10532TIP3   OH253010   3.312   4.517  16.081  0.1177  0.0710  0.0171
10532TIP3    H153011   3.397   4.561  16.079  0.0240  0.2538  0.0087
10532TIP3    H253012   3.291   4.511  16.175  0.1432  0.0198  0.0179
10533TIP3   OH253013   0.301   3.673   2.893 -0.5627 -0.1590 -0.1555
10533TIP3    H153014   0.229   3.727   2.860 -0.8679  0.0859  0.8853
10533TIP3    H253015   0.364   3.670   2.821 -1.1392  0.4994 -0.6916
10534TIP3   OH253016   0.466   4.048   0.344 -0.7708 -0.5163 -0.1924
10534TIP3    H153017   0.455   4.105   0.420 -0.9653  0.3773 -0.8859
10534TIP3    H253018   0.379   4.039   0.307 -0.3462  0.7404 -1.5161
10535TIP3   OH253019   4.385   3.491  14.605  0.4223 -0.3338  0.1956
10535TIP3    H153020   4.383   3.555  14.676  0.1816 -0.2682  0.1315
10535TIP3    H253021   4.396   3.406  14.649  2.4955 -0.1037  0.1940
10536TIP3   OH253022   0.519   2.800  12.282 -0.0771  0.2190  0.2262
10536TIP3    H153023   0.589   2.820  12.344  0.4299 -2.6841  0.6920
10536TIP3    H253024   0.506   2.705  12.291 -0.8781 -0.0665 -3.1625
10537TIP3   OH253025   2.898   1.623   5.266 -0.2581  0.3375  0.2812
10537TIP3    H153026   2.982   1.661   5.292 -0.7842 -0.0261  2.5797
10537TIP3    H253027   2.842   1.699   5.248  0.6312  0.5828 -1.6416
10538TIP3   OH253028   1.572   5.129  13.184  0.2588 -0.8024  0.1048
10538TIP3    H153029   1.653   5.142  13.134 -0.7477 -1.1431 -1.6513
10538TIP3    H253030   1.527   5.213  13.179  1.3689  0.0004  2.7338
10539TIP3   OH253031   4.186   4.468   1.559 -0.6704  0.0420  0.2011
10539TIP3    H153032   4.262   4.446   1.612 -1.1446  0.7112  1.1812
10539TIP3    H253033   4.190   4.409   1.485 -0.0748 -1.0142  1.0634
10540TIP3   OH253034   6.185   3.507   3.809  0.3478  0.2702  0.1698
10540TIP3    H153035   6.239   3.568   3.759  0.5906  1.1061  1.4255
10540TIP3    H253036   6.117   3.562   3.849 -0.4422 -0.5280 -0.0429
10541TIP3   OH253037   5.892   1.647  10.795 -0.0030 -0.3493 -0.1093
10541TIP3    H153038   5.840   1.568  10.812  0.4512 -0.7646 -0.6513
10541TIP3    H253039   5.918   1.677  10.882  1.3778 -1.8431  0.0179
10542TIP3   OH253040   6.471   4.457   2.886 -0.7001 -0.0305  0.5599
10542TIP3    H153041   6.484   4.381   2.943 -2.2661 -0.4696  0.3720
10542TIP3    H253042   6.376   4.461   2.875 -0.4260  0.1803 -1.8597
10543TIP3   OH253043   1.842   5.447   3.015  0.5208  0.2308 -1.3787
10543TIP3    H153044   1.821   5.534   2.982 -0.3822  0.2890 -0.6734
10543TIP3    H253045   1.889   5.463   3.097 -0.6930  0.0483 -0.6382
10544TIP3   OH253046   5.370   3.644   1.329  0.6849 -0.2861 -0.5152
10544TIP3    H153047   5.355   3.708   1.259  0.5791  0.4087  0.1294
10544TIP3    H253048   5.283   3.612   1.351  0.5525  0.6489  0.3581
10545TIP3   OH253049   4.801   5.572   4.122 -0.3028 -0.2678 -0.0261
10545TIP3    H153050   4.882   5.621   4.138  0.6794 -2.5303  2.3020
10545TIP3    H253051   4.740   5.605   4.189 -0.5076 -0.2994 -0.1961
10546TIP3   OH253052   5.941   1.721  13.208 -0.0179 -0.0229  0.2276
10546TIP3    H153053   5.943   1.649  13.271 -0.2612 -0.7654 -0.6102
10546TIP3    H253054   6.030   1.726  13.173 -0.1942 -0.4273 -0.2849
10547TIP3   OH253055   2.433   0.033   4.923  0.2782 -0.0665  0.5314
10547TIP3    H153056   2.385   0.106   4.884  2.3232  0.7390 -0.5304
10547TIP3    H253057   2.430   0.050   5.017  1.6647  1.9731  0.2233
10548TIP3   OH253058   3.929   5.718   4.801  0.1864 -0.1592  0.5771
10548TIP3    H153059   3.953   5.733   4.709  1.2034 -1.8945  0.5484
10548TIP3    H253060   4.012   5.701   4.845 -0.4962 -1.2091  1.4721
10549TIP3   OH253061   6.220   6.725  13.800  0.1612 -0.2621 -0.1450
10549TIP3    H153062   6.280   6.772  13.858 -1.0939  0.3556  0.6965
10549TIP3    H253063   6.272   6.705  13.722  1.3446  0.5700  0.4097
10550TIP3   OH253064   4.604   1.923   5.516 -0.0955 -0.0728  0.2879
10550TIP3    H153065   4.685   1.965   5.488  0.5561 -0.2663  1.8259
10550TIP3    H253066   4.584   1.965   5.600 -1.0234 -0.7658  0.4165
10551TIP3   OH253067   5.308   3.915   0.611  1.0456 -0.7231  0.6147
10551TIP3    H153068   5.402   3.927   0.618  1.2422 -2.2400  0.6589
10551TIP3    H253069   5.293   3.888   0.520  1.0439 -3.7922  1.4901
10552TIP3   OH253070   0.981   2.818  16.685 -0.0389 -0.0480  0.4583
10552TIP3    H153071   0.946   2.787  16.769  1.9660 -0.1642  1.2720
10552TIP3    H253072   1.074   2.795  16.688  0.2769  0.9372 -1.3418
10553TIP3   OH253073   3.647   1.470  15.564  0.3005 -0.8729 -0.2852
10553TIP3    H153074   3.634   1.386  15.607  0.6108 -0.0877  1.3989
10553TIP3    H253075   3.724   1.508  15.607 -0.9289  1.0654  0.3092
10554TIP3   OH253076   1.773   4.393   4.913 -0.4001  0.1357 -0.0582
10554TIP3    H153077   1.796   4.306   4.881  1.4678  1.2711 -2.0231
10554TIP3    H253078   1.814   4.400   4.999 -1.4371 -1.2770  0.5567
10555TIP3   OH253079   0.468   2.979   3.178  0.4820 -0.0801 -0.3460
10555TIP3    H153080   0.427   3.015   3.099  1.2404 -0.9684 -1.1422
10555TIP3    H253081   0.435   2.890   3.184  0.7308 -0.1430  0.1340
10556TIP3   OH253082   2.981   4.891   5.068 -0.0587 -0.2277  0.4236
10556TIP3    H153083   3.015   4.819   5.015 -1.2438 -0.1586 -0.4586
10556TIP3    H253084   2.892   4.904   5.035  0.1033  1.5516  0.6732
10557TIP3   OH253085   0.265   2.779  14.028 -0.2739  0.5046  0.2153
10557TIP3    H153086   0.349   2.745  14.057 -0.9181  0.2229  1.8192
10557TIP3    H253087   0.286   2.856  13.976  0.9530  0.6396  0.9017
10558TIP3   OH253088   3.120   0.982   0.518  0.6394  0.3337 -0.1184
10558TIP3    H153089   3.024   0.981   0.514  0.6484 -1.0450 -0.4399
10558TIP3    H253090   3.144   0.891   0.536  1.9115  0.5553 -0.6263
10559TIP3   OH253091   5.291   1.354  10.748 -0.3038  0.3426 -0.5129
10559TIP3    H153092   5.242   1.339  10.667  0.7999 -1.4157 -0.8888
10559TIP3    H253093   5.334   1.270  10.766 -1.0001  0.5077  2.2161
10560TIP3   OH253094   5.036   2.220  10.583 -1.0423  0.1492 -0.2081
10560TIP3    H153095   5.004   2.164  10.654 -0.6101  1.1053  0.7609
10560TIP3    H253096   4.958   2.237  10.529 -0.8829 -2.5329 -1.3362
10561TIP3   OH253097   4.302   5.366  15.055 -0.7188  0.0468  0.5154
10561TIP3    H153098   4.354   5.370  15.135 -0.1403 -0.7178  0.1924
10561TIP3    H253099   4.224   5.315  15.080 -1.5644  1.6157  1.1260
10562TIP3   OH253100   2.187   4.380  13.033  0.0598 -0.2161  0.3888
10562TIP3    H153101   2.198   4.465  12.990  1.0862 -0.3088  0.4411
10562TIP3    H253102   2.103   4.347  13.001  0.0738  0.4189 -0.3150
10563TIP3   OH253103   6.653   1.781  13.868 -0.3784 -0.4766  0.4870
10563TIP3    H153104   6.588   1.784  13.797 -0.8245  0.3221  0.9307
10563TIP3    H253105   6.602   1.770  13.948  0.1815 -2.3362  0.6115
10564TIP3   OH253106   0.409   2.373  12.931 -0.2126  0.3418 -0.1229
10564TIP3    H153107   0.456   2.431  12.870  1.9985 -0.9394  0.3478
10564TIP3    H253108   0.325   2.417  12.945  1.3725  3.4115  0.1420
10565TIP3   OH253109   3.221   5.918  12.436  0.6531  0.8898 -1.0375
10565TIP3    H153110   3.266   5.843  12.474  0.5761  1.7253  0.7787
10565TIP3    H253111   3.290   5.968  12.392  1.1088  0.9124 -0.3141
10566TIP3   OH253112   5.153   1.080  14.059 -0.0557  0.0028  0.3972
10566TIP3    H153113   5.188   1.069  13.971 -0.8936  1.7932 -0.1800
10566TIP3    H253114   5.150   1.175  14.072 -1.5850 -0.2007  1.6834
10567TIP3   OH253115   2.471   5.907  14.007 -0.1617 -0.6756  0.5723
10567TIP3    H153116   2.443   5.875  14.093 -2.3549  2.5375  1.1022
10567TIP3    H253117   2.507   5.994  14.024  1.9271 -1.0999 -1.4119
10568TIP3   OH253118   1.195   4.899   1.721 -0.0807 -0.0175  0.2433
10568TIP3    H153119   1.264   4.834   1.736 -0.6961 -0.8266 -0.4250
10568TIP3    H253120   1.208   4.928   1.631 -1.7386 -1.5234 -0.5010
10569TIP3   OH253121   2.199   3.564   1.674 -0.2851  0.0418  0.6044
10569TIP3    H153122   2.119   3.589   1.628 -0.5661 -0.3695  0.8539
10569TIP3    H253123   2.216   3.474   1.645  2.2507  1.3849 -2.4098
10570TIP3   OH253124   1.504   5.887  11.360  0.4144 -0.2066  0.7240
10570TIP3    H153125   1.509   5.854  11.270 -0.3504  0.9896  0.2152
10570TIP3    H253126   1.460   5.818  11.409  0.1950 -0.5807  0.0141
10571TIP3   OH253127   3.815   1.279   1.255 -0.0572 -0.4220  0.9156
10571TIP3    H153128   3.859   1.361   1.233 -2.1669  0.0725 -1.7442
10571TIP3    H253129   3.867   1.211   1.211 -0.3014 -0.1260  0.1576
10572TIP3   OH253130   0.855   5.636  13.858 -0.5049 -0.5261 -0.4548
10572TIP3    H153131   0.856   5.611  13.951 -1.1774 -0.8005 -0.5173
10572TIP3    H253132   0.947   5.642  13.834 -0.2596  2.2707  0.9501
10573TIP3   OH253133   1.971   1.296   2.349 -0.4033  0.2653 -0.6736
10573TIP3    H153134   1.893   1.249   2.320  1.3911 -2.1493 -1.7667
10573TIP3    H253135   1.952   1.388   2.331 -2.1350 -0.4887 -2.9787
10574TIP3   OH253136   3.070   6.773   5.388  0.4563 -0.2203  0.1057
10574TIP3    H153137   3.090   6.861   5.419  1.4101 -1.0904  2.0845
10574TIP3    H253138   3.024   6.732   5.461  3.1733 -2.4951  0.6030
10575TIP3   OH253139   3.122   1.018   6.347 -0.1973  0.6362  0.2867
10575TIP3    H153140   3.203   0.975   6.319 -1.1438 -1.3139  0.4649
10575TIP3    H253141   3.133   1.031   6.442  0.0105  0.6164  0.2645
10576TIP3   OH253142   2.581   3.086  12.272 -0.4009  0.1238  0.0302
10576TIP3    H153143   2.596   3.055  12.361 -2.4750 -0.7921  0.0864
10576TIP3    H253144   2.558   3.178  12.282  1.7550  0.6680  0.2100
10577TIP3   OH253145   1.691   2.235  14.320 -0.6497 -0.6463  0.0896
10577TIP3    H153146   1.690   2.140  14.336 -0.8371 -0.8807 -1.2766
10577TIP3    H253147   1.725   2.244  14.231  2.5301  0.7587  1.3969
10578TIP3   OH253148   6.447   1.458   0.248  0.9132  0.2280  0.3346
10578TIP3    H153149   6.419   1.536   0.296  0.3270 -0.5372  1.2531
10578TIP3    H253150   6.374   1.440   0.188  0.9991  0.3241  0.2017
10579TIP3   OH253151   1.299   4.369  16.763  0.3507  0.6663  0.7595
10579TIP3    H153152   1.377   4.420  16.742  0.3236  0.6483  0.6203
10579TIP3    H253153   1.233   4.435  16.784  0.5846  0.6713  1.5048
10580TIP3   OH253154   0.004   6.608  15.395 -0.6195  0.3638  0.4241
10580TIP3    H153155  -0.085   6.643  15.396 -0.4285  0.8338  2.2246
10580TIP3    H253156  -0.005   6.518  15.427 -0.4838  0.3121  0.3176
10581TIP3   OH253157   6.254   2.833  17.223 -0.0023 -0.8333 -0.0575
10581TIP3    H153158   6.307   2.873  17.293  1.6842 -1.7066 -0.8224
10581TIP3    H253159   6.241   2.904  17.160  0.5912 -0.7301 -0.0637
10582TIP3   OH253160   4.503   2.261  15.360 -0.5586  0.8527 -0.3347
10582TIP3    H153161   4.502   2.176  15.316 -0.2758  0.0378  1.2021
10582TIP3    H253162   4.415   2.297  15.345 -0.4664  0.5964 -1.5548
10583TIP3   OH253163   2.466   2.940   4.502 -0.3589 -0.1886 -0.2019
10583TIP3    H153164   2.431   2.917   4.415 -1.2507 -0.6925  0.2813
10583TIP3    H253165   2.499   3.029   4.492  0.4751 -0.6125 -1.3324
10584TIP3   OH253166   1.949   0.233   0.869 -0.5997  0.3511  0.0653
10584TIP3    H153167   2.026   0.278   0.905  0.0731 -1.6652  1.2130
10584TIP3    H253168   1.949   0.257   0.776 -0.3959  2.8682  0.6696
10585TIP3   OH253169   0.351   6.512  11.784  0.1480  0.5607 -0.3595
10585TIP3    H153170   0.271   6.556  11.814  0.1804  0.1872  0.2843
10585TIP3    H253171   0.402   6.581  11.742  0.0623  1.0736  0.3719
10586TIP3   OH253172   5.297   1.008   1.915 -0.2634  0.1246 -0.2107
10586TIP3    H153173   5.321   1.050   1.832  0.6765 -0.7354 -0.3888
10586TIP3    H253174   5.230   0.944   1.890 -0.0378 -0.0785 -0.3005
10587TIP3   OH253175   0.773   4.205  13.608 -0.1261 -0.2722  0.3525
10587TIP3    H153176   0.762   4.118  13.571 -0.8468 -0.3167  0.6614
10587TIP3    H253177   0.761   4.264  13.533  0.9982 -0.4536  0.0189
10588TIP3   OH253178   4.549   6.077  16.035  0.1731 -0.1217 -0.5220
10588TIP3    H153179   4.511   6.030  15.960 -0.0612  0.3524 -0.7000
10588TIP3    H253180   4.552   6.168  16.007  0.1988  0.0396  0.0059
10589TIP3   OH253181   6.568   0.783  12.628  0.0768 -0.1384 -0.6098
10589TIP3    H153182   6.488   0.732  12.641  0.5328 -0.2210  2.2513
10589TIP3    H253183   6.593   0.810  12.716  1.5289  2.4664 -1.7728
10590TIP3   OH253184   1.183   0.215  15.876 -0.2186 -0.2409 -0.8607
10590TIP3    H153185   1.259   0.190  15.824  0.3929 -0.3832  0.0945
10590TIP3    H253186   1.144   0.288  15.827 -0.0269 -0.7931 -1.8485
10591TIP3   OH253187   6.286   6.524   4.993  0.4910 -0.4165  0.0394
10591TIP3    H153188   6.276   6.531   5.088  1.0032 -1.7354  0.2064
10591TIP3    H253189   6.216   6.464   4.966 -1.0016  1.6312 -0.7144
10592TIP3   OH253190   3.115   6.454   6.031  0.1044  0.0887  0.1529
10592TIP3    H153191   3.141   6.392   6.099 -0.3984 -0.5935 -0.2713
10592TIP3    H253192   3.086   6.532   6.080  0.4590 -0.1099  0.6907
10593TIP3   OH253193   1.028   2.451   1.454 -0.4013 -0.2229 -0.2118
10593TIP3    H153194   1.006   2.376   1.397  0.8443 -0.2785 -0.6333
10593TIP3    H253195   0.997   2.424   1.541 -2.7710  0.0575 -0.9112
10594TIP3   OH253196   0.382   6.361  16.959  0.0884 -0.6001 -0.1736
10594TIP3    H153197   0.346   6.424  17.022  0.6791  0.6669 -1.0669
10594TIP3    H253198   0.450   6.410  16.913  0.6595 -1.9538 -0.7915
10595TIP3   OH253199   6.731   5.475  16.389  0.0850  0.4012  0.5405
10595TIP3    H153200   6.686   5.501  16.469 -0.2997  1.1869  0.0758
10595TIP3    H253201   6.663   5.475  16.322  0.9039  2.4433 -0.3457
10596TIP3   OH253202   6.345   6.164   0.892  0.3222  0.2418  0.2266
10596TIP3    H153203   6.294   6.221   0.835  0.4190  0.5812  0.4752
10596TIP3    H253204   6.299   6.081   0.892 -0.0306  0.4382  0.1637
10597TIP3   OH253205   3.635   5.248   1.719 -0.0883  0.2841  0.4261
10597TIP3    H153206   3.622   5.255   1.813 -1.1897 -0.6505  0.3445
10597TIP3    H253207   3.548   5.232   1.683  0.5998 -1.2858 -0.5748
10598TIP3   OH253208   4.236   3.398   1.943  0.4135  1.1249 -0.1978
10598TIP3    H153209   4.262   3.306   1.940  0.5247  1.1998 -1.8192
10598TIP3    H253210   4.141   3.396   1.927  0.4435  1.3082 -0.3969
10599TIP3   OH253211   3.648   0.573  12.489 -0.3499 -0.5511 -0.4728
10599TIP3    H153212   3.560   0.598  12.460  0.0533  0.2987 -0.9363
10599TIP3    H253213   3.649   0.477  12.480 -0.3982 -0.3529 -2.7732
10600TIP3   OH253214   3.191   4.774   3.561 -0.2336 -0.7164 -0.1855
10600TIP3    H153215   3.131   4.708   3.525  0.1200 -1.1610  0.0369
10600TIP3    H253216   3.223   4.736   3.643 -0.9820  0.2644  0.5749
10601TIP3   OH253217   0.259   6.442   1.565 -0.3011 -0.0815 -0.3858
10601TIP3    H153218   0.268   6.403   1.479  0.7129 -1.4990  0.3505
10601TIP3    H253219   0.327   6.509   1.569  0.4819 -0.8822 -0.2229
10602TIP3   OH253220   0.331   3.074  12.190  0.0243 -0.5845 -0.4561
10602TIP3    H153221   0.306   2.990  12.228  0.8832 -0.6400 -0.0073
10602TIP3    H253222   0.307   3.067  12.098  0.2732 -1.3909 -0.4580
10603TIP3   OH253223   5.470   1.957   4.286 -0.7156 -0.0687  0.0214
10603TIP3    H153224   5.409   1.897   4.328 -1.4909  1.2129  0.7652
10603TIP3    H253225   5.515   2.000   4.359  1.7724 -1.6489 -0.5121
10604TIP3   OH253226   5.988   2.056  11.878  0.3703 -0.5786  0.7667
10604TIP3    H153227   6.025   1.979  11.835  0.6578 -0.6970  1.2235
10604TIP3    H253228   5.929   2.020  11.945  0.1662 -0.3948  0.6885
10605TIP3   OH253229   4.377   5.928   5.645 -0.5311 -0.1968 -0.0921
10605TIP3    H153230   4.307   5.988   5.672 -0.6444 -1.0766  1.6115
10605TIP3    H253231   4.457   5.979   5.651 -0.8987  0.5070 -1.0467
10606TIP3   OH253232   2.332   2.310  11.926  0.1757  1.2527  0.0605
10606TIP3    H153233   2.277   2.389  11.927  0.5500  1.5001  0.9080
10606TIP3    H253234   2.365   2.306  11.836 -1.9116  0.6217 -0.7330
10607TIP3   OH253235   5.228   2.135   0.965 -0.6935  0.9626 -0.3647
10607TIP3    H153236   5.276   2.179   1.036 -0.7907 -0.7182  0.7650
10607TIP3    H253237   5.278   2.156   0.886  1.4461 -0.0731  0.6707
10608TIP3   OH253238   3.485   0.442  13.705  0.2081  0.4824 -0.0899
10608TIP3    H153239   3.495   0.481  13.792 -0.4091  0.5865 -0.0592
10608TIP3    H253240   3.504   0.349  13.717 -1.0250  0.2763  0.4023
10609TIP3   OH253241   4.588   0.657  11.709 -0.5018 -0.0373 -0.1500
10609TIP3    H153242   4.509   0.655  11.763 -0.3594  0.4768  0.0812
10609TIP3    H253243   4.564   0.610  11.629 -1.3559  0.9907 -0.5142
10610TIP3   OH253244   5.978   4.313   2.619 -0.1372 -0.0694  0.0262
10610TIP3    H153245   6.014   4.394   2.584  0.1366 -0.5885 -0.9208
10610TIP3    H253246   5.924   4.340   2.693 -0.3818  1.0161 -0.5410
10611TIP3   OH253247   2.816   2.149  11.570  0.5004 -0.1598 -0.3568
10611TIP3    H153248   2.865   2.220  11.611  0.6718  0.5486 -1.7584
10611TIP3    H253249   2.883   2.090  11.536  0.3806 -0.0091 -0.8631
10612TIP3   OH253250   5.612   3.055  13.658  0.3427  0.1161  0.5741
10612TIP3    H153251   5.675   3.041  13.728  0.6046 -1.2767  0.0816
10612TIP3    H253252   5.638   2.992  13.590 -0.8562  0.3568 -0.1141
10613TIP3   OH253253   3.942   3.121   3.860 -0.2424 -0.0548  0.6267
10613TIP3    H153254   3.891   3.045   3.889  0.8464 -1.2050 -0.4042
10613TIP3    H253255   4.012   3.084   3.806 -0.1985  1.7565 -0.6206
10614TIP3   OH253256   6.200   4.950   3.664  0.2536  0.0175  0.0386
10614TIP3    H153257   6.181   5.043   3.649 -0.6218 -0.1181  0.2628
10614TIP3    H253258   6.145   4.905   3.600  0.4464 -0.3583  0.1397
10615TIP3   OH253259   0.474   3.338  13.514 -0.2969 -0.0375  0.4819
10615TIP3    H153260   0.435   3.346  13.427  0.2534 -0.0764  0.2277
10615TIP3    H253261   0.567   3.322  13.497  0.1197  1.5984  1.0796
10616TIP3   OH253262   5.061   1.419   1.143  0.0798  0.0736 -0.2438
10616TIP3    H153263   5.068   1.514   1.132  1.1182 -0.0156 -0.3629
10616TIP3    H253264   4.981   1.407   1.194 -1.0389  0.9049 -1.7551
10617TIP3   OH253265   4.635   1.642  17.198  0.4310 -0.2642  0.1993
10617TIP3    H153266   4.652   1.605  17.285 -1.0964 -0.1800  0.5514
10617TIP3    H253267   4.539   1.645  17.192  0.5306  0.7256 -1.0599
10618TIP3   OH253268   6.342   5.747   1.417 -1.0156  0.4027 -0.1671
10618TIP3    H153269   6.378   5.783   1.498  2.1708 -0.7727 -0.9736
10618TIP3    H253270   6.397   5.784   1.348  0.0982 -3.1273 -1.2835
10619TIP3   OH253271   2.271   0.896   4.347 -0.4695 -0.0104  0.4615
10619TIP3    H153272   2.296   0.922   4.259  0.5215 -0.8005  0.4983
10619TIP3    H253273   2.191   0.845   4.335 -0.0307 -0.5862 -0.0417
10620TIP3   OH253274   3.964   3.234   6.061  0.1811 -0.0193 -0.5993
10620TIP3    H153275   3.994   3.262   6.147  1.7546 -1.8528 -0.5256
10620TIP3    H253276   4.027   3.272   6.000 -0.3399  0.4245 -0.8623
10621TIP3   OH253277   6.251   4.899  17.113  0.1008  0.7305 -0.4458
10621TIP3    H153278   6.330   4.941  17.080 -0.4642  0.8271 -1.6937
10621TIP3    H253279   6.216   4.960  17.177  1.2886  0.4734  0.4660
10622TIP3   OH253280   3.528   3.859   0.794 -0.0665 -0.7698  0.0091
10622TIP3    H153281   3.439   3.832   0.773 -0.8006 -0.0491  2.0660
10622TIP3    H253282   3.581   3.781   0.776 -1.2687 -1.5537 -0.1926
10623TIP3   OH253283   0.132   5.474   0.499 -0.4448  0.1180 -0.0762
10623TIP3    H153284   0.137   5.381   0.475  0.6093  0.2818 -0.5273
10623TIP3    H253285   0.219   5.495   0.532  0.4367  1.7904 -3.2002
10624TIP3   OH253286   1.211   0.460   4.907 -0.5699 -0.8914 -0.2780
10624TIP3    H153287   1.190   0.473   4.814 -0.5282 -1.4993 -0.3696
10624TIP3    H253288   1.132   0.424   4.945 -0.7813 -0.0934  0.0476
10625TIP3   OH253289   3.700   3.436  14.339  0.2000 -0.3894  0.4957
10625TIP3    H153290   3.738   3.480  14.415  1.2175 -0.5546  0.1011
10625TIP3    H253291   3.653   3.505  14.293  0.5498 -0.0333  0.6640
10626TIP3   OH253292   3.838   2.556  16.741 -0.1478 -0.5456 -0.1374
10626TIP3    H153293   3.793   2.494  16.798  0.5620 -0.1863  0.8263
10626TIP3    H253294   3.787   2.555  16.660 -2.2510  0.2975  1.1207
10627TIP3   OH253295   5.568   5.281  13.932  0.9690  0.5779 -0.9434
10627TIP3    H153296   5.577   5.309  14.023 -0.7749 -0.0745 -0.5648
10627TIP3    H253297   5.658   5.274  13.900  1.5689  1.4382  0.5323
10628TIP3   OH253298   6.397   5.213  11.487  0.4694 -0.1139  0.3566
10628TIP3    H153299   6.340   5.185  11.559 -1.4496 -0.8883 -1.4291
10628TIP3    H253300   6.351   5.186  11.408  2.4495  0.9279 -1.1860
10629TIP3   OH253301   6.368   3.829  15.049 -0.4632 -0.2144 -0.0928
10629TIP3    H153302   6.435   3.770  15.013 -1.3634 -0.4050 -1.4562
10629TIP3    H253303   6.364   3.806  15.142  2.8219  1.1863  0.4642
10630TIP3   OH253304   3.138   4.637  11.151 -0.1352 -0.3091  0.6035
10630TIP3    H153305   3.060   4.596  11.115  0.5094  0.2446 -1.4711
10630TIP3    H253306   3.207   4.571  11.143 -0.1981 -0.5167  1.6959
10631TIP3   OH253307   5.006   2.948   5.311 -0.0613  0.3261 -0.4631
10631TIP3    H153308   4.945   2.995   5.254 -0.4092  1.8188  1.1219
10631TIP3    H253309   5.059   3.016   5.351 -1.3217 -0.4671  2.7563
10632TIP3   OH253310   4.593   3.608   3.340 -0.0936 -0.3922 -0.2164
10632TIP3    H153311   4.660   3.641   3.280  1.1276  1.9276  2.3470
10632TIP3    H253312   4.510   3.627   3.295  0.7858  1.2930 -1.1859
10633TIP3   OH253313   6.565   4.859  12.376  0.2724 -1.1783 -0.4555
10633TIP3    H153314   6.554   4.954  12.380  2.1677 -0.9337 -0.5436
10633TIP3    H253315   6.480   4.826  12.345  0.3160  0.6778 -2.7092
10634TIP3   OH253316   5.440   3.591   4.983 -0.4851  0.1573 -0.2682
10634TIP3    H153317   5.438   3.653   4.910  1.9064  0.6816  0.0976
10634TIP3    H253318   5.506   3.527   4.958 -1.8981 -1.4465  0.0363
10635TIP3   OH253319   5.049   3.527   2.383 -0.0006 -0.4953  0.0876
10635TIP3    H153320   5.065   3.460   2.316 -1.6283  0.9895 -1.8343
10635TIP3    H253321   5.113   3.507   2.452  1.5013 -2.2568 -1.7421
10636TIP3   OH253322   6.477   5.182   0.524 -0.4667 -1.0732  0.2296
10636TIP3    H153323   6.398   5.161   0.573 -0.2384 -1.4201  0.4436
10636TIP3    H253324   6.549   5.148   0.577 -0.0476  0.7451  0.8862
10637TIP3   OH253325   0.314   2.085   0.545 -0.1226  0.1020  0.0061
10637TIP3    H153326   0.288   1.995   0.562  0.5689  0.2946  2.3900
10637TIP3    H253327   0.317   2.093   0.450 -1.6792 -1.9388 -0.2270
10638TIP3   OH253328   4.625   2.757   5.439  0.6616 -0.5664  0.1838
10638TIP3    H153329   4.679   2.747   5.360  0.3820 -0.8783  0.0261
10638TIP3    H253330   4.653   2.685   5.496  0.5500 -0.6108  0.1820
10639TIP3   OH253331   5.121   5.343   0.154 -0.6290 -0.6732  0.1721
10639TIP3    H153332   5.032   5.378   0.150 -0.5732 -0.6251 -0.8002
10639TIP3    H253333   5.152   5.345   0.064  1.1488  1.3775  0.7846
10640TIP3   OH253334   1.266   1.677   4.163  0.0702  0.2038  0.4293
10640TIP3    H153335   1.315   1.647   4.239  0.4356 -1.1952 -0.3582
10640TIP3    H253336   1.190   1.721   4.200  1.8790  2.4094  1.6725
10641TIP3   OH253337   5.607   4.261  16.509  0.0260  0.0992  0.7594
10641TIP3    H153338   5.688   4.230  16.550  0.5719  0.0789 -0.3269
10641TIP3    H253339   5.636   4.308  16.431 -0.9282  1.3295  1.1236
10642TIP3   OH253340   5.683   1.236   0.741  0.7982  0.1710  0.7890
10642TIP3    H153341   5.649   1.238   0.830  0.1853  1.0152  0.5408
10642TIP3    H253342   5.667   1.324   0.706 -1.5844 -0.9417 -1.0946
10643TIP3   OH253343   2.161   6.423  13.158 -0.2862  0.6889  0.3604
10643TIP3    H153344   2.244   6.387  13.188 -0.7374 -0.6944 -0.0028
10643TIP3    H253345   2.180   6.455  13.069 -0.3949 -0.5701 -0.1182
10644TIP3   OH253346   2.577   6.267  14.024 -0.2369 -0.0635 -0.3429
10644TIP3    H153347   2.506   6.324  13.995  0.3303  1.0610  0.4897
10644TIP3    H253348   2.655   6.304  13.983  0.0119 -0.7621 -0.5074
10645TIP3   OH253349   2.917   6.004  13.409  0.5609 -0.2361 -0.1168
10645TIP3    H153350   3.001   5.963  13.386 -0.0467 -1.1832 -0.6624
10645TIP3    H253351   2.892   5.963  13.492  1.0034  0.6067  0.4425
10646TIP3   OH253352   4.007   0.082  10.809 -0.3730 -0.2746  0.0189
10646TIP3    H153353   3.960   0.164  10.823 -0.2432 -0.0197 -1.0329
10646TIP3    H253354   4.096   0.109  10.786 -0.4295 -0.6988 -0.7041
10647TIP3   OH253355   3.671   5.459   1.319  0.1694  0.3252 -0.0491
10647TIP3    H153356   3.687   5.454   1.413 -0.3774 -1.7239 -0.0311
10647TIP3    H253357   3.741   5.408   1.280  0.7332  1.6654 -0.8043
10648TIP3   OH253358   6.047   2.103  12.506  0.6923  0.1234 -0.2642
10648TIP3    H153359   5.972   2.124  12.450  0.1456  0.6256  0.6297
10648TIP3    H253360   6.124   2.121  12.452  0.1656 -0.2318 -1.1341
10649TIP3   OH253361   5.786   3.181   0.076 -0.2659  1.4488 -0.0908
10649TIP3    H153362   5.813   3.246   0.011  0.8473  0.1207 -0.9946
10649TIP3    H253363   5.859   3.175   0.137  0.0201  0.4136 -0.5189
10650TIP3   OH253364   2.633   6.298   5.402 -0.4019  0.0044 -0.3955
10650TIP3    H153365   2.686   6.243   5.345  1.0770  2.4134 -1.4494
10650TIP3    H253366   2.558   6.324   5.348 -1.0088 -0.8410  0.0418
10651TIP3   OH253367   3.280   1.052  12.646  0.1143 -0.1611  0.4597
10651TIP3    H153368   3.218   1.106  12.598 -0.8614 -1.5933  0.0981
10651TIP3    H253369   3.266   1.075  12.738 -0.4300  0.0668  0.3221
10652TIP3   OH253370   2.604   0.284  13.413  0.2714  0.4876 -0.3003
10652TIP3    H153371   2.658   0.363  13.419  0.0394  0.6119  0.1623
10652TIP3    H253372   2.515   0.318  13.406  0.3045  0.3023 -1.7789
10653TIP3   OH253373   4.695   6.623   0.153  0.0939 -0.2788  0.1999
10653TIP3    H153374   4.642   6.668   0.087  0.1973 -0.1836  0.1816
10653TIP3    H253375   4.779   6.608   0.110 -1.0511 -3.5978 -1.0124
10654TIP3   OH253376   1.633   3.740   3.154 -0.3074 -0.5781 -0.1161
10654TIP3    H153377   1.618   3.646   3.163 -1.6283 -0.2780  1.0392
10654TIP3    H253378   1.560   3.781   3.201  0.2298  1.0250 -0.6289
10655TIP3   OH253379   3.409   5.329  15.069 -0.2169 -0.2051 -0.4850
10655TIP3    H153380   3.475   5.315  15.001 -1.5438 -1.4072 -1.5591
10655TIP3    H253381   3.395   5.424  15.069  1.4946  0.0772 -0.2233
10656TIP3   OH253382   4.910   3.321  12.607  0.3754  0.1494 -0.2715
10656TIP3    H153383   4.844   3.284  12.548 -0.0872  0.0710  0.2917
10656TIP3    H253384   4.881   3.411  12.622  0.2218  0.0207  0.2212
10657TIP3   OH253385   2.246   4.669  14.692  0.5190  0.6437  0.0161
10657TIP3    H153386   2.275   4.639  14.778 -1.1142  2.0788  1.1045
10657TIP3    H253387   2.168   4.617  14.673  1.0955  0.0604 -0.7717
10658TIP3   OH253388   5.443   3.448   2.332 -0.9425 -0.2963  0.2897
10658TIP3    H153389   5.499   3.460   2.408  0.0427 -0.4768 -0.3890
10658TIP3    H253390   5.359   3.417   2.367 -0.0310 -1.8059  1.1648
10659TIP3   OH253391   3.717   3.275   1.246 -0.0961  0.1183 -0.4016
10659TIP3    H153392   3.734   3.266   1.339 -2.0367 -0.5359 -0.0747
10659TIP3    H253393   3.621   3.267   1.238  0.1557 -1.4522 -2.6035
10660TIP3   OH253394   3.239   0.218   0.856  0.4307  0.1386 -0.4660
10660TIP3    H153395   3.197   0.137   0.886 -0.5488  0.3928 -1.1375
10660TIP3    H253396   3.183   0.288   0.889  1.2651  0.5420  0.0936
10661TIP3   OH253397   2.496   1.906  15.004  0.6823  0.0913 -0.3822
10661TIP3    H153398   2.553   1.917  15.079 -0.0666 -1.8819  0.5235
10661TIP3    H253399   2.508   1.985  14.952  3.6081  0.0764  0.2048
10662TIP3   OH253400   6.655   2.919   1.084 -0.0477 -0.3448  0.0063
10662TIP3    H153401   6.602   2.995   1.059 -0.6414 -0.8294 -0.2442
10662TIP3    H253402   6.739   2.933   1.041  0.3422  0.8717  1.1247
10663TIP3   OH253403   0.217   0.045  16.591  0.5268 -0.4263  0.2158
10663TIP3    H153404   0.252  -0.026  16.644 -1.3389 -1.2241  0.4422
10663TIP3    H253405   0.148   0.084  16.645 -0.9271 -0.8089 -1.2965
10664TIP3   OH253406   0.486   5.538   1.349 -0.3191 -0.6346  0.0665
10664TIP3    H153407   0.401   5.533   1.305 -1.3141  1.9702  1.6283
10664TIP3    H253408   0.485   5.465   1.411 -1.5184 -0.4846  0.2385
10665TIP3   OH253409   2.334   5.059   4.828  0.0074  0.3704  0.6161
10665TIP3    H153410   2.331   5.152   4.803 -0.2164  0.2553  0.2022
10665TIP3    H253411   2.425   5.044   4.854 -0.3187  1.1056  2.2506
10666TIP3   OH253412   5.798   2.915   0.795 -0.1175  0.1931  0.1115
10666TIP3    H153413   5.859   2.978   0.833  0.4491 -0.0340 -0.4263
10666TIP3    H253414   5.824   2.831   0.833  0.3085 -0.0005 -0.6166
10667TIP3   OH253415   2.646   4.347   4.385  0.4443 -0.5610 -0.4505
10667TIP3    H153416   2.714   4.399   4.344 -0.2967  0.0023 -0.9775
10667TIP3    H253417   2.684   4.318   4.468  0.1785  2.4531  0.7785
10668TIP3   OH253418   1.025   4.971  13.412 -0.0728 -0.0256 -0.2718
10668TIP3    H153419   1.117   4.969  13.438 -0.5341 -1.5090  1.3114
10668TIP3    H253420   1.017   4.901  13.347 -0.0036  0.3902 -0.7340
10669TIP3   OH253421   3.971   2.265  16.117  0.0551  0.3467  0.3108
10669TIP3    H153422   3.984   2.171  16.101 -0.3780  0.4493 -0.6619
10669TIP3    H253423   3.901   2.269  16.181 -0.2948  0.0244 -0.0517
10670TIP3   OH253424   0.976   3.046  13.825 -0.6422  0.3845  0.3995
10670TIP3    H153425   1.063   3.054  13.862  0.0825  1.0106 -1.3677
10670TIP3    H253426   0.935   2.974  13.873  0.9964 -0.1890  0.9457
10671TIP3   OH253427   2.194   5.464  14.634 -0.2461 -0.1624 -0.4526
10671TIP3    H153428   2.246   5.402  14.684 -2.8632 -1.6915  0.4860
10671TIP3    H253429   2.162   5.414  14.559 -0.9407  0.5312 -0.6349
10672TIP3   OH253430   5.498   4.881   1.255  0.3606  0.4607  0.7079
10672TIP3    H153431   5.580   4.871   1.304 -0.0591 -3.2846  0.7714
10672TIP3    H253432   5.431   4.897   1.322  0.4427 -0.4104  0.9983
10673TIP3   OH253433   4.735   4.745   2.136 -0.3245  0.0141 -0.1223
10673TIP3    H153434   4.794   4.820   2.128 -0.3276 -0.1900 -2.2109
10673TIP3    H253435   4.652   4.783   2.165 -0.6085  0.9593 -2.1402
10674TIP3   OH253436   3.918   1.946  17.170 -0.0972 -0.7766  0.2988
10674TIP3    H153437   3.901   1.868  17.222 -1.5628 -2.3083 -2.4293
10674TIP3    H253438   4.011   1.940  17.147  0.1203 -0.9975  1.2244
10675TIP3   OH253439   6.203   3.489   4.792 -0.2869  0.2467 -0.3911
10675TIP3    H153440   6.125   3.507   4.845 -0.4220 -0.9759 -0.1562
10675TIP3    H253441   6.246   3.417   4.837  1.4661  1.4841 -0.0296
10676TIP3   OH253442   4.601   5.526   2.550  0.3952  0.1711  0.3116
10676TIP3    H153443   4.524   5.582   2.560  0.3685  0.1882  0.0008
10676TIP3    H253444   4.673   5.587   2.538  0.2300  0.1135 -0.9540
10677TIP3   OH253445   2.301   0.943  11.443  0.0035  0.3557 -0.3374
10677TIP3    H153446   2.379   0.981  11.484  0.5775 -0.0261 -1.0563
10677TIP3    H253447   2.302   0.851  11.469  1.2327 -0.2570 -2.4487
10678TIP3   OH253448   1.741   3.060   3.351  0.0016 -0.0063 -0.0568
10678TIP3    H153449   1.726   2.973   3.316  1.3061 -0.1461 -0.2767
10678TIP3    H253450   1.737   3.049   3.446 -0.4478 -0.1908 -0.0970
10679TIP3   OH253451   4.718   0.334  13.113 -0.2352  0.2096  0.3428
10679TIP3    H153452   4.711   0.363  13.204 -0.2178 -0.1485  0.4573
10679TIP3    H253453   4.711   0.415  13.062  0.9385  0.5423  0.7028
10680TIP3   OH253454   0.470   3.177   4.021 -1.2419  0.4288  0.5572
10680TIP3    H153455   0.522   3.241   4.069  3.2274 -2.2414 -0.4631
10680TIP3    H253456   0.466   3.101   4.080 -0.1737 -0.9800 -1.1297
10681TIP3   OH253457   4.258   1.063   5.113  0.1247 -0.0620 -0.7734
10681TIP3    H153458   4.315   1.132   5.080 -0.7176  0.3045 -1.4692
10681TIP3    H253459   4.219   1.024   5.035  1.7181 -2.3084 -0.4967
10682TIP3   OH253460   1.251   0.771  13.658 -0.0653  0.6552  0.2463
10682TIP3    H153461   1.324   0.779  13.597 -1.3800 -2.1157 -1.7609
10682TIP3    H253462   1.190   0.840  13.631  1.4066  2.5276  1.5024
10683TIP3   OH253463   1.321   5.700  12.888  0.3945  0.3725  0.0880
10683TIP3    H153464   1.251   5.638  12.867 -0.0004  0.0887  2.1947
10683TIP3    H253465   1.328   5.755  12.810 -1.3933 -0.3158 -0.5785
10684TIP3   OH253466   4.966   4.750  15.147  0.6010  0.1473  0.3137
10684TIP3    H153467   4.992   4.722  15.060 -1.3002  2.8578 -1.2068
10684TIP3    H253468   5.012   4.833  15.160  0.1061  0.2470  1.4726
10685TIP3   OH253469   4.711   3.135   3.599  0.6140 -0.0618  0.7246
10685TIP3    H153470   4.724   3.041   3.608  0.4734 -0.1015  0.5318
10685TIP3    H253471   4.756   3.158   3.517 -3.4914 -0.8343 -1.8997
10686TIP3   OH253472   3.265   6.075  16.995  0.5213  0.3774  0.3269
10686TIP3    H153473   3.285   6.064  17.088  1.1978  2.8422  0.5110
10686TIP3    H253474   3.201   6.146  16.993  1.2951  1.0518 -1.1451
10687TIP3   OH253475   3.416   5.862  16.072  0.3970 -0.5297 -0.1879
10687TIP3    H153476   3.375   5.837  15.989 -0.5947 -1.9088  0.7048
10687TIP3    H253477   3.395   5.791  16.132  1.3805  0.3027  1.1760
10688TIP3   OH253478   6.327   1.233   6.372 -1.1249  0.3646 -0.1084
10688TIP3    H153479   6.312   1.293   6.446 -1.9022 -0.2159  0.2197
10688TIP3    H253480   6.412   1.192   6.391 -0.6421  1.2904 -0.2845
10689TIP3   OH253481   4.943   6.258   0.174 -0.3245  0.3039 -0.5566
10689TIP3    H153482   4.857   6.226   0.204 -1.2083  2.1531 -1.0566
10689TIP3    H253483   4.923   6.336   0.122  1.7093  1.0433 -0.2689
10690TIP3   OH253484   5.876   6.334  11.267 -0.1302  0.4768  0.2034
10690TIP3    H153485   5.899   6.258  11.214 -1.3217 -0.9645  1.6793
10690TIP3    H253486   5.782   6.344  11.255 -0.2398  0.7502  1.2257
10691TIP3   OH253487   3.817   3.379   5.501 -0.3354  0.4109  0.1455
10691TIP3    H153488   3.735   3.429   5.505  1.4591  3.4368  0.0556
10691TIP3    H253489   3.838   3.375   5.407 -0.2763 -0.2167  0.1823
10692TIP3   OH253490   5.093   3.760   0.463  0.3285 -0.2509 -0.4781
10692TIP3    H153491   5.141   3.808   0.395  0.3099  1.1731  0.4988
10692TIP3    H253492   5.004   3.753   0.429  0.8925 -1.8067 -1.7355
10693TIP3   OH253493   4.070   2.352   4.848  0.0056  0.4335  0.0456
10693TIP3    H153494   3.991   2.383   4.806  1.8424  0.6414 -3.4505
10693TIP3    H253495   4.127   2.428   4.853 -0.1536  0.4258  3.0597
10694TIP3   OH253496   0.657   1.860   5.184 -0.0313 -0.5339  0.6837
10694TIP3    H153497   0.614   1.786   5.228  2.3262 -2.7199 -0.5253
10694TIP3    H253498   0.723   1.889   5.245 -1.1441  0.8007  1.2728
10695TIP3   OH253499   0.825   4.290   2.344 -0.3386 -0.7359 -0.2060
10695TIP3    H153500   0.822   4.355   2.414 -0.7599 -0.2935 -0.6312
10695TIP3    H253501   0.873   4.333   2.274  0.4104 -1.3148 -0.0588
10696TIP3   OH253502   6.623   6.767  16.917  0.8779 -0.4141 -0.1982
10696TIP3    H153503   6.673   6.748  16.997 -0.5662 -2.3567  0.2671
10696TIP3    H253504   6.596   6.681  16.885  1.0280  0.3774 -2.5391
10697TIP3   OH253505   5.585   1.689   0.515  0.3377  0.3752 -0.2179
10697TIP3    H153506   5.568   1.780   0.538 -0.6124  0.2408 -0.3733
10697TIP3    H253507   5.618   1.693   0.425  1.6766  0.6853  0.2834
10698TIP3   OH253508   3.823   0.299   3.118  0.0334  0.3299  0.8463
10698TIP3    H153509   3.730   0.289   3.139 -0.4593  2.1956 -0.3439
10698TIP3    H253510   3.831   0.262   3.030  0.3904  0.3186  0.8839
10699TIP3   OH253511   2.941   4.018  11.965  0.1875 -0.1780  0.2466
10699TIP3    H153512   3.022   4.056  12.001  1.5273  0.3631 -3.1776
10699TIP3    H253513   2.893   4.093  11.931 -0.7867 -0.7459  0.3722
10700TIP3   OH253514   6.012   5.701   3.496  0.3221  0.2912  0.1480
10700TIP3    H153515   6.107   5.695   3.509  0.7631  2.3119 -1.6977
10700TIP3    H253516   5.994   5.795   3.500 -1.1549  0.1488 -2.1915
10701TIP3   OH253517   2.691   0.233   4.781 -0.9312  0.4155  0.2643
10701TIP3    H153518   2.770   0.206   4.734 -0.8781 -0.1835  0.6826
10701TIP3    H253519   2.621   0.231   4.716 -0.7841 -0.0090  0.1190
10702TIP3   OH253520   3.517   0.263  11.741  0.1103 -0.4464 -0.3837
10702TIP3    H153521   3.606   0.298  11.744  0.4049 -1.1893 -0.4531
10702TIP3    H253522   3.524   0.176  11.780 -1.0119  0.3845  1.7484
10703TIP3   OH253523   6.751   0.117  16.182 -0.1212 -0.5549 -0.7110
10703TIP3    H153524   6.705   0.041  16.218 -1.6591 -0.1319 -1.7416
10703TIP3    H253525   6.683   0.167  16.137  0.6151  2.1236  1.0702
10704TIP3   OH253526   6.632   0.647  17.054 -0.3323  0.6697  0.8407
10704TIP3    H153527   6.557   0.596  17.022  1.4755 -1.0859 -0.6750
10704TIP3    H253528   6.613   0.737  17.025 -1.3675  0.0764 -0.3814
10705TIP3   OH253529   0.576   4.079   2.070  0.7984 -0.4422  0.6268
10705TIP3    H153530   0.640   4.077   2.141 -0.7133  1.0196  2.0599
10705TIP3    H253531   0.626   4.109   1.994  1.9246  0.2126  1.6098
10706TIP3   OH253532   4.861   0.286  13.815 -0.4236  0.6303 -0.4772
10706TIP3    H153533   4.804   0.346  13.767 -1.5929  0.3210  0.4827
10706TIP3    H253534   4.892   0.337  13.890 -0.8448  0.2603 -0.0481
10707TIP3   OH253535   4.200   6.254   1.912  1.0720  0.1128  0.0701
10707TIP3    H153536   4.117   6.290   1.880  1.2615  1.4242  1.0178
10707TIP3    H253537   4.227   6.194   1.843  0.8594  1.9443 -1.6839
10708TIP3   OH253538   1.069   3.220   1.251 -0.0986  0.2146  0.2234
10708TIP3    H153539   1.015   3.190   1.324 -2.3691  0.0636 -1.4668
10708TIP3    H253540   1.152   3.174   1.262 -1.0630 -1.2366  1.6622
10709TIP3   OH253541   1.751   0.693  12.816  0.4444 -0.0885 -0.3776
10709TIP3    H153542   1.701   0.775  12.816  0.7177  0.0792 -0.4303
10709TIP3    H253543   1.697   0.632  12.866  1.9115  1.1505  2.8520
10710TIP3   OH253544   6.112   2.118   4.431  0.1036 -0.5719  0.6737
10710TIP3    H153545   6.099   2.194   4.488 -1.4381  0.4438 -0.9736
10710TIP3    H253546   6.163   2.057   4.484 -0.6755  0.6296  2.8831
10711TIP3   OH253547   0.186   2.870   3.690  0.0449  0.0537  0.0910
10711TIP3    H153548   0.226   2.912   3.767  0.8432 -0.5477  0.0097
10711TIP3    H253549   0.105   2.832   3.723 -0.0569  0.5648  0.4428
10712TIP3   OH253550   2.774   1.846  16.035  0.1821 -0.6444  0.0596
10712TIP3    H153551   2.753   1.927  16.080  1.7211 -0.5551  0.6469
10712TIP3    H253552   2.716   1.845  15.959 -0.6334  0.4460  0.6529
10713TIP3   OH253553   3.222   5.777  15.551  0.1023  0.2253  0.0510
10713TIP3    H153554   3.253   5.695  15.512  1.1092  0.9638 -0.7292
10713TIP3    H253555   3.271   5.785  15.632  0.2279  0.2047 -0.0225
10714TIP3   OH253556   2.704   2.063   0.304  0.1639 -0.3350  0.6218
10714TIP3    H153557   2.622   2.097   0.269 -0.4163 -2.9993 -0.6936
10714TIP3    H253558   2.698   2.078   0.399 -1.7180 -0.2472  0.5046
10715TIP3   OH253559   4.681   3.753  15.965  0.1116 -0.4412  0.1603
10715TIP3    H153560   4.592   3.723  15.981  0.5590 -0.7476  2.2624
10715TIP3    H253561   4.706   3.712  15.882 -2.0915  0.5798 -1.0482
10716TIP3   OH253562   1.070   4.442  12.480 -0.1823 -0.1736  0.2276
10716TIP3    H153563   1.010   4.516  12.474  1.4060  1.0380 -1.0065
10716TIP3    H253564   1.057   4.395  12.397  0.3510 -0.0725  0.0866
10717TIP3   OH253565   4.385   2.336  11.214 -0.0795 -0.1770 -0.4989
10717TIP3    H153566   4.295   2.328  11.183  0.0231  2.1758 -1.5217
10717TIP3    H253567   4.437   2.291  11.148 -0.4115 -0.6242 -0.4570
10718TIP3   OH253568   2.803   3.580  11.274  0.6912  0.0387 -0.0875
10718TIP3    H153569   2.724   3.564  11.327  0.3698 -0.1057 -0.6032
10718TIP3    H253570   2.796   3.518  11.201  2.1744 -1.1838  0.8016
10719TIP3   OH253571   2.905   1.739  15.109 -0.3552 -0.2134  0.0825
10719TIP3    H153572   2.830   1.796  15.126 -0.1208 -0.0214  0.4760
10719TIP3    H253573   2.901   1.674  15.180  0.0875  0.0405  0.3410
10720TIP3   OH253574   6.281   5.653  14.611 -0.1284 -0.1978  0.2832
10720TIP3    H153575   6.255   5.571  14.653 -0.6704  0.2359  0.7866
10720TIP3    H253576   6.280   5.718  14.681 -0.6710  0.4506 -0.3195
10721TIP3   OH253577   5.466   0.146  17.180  0.0333  0.2302 -0.1118
10721TIP3    H153578   5.428   0.224  17.140 -1.1920 -1.1261 -1.6721
10721TIP3    H253579   5.504   0.177  17.263 -1.6838  2.2087 -0.0342
10722TIP3   OH253580   2.273   2.406  14.303  0.3029 -0.0238  0.1454
10722TIP3    H153581   2.246   2.476  14.363  0.2292 -1.1509  1.4680
10722TIP3    H253582   2.288   2.330  14.361  1.6950 -0.7185 -1.0958
10723TIP3   OH253583   3.446   4.009  12.059  0.5299  0.1509 -0.0872
10723TIP3    H153584   3.470   3.927  12.103  1.1583  0.2929 -0.1616
10723TIP3    H253585   3.446   4.075  12.129  0.6300  0.2030 -0.1355
10724TIP3   OH253586   2.470   2.628   2.611  0.2180 -0.0034  0.3132
10724TIP3    H153587   2.437   2.653   2.524 -0.2910 -3.2878 -0.5068
10724TIP3    H253588   2.397   2.579   2.650  1.1128 -0.0987  1.8766
10725TIP3   OH253589   3.315   0.293  14.375 -0.1012  0.0516 -0.4183
10725TIP3    H153590   3.349   0.339  14.452 -0.7639 -0.6928  0.3130
10725TIP3    H253591   3.225   0.324  14.366 -1.0233 -2.1731  0.9252
10726TIP3   OH253592   6.317   0.635   0.073  0.5788  0.3648 -0.2607
10726TIP3    H153593   6.306   0.577  -0.003 -1.7115  2.7805 -1.8633
10726TIP3    H253594   6.406   0.669   0.064  1.2218 -1.2711 -0.4126
10727TIP3   OH253595   0.472   4.353  14.034 -0.2140  0.4403 -0.1948
10727TIP3    H153596   0.473   4.324  14.125 -1.4595 -0.6021 -0.4884
10727TIP3    H253597   0.467   4.271  13.983  0.2823  1.0141 -1.1882
10728TIP3   OH253598   4.251   0.419  14.467 -0.1921 -0.2780 -0.4130
10728TIP3    H153599   4.294   0.378  14.392 -0.2847 -0.2033 -0.5075
10728TIP3    H253600   4.164   0.442  14.435  0.0720  0.5622 -0.5587
10729TIP3   OH253601   5.338   4.912   5.208 -0.5061  0.2501 -0.2588
10729TIP3    H153602   5.304   4.859   5.280 -0.7291 -0.7328 -1.0803
10729TIP3    H253603   5.367   4.993   5.250  0.6256 -0.8565  1.1290
10730TIP3   OH253604   1.700   1.788   3.361 -0.3363 -0.0724  0.1862
10730TIP3    H153605   1.791   1.768   3.338  0.1322  2.1615 -0.0531
10730TIP3    H253606   1.648   1.734   3.302  0.8532  0.4521 -1.3969
10731TIP3   OH253607   6.218   3.779   4.825  0.1759  0.1123  0.1150
10731TIP3    H153608   6.177   3.695   4.803  0.9349 -0.1228 -0.4151
10731TIP3    H253609   6.150   3.827   4.871 -0.2765 -0.7870  0.4012
10732TIP3   OH253610   4.488   0.820  16.536  0.1304 -0.6185  0.1586
10732TIP3    H153611   4.456   0.876  16.465 -3.2304 -0.8778  1.3648
10732TIP3    H253612   4.410   0.800  16.587  1.8398 -3.6305  1.7175
10733TIP3   OH253613   2.376   2.780  12.824  0.3075  0.3579  0.0202
10733TIP3    H153614   2.423   2.701  12.852  1.6827  1.1091 -0.1432
10733TIP3    H253615   2.425   2.812  12.749 -0.6907  0.9567 -0.3837
10734TIP3   OH253616   3.943   6.741   2.650  0.4772 -0.2759 -0.4550
10734TIP3    H153617   3.872   6.767   2.709 -0.1428 -2.1104 -0.3415
10734TIP3    H253618   4.022   6.772   2.693 -0.2297  1.6861 -0.5187
10735TIP3   OH253619   2.831   4.658   5.861 -0.4153  0.1007  0.1583
10735TIP3    H153620   2.764   4.706   5.812 -0.9974 -1.6134 -0.7493
10735TIP3    H253621   2.819   4.686   5.952 -0.3123  2.1569 -0.4356
10736TIP3   OH253622   4.488   4.208   6.199 -0.2765 -0.3027 -0.2414
10736TIP3    H153623   4.528   4.245   6.120 -0.8848  1.0495  0.0641
10736TIP3    H253624   4.546   4.233   6.270 -0.1956 -0.7565 -0.1452
10737TIP3   OH253625   5.821   6.490   2.078 -0.1643  0.5264 -0.5948
10737TIP3    H153626   5.796   6.552   2.147 -0.3006  0.2160 -0.3642
10737TIP3    H253627   5.850   6.545   2.006 -0.9914  0.8816 -0.6603
10738TIP3   OH253628   2.444   0.965  11.686 -0.0122 -0.5614 -0.2868
10738TIP3    H153629   2.463   0.872  11.698  2.9810  0.2128  1.6406
10738TIP3    H253630   2.362   0.980  11.733  0.7079 -1.7920  1.4110
10739TIP3   OH253631   4.663   0.392  15.968 -0.3100  0.6017  0.1634
10739TIP3    H153632   4.623   0.463  15.918 -0.4408  0.4751  0.0899
10739TIP3    H253633   4.704   0.337  15.902  0.6183  1.1295  0.2881
10740TIP3   OH253634   0.422   5.514   3.689  0.0162 -0.3861  0.1260
10740TIP3    H153635   0.456   5.594   3.728 -0.6763  0.5526 -1.1450
10740TIP3    H253636   0.490   5.486   3.628 -0.8086  0.6576 -1.3030
10741TIP3   OH253637   4.305   0.418   1.147 -0.1550  0.5270  0.1220
10741TIP3    H153638   4.215   0.445   1.129 -0.5887 -1.2482 -0.3941
10741TIP3    H253639   4.356   0.450   1.072 -0.2689  1.8973  0.6172
10742TIP3   OH253640   5.205   6.309  11.780  0.6592 -0.2831  0.2943
10742TIP3    H153641   5.246   6.249  11.842  0.9024 -1.4009 -0.9465
10742TIP3    H253642   5.242   6.286  11.695  0.1419  1.0797 -0.3119
10743TIP3   OH253643   4.886   0.157   2.999 -0.0993 -0.1933  0.3382
10743TIP3    H153644   4.912   0.133   3.088 -0.3934  1.1110  0.7827
10743TIP3    H253645   4.806   0.208   3.009  1.1752  2.0458 -0.4622
10744TIP3   OH253646   5.291   3.359  16.001 -0.1008  0.7700 -0.3716
10744TIP3    H153647   5.272   3.377  15.910  1.0172  1.9168 -0.3898
10744TIP3    H253648   5.348   3.281  15.999  0.7151  1.3733 -0.7137
10745TIP3   OH253649   6.671   3.520   3.901  0.0783 -0.2043 -0.0703
10745TIP3    H153650   6.635   3.450   3.846 -1.7514  2.2231 -2.0862
10745TIP3    H253651   6.596   3.555   3.948  1.4113 -1.3360  3.0668
10746TIP3   OH253652   3.743   1.972   5.282  0.4782  0.0309  0.3328
10746TIP3    H153653   3.656   1.935   5.274  0.9219 -0.7403 -1.2339
10746TIP3    H253654   3.777   1.938   5.365 -0.3253 -0.4750  0.4494
10747TIP3   OH253655   3.991   2.353  13.213 -0.0522 -0.3395  0.1126
10747TIP3    H153656   3.903   2.366  13.178  0.8323  0.6256 -1.8087
10747TIP3    H253657   4.023   2.441  13.233  1.1598 -0.5216 -0.9401
10748TIP3   OH253658   6.397   3.842   1.404  0.1967  0.1570 -0.2212
10748TIP3    H153659   6.460   3.862   1.474  0.5263 -2.0942  0.1822
10748TIP3    H253660   6.452   3.816   1.330 -0.2080 -0.8432 -0.1818
10749TIP3   OH253661   1.321   1.794   0.673 -0.3040  0.4743  0.1465
10749TIP3    H153662   1.397   1.849   0.692 -0.6317  1.9968 -2.6791
10749TIP3    H253663   1.322   1.784   0.578 -2.1021 -1.7634  0.3294
10750TIP3   OH253664   6.615   1.556  16.529  0.1320  0.4069  0.4502
10750TIP3    H153665   6.638   1.625  16.467 -2.2235  1.9919  1.2511
10750TIP3    H253666   6.681   1.563  16.598  0.4368  1.2503  0.0761
10751TIP3   OH253667   2.668   0.596   0.558  0.3995  0.5773  0.2909
10751TIP3    H153668   2.673   0.520   0.500  0.0181  0.3627  0.5429
10751TIP3    H253669   2.677   0.671   0.499  0.8402  0.3396  0.0490
10752TIP3   OH253670   0.311   1.697  12.661  0.0262  0.1964  0.0447
10752TIP3    H153671   0.277   1.720  12.574  0.1975  1.2540  0.2426
10752TIP3    H253672   0.248   1.737  12.721 -0.0128 -0.4120  0.4061
10753TIP3   OH253673   6.765   0.928   3.852  0.3877  1.0619  0.2851
10753TIP3    H153674   6.818   0.908   3.775 -0.0575  1.8096 -0.2293
10753TIP3    H253675   6.769   0.849   3.905 -1.1576 -0.3244 -1.5679
10754TIP3   OH253676   4.240   2.581  11.943  0.0001  0.1176  0.2500
10754TIP3    H153677   4.317   2.550  11.992  0.5430 -0.8506 -1.1535
10754TIP3    H253678   4.173   2.515  11.959 -0.1639  0.3543  0.5410
10755TIP3   OH253679   2.430   1.452  12.744  0.5628 -0.1458  0.9798
10755TIP3    H153680   2.393   1.400  12.814  1.2853 -0.0681  1.4227
10755TIP3    H253681   2.384   1.536  12.749 -0.4995 -0.6781  0.3553
10756TIP3   OH253682   4.797   5.991  14.758 -0.0257 -0.1671  0.1994
10756TIP3    H153683   4.748   5.957  14.832 -0.5034 -0.8476 -0.4169
10756TIP3    H253684   4.825   5.913  14.710 -2.5430  0.3025 -2.1372
10757TIP3   OH253685   6.131   0.741  15.631 -0.0519 -0.1429  0.2956
10757TIP3    H153686   6.091   0.789  15.703 -1.5149  1.1032 -1.3176
10757TIP3    H253687   6.213   0.787  15.613 -1.9601  2.5793 -1.9872
10758TIP3   OH253688   2.283   6.646  12.581 -0.6218  0.4596 -0.6918
10758TIP3    H153689   2.294   6.551  12.571 -0.6545  0.5462 -1.5977
10758TIP3    H253690   2.220   6.669  12.512 -1.2586  1.0048  0.0762
10759TIP3   OH253691   6.000   5.756  12.041  0.0698 -0.1275  0.0933
10759TIP3    H153692   5.932   5.790  11.984  0.3591  0.1858 -0.0629
10759TIP3    H253693   6.070   5.729  11.982  1.6014  2.9100  0.4699
10760TIP3   OH253694   4.755   3.191  12.986  0.2573 -0.9999 -0.0081
10760TIP3    H153695   4.842   3.190  12.946 -0.7628  0.3452 -2.3433
10760TIP3    H253696   4.728   3.099  12.986  1.5321 -1.3907  0.4431
10761TIP3   OH253697   5.399   3.094  12.551 -0.3211  0.3186 -0.3620
10761TIP3    H153698   5.407   3.187  12.574 -2.1175  0.8334 -1.7202
10761TIP3    H253699   5.330   3.092  12.485  0.4038 -1.8807 -1.0692
10762TIP3   OH253700   4.953   3.384  15.782 -0.1374 -0.2985 -0.6201
10762TIP3    H153701   4.926   3.451  15.845  0.8100  0.1699 -0.6922
10762TIP3    H253702   4.949   3.302  15.831 -0.5590 -0.0874 -0.2989
10763TIP3   OH253703   6.416   5.939  14.571 -0.1255  0.3144  0.4280
10763TIP3    H153704   6.410   5.930  14.476 -1.0243  0.8045  0.4318
10763TIP3    H253705   6.488   5.881  14.596 -0.8718 -0.9976 -0.3723
10764TIP3   OH253706   4.927   4.155  16.954  0.2454  0.0098 -0.2164
10764TIP3    H153707   4.844   4.143  16.908 -0.4899  1.3277  0.7653
10764TIP3    H253708   4.941   4.249  16.955  2.1012 -0.2186 -0.9494
10765TIP3   OH253709   3.060   2.493  16.565 -0.0782 -0.0132  0.0078
10765TIP3    H153710   3.101   2.498  16.651 -3.2398  1.2510  1.5387
10765TIP3    H253711   3.010   2.412  16.567 -1.8691  1.0506  0.2462
10766TIP3   OH253712   4.832   5.595  11.283  0.5483  0.7718 -0.5519
10766TIP3    H153713   4.893   5.526  11.258 -1.1918 -0.6655 -0.9150
10766TIP3    H253714   4.887   5.661  11.325  2.0628 -1.5083  1.1727
10767TIP3   OH253715   0.827   2.913   3.104  0.0757  0.0384  0.0751
10767TIP3    H153716   0.799   2.821   3.106  2.4922 -0.7245  1.2963
10767TIP3    H253717   0.882   2.922   3.181  1.2856  2.0640 -1.0056
10768TIP3   OH253718   3.186   2.075   1.690 -0.3401 -0.0414 -0.3669
10768TIP3    H153719   3.237   2.046   1.614  0.9230  1.6980 -0.2031
10768TIP3    H253720   3.114   2.126   1.652 -0.2492  0.0384 -0.4298
10769TIP3   OH253721   3.302   3.085   6.425 -0.3412 -0.1340  0.1760
10769TIP3    H153722   3.247   3.163   6.435 -0.6817 -0.1876 -1.1715
10769TIP3    H253723   3.382   3.117   6.384 -0.0933 -0.3386  0.4996
10770TIP3   OH253724   2.180   6.259   5.407  0.3482  0.2971  0.0368
10770TIP3    H153725   2.191   6.353   5.421 -2.2247  0.6653 -0.0637
10770TIP3    H253726   2.221   6.217   5.483  0.6700  1.5378  0.5486
10771TIP3   OH253727   3.062   1.467   1.675 -0.0539  0.0379 -1.0077
10771TIP3    H153728   3.106   1.538   1.628  0.2951  0.2507 -0.3610
10771TIP3    H253729   3.116   1.452   1.753  0.7212 -1.9490 -1.8801
10772TIP3   OH253730   3.217   4.029  17.218  0.0060  0.1925 -0.0065
10772TIP3    H153731   3.307   4.046  17.191 -0.2227 -0.7184 -1.3547
10772TIP3    H253732   3.167   4.103  17.183 -0.1521 -0.5512 -1.3945
10773TIP3   OH253733   0.402   5.408  12.866  0.0473 -0.6276 -0.0521
10773TIP3    H153734   0.393   5.359  12.947 -0.6922  0.4280  0.5086
10773TIP3    H253735   0.330   5.376  12.811 -1.0410  0.5295  0.6809
10774TIP3   OH253736   2.546   1.564   1.888 -0.3579  0.0526  0.1854
10774TIP3    H153737   2.574   1.518   1.966 -1.1191 -0.3629  0.2137
10774TIP3    H253738   2.623   1.614   1.861 -0.0684  0.1328  1.1446
10775TIP3   OH253739   2.288   3.721   2.986  0.6198 -0.4186 -0.0396
10775TIP3    H153740   2.211   3.724   2.930  0.0213  0.2322  0.7860
10775TIP3    H253741   2.254   3.736   3.074  1.7717  0.6589  0.2468
10776TIP3   OH253742   2.716   4.971   5.589 -0.4776 -0.0411 -0.3162
10776TIP3    H153743   2.682   5.029   5.521 -0.7449 -0.3781 -0.4692
10776TIP3    H253744   2.811   4.977   5.581 -0.5139 -0.5134 -1.0874
10777TIP3   OH253745   2.807   2.089   2.929  0.2671  0.2471 -0.0691
10777TIP3    H153746   2.755   2.026   2.879  0.0251  1.0338 -0.8346
10777TIP3    H253747   2.838   2.040   3.004 -0.7257 -0.5273 -0.1431
10778TIP3   OH253748   1.330   1.600   4.408  0.3185  0.1674 -0.6213
10778TIP3    H153749   1.257   1.658   4.429  1.5698  1.3355  0.6760
10778TIP3    H253750   1.321   1.526   4.468  0.7066  0.7654  0.1868
10779TIP3   OH253751   3.523   3.883  12.758 -0.3547  0.0177 -0.0505
10779TIP3    H153752   3.574   3.822  12.810  0.4632  0.6307 -0.1241
10779TIP3    H253753   3.513   3.960  12.815 -0.4618  0.2315 -0.3543
10780TIP3   OH253754   4.182   5.949   0.957  0.0489 -0.5329  0.3838
10780TIP3    H153755   4.118   5.943   0.886  0.0091 -0.9364  0.4512
10780TIP3    H253756   4.267   5.939   0.914 -0.0483 -2.3015  0.5733
10781TIP3   OH253757   2.650   6.374   3.690  0.7076 -0.1722 -0.2665
10781TIP3    H153758   2.654   6.465   3.660 -0.3560 -0.5719 -1.7092
10781TIP3    H253759   2.583   6.374   3.758  0.8662  0.1676 -0.1111
10782TIP3   OH253760   4.994   2.739   1.799 -0.0222  0.2042  0.3486
10782TIP3    H153761   4.960   2.768   1.883 -0.6590  1.2074 -0.2455
10782TIP3    H253762   4.916   2.715   1.748  0.3828 -0.9064  0.2186
10783TIP3   OH253763   0.359   3.909   3.029 -0.1513 -0.5843  0.2526
10783TIP3    H153764   0.281   3.926   3.082  0.0336 -2.0689  1.0297
10783TIP3    H253765   0.350   3.818   3.002 -0.1938  0.1083 -2.2343
10784TIP3   OH253766   5.691   2.736   0.105 -0.0217  0.5927 -0.3586
10784TIP3    H153767   5.722   2.731   0.195  0.1927 -1.3941 -0.5070
10784TIP3    H253768   5.637   2.657   0.094 -0.5744  1.1458 -1.7742
10785TIP3   OH253769   0.482   2.510   2.683 -0.2212  0.0994  0.7226
10785TIP3    H153770   0.512   2.498   2.593  0.3778 -3.1372  1.2720
10785TIP3    H253771   0.535   2.582   2.716  0.3793  0.5600 -1.1722
10786TIP3   OH253772   0.302   5.688  15.504  0.2418 -0.0703  0.5788
10786TIP3    H153773   0.236   5.622  15.526  0.3696 -0.3378  0.1545
10786TIP3    H253774   0.385   5.642  15.511  0.5668  0.7835  3.1837
10787TIP3   OH253775   5.245   6.457  12.601  0.2587 -0.4319 -0.2750
10787TIP3    H153776   5.261   6.385  12.662  1.1848  0.3603  0.4310
10787TIP3    H253777   5.182   6.513  12.647  2.7492  1.4178  1.0288
10788TIP3   OH253778   6.398   4.554  14.221  0.9124 -0.4620  0.2056
10788TIP3    H153779   6.350   4.476  14.194 -1.3952  0.8073  0.5693
10788TIP3    H253780   6.490   4.528  14.216  0.4070 -1.7955 -4.1269
10789TIP3   OH253781   0.370   0.043  13.369 -0.1382 -0.0586  0.6288
10789TIP3    H153782   0.456   0.082  13.383  0.3630 -0.9543  0.0885
10789TIP3    H253783   0.327   0.101  13.307 -0.1036  0.6450  1.2570
10790TIP3   OH253784   2.014   6.441  12.673 -0.1541 -0.0763 -0.0032
10790TIP3    H153785   1.929   6.447  12.716 -1.3249  1.6599 -2.4504
10790TIP3    H253786   2.010   6.359  12.624  0.0540 -0.5941  0.8390
10791TIP3   OH253787   2.313   3.970   0.978  0.4172  0.0705  0.3504
10791TIP3    H153788   2.369   3.933   0.910 -0.9889 -1.9381  0.2340
10791TIP3    H253789   2.322   3.910   1.052 -1.5974 -0.3458  0.2941
10792TIP3   OH253790   1.517   2.870  11.665  0.0709  0.6825  0.5968
10792TIP3    H153791   1.581   2.799  11.677 -0.2125  0.3834  0.3390
10792TIP3    H253792   1.539   2.933  11.734  0.5889  0.5386  0.5674
10793TIP3   OH253793   1.320   6.695   2.470  0.2010  0.3333  0.2594
10793TIP3    H153794   1.309   6.601   2.460  3.1354 -0.0729  0.4837
10793TIP3    H253795   1.319   6.729   2.380 -0.8136  0.1083  0.1771
10794TIP3   OH253796   0.624   5.125  15.116  0.2086 -0.0271 -0.5018
10794TIP3    H153797   0.546   5.172  15.146 -0.0905 -0.7098 -0.2202
10794TIP3    H253798   0.697   5.173  15.156 -0.2152 -1.5293  2.1818
10795TIP3   OH253799   6.227   1.851  15.458  0.2750 -0.1849  0.3143
10795TIP3    H153800   6.305   1.845  15.403  0.3234  1.0382  0.2453
10795TIP3    H253801   6.241   1.928  15.513 -0.3530 -0.6501  1.1485
10796TIP3   OH253802   3.014   1.063   2.390  0.0360  0.2953 -0.1257
10796TIP3    H153803   3.010   1.034   2.481  0.2711  3.3767  0.9080
10796TIP3    H253804   3.104   1.043   2.363  0.0712 -0.2890  0.4023
10797TIP3   OH253805   6.237   4.983   4.113  0.0214  0.0240 -0.4442
10797TIP3    H153806   6.221   4.941   4.198  0.2549  0.5850 -0.1226
10797TIP3    H253807   6.332   4.994   4.110  0.0876 -0.6686 -1.0982
10798TIP3   OH253808   4.523   6.779   4.771  0.2362 -0.5029 -0.1900
10798TIP3    H153809   4.470   6.779   4.851  1.1781 -1.5807  0.4417
10798TIP3    H253810   4.512   6.868   4.735 -0.6384 -0.1909  0.8212
10799TIP3   OH253811   4.542   3.749   4.747  0.2017 -0.4805 -0.2309
10799TIP3    H153812   4.558   3.657   4.730 -0.1923 -0.5865 -0.0531
10799TIP3    H253813   4.610   3.796   4.699  1.5132 -0.9389  1.1785
10800TIP3   OH253814   2.624   2.778   0.633 -0.2383  1.1409 -0.5923
10800TIP3    H153815   2.533   2.806   0.646  0.1115  1.6013  0.9827
10800TIP3    H253816   2.675   2.843   0.680  0.8645  0.4064 -0.7750
10801TIP3   OH253817   2.789   0.172   6.538 -0.4875 -0.4942  0.0081
10801TIP3    H153818   2.832   0.094   6.504 -1.3304 -1.6038  1.4347
10801TIP3    H253819   2.840   0.195   6.616  0.1845  0.8233 -0.7877
10802TIP3   OH253820   5.877   6.577   4.460  0.0348 -0.0688 -0.2447
10802TIP3    H153821   5.909   6.651   4.409  0.1554 -0.4984 -0.7950
10802TIP3    H253822   5.908   6.500   4.413  1.5087 -0.4698  1.3470
10803TIP3   OH253823   2.941   3.095  17.201  0.0685  0.1919 -0.9827
10803TIP3    H153824   2.882   3.164  17.231 -0.3070 -0.5148 -0.0523
10803TIP3    H253825   2.998   3.077  17.275  0.3282 -0.3191 -1.2984
10804TIP3   OH253826   2.906   3.688   4.082 -0.0520  0.5066  0.2273
10804TIP3    H153827   2.996   3.656   4.075 -0.3019  0.1489 -1.4354
10804TIP3    H253828   2.869   3.639   4.156  0.9994  0.3893  0.6804
10805TIP3   OH253829   0.806   6.604   2.438  0.2200 -0.2289  0.3544
10805TIP3    H153830   0.770   6.693   2.441 -0.0032 -0.3455  1.4420
10805TIP3    H253831   0.893   6.612   2.476  0.9744 -0.1330 -1.3464
10806TIP3   OH253832   0.608   2.911   5.460  0.2204  0.4771 -0.4188
10806TIP3    H153833   0.520   2.921   5.498  0.8505  1.3921  0.8525
10806TIP3    H253834   0.593   2.902   5.366 -1.3224 -0.7643 -0.0828
10807TIP3   OH253835   0.295   1.597   5.499 -0.1044  0.2747  0.2912
10807TIP3    H153836   0.200   1.610   5.495 -0.0951  0.4092  0.4736
10807TIP3    H253837   0.330   1.647   5.426 -0.2777 -0.8321 -0.5628
10808TIP3   OH253838   5.885   0.691  12.469  0.2273  0.1027  0.2852
10808TIP3    H153839   5.899   0.633  12.544  0.1764  1.0880  1.0738
10808TIP3    H253840   5.887   0.633  12.393 -0.3840 -1.0035  1.0989
10809TIP3   OH253841   6.500   0.574   3.997  0.1323  0.3114 -0.5754
10809TIP3    H153842   6.447   0.541   4.069  2.6477 -0.7384  0.8413
10809TIP3    H253843   6.493   0.507   3.930  1.7846 -1.0993  0.6427
10810TIP3   OH253844   1.910   2.363   4.887  0.4691 -0.1006  0.2235
10810TIP3    H153845   1.920   2.275   4.923  0.9842 -0.0256  0.2723
10810TIP3    H253846   1.863   2.411   4.955 -3.5226 -1.4033 -1.4839
10811TIP3   OH253847   2.057   0.160   4.646  0.2556  0.2285 -0.4971
10811TIP3    H153848   2.124   0.127   4.585 -1.6278 -0.1173 -2.4573
10811TIP3    H253849   1.976   0.116   4.618 -1.1069  1.8593  0.7672
10812TIP3   OH253850   5.901   1.163   5.750  0.0609  0.3065  0.5667
10812TIP3    H153851   5.938   1.224   5.815  3.0055 -1.0178  0.2313
10812TIP3    H253852   5.924   1.201   5.666 -0.2384  0.0030  0.3500
10813TIP3   OH253853   0.319   1.979   3.968  0.4999  0.0195  0.5191
10813TIP3    H153854   0.302   1.922   4.043 -2.0604 -0.1034 -0.1208
10813TIP3    H253855   0.315   2.068   4.003  3.0187 -0.0756  1.2154
10814TIP3   OH253856   2.572   1.259   3.430 -0.2453 -0.6520 -0.0121
10814TIP3    H153857   2.628   1.229   3.359 -0.8056 -1.0665 -0.2812
10814TIP3    H253858   2.595   1.203   3.504 -0.0127 -0.5445 -0.0005
10815TIP3   OH253859   0.723   3.332   3.569 -0.3248 -0.0492  0.3676
10815TIP3    H153860   0.725   3.295   3.657 -1.0040 -0.4681  0.2095
10815TIP3    H253861   0.640   3.301   3.532 -0.9552  1.7109  0.2729
10816TIP3   OH253862   4.141   0.590   5.135 -0.4887  0.8636 -0.3956
10816TIP3    H153863   4.226   0.574   5.094 -0.2207 -0.9486  0.8293
10816TIP3    H253864   4.083   0.523   5.098 -0.4733 -0.1909  1.4288
10817TIP3   OH253865   4.395   3.725  14.150  0.0232  0.3911 -0.0596
10817TIP3    H153866   4.316   3.673  14.132 -0.6518  0.8685  1.4717
10817TIP3    H253867   4.461   3.661  14.174 -0.5234  0.1432  0.8132
10818TIP3   OH253868   0.589   2.164  16.406 -0.0095 -0.0096  0.2442
10818TIP3    H153869   0.632   2.178  16.490 -1.0762 -0.1975  0.8213
10818TIP3    H253870   0.501   2.134  16.428  0.3431 -1.9937 -0.9326
10819TIP3   OH253871   5.305   1.637   0.529 -0.1937 -0.7798  0.0085
10819TIP3    H153872   5.280   1.549   0.501 -0.6692 -0.6565  0.0433
10819TIP3    H253873   5.395   1.648   0.498  0.3406 -1.7721  1.1549
10820TIP3   OH253874   1.159   6.298   5.664  0.0287 -0.3839 -0.6135
10820TIP3    H153875   1.083   6.347   5.631 -0.2492  1.2493  2.2200
10820TIP3    H253876   1.125   6.211   5.683 -0.8389 -0.0672 -0.6789
10821TIP3   OH253877   1.306   0.497  15.647  0.6500  0.2121  0.4618
10821TIP3    H153878   1.374   0.432  15.665  0.8721  0.5430  0.8224
10821TIP3    H253879   1.283   0.533  15.733  0.1483  0.2270  0.3211
10822TIP3   OH253880   3.427   0.639   0.227  0.0322 -0.3329  0.2191
10822TIP3    H153881   3.402   0.690   0.150 -0.9370  2.8248  2.4844
10822TIP3    H253882   3.522   0.649   0.232 -0.0148  0.2576 -0.0276
10823TIP3   OH253883   1.171   3.134   3.781  0.3290 -0.0457 -0.0629
10823TIP3    H153884   1.259   3.134   3.819  0.3546  0.7591 -0.1196
10823TIP3    H253885   1.132   3.052   3.813  1.1600 -0.5091 -0.2022
10824TIP3   OH253886   6.012   3.537   0.988  0.1754  0.1066  0.7726
10824TIP3    H153887   6.027   3.451   0.948  1.0323 -0.0224  1.3466
10824TIP3    H253888   6.046   3.528   1.077  0.4124  1.0891  0.7872
10825TIP3   OH253889   0.991   3.669  16.163 -0.3793  0.1791 -0.1000
10825TIP3    H153890   1.044   3.737  16.124  0.2630 -1.0471 -1.4076
10825TIP3    H253891   0.967   3.612  16.090  0.1829 -1.7162  1.1557
10826TIP3   OH253892   0.474   4.299  15.215 -0.0235  0.1304 -0.2647
10826TIP3    H153893   0.527   4.332  15.288 -1.0613 -0.5919  0.8379
10826TIP3    H253894   0.512   4.213  15.195 -0.3607 -0.1040  0.0926
10827TIP3   OH253895   5.833   0.202   6.483 -0.0876 -0.5363 -0.0773
10827TIP3    H153896   5.753   0.222   6.529  0.5057 -0.8100  1.0900
10827TIP3    H253897   5.817   0.116   6.443 -1.5204  0.8472 -2.5456
10828TIP3   OH253898   1.529   2.723  16.799 -0.1398 -0.4879  0.0545
10828TIP3    H153899   1.605   2.699  16.852  1.2860 -2.1516 -2.6111
10828TIP3    H253900   1.545   2.814  16.773  1.0044 -0.8337 -0.5122
10829TIP3   OH253901   0.752   5.682  14.148 -0.1286 -0.3752 -0.0448
10829TIP3    H153902   0.685   5.706  14.084  0.7237 -0.8748 -1.1453
10829TIP3    H253903   0.797   5.764  14.167  1.0199 -0.5828 -1.7453
10830TIP3   OH253904   1.890   3.620   3.130  0.1452 -0.6365  0.3614
10830TIP3    H153905   1.863   3.528   3.133  1.9981 -1.4789 -3.9914
10830TIP3    H253906   1.812   3.667   3.101  0.2162 -1.4086 -1.1209
10831TIP3   OH253907   1.028   1.866  11.758  0.2325 -0.3856  0.3971
10831TIP3    H153908   0.972   1.820  11.820 -2.0177  1.2574 -0.3265
10831TIP3    H253909   1.061   1.941  11.807 -1.0800  0.5940 -0.1970
10832TIP3   OH253910   3.448   2.569   2.348 -0.0770  0.7122 -0.7320
10832TIP3    H153911   3.393   2.533   2.418 -0.5556 -1.2063 -2.0254
10832TIP3    H253912   3.528   2.515   2.351  0.3319  1.3044 -0.9928
10833TIP3   OH253913   0.722   2.117   4.626 -0.3833  0.5071  0.3071
10833TIP3    H153914   0.711   2.200   4.671 -2.0942  0.7128 -0.4787
10833TIP3    H253915   0.770   2.063   4.689  0.9461  2.1395  0.7287
10834TIP3   OH253916   6.238   1.768   0.966 -0.2503 -0.9956 -0.1862
10834TIP3    H153917   6.296   1.749   0.892  0.1518 -1.8465  0.3350
10834TIP3    H253918   6.219   1.682   1.004  1.0890 -0.4471  1.8403
10835TIP3   OH253919   5.090   5.921   2.190 -1.2793  0.0286 -0.3085
10835TIP3    H153920   5.072   5.829   2.170 -0.7861  0.3108 -2.1505
10835TIP3    H253921   5.007   5.955   2.223 -0.9596 -1.5467  2.3023
10836TIP3   OH253922   3.785   5.752  13.682 -0.0343 -0.3215  0.0227
10836TIP3    H153923   3.773   5.700  13.602  2.4268 -0.6418 -0.1944
10836TIP3    H253924   3.782   5.688  13.753  0.5391 -0.4449 -0.0554
10837TIP3   OH253925   4.513   4.192  13.555 -0.5917 -0.0933 -0.4304
10837TIP3    H153926   4.438   4.230  13.601 -0.2415 -1.8571  1.7093
10837TIP3    H253927   4.481   4.110  13.519  0.4712 -1.2368  1.1585
10838TIP3   OH253928   2.961   6.733   4.719  0.6005  0.3738  0.0570
10838TIP3    H153929   2.917   6.759   4.800  2.1207 -2.2359  1.8066
10838TIP3    H253930   3.017   6.807   4.696 -0.1098  1.2686  1.1921
10839TIP3   OH253931   2.419   3.035   4.839 -0.6526 -0.2070  0.3179
10839TIP3    H153932   2.341   3.050   4.786 -1.1850 -1.4375  0.7155
10839TIP3    H253933   2.485   3.094   4.803 -1.6135  0.4653 -0.3631
10840TIP3   OH253934   4.746   6.273  12.974  0.7103 -0.4008  0.4978
10840TIP3    H153935   4.823   6.218  12.959  0.9261  0.4912 -1.8747
10840TIP3    H253936   4.762   6.351  12.921 -1.4820  0.1341  0.6041
10841TIP3   OH253937   6.284   1.420   1.752  0.1524 -0.3453  0.0308
10841TIP3    H153938   6.337   1.478   1.808 -0.7081  0.8521 -0.3871
10841TIP3    H253939   6.302   1.450   1.663 -0.4087 -0.6325 -0.1799
10842TIP3   OH253940   3.681   6.216   5.962 -0.1032 -0.0617  0.1385
10842TIP3    H153941   3.703   6.289   5.905 -0.8605  0.0225 -0.0622
10842TIP3    H253942   3.588   6.230   5.983 -0.7807 -1.9839 -1.4521
10843TIP3   OH253943   4.748   6.355   5.124  0.2503  0.3213 -0.4337
10843TIP3    H153944   4.819   6.294   5.140  0.4920  0.3525 -1.3746
10843TIP3    H253945   4.669   6.308   5.152  0.6871  0.4842  1.0968
10844TIP3   OH253946   1.142   1.358  14.809  0.3926  0.3755 -0.0838
10844TIP3    H153947   1.216   1.311  14.846 -0.1420 -3.0144 -3.0486
10844TIP3    H253948   1.160   1.450  14.828  3.2277 -0.7071  2.8824
10845TIP3   OH253949   3.743   5.306   2.729 -0.6270  0.0026 -0.1074
10845TIP3    H153950   3.765   5.399   2.741 -1.2374  0.0372  0.8481
10845TIP3    H253951   3.703   5.281   2.812 -1.9876 -0.6892 -0.9605
10846TIP3   OH253952   1.556   1.144   3.345 -0.1029 -0.5527 -0.4685
10846TIP3    H153953   1.583   1.196   3.420 -1.4608  0.3658 -0.5922
10846TIP3    H253954   1.460   1.144   3.349 -0.1736 -1.1093 -1.7770
10847TIP3   OH253955   4.360   4.137   5.735  0.2660  0.2529 -0.1510
10847TIP3    H153956   4.420   4.206   5.763 -0.4531  0.2837  1.4292
10847TIP3    H253957   4.273   4.176   5.745 -0.1195 -0.6610  0.1348
10848TIP3   OH253958   4.245   1.683  12.129 -0.1983 -0.5993  0.4473
10848TIP3    H153959   4.186   1.616  12.164  0.9923 -0.6815  2.3674
10848TIP3    H253960   4.289   1.718  12.206 -0.2836  1.9190 -0.6024
10849TIP3   OH253961   3.327   4.443   5.224 -0.6176  0.3934  0.1588
10849TIP3    H153962   3.321   4.499   5.302 -0.3042 -0.6392  0.9368
10849TIP3    H253963   3.277   4.490   5.157 -1.2669  1.0746  1.1056
10850TIP3   OH253964   0.199   5.134   0.977  0.5212 -0.1406 -0.6483
10850TIP3    H153965   0.120   5.186   0.994  0.7945 -0.1904  0.8994
10850TIP3    H253966   0.177   5.081   0.900 -0.5107  0.7448 -0.9689
10851TIP3   OH253967   4.809   3.234  15.012 -0.6255 -0.3840 -0.1412
10851TIP3    H153968   4.738   3.261  14.953 -0.1513 -0.3075 -0.6777
10851TIP3    H253969   4.768   3.233  15.098 -0.9682  0.8972 -0.2673
10852TIP3   OH253970   6.568   2.613   0.605  0.6603 -0.7710  0.0480
10852TIP3    H153971   6.563   2.677   0.533  1.5330 -0.3837  0.3251
10852TIP3    H253972   6.480   2.615   0.644  0.6858  0.2755  0.0641
10853TIP3   OH253973   0.608   4.802   4.680  0.0444  0.1403 -0.4134
10853TIP3    H153974   0.582   4.891   4.705  1.7316  0.4053  0.4827
10853TIP3    H253975   0.588   4.797   4.586  1.1976  1.9578 -0.7933
10854TIP3   OH253976   6.365   5.639   2.771 -0.4091 -0.0203 -0.6879
10854TIP3    H153977   6.433   5.707   2.770 -0.8980  0.4556 -2.5517
10854TIP3    H253978   6.307   5.664   2.843  0.8137  0.1026  0.2948
10855TIP3   OH253979   4.196   1.434  16.005  0.5538  0.6584 -0.7517
10855TIP3    H153980   4.247   1.434  15.925  0.1845  0.6082 -0.9884
10855TIP3    H253981   4.228   1.510  16.054  0.6969  0.7565 -0.9948
10856TIP3   OH253982   0.088   1.912  14.897 -0.1726 -0.2863  0.3620
10856TIP3    H153983   0.005   1.873  14.923  0.0355 -0.4208  0.8431
10856TIP3    H253984   0.150   1.882  14.964  0.1137  0.3812  0.3985
10857TIP3   OH253985   2.423   0.080  15.462  0.1013 -0.1577  0.1787
10857TIP3    H153986   2.375  -0.001  15.448  0.6536 -0.3304 -0.7816
10857TIP3    H253987   2.462   0.071  15.549 -1.7228  0.0613  1.0349
10858TIP3   OH253988   0.695   0.115   6.281 -0.2867 -0.2531 -0.1302
10858TIP3    H153989   0.654   0.169   6.214  0.4509  0.9675  0.3785
10858TIP3    H253990   0.631   0.046   6.300 -1.8442  1.2568  0.2198
10859TIP3   OH253991   6.564   4.397   1.714 -0.0443  0.2677 -0.4474
10859TIP3    H153992   6.636   4.445   1.674  0.9807 -1.1397 -0.3023
10859TIP3    H253993   6.512   4.365   1.640 -0.5850  1.3522 -0.5490
10860TIP3   OH253994   5.921   4.359  16.836 -0.2438  0.2401 -0.0649
10860TIP3    H153995   5.850   4.294  16.834 -0.6147  0.5640  1.7077
10860TIP3    H253996   5.993   4.316  16.789 -0.0713 -2.0010  2.1046
10861TIP3   OH253997   1.207   3.273   4.089 -0.1966  0.0403 -0.3313
10861TIP3    H153998   1.253   3.234   4.015 -1.0832  0.3207 -1.0301
10861TIP3    H253999   1.274   3.326   4.134  0.6576 -1.1404 -0.1844
10862TIP3   OH254000   5.997   6.159   1.919 -0.4097  0.6251  0.2083
10862TIP3    H154001   6.045   6.176   1.838  1.3273 -2.3006  0.5334
10862TIP3    H254002   6.034   6.222   1.982  0.7007  0.5954 -0.3950
10863TIP3   OH254003   4.807   1.696  14.843 -0.7074  0.2784 -0.0434
10863TIP3    H154004   4.888   1.743  14.823 -1.1146  1.7760  1.6790
10863TIP3    H254005   4.769   1.676  14.757  1.4882 -0.4780 -0.8701
10864TIP3   OH254006   6.631   2.088   4.430  0.0272  0.1106 -0.2498
10864TIP3    H154007   6.702   2.070   4.368 -0.9111  0.5614 -1.4891
10864TIP3    H254008   6.610   2.003   4.468  1.5071  0.0385  0.4552
10865TIP3   OH254009   6.672   3.692  12.184  0.3817  0.0968 -0.3464
10865TIP3    H154010   6.682   3.674  12.277 -0.9075  2.2713  0.2625
10865TIP3    H254011   6.601   3.635  12.155  0.4800 -0.2612  0.1223
10866TIP3   OH254012   5.077   1.063  11.825 -0.3413  0.8592  0.2043
10866TIP3    H154013   4.988   1.085  11.851 -0.2091 -0.1141  1.5354
10866TIP3    H254014   5.114   1.145  11.794 -1.1446  1.6388  1.2705
10867TIP3   OH254015   4.680   0.691   3.428 -0.0535  0.1794  0.0505
10867TIP3    H154016   4.760   0.649   3.398 -1.4174 -0.8684 -2.3119
10867TIP3    H254017   4.618   0.619   3.442 -0.9200  1.0374  0.7175
10868TIP3   OH254018   0.429   2.750  12.610  0.2098  0.3585  0.2894
10868TIP3    H154019   0.394   2.695  12.540 -0.1742 -0.1282  0.8661
10868TIP3    H254020   0.505   2.792  12.570 -0.2583  0.4224 -0.5591
10869TIP3   OH254021   2.025   3.111   1.641  0.3374  0.1276  0.0898
10869TIP3    H154022   2.094   3.113   1.575  0.7209  1.8403  0.5239
10869TIP3    H254023   1.954   3.163   1.603 -1.0611 -2.2224 -0.6753
10870TIP3   OH254024   2.851   5.874   1.928 -0.1679  0.0301  0.0615
10870TIP3    H154025   2.790   5.936   1.969  1.7124 -0.3245  3.6010
10870TIP3    H254026   2.895   5.832   2.002  1.7473 -2.3603 -2.3618
10871TIP3   OH254027   5.882   4.011   6.227 -0.2991  0.4658 -0.2414
10871TIP3    H154028   5.917   4.049   6.308  0.7413 -0.5933 -0.1817
10871TIP3    H254029   5.858   3.921   6.251 -1.4161  0.6291 -0.7314
10872TIP3   OH254030   0.479   1.246   4.881 -0.4639 -0.7080  0.2768
10872TIP3    H154031   0.533   1.249   4.801  0.8886 -1.2370  1.1526
10872TIP3    H254032   0.389   1.253   4.849  0.1906  2.4821 -1.0678
10873TIP3   OH254033   4.971   5.161  11.678 -0.5431 -0.1195  0.1778
10873TIP3    H154034   4.900   5.160  11.613 -0.4481 -0.4098  0.0822
10873TIP3    H254035   4.995   5.069  11.689  0.4900  0.0654 -0.5164
10874TIP3   OH254036   0.860   2.309  16.233  0.1945  0.0104  0.0379
10874TIP3    H154037   0.773   2.343  16.255  0.5239 -0.4274  2.0405
10874TIP3    H254038   0.920   2.358  16.289  1.1567 -0.3950 -0.6246
10875TIP3   OH254039   1.273   4.998  15.592  0.1549  0.1346  0.2893
10875TIP3    H154040   1.292   4.971  15.682  1.9386 -1.0338 -0.4160
10875TIP3    H254041   1.359   5.004  15.550 -0.8245 -3.0720 -2.3776
10876TIP3   OH254042   4.793   5.818  16.459  0.4271  0.6732  0.1031
10876TIP3    H154043   4.787   5.866  16.542 -1.6712  1.0131 -0.2075
10876TIP3    H254044   4.728   5.860  16.403  0.4397 -0.8396 -1.0678
10877TIP3   OH254045   6.044   5.775   0.126 -0.0434  0.6809  0.1471
10877TIP3    H154046   6.061   5.828   0.048 -3.4831  1.8537  0.0980
10877TIP3    H254047   6.028   5.687   0.093  0.4521  0.7409 -0.2644
10878TIP3   OH254048   4.147   0.847  14.643  0.0638  0.3189  0.0769
10878TIP3    H154049   4.219   0.853  14.579  0.1753  0.7039  0.2353
10878TIP3    H254050   4.177   0.781  14.706  0.0884  0.1598 -0.1045
10879TIP3   OH254051   3.820   1.259   4.062 -0.0650  0.5118  0.2678
10879TIP3    H154052   3.790   1.268   4.152 -2.3669  0.7868 -0.4943
10879TIP3    H254053   3.870   1.338   4.044 -2.0404  1.8329  0.4157
10880TIP3   OH254054   4.911   6.387   5.903  0.2208  0.0707 -0.1019
10880TIP3    H154055   4.987   6.430   5.942 -0.1187  0.6018 -0.0260
10880TIP3    H254056   4.854   6.458   5.874  0.4834 -0.3127 -1.6060
10881TIP3   OH254057   3.905   0.065   3.311 -0.0144 -0.7084 -0.7838
10881TIP3    H154058   3.902   0.133   3.379  2.4394  1.4439 -2.7260
10881TIP3    H254059   3.814   0.057   3.282 -1.0602 -1.3975  2.3967
10882TIP3   OH254060   6.553   0.513   3.361  0.4300  0.1883  0.2885
10882TIP3    H154061   6.619   0.502   3.429  1.1002  0.6375 -0.2877
10882TIP3    H254062   6.588   0.466   3.285  0.3692  0.9229 -0.2011
10883TIP3   OH254063   3.431   1.387   3.188  0.0954  0.0783  0.0234
10883TIP3    H154064   3.378   1.307   3.197  1.2402 -0.6891  0.0682
10883TIP3    H254065   3.395   1.447   3.253 -0.9477 -0.3025 -0.1933
10884TIP3   OH254066   2.091   3.206   4.304  0.1286 -0.0752 -0.8657
10884TIP3    H154067   2.053   3.188   4.390 -0.9161 -0.7092 -1.4387
10884TIP3    H254068   2.094   3.301   4.298 -0.0924 -0.0279 -0.2519
10885TIP3   OH254069   0.609   2.101   5.446 -0.1972  0.8368 -0.3776
10885TIP3    H154070   0.546   2.040   5.408  0.1334  0.3430 -0.1329
10885TIP3    H254071   0.635   2.157   5.373  0.8832 -0.4884 -1.0217
10886TIP3   OH254072   5.413   1.406  13.544 -0.6206 -0.0314 -0.5597
10886TIP3    H154073   5.319   1.417  13.527 -0.9830  0.6590  1.7023
10886TIP3    H254074   5.455   1.476  13.493 -1.5365  1.1777  0.3184
10887TIP3   OH254075   4.242   6.479  11.362 -0.5851 -0.1546  0.1539
10887TIP3    H154076   4.308   6.485  11.293 -0.2449 -1.1922  0.3843
10887TIP3    H254077   4.166   6.525  11.327 -1.1856 -2.5790 -1.8249
10888TIP3   OH254078   3.614   2.163   3.369 -0.2986 -0.2540  0.3198
10888TIP3    H154079   3.648   2.167   3.458  0.5824  0.4039 -0.0289
10888TIP3    H254080   3.685   2.123   3.318 -0.6159 -0.2158 -0.1575
10889TIP3   OH254081   0.051   6.741  12.185 -0.3099  0.2548 -0.2571
10889TIP3    H154082   0.129   6.750  12.130  1.0630  0.2560  1.6650
10889TIP3    H254083   0.000   6.820  12.166  1.6229  1.7710  0.7208
10890TIP3   OH254084   6.379   4.731   2.827 -0.0376 -0.3387  0.4409
10890TIP3    H154085   6.443   4.680   2.876  0.0479  0.4473  1.1598
10890TIP3    H254086   6.301   4.730   2.882  0.3915  1.4408  1.1232
10891TIP3   OH254087   1.003   3.982  11.642  0.1990 -0.0429 -0.0386
10891TIP3    H154088   0.935   3.973  11.709  1.3139 -2.0964  0.8796
10891TIP3    H254089   0.958   3.963  11.560 -0.3230 -1.6039  0.5813
10892TIP3   OH254090   5.342   5.325  11.887  0.2517  0.2155  0.3367
10892TIP3    H154091   5.407   5.278  11.939  1.4093  0.1329 -1.1661
10892TIP3    H254092   5.297   5.381  11.950  1.6692  0.1643  1.4119
10893TIP3   OH254093   6.561   0.495   0.957  0.3440 -0.1540 -0.4838
10893TIP3    H154094   6.583   0.406   0.984 -0.1124 -0.5562 -1.4112
10893TIP3    H254095   6.466   0.492   0.940  0.3323  0.4974 -0.5473
10894TIP3   OH254096   3.112   5.292   4.965  0.1794 -0.0431 -0.1578
10894TIP3    H154097   3.034   5.343   4.986 -0.0023 -0.3487 -0.0954
10894TIP3    H254098   3.169   5.353   4.918 -1.1854 -0.5623 -2.5318
10895TIP3   OH254099   5.169   1.051   6.334 -0.0058 -0.2465  0.0456
10895TIP3    H154100   5.118   1.098   6.267  2.5516  0.3393 -1.5580
10895TIP3    H254101   5.126   1.072   6.416 -2.6202 -0.1389 -1.2842
10896TIP3   OH254102   5.786   3.265  12.476  0.1322  0.0568 -0.7159
10896TIP3    H154103   5.762   3.356  12.492 -1.1664 -0.5270  0.7321
10896TIP3    H254104   5.834   3.268  12.393  2.7956  2.4665  0.8005
10897TIP3   OH254105   3.098   2.945  16.663  0.1151  0.3792  0.1653
10897TIP3    H154106   3.047   3.026  16.660 -1.2449 -0.4689 -0.0148
10897TIP3    H254107   3.042   2.883  16.710  1.2817 -0.3612  0.5893
10898TIP3   OH254108   3.751   5.500   0.749  0.2762 -0.0556  0.3661
10898TIP3    H154109   3.814   5.432   0.771  0.0109 -0.6605 -0.6931
10898TIP3    H254110   3.794   5.582   0.774  2.0627 -0.3468 -1.6402
10899TIP3   OH254111   4.336   1.520   1.048 -0.7677 -0.2577 -0.4896
10899TIP3    H154112   4.389   1.468   1.108 -0.4326 -0.9509 -1.3812
10899TIP3    H254113   4.394   1.541   0.975 -1.2633  0.3060 -0.7320
10900TIP3   OH254114   3.534   0.688   0.877 -0.2162 -0.7241  0.1002
10900TIP3    H154115   3.498   0.776   0.894  1.1145 -0.3088  0.7724
10900TIP3    H254116   3.482   0.630   0.933 -1.7029 -0.4899 -1.0144
10901TIP3   OH254117   4.281   4.817  16.491 -0.5276  0.3154 -0.4170
10901TIP3    H154118   4.295   4.723  16.481  0.0233  0.4065 -0.5512
10901TIP3    H254119   4.217   4.840  16.423 -0.5987  0.0524 -0.4371
10902TIP3   OH254120   3.297   4.451  13.949 -0.6015  0.5887  0.1144
10902TIP3    H154121   3.297   4.409  14.035  1.6594  1.8472  0.7532
10902TIP3    H254122   3.355   4.397  13.896 -1.0270  0.5239 -0.2961
10903TIP3   OH254123   5.047   2.129   5.669  0.0127 -0.0658  0.4858
10903TIP3    H154124   5.105   2.147   5.742  3.2731 -2.1692 -1.4407
10903TIP3    H254125   5.016   2.040   5.684  0.4222 -0.3795 -0.4715
10904TIP3   OH254126   6.015   3.150   5.759  0.4726 -0.2236  0.1443
10904TIP3    H154127   5.937   3.200   5.783  0.6918  0.4955 -0.6410
10904TIP3    H254128   6.088   3.199   5.797  0.4208 -1.9608  2.6272
10905TIP3   OH254129   4.505   2.290   4.243  0.5808 -0.3558  1.0308
10905TIP3    H154130   4.490   2.305   4.336 -0.5319  0.3103  0.7485
10905TIP3    H254131   4.543   2.372   4.211  0.5689 -0.4332  0.8139
10906TIP3   OH254132   0.557   4.924   1.828  0.2213  0.0571  0.3938
10906TIP3    H154133   0.634   4.868   1.826 -0.7704 -1.3915  1.7091
10906TIP3    H254134   0.501   4.892   1.757  1.0619  1.5083 -0.9689
10907TIP3   OH254135   5.057   5.924   1.295 -0.7262 -0.2478 -0.2949
10907TIP3    H154136   5.048   5.829   1.293 -1.7260 -0.1488 -0.9503
10907TIP3    H254137   4.967   5.957   1.291 -0.3863  0.7274 -0.1379
10908TIP3   OH254138   3.551   4.761  11.131  0.1691  0.1121 -0.0357
10908TIP3    H154139   3.537   4.850  11.099 -1.0900 -0.3484 -0.7767
10908TIP3    H254140   3.463   4.726  11.146  0.5155 -2.1410 -2.8958
10909TIP3   OH254141   6.044   3.152  13.846 -0.0989 -0.4511 -0.6208
10909TIP3    H154142   6.106   3.188  13.783 -0.3808  0.3187 -0.4731
10909TIP3    H254143   6.024   3.065  13.813  1.7132 -1.0486 -0.2029
10910TIP3   OH254144   3.097   2.678  15.569  0.3891 -0.2924 -0.2512
10910TIP3    H154145   3.058   2.641  15.649  0.8516 -0.3802 -0.0683
10910TIP3    H254146   3.079   2.771  15.574 -0.9492 -0.5050 -0.8019
10911TIP3   OH254147   0.413   3.890  12.594 -0.2209  0.1715  0.1265
10911TIP3    H154148   0.466   3.959  12.556  0.4506  0.4734  1.5750
10911TIP3    H254149   0.384   3.837  12.519  2.4102 -0.2134 -0.6593
10912TIP3   OH254150   2.153   3.696  15.137 -0.3276  0.0740 -0.5071
10912TIP3    H154151   2.129   3.626  15.076  2.4122  0.6832 -2.3800
10912TIP3    H254152   2.152   3.654  15.223 -1.6462 -1.4867 -1.2485
10913TIP3   OH254153   5.433   1.910  16.167  0.1868 -0.1435  0.0818
10913TIP3    H154154   5.373   1.913  16.242  0.5261 -0.2108  0.3580
10913TIP3    H254155   5.508   1.963  16.193  0.5910 -0.6826  0.0410
10914TIP3   OH254156   6.050   3.679   6.071 -0.4125  0.5850 -0.5724
10914TIP3    H154157   5.982   3.686   6.137 -0.2854 -1.3426 -0.2046
10914TIP3    H254158   6.130   3.662   6.120 -0.0128  0.9137 -1.1064
10915TIP3   OH254159   0.182   6.624  10.734  0.9154  0.2073  0.3288
10915TIP3    H154160   0.180   6.531  10.708 -0.0112  0.1647  0.5194
10915TIP3    H254161   0.119   6.666  10.676  0.0410  0.4009  1.3987
10916TIP3   OH254162   0.893   4.279  15.131 -0.3876 -0.7715  0.3673
10916TIP3    H154163   0.965   4.339  15.149 -0.1324 -1.4405  1.5989
10916TIP3    H254164   0.826   4.334  15.090  0.6393 -0.0657 -0.3803
10917TIP3   OH254165   5.306   3.169  12.255 -0.2988 -0.4598  0.7874
10917TIP3    H154166   5.349   3.245  12.214  1.9393 -1.9844  0.2299
10917TIP3    H254167   5.214   3.195  12.261  0.1252  1.6470 -0.9255
10918TIP3   OH254168   6.685   5.503   1.221  0.3095 -0.6047 -0.3615
10918TIP3    H154169   6.627   5.538   1.153 -0.6622  0.2273  0.8746
10918TIP3    H254170   6.626   5.472   1.289  1.3025  1.9335  1.7493
10919TIP3   OH254171   1.492   5.019  16.193  0.1715 -0.1709  0.0320
10919TIP3    H154172   1.565   5.081  16.191  0.9863 -1.0053  2.3229
10919TIP3    H254173   1.414   5.073  16.205  0.5521  0.6360 -1.1471
10920TIP3   OH254174   3.216   5.177  15.188 -0.2459 -0.3978 -0.5481
10920TIP3    H154175   3.282   5.240  15.159 -0.2993  0.3285  0.8562
10920TIP3    H254176   3.265   5.099  15.213  0.1601  0.3690  1.1055
10921TIP3   OH254177   5.639   3.908   4.597  0.1127  0.8834 -0.5481
10921TIP3    H154178   5.595   3.965   4.661 -1.0257  0.2105 -0.7196
10921TIP3    H254179   5.730   3.903   4.628 -0.3121  0.9596  0.7473
10922TIP3   OH254180   3.826   3.276  10.484 -1.2973 -0.1911 -0.3682
10922TIP3    H154181   3.748   3.276  10.539 -0.9580 -2.2514  0.1331
10922TIP3    H254182   3.893   3.319  10.537 -1.5840 -0.0923 -0.0855
10923TIP3   OH254183   4.378   0.969  13.578 -0.2084  0.2170  0.1562
10923TIP3    H154184   4.366   0.939  13.488  2.5844  0.5496 -0.3724
10923TIP3    H254185   4.394   0.889  13.628  2.3015  0.3632 -0.3801
10924TIP3   OH254186   6.017   2.024   4.854  0.1094  0.2909 -0.2499
10924TIP3    H154187   6.064   1.978   4.923 -1.6394  1.4179  1.7980
10924TIP3    H254188   6.084   2.070   4.804  1.4787 -1.2116  0.2007
10925TIP3   OH254189   6.176   2.120   5.777 -0.2092  0.5905 -0.0749
10925TIP3    H154190   6.191   2.095   5.686  0.9946 -0.9707  0.5246
10925TIP3    H254191   6.095   2.075   5.801  0.2699 -0.2089  0.0609
10926TIP3   OH254192   4.982   6.046   2.995 -0.0698  0.1882  0.0055
10926TIP3    H154193   4.896   6.037   2.956 -0.7789 -0.6975  1.7083
10926TIP3    H254194   4.999   5.962   3.037  1.4074  0.5194  0.1123
10927TIP3   OH254195   5.822   5.798  11.798  0.0712  0.3280  0.4196
10927TIP3    H154196   5.842   5.878  11.749  0.2216 -0.4982 -0.9152
10927TIP3    H254197   5.728   5.802  11.812 -0.2540 -0.1791 -1.3870
10928TIP3   OH254198   0.880   4.679  16.711 -0.5125  0.3720  0.3999
10928TIP3    H154199   0.857   4.760  16.756 -0.2917 -0.0705  1.3110
10928TIP3    H254200   0.850   4.609  16.769  0.5949 -0.2081  0.2938
10929TIP3   OH254201   3.951   0.800   1.063  0.0474  0.8481  0.2221
10929TIP3    H154202   3.996   0.834   1.141 -1.1199  2.7568  0.0815
10929TIP3    H254203   3.862   0.783   1.093 -0.2213  0.9253 -0.5362
10930TIP3   OH254204   4.300   3.947  14.638  0.1391 -0.1304 -0.3661
10930TIP3    H154205   4.228   3.926  14.698 -0.3294 -0.2647 -0.9735
10930TIP3    H254206   4.285   3.891  14.562  0.9900 -0.2902 -0.4192
10931TIP3   OH254207   4.921   0.650   2.500  0.0312  0.1688 -0.3182
10931TIP3    H154208   4.831   0.626   2.521 -0.0386  0.5463 -0.1902
10931TIP3    H254209   4.916   0.686   2.411  0.3326 -1.4774 -1.0255
10932TIP3   OH254210   0.721   0.162  14.204  0.5098 -0.1584 -0.0713
10932TIP3    H154211   0.665   0.223  14.156 -0.4446  1.0051  2.4487
10932TIP3    H254212   0.739   0.206  14.286  2.5036 -1.9166  0.4667
10933TIP3   OH254213   2.036   5.629   1.188  0.2242 -0.6703 -0.1342
10933TIP3    H154214   2.008   5.659   1.102  1.1560  0.3307 -0.1011
10933TIP3    H254215   1.956   5.602   1.232 -0.3440 -0.4528 -1.0337
10934TIP3   OH254216   2.385   6.700  13.898 -0.0064 -0.1300 -0.0300
10934TIP3    H154217   2.378   6.607  13.920  4.0167 -0.5673 -0.0809
10934TIP3    H254218   2.353   6.706  13.808 -0.8990 -1.3561  0.2021
10935TIP3   OH254219   3.764   1.685  14.960 -0.7958 -0.1470  0.2715
10935TIP3    H154220   3.840   1.647  14.915  0.0894  0.6967  1.0290
10935TIP3    H254221   3.689   1.648  14.915  0.0622  1.1082 -2.3459
10936TIP3   OH254222   4.380   2.420   2.095 -0.2901  0.1574  0.8337
10936TIP3    H154223   4.403   2.461   2.178  0.3608 -1.1071  1.2901
10936TIP3    H254224   4.453   2.440   2.037  0.5011 -1.1663  1.3489
10937TIP3   OH254225   3.615   3.452   3.776 -0.5066 -0.2145  0.0012
10937TIP3    H154226   3.552   3.422   3.711 -2.1550 -0.0312  1.4738
10937TIP3    H254227   3.701   3.430   3.738 -1.4288 -0.2397 -2.1268
10938TIP3   OH254228   1.694   2.482   0.517  0.4902  0.1732  0.6413
10938TIP3    H154229   1.743   2.564   0.507  0.4093 -0.1310 -2.5209
10938TIP3    H254230   1.759   2.413   0.512  0.1410 -0.1014 -0.1177
10939TIP3   OH254231   0.042   2.442  10.845  0.0156 -0.3053 -0.3312
10939TIP3    H154232   0.080   2.417  10.761 -0.4208 -2.1292  0.0022
10939TIP3    H254233  -0.041   2.396  10.849  0.0849 -0.3309  1.1525
10940TIP3   OH254234   5.365   4.799  12.693  0.8137  0.0362 -0.2726
10940TIP3    H154235   5.401   4.886  12.713  0.1484 -0.3722  2.8586
10940TIP3    H254236   5.433   4.738  12.722 -0.2908 -0.5963  0.9806
10941TIP3   OH254237   6.059   0.949  14.912  0.3145 -0.4325  0.6216
10941TIP3    H154238   5.967   0.971  14.897 -0.0420 -1.4449  1.2991
10941TIP3    H254239   6.076   0.976  15.002  0.5140 -0.7868  0.6907
10942TIP3   OH254240   6.550   2.163   5.074 -0.4735 -0.6455 -0.7462
10942TIP3    H154241   6.456   2.159   5.056 -0.5424 -1.2533 -0.2613
10942TIP3    H254242   6.558   2.148   5.168  0.0722 -0.0159 -0.6855
10943TIP3   OH254243   5.957   2.696   3.835  0.1836 -0.4463  0.2041
10943TIP3    H154244   6.021   2.651   3.779  1.2005  0.5688  0.5089
10943TIP3    H254245   5.962   2.650   3.919 -0.1709 -0.9629 -0.0569
10944TIP3   OH254246   1.801   1.025  16.319 -0.1995 -0.0267  0.0293
10944TIP3    H154247   1.709   1.038  16.345 -0.4191 -0.7635 -0.3515
10944TIP3    H254248   1.821   1.101  16.264 -1.4533 -1.2262 -2.1677
10945TIP3   OH254249   5.501   5.640  13.073  0.1140 -0.1484 -0.3383
10945TIP3    H154250   5.490   5.689  13.154 -2.6677 -2.9276  1.0832
10945TIP3    H254251   5.548   5.560  13.099  0.8439 -0.2187 -1.8130
10946TIP3   OH254252   5.638   5.561  12.445 -0.8729  0.0187  0.5113
10946TIP3    H154253   5.622   5.485  12.390 -0.1266  0.5866 -0.4888
10946TIP3    H254254   5.550   5.595  12.464 -1.0582  2.2511 -3.7386
10947TIP3   OH254255   1.371   0.709  13.293  0.5067  0.0175  0.0810
10947TIP3    H154256   1.458   0.687  13.326  0.6107  0.1053 -0.1406
10947TIP3    H254257   1.316   0.637  13.324 -0.1259  1.8992  3.6418
10948TIP3   OH254258   5.741   6.742   5.458 -0.0467  0.2992 -0.2672
10948TIP3    H154259   5.705   6.831   5.466 -1.7103 -0.3093 -0.8592
10948TIP3    H254260   5.691   6.702   5.387  0.4729 -1.2363  0.2161
10949TIP3   OH254261   2.689   5.030   4.261  0.2819 -0.2556  0.3841
10949TIP3    H154262   2.710   5.059   4.172  0.0549 -0.2053  0.3484
10949TIP3    H254263   2.689   5.110   4.313 -0.1500 -0.2167  0.3221
10950TIP3   OH254264   2.959   3.309  13.531  0.0002  0.1244 -0.0416
10950TIP3    H154265   2.957   3.267  13.445  1.2524  0.5796 -0.3042
10950TIP3    H254266   2.890   3.375  13.526 -0.2693 -0.1894 -0.5276
10951TIP3   OH254267   3.114   2.185   5.581  0.1039 -0.2661  0.2568
10951TIP3    H154268   3.091   2.234   5.503  0.0419 -1.2366 -0.3389
10951TIP3    H254269   3.050   2.213   5.647  0.0889  0.4650 -0.0715
10952TIP3   OH254270   3.765   0.043   6.563 -0.1601  0.0325  0.5792
10952TIP3    H154271   3.701   0.046   6.492 -0.9821  1.8857  1.3447
10952TIP3    H254272   3.747   0.122   6.614  2.3261  0.2303  1.1956
10953TIP3   OH254273   3.206   4.643   5.106 -0.2231  0.0983  0.2101
10953TIP3    H154274   3.222   4.684   5.021 -0.5339  0.9335  0.5464
10953TIP3    H254275   3.278   4.674   5.161  0.6707 -1.4201 -0.0693
10954TIP3   OH254276   5.006   3.490  11.145  0.3475 -0.3878 -0.0401
10954TIP3    H154277   5.049   3.410  11.115 -1.5646 -1.5031  0.1160
10954TIP3    H254278   4.975   3.532  11.064  1.0071 -0.0073 -0.0958
10955TIP3   OH254279   1.256   1.580  12.955 -0.0036 -0.2219  0.3731
10955TIP3    H154280   1.171   1.584  12.999 -0.5951  0.7563 -0.8010
10955TIP3    H254281   1.262   1.664  12.908  0.7601 -1.0589 -1.0578
10956TIP3   OH254282   2.452   2.305   6.848  0.4472 -0.1237 -0.2190
10956TIP3    H154283   2.470   2.216   6.817  0.9771 -0.1225  0.0746
10956TIP3    H254284   2.492   2.362   6.783 -0.5401 -0.0867 -0.8005
10957TIP3   OH254285   2.094   5.401   0.125  1.1923 -0.5159 -0.2750
10957TIP3    H154286   2.095   5.323   0.069 -2.2737 -0.2063 -0.8706
10957TIP3    H254287   2.081   5.474   0.064 -3.2032 -0.2152  0.8916
10958TIP3   OH254288   1.006   6.677   3.404  0.3156 -0.0784  0.0059
10958TIP3    H154289   0.994   6.619   3.328  0.2456  0.5438 -0.4615
10958TIP3    H254290   1.069   6.742   3.374  0.3910  0.0924  0.5366
10959TIP3   OH254291   3.629   4.671   2.687 -0.2277 -0.4093  0.0332
10959TIP3    H154292   3.710   4.721   2.671 -0.3589 -0.5522 -1.0779
10959TIP3    H254293   3.600   4.702   2.773  1.4502 -0.9534  0.8287
10960TIP3   OH254294   6.758   4.449   5.807 -0.1077 -0.3624  0.1658
10960TIP3    H154295   6.814   4.523   5.830 -1.1819  0.4730  0.1598
10960TIP3    H254296   6.798   4.374   5.851  1.7676 -0.0372 -0.9380
10961TIP3   OH254297   5.093   5.404   6.139 -0.3170  0.0235 -0.3644
10961TIP3    H154298   5.164   5.426   6.078 -1.7794  0.1782 -2.0375
10961TIP3    H254299   5.016   5.449   6.104 -0.8908  1.3494  2.4269
10962TIP3   OH254300   4.305   2.114   6.459  0.4747 -0.3398 -0.3129
10962TIP3    H154301   4.351   2.032   6.476  1.3965  0.2391  0.0016
10962TIP3    H254302   4.212   2.092   6.470  0.7211 -1.3043 -0.1031
10963TIP3   OH254303   5.484   6.643   5.828  0.5424  0.1942  0.0460
10963TIP3    H154304   5.440   6.606   5.905 -1.4535 -0.9354 -1.6051
10963TIP3    H254305   5.550   6.578   5.805  1.8901  1.0326  1.4061
10964TIP3   OH254306   4.882   5.510   5.141 -0.0100 -0.2971 -0.0717
10964TIP3    H154307   4.837   5.537   5.061  1.8016 -0.8927 -1.3284
10964TIP3    H254308   4.837   5.557   5.211 -2.4735 -0.7784 -1.2834
10965TIP3   OH254309   1.110   1.345   4.410 -0.5403  0.3053  0.2816
10965TIP3    H154310   1.035   1.312   4.460  0.1696  0.9959  1.8511
10965TIP3    H254311   1.103   1.440   4.417 -1.6289  0.4883 -2.7878
10966TIP3   OH254312   1.597   2.092   1.343 -0.7538  0.3189  0.3390
10966TIP3    H154313   1.595   2.159   1.275  0.1798 -1.0614 -1.0837
10966TIP3    H254314   1.533   2.027   1.315 -0.9036  0.0954  1.1762
10967TIP3   OH254315   2.737   5.667  11.659  0.3123  0.4971 -0.3564
10967TIP3    H154316   2.817   5.628  11.694 -0.4709  1.7906  3.0930
10967TIP3    H254317   2.674   5.595  11.658  0.4623  0.3382  0.6144
10968TIP3   OH254318   5.701   0.825  16.375  0.8090 -0.1676 -0.2514
10968TIP3    H154319   5.723   0.807  16.467 -0.7514 -0.2581  0.1270
10968TIP3    H254320   5.762   0.771  16.325 -0.7095 -2.9359  0.8003
10969TIP3   OH254321   2.028   0.349  14.626 -0.3104 -0.0693 -0.2851
10969TIP3    H154322   1.932   0.348  14.632 -0.3189 -1.5118 -0.5074
10969TIP3    H254323   2.047   0.357  14.533 -0.1835  2.8283 -0.0671
10970TIP3   OH254324   3.502   3.256  13.546 -0.2006  0.3654 -0.4508
10970TIP3    H154325   3.490   3.249  13.641 -3.4457 -1.7457 -0.9215
10970TIP3    H254326   3.554   3.179  13.523 -1.5221 -0.4742 -0.6665
10971TIP3   OH254327   5.215   2.330  15.708  0.4212 -0.1223 -0.0194
10971TIP3    H154328   5.202   2.340  15.802 -1.0311  1.2528 -0.3644
10971TIP3    H254329   5.143   2.274  15.679 -1.0895  2.1919 -0.8502
10972TIP3   OH254330   2.291   1.907   2.388 -0.3949 -0.1305 -0.5055
10972TIP3    H154331   2.284   1.960   2.309 -3.6980 -2.3799 -1.8155
10972TIP3    H254332   2.263   1.820   2.361 -0.5354 -1.2265  2.9260
10973TIP3   OH254333   5.190   2.918  10.505  0.4463  0.1296 -0.4746
10973TIP3    H154334   5.173   2.823  10.499  2.2405 -0.1423 -1.5081
10973TIP3    H254335   5.281   2.928  10.477  1.0302  1.9153  1.9189
10974TIP3   OH254336   4.084   1.214   5.923 -0.3122  0.1622 -0.5991
10974TIP3    H154337   4.121   1.273   5.857  0.7364  1.8321  1.4121
10974TIP3    H254338   4.132   1.132   5.913  0.4407  0.6886 -1.3148
10975TIP3   OH254339   1.802   0.334  16.230 -0.3184  0.6132 -0.2077
10975TIP3    H154340   1.858   0.370  16.160 -1.9918  1.0883 -1.3325
10975TIP3    H254341   1.728   0.394  16.234  0.3363  1.3118  2.8783
10976TIP3   OH254342   0.993   4.303   0.500 -0.0679  0.0603  0.5232
10976TIP3    H154343   1.031   4.264   0.578 -0.0912 -3.2798 -1.0411
10976TIP3    H254344   0.902   4.320   0.524 -0.1957 -1.3586  1.0960
10977TIP3   OH254345   1.135   6.045   5.794 -0.3575 -0.0003 -0.2915
10977TIP3    H154346   1.072   6.009   5.857 -1.1606  0.7793 -0.6418
10977TIP3    H254347   1.218   6.048   5.842 -0.7016 -0.5527  0.3407
10978TIP3   OH254348   4.226   3.129   3.995  0.1564 -0.0686 -0.2490
10978TIP3    H154349   4.190   3.194   4.055  0.1259  0.5953 -0.9723
10978TIP3    H254350   4.264   3.181   3.924 -1.2119 -0.8955 -1.5959
10979TIP3   OH254351   1.644   4.188  13.531 -0.0485 -0.5280 -0.7291
10979TIP3    H154352   1.732   4.221  13.511 -0.1708  1.1109  1.1702
10979TIP3    H254353   1.653   4.093  13.531  2.0354 -0.3685  0.6427
10980TIP3   OH254354   6.348   4.021  14.842  0.1342  0.1537  0.6888
10980TIP3    H154355   6.253   4.030  14.833  0.0073 -0.2447  1.5787
10980TIP3    H254356   6.359   3.951  14.907  1.0509 -1.2749 -0.9560
10981TIP3   OH254357   5.966   5.519   0.036  0.5558  0.0846 -0.1851
10981TIP3    H154358   5.983   5.445  -0.023 -1.6444  0.4171 -1.2901
10981TIP3    H254359   5.887   5.494   0.084  1.0037  0.8309  0.9543
10982TIP3   OH254360   6.020   1.649   1.294 -0.5135  0.3244  0.0928
10982TIP3    H154361   6.071   1.614   1.221 -1.6436  0.8399 -0.9850
10982TIP3    H254362   6.028   1.583   1.363 -0.0799 -0.5682 -0.7895
10983TIP3   OH254363   0.619   1.896  15.205 -0.2944  0.0736  0.7577
10983TIP3    H154364   0.629   1.938  15.120 -2.9942 -1.4976 -0.4313
10983TIP3    H254365   0.697   1.841  15.215 -0.1139  0.0130 -0.8800
10984TIP3   OH254366   1.034   5.587  14.555 -0.1932 -0.0217  0.0875
10984TIP3    H154367   1.105   5.535  14.593 -0.5101 -0.9811 -0.5915
10984TIP3    H254368   1.019   5.547  14.469 -1.5079  0.2102  0.1937
10985TIP3   OH254369   0.998   0.253  12.259  0.0925  0.2595 -0.2021
10985TIP3    H154370   0.912   0.293  12.249 -0.4467 -0.7345  0.3336
10985TIP3    H254371   1.000   0.221  12.349  0.7799 -0.2672 -0.3972
10986TIP3   OH254372   3.352   2.022   1.043  0.0272  0.2611  0.4558
10986TIP3    H154373   3.310   1.950   0.995  2.0739 -0.8364  0.2860
10986TIP3    H254374   3.412   2.061   0.979  0.8987  0.4106  1.3607
10987TIP3   OH254375   4.337   3.922   3.814 -0.4604  0.7901  0.4160
10987TIP3    H154376   4.280   3.897   3.887  0.4298  0.4126  0.9881
10987TIP3    H254377   4.290   3.993   3.770 -1.8792 -0.2437  0.2326
10988TIP3   OH254378   5.061   3.855   5.095 -0.3694  0.5040  0.6697
10988TIP3    H154379   5.063   3.774   5.044 -0.3165  1.7756 -1.4381
10988TIP3    H254380   5.100   3.832   5.179 -1.3102 -1.8927  0.4978
10989TIP3   OH254381   0.372   5.860   5.276 -0.0493 -0.0686 -0.0253
10989TIP3    H154382   0.430   5.786   5.259 -0.0982  0.2803 -1.7771
10989TIP3    H254383   0.427   5.937   5.262 -0.0559  0.2520  1.5802
10990TIP3   OH254384   3.355   3.446  14.389 -0.8369 -0.2731 -0.5196
10990TIP3    H154385   3.310   3.526  14.418 -0.6207 -0.1936 -0.4004
10990TIP3    H254386   3.313   3.376  14.438 -1.9831 -0.4046 -1.6384
10991TIP3   OH254387   5.731   5.214  12.419  0.2988  0.0400 -0.3912
10991TIP3    H154388   5.708   5.288  12.363 -0.7073 -1.9010 -2.6387
10991TIP3    H254389   5.825   5.225  12.436 -0.0923  2.4616  0.3385
10992TIP3   OH254390   5.224   1.820  16.990 -0.1513  0.1958  0.0364
10992TIP3    H154391   5.210   1.915  16.991  2.2020  0.6012 -1.7780
10992TIP3    H254392   5.202   1.793  16.901 -1.9070 -1.1751  0.8483
10993TIP3   OH254393   0.085   0.414   5.721  0.3022  0.0685  0.3825
10993TIP3    H154394   0.140   0.375   5.654 -1.0283  1.3883 -1.5338
10993TIP3    H254395   0.044   0.340   5.765 -2.3981 -0.7685 -3.3465
10994TIP3   OH254396   1.846   0.026   5.677  0.4287  0.3176 -0.5445
10994TIP3    H154397   1.756   0.050   5.698  0.7192 -0.4860  1.7606
10994TIP3    H254398   1.896   0.106   5.693  0.5730 -0.1463  1.4580
10995TIP3   OH254399   2.872   4.223   0.781  0.2408 -0.0883  0.0187
10995TIP3    H154400   2.877   4.261   0.693  0.9702 -2.2954 -0.9218
10995TIP3    H254401   2.797   4.266   0.822 -0.5741  0.4053 -1.9532
10996TIP3   OH254402   5.538   4.002   1.490  0.5447 -0.6104  0.0462
10996TIP3    H154403   5.489   4.082   1.509  1.4693  0.2813 -1.2108
10996TIP3    H254404   5.481   3.931   1.521 -0.2491  0.5252  1.2501
10997TIP3   OH254405   6.326   3.369  13.918 -0.0515 -0.4124 -0.1178
10997TIP3    H154406   6.329   3.325  13.833 -1.6541 -1.2553  0.2509
10997TIP3    H254407   6.272   3.312  13.973 -1.5378  1.6198  0.5943
10998TIP3   OH254408   6.371   3.076  11.821 -0.3682 -0.0423  0.3539
10998TIP3    H154409   6.371   3.096  11.728 -0.6076 -1.7257 -0.0206
10998TIP3    H254410   6.336   3.155  11.862  0.8562  1.1603 -0.8594
10999TIP3   OH254411   4.499   3.902   6.291  0.0187  0.0846  0.1287
10999TIP3    H154412   4.414   3.922   6.331 -0.1282  0.9817 -0.6189
10999TIP3    H254413   4.563   3.943   6.348  0.1412 -2.6060  2.0336
11000TIP3   OH254414   3.280   3.757  17.026  0.0676 -0.2534 -0.2735
11000TIP3    H154415   3.202   3.723  16.981 -1.1039  2.2586 -0.2665
11000TIP3    H254416   3.310   3.829  16.970  1.4129 -0.1692  0.5496
11001TIP3   OH254417   0.353   5.996   4.372 -0.0085  0.0580  0.2311
11001TIP3    H154418   0.425   5.991   4.308 -0.3178 -1.3153 -0.0056
11001TIP3    H254419   0.386   6.056   4.440  0.8762  0.4002 -0.4900
11002TIP3   OH254420   1.817   6.386  17.186 -0.3313  0.2101 -0.3680
11002TIP3    H154421   1.770   6.309  17.216  2.8973 -0.8935  2.1726
11002TIP3    H254422   1.802   6.452  17.254 -0.6378  0.8423 -1.0368
11003TIP3   OH254423   4.651   5.929  15.675  0.0582 -0.1747  0.1002
11003TIP3    H154424   4.582   5.918  15.740 -0.5175  1.0248 -0.2998
11003TIP3    H254425   4.644   5.852  15.619  0.1772 -0.9202  1.0827
11004TIP3   OH254426   6.393   1.280   0.995 -0.5514 -0.0330  0.2365
11004TIP3    H154427   6.432   1.292   0.908  0.5043 -0.7423  0.5901
11004TIP3    H254428   6.383   1.185   1.003 -0.6148  0.0313  0.8973
11005TIP3   OH254429   2.399   4.174   3.348  0.5978 -0.1120  0.2579
11005TIP3    H154430   2.428   4.123   3.424 -0.1239 -1.1739 -0.1576
11005TIP3    H254431   2.464   4.155   3.281  0.8911  0.3337  0.4118
11006TIP3   OH254432   2.697   1.362   4.707  0.0636  0.5790 -0.6006
11006TIP3    H154433   2.653   1.417   4.772  0.9661  1.5723 -0.8124
11006TIP3    H254434   2.791   1.375   4.725  0.3288  1.3506 -2.4974
11007TIP3   OH254435   2.496   3.496  12.265  0.6288 -0.3374  0.2008
11007TIP3    H154436   2.577   3.452  12.241  0.8282  0.0626  0.1241
11007TIP3    H254437   2.521   3.556  12.335  0.4194 -0.1451  0.1109
11008TIP3   OH254438   2.640   1.810  14.514 -0.1501 -0.1007 -0.0573
11008TIP3    H154439   2.654   1.731  14.566  1.4894  0.9724  1.1777
11008TIP3    H254440   2.586   1.866  14.570  0.7407  0.6407  0.0652
11009TIP3   OH254441   3.758   6.773  12.788 -0.0709 -0.2272  0.0140
11009TIP3    H154442   3.689   6.730  12.738 -0.9235  1.3161 -0.1665
11009TIP3    H254443   3.761   6.725  12.871 -3.0426  1.2013  0.9995
11010TIP3   OH254444   6.438   2.196   2.671  0.0516  0.5707 -0.3207
11010TIP3    H154445   6.431   2.190   2.766 -1.2902  0.7684 -0.4071
11010TIP3    H254446   6.457   2.289   2.654  3.5121 -0.0278 -0.0682
11011TIP3   OH254447   0.453   0.806  13.912 -0.6294 -0.2808  0.6082
11011TIP3    H154448   0.405   0.846  13.984 -2.7729  0.2952 -1.0739
11011TIP3    H254449   0.402   0.728  13.890 -0.6310  0.1414 -0.9698
11012TIP3   OH254450   4.981   4.492  16.393  0.9211  0.3790  0.6346
11012TIP3    H154451   4.968   4.541  16.474  3.9430 -2.1142  2.7711
11012TIP3    H254452   4.905   4.434  16.387 -0.2544  1.9001  0.6461
11013TIP3   OH254453   2.179   1.282  12.239 -0.1440 -0.0552  0.0878
11013TIP3    H154454   2.201   1.373  12.222 -1.8110  0.2850 -0.2631
11013TIP3    H254455   2.239   1.232  12.184 -0.8886  0.8850 -1.5972
11014TIP3   OH254456   6.234   5.599  17.067  0.4921 -0.2539 -0.2998
11014TIP3    H154457   6.215   5.531  17.132  0.1742 -0.4294 -0.5766
11014TIP3    H254458   6.165   5.590  17.002 -0.2414  1.1197  0.2672
11015TIP3   OH254459   1.260   1.528   5.917  0.5275  0.2230 -0.2989
11015TIP3    H154460   1.301   1.592   5.975  0.5324  1.0321 -1.1888
11015TIP3    H254461   1.334   1.487   5.872  0.5528 -0.7057  0.5486
11016TIP3   OH254462   1.667   4.359  16.437  0.1124  0.5761  0.4123
11016TIP3    H154463   1.594   4.410  16.473 -1.3671 -0.7042 -0.6705
11016TIP3    H254464   1.634   4.327  16.353  1.0074 -2.1333  1.0465
11017TIP3   OH254465   3.895   6.509  14.781  0.0276  0.0465  0.5564
11017TIP3    H154466   3.892   6.574  14.851  0.3577 -0.5008  1.0839
11017TIP3    H254467   3.986   6.512  14.751  0.3201 -0.9349  1.3146
11018TIP3   OH254468   6.215   1.140  12.394 -0.1354  0.0739 -0.0154
11018TIP3    H154469   6.259   1.077  12.336  0.2981  0.1923  0.1773
11018TIP3    H254470   6.150   1.089  12.441  0.8024 -0.4200  0.7688
11019TIP3   OH254471   6.684   1.697   5.450 -0.7905  0.1684 -0.3993
11019TIP3    H154472   6.769   1.698   5.405  0.1161  0.5236  1.3005
11019TIP3    H254473   6.658   1.789   5.455 -0.2426  0.2599  0.9797
11020TIP3   OH254474   5.208   5.654  13.245 -0.3719 -0.1689 -0.3233
11020TIP3    H154475   5.134   5.665  13.306  0.5791 -0.8417  0.9880
11020TIP3    H254476   5.177   5.691  13.163 -1.9607  0.1072  0.3754
11021TIP3   OH254477   0.690   5.588  16.296  0.0298 -0.1036 -0.1085
11021TIP3    H154478   0.712   5.497  16.276 -3.0739 -1.1028  0.7450
11021TIP3    H254479   0.775   5.632  16.306  1.5675 -2.9807 -0.1038
11022TIP3   OH254480   6.692   6.496   4.434 -0.3693  0.4938  0.6653
11022TIP3    H154481   6.617   6.526   4.383 -1.8438  0.8962  3.0222
11022TIP3    H254482   6.663   6.413   4.472  0.2243  0.8657  1.9308
11023TIP3   OH254483   5.426   4.453  16.157 -0.0052 -0.1439 -1.0258
11023TIP3    H154484   5.439   4.500  16.074  1.1421  4.6814  1.6854
11023TIP3    H254485   5.350   4.495  16.196 -0.2017 -2.0117  0.6358
11024TIP3   OH254486   0.829   1.056   5.981 -0.3111 -0.5314 -0.0980
11024TIP3    H154487   0.890   1.101   5.923 -2.9915  0.3573 -2.3408
11024TIP3    H254488   0.826   1.111   6.059  1.5552 -0.4849 -0.0287
11025TIP3   OH254489   5.232   4.520  17.002 -0.2095  0.3774  0.4720
11025TIP3    H154490   5.261   4.545  17.090  0.6927 -1.7590  0.8076
11025TIP3    H254491   5.155   4.465  17.016  0.3172 -0.5045 -0.0293
11026TIP3   OH254492   5.053   4.006  11.201 -0.5073  0.2798 -0.5267
11026TIP3    H154493   4.985   4.021  11.136 -1.2649  0.0908  0.2212
11026TIP3    H254494   5.118   3.953  11.155 -1.5113 -0.7070 -0.8346
11027TIP3   OH254495   3.069   2.636   3.698 -0.5626 -0.0708  0.0193
11027TIP3    H154496   3.038   2.552   3.732  1.0377 -0.9992 -0.7734
11027TIP3    H254497   3.038   2.637   3.607 -0.1604 -0.0123 -0.1159
11028TIP3   OH254498   2.266   4.825   4.719 -0.0844  0.6806 -0.2666
11028TIP3    H154499   2.284   4.905   4.769  0.5950  0.8021 -0.6946
11028TIP3    H254500   2.179   4.838   4.682 -1.2627 -0.0558  2.1510
11029TIP3   OH254501   0.648   0.333   6.885  0.2965  0.3575  0.4182
11029TIP3    H154502   0.579   0.389   6.919  0.2370  0.0979  0.7282
11029TIP3    H254503   0.657   0.263   6.950 -0.7771 -0.9237 -0.7632
11030TIP3   OH254504   4.784   3.999  11.266  0.0820  0.3113 -0.5248
11030TIP3    H154505   4.743   4.081  11.291  0.3718  0.3687 -0.2500
11030TIP3    H254506   4.877   4.011  11.285 -0.0346 -0.4911  0.6191
11031TIP3   OH254507   3.758   4.924  12.329 -0.5554  0.3710 -0.3184
11031TIP3    H154508   3.754   4.878  12.413 -3.2521  0.7981 -0.1565
11031TIP3    H254509   3.820   4.995  12.344 -0.9553  0.4129  1.3007
11032TIP3   OH254510   4.993   0.093   0.165 -0.1691 -0.5474 -0.1855
11032TIP3    H154511   5.076   0.077   0.210 -0.2514  0.5151  0.3638
11032TIP3    H254512   4.926   0.062   0.226 -0.2323 -0.1940 -0.0749
11033TIP3   OH254513   3.043   3.751  16.157 -0.2689  0.6263  0.0740
11033TIP3    H154514   3.138   3.758  16.172 -0.0805 -0.5685 -0.5454
11033TIP3    H254515   3.017   3.839  16.129  0.4237  1.3031  1.4915
11034TIP3   OH254516   6.200   1.324  11.480  0.5784  0.5522  0.2327
11034TIP3    H154517   6.118   1.325  11.530 -0.1055  1.0070 -0.8736
11034TIP3    H254518   6.181   1.268  11.405  0.5680  2.3511 -1.1539
11035TIP3   OH254519   5.435   0.729   3.389 -0.4458  0.1123 -0.1925
11035TIP3    H154520   5.506   0.784   3.357 -0.3774  0.4002  0.4412
11035TIP3    H254521   5.480   0.654   3.429 -0.4250  1.2442  1.9568
11036TIP3   OH254522   6.514   4.710   5.056  0.2197 -0.2848  0.0590
11036TIP3    H154523   6.596   4.733   5.013 -0.3430 -0.9401 -1.3876
11036TIP3    H254524   6.522   4.748   5.144  1.0137  1.8207 -0.8835
11037TIP3   OH254525   4.611   5.170  15.102 -0.0943  0.1453 -0.0524
11037TIP3    H154526   4.684   5.117  15.069 -0.0524  0.6062 -0.7264
11037TIP3    H254527   4.646   5.259  15.106 -0.3585  0.2277  0.4632
11038TIP3   OH254528   4.491   1.975  15.588  0.1625 -0.6592 -0.1590
11038TIP3    H154529   4.415   2.010  15.541  1.3376 -0.6255 -2.0884
11038TIP3    H254530   4.472   1.992  15.680 -1.5353  0.6200 -0.7219
11039TIP3   OH254531   6.298   4.349  14.901  0.3620  0.1798 -0.0568
11039TIP3    H154532   6.303   4.265  14.946  1.6014  0.1053 -0.2973
11039TIP3    H254533   6.388   4.382  14.902  0.0623  1.0561 -0.8038
11040TIP3   OH254534   4.207   2.997   5.100  0.2921  0.0237  0.3097
11040TIP3    H154535   4.182   3.024   5.188  0.8612  0.1313  0.4399
11040TIP3    H254536   4.252   2.913   5.112 -1.7581 -1.1617 -0.1227
11041TIP3   OH254537   6.708   4.625  11.986  0.4212 -0.3937 -0.1695
11041TIP3    H154538   6.737   4.593  11.900  0.8465 -3.1136  0.9211
11041TIP3    H254539   6.621   4.661  11.970  0.6762 -0.4461 -1.8210
11042TIP3   OH254540   3.675   3.645   0.729 -0.6005 -0.1629  1.1513
11042TIP3    H154541   3.673   3.573   0.791  1.0510 -0.5765  0.7419
11042TIP3    H254542   3.715   3.608   0.650 -0.0377  1.1039  0.8260
11043TIP3   OH254543   6.386   6.126   3.256 -0.2700  0.0365  0.0148
11043TIP3    H154544   6.471   6.083   3.262 -0.1816  0.2170  0.0617
11043TIP3    H254545   6.345   6.089   3.178 -0.1555 -0.0607  0.0015
11044TIP3   OH254546   2.303   3.760  16.057  0.0670 -0.2239 -0.2296
11044TIP3    H154547   2.295   3.752  15.962  0.4146  2.6084 -0.5244
11044TIP3    H254548   2.232   3.818  16.082 -0.3208 -1.3368  1.3369
11045TIP3   OH254549   5.729   4.836   2.024  0.2777  0.6376 -0.3593
11045TIP3    H154550   5.689   4.862   1.940  1.4963  2.3197 -0.4248
11045TIP3    H254551   5.758   4.918   2.064  1.4458 -0.3373  0.8400
11046TIP3   OH254552   5.344   4.149  11.450 -0.6092  0.2764  0.6612
11046TIP3    H154553   5.416   4.193  11.404 -2.2149  1.3010 -0.9224
11046TIP3    H254554   5.312   4.084  11.387 -1.4646  0.2523  1.1115
11047TIP3   OH254555   6.766   0.290   3.719 -0.5872 -0.2005  0.5873
11047TIP3    H154556   6.730   0.368   3.761  0.2152 -0.7342  2.3163
11047TIP3    H254557   6.841   0.266   3.774  1.2920 -0.1937 -1.8600
11048TIP3   OH254558   4.003   2.751  16.703  0.5973 -0.2919  0.2831
11048TIP3    H154559   3.943   2.676  16.709  0.2335 -0.0709 -0.4782
11048TIP3    H254560   4.075   2.719  16.648 -1.2779  0.9829 -3.0938
11049TIP3   OH254561   3.578   4.527  12.003 -0.0892 -0.0062 -0.0061
11049TIP3    H154562   3.502   4.469  11.993  0.2234 -0.0094 -2.6941
11049TIP3    H254563   3.652   4.469  12.018 -0.0848 -0.2262 -0.8305
11050TIP3   OH254564   0.915   3.182   0.354 -0.6895 -0.1312 -0.3897
11050TIP3    H154565   0.992   3.129   0.372 -1.1608 -1.0754 -1.0985
11050TIP3    H254566   0.894   3.223   0.438  0.9090  0.5756 -0.3242
11051TIP3   OH254567   0.979   3.721   1.709  0.9218  0.2547  0.2179
11051TIP3    H154568   1.060   3.766   1.732  0.4291  1.1075  0.3058
11051TIP3    H254569   0.926   3.787   1.663  0.4180 -0.3898 -0.1547
11052TIP3   OH254570   2.615   4.420   3.991  0.1932 -1.0693  0.0603
11052TIP3    H154571   2.543   4.388   4.046 -0.4031  0.3662  0.1269
11052TIP3    H254572   2.610   4.515   3.997  1.8816 -0.9500 -0.2333
11053TIP3   OH254573   2.050   3.548  12.577 -0.2207 -0.0929 -0.3005
11053TIP3    H154574   1.980   3.566  12.639  0.4550 -0.4771  0.6050
11053TIP3    H254575   2.094   3.470  12.613  1.6866  1.1043  0.0572
11054TIP3   OH254576   4.034   5.354  16.062 -0.5148 -0.5415 -0.2171
11054TIP3    H154577   4.068   5.269  16.090  1.2924  0.1782 -0.1617
11054TIP3    H254578   4.018   5.343  15.968  1.0691 -0.5302 -0.5030
11055TIP3   OH254579   3.390   3.989  13.204 -0.4994  0.0998  0.6408
11055TIP3    H154580   3.378   3.895  13.191 -2.5255  0.3742  0.2543
11055TIP3    H254581   3.477   3.998  13.242 -0.5757 -1.9872  1.3403
11056TIP3   OH254582   3.833   1.507   5.487 -0.3118 -0.2164  0.6958
11056TIP3    H154583   3.895   1.472   5.422 -0.3166 -2.4951  1.8601
11056TIP3    H254584   3.846   1.602   5.483  2.4485 -0.5585  0.1068
11057TIP3   OH254585   4.340   4.769  12.121 -0.1835  0.1270 -0.1840
11057TIP3    H154586   4.430   4.798  12.110 -0.8484  1.8951 -1.1374
11057TIP3    H254587   4.287   4.840  12.085 -1.9691 -0.7697  0.6034
11058TIP3   OH254588   0.329   2.070   1.474 -0.2499 -0.6340 -0.0768
11058TIP3    H154589   0.336   1.999   1.538 -0.7796 -2.2213 -1.7351
11058TIP3    H254590   0.416   2.110   1.474 -0.4311 -0.1566  2.1057
11059TIP3   OH254591   1.371   1.310  16.229  0.0597 -0.6404 -0.0434
11059TIP3    H154592   1.364   1.387  16.173 -0.2970 -0.2449  0.5342
11059TIP3    H254593   1.308   1.248  16.192  0.0262 -0.4878 -0.2434
11060TIP3   OH254594   3.904   6.448   6.573  0.0128 -0.2047 -0.3186
11060TIP3    H154595   3.956   6.500   6.634 -0.1765 -0.8252  0.3731
11060TIP3    H254596   3.902   6.501   6.493  2.4800 -0.5533 -0.6722
11061TIP3   OH254597   5.148   2.137   2.349 -0.2946  0.3812  0.3678
11061TIP3    H154598   5.093   2.144   2.271  0.5653  1.1971 -0.1701
11061TIP3    H254599   5.149   2.226   2.385  2.5335  0.9115 -0.9067
11062TIP3   OH254600   0.280   4.327   5.746  0.5222  0.3650 -0.6088
11062TIP3    H154601   0.212   4.293   5.804  2.2847 -0.4217  1.0525
11062TIP3    H254602   0.311   4.251   5.698  1.1237  0.4848 -0.4171
11063TIP3   OH254603   3.634   4.779  14.928  0.0830 -0.4912 -0.0405
11063TIP3    H154604   3.577   4.782  14.851  1.6568 -0.8870 -1.2539
11063TIP3    H254605   3.620   4.864  14.971  0.4677  0.4520 -1.7189
11064TIP3   OH254606   1.245   4.462   3.798  1.0872  0.1048 -0.4281
11064TIP3    H154607   1.273   4.374   3.823  1.0679  0.0437 -0.6252
11064TIP3    H254608   1.231   4.507   3.881 -0.9537 -0.7078 -0.3098
11065TIP3   OH254609   0.684   1.541  11.952 -0.0136  0.2156 -0.1878
11065TIP3    H154610   0.593   1.569  11.941  0.2616  0.7151 -1.3268
11065TIP3    H254611   0.724   1.611  12.002 -0.3327 -0.1587  0.5951
11066TIP3   OH254612   2.633   2.038   0.646  0.2211  0.1853 -0.1767
11066TIP3    H154613   2.565   2.023   0.712 -0.2173 -0.5602 -0.7905
11066TIP3    H254614   2.596   2.104   0.587  0.3804  0.4205 -0.0164
11067TIP3   OH254615   4.536   3.539  15.075  0.2744 -0.2015  0.0175
11067TIP3    H154616   4.614   3.580  15.112  1.0834  0.5225 -2.3823
11067TIP3    H254617   4.519   3.464  15.131  1.5103  0.7792  1.7481
11068TIP3   OH254618   3.771   5.747   1.084  0.3635  0.0474 -0.1168
11068TIP3    H154619   3.694   5.740   1.140  1.0223  0.3738  0.8319
11068TIP3    H254620   3.821   5.668   1.100  0.5055  0.0926 -0.3258
11069TIP3   OH254621   5.127   0.827  15.214 -0.8340 -0.2917 -0.3286
11069TIP3    H154622   5.208   0.855  15.173 -1.0233 -0.2957 -0.7035
11069TIP3    H254623   5.064   0.896  15.193 -0.0158  1.6161  3.0842
11070TIP3   OH254624   2.932   4.842   6.375 -0.0249  0.4835  0.0565
11070TIP3    H154625   2.860   4.847   6.437  0.0960  0.4027  0.2032
11070TIP3    H254626   2.985   4.920   6.393 -0.4330  0.8870 -0.4910
11071TIP3   OH254627   5.312   3.910   5.284 -0.1011  0.5248  0.3388
11071TIP3    H154628   5.341   3.822   5.260 -0.8394  0.9165 -2.1629
11071TIP3    H254629   5.385   3.966   5.260 -0.8849  0.9359 -1.1520
11072TIP3   OH254630   0.683   4.430   0.227 -0.4075 -0.4839  0.3347
11072TIP3    H154631   0.729   4.487   0.165 -1.6089  0.0959 -0.0306
11072TIP3    H254632   0.732   4.348   0.225 -1.0854 -0.8489 -2.2066
11073TIP3   OH254633   2.641   5.638   1.513 -0.4233  0.0274  0.1843
11073TIP3    H154634   2.663   5.549   1.487 -1.6502 -0.1459 -0.3059
11073TIP3    H254635   2.657   5.640   1.608 -0.6309 -0.7874  0.2350
11074TIP3   OH254636   0.011   1.173  17.175 -0.2157 -0.1143 -0.1320
11074TIP3    H154637  -0.003   1.216  17.259 -0.4946 -1.4314  0.5092
11074TIP3    H254638  -0.069   1.189  17.126 -0.4986 -0.2833  0.2758
11075TIP3   OH254639   6.390   4.469  13.939 -0.2661  0.2765  0.2141
11075TIP3    H154640   6.341   4.507  13.867  0.5294 -1.1932 -1.1283
11075TIP3    H254641   6.390   4.537  14.007  1.3696  2.8166 -2.2298
11076TIP3   OH254642   5.493   0.276   3.953 -0.3089  0.6064 -0.2989
11076TIP3    H154643   5.402   0.248   3.962 -0.6395  1.8558  0.3475
11076TIP3    H254644   5.529   0.268   4.041  0.4705 -0.7053 -0.7149
11077TIP3   OH254645   6.778   4.887   5.365 -0.3945 -0.1044  0.2093
11077TIP3    H154646   6.774   4.982   5.354  0.2409 -0.1337 -0.3433
11077TIP3    H254647   6.815   4.874   5.452 -1.0978  0.1491  0.5532
11078TIP3   OH254648   0.796   0.327  12.918 -0.1681 -0.6301 -0.2273
11078TIP3    H154649   0.807   0.420  12.934  1.6552 -0.9354  0.4286
11078TIP3    H254650   0.747   0.322  12.836 -2.2278  0.8947  0.8706
11079TIP3   OH254651   1.772   1.468   5.095 -0.2719 -0.0132 -0.0485
11079TIP3    H154652   1.703   1.519   5.135 -0.9968 -0.1067 -1.1430
11079TIP3    H254653   1.849   1.525   5.096 -0.8734  0.8142 -0.5713
11080TIP3   OH254654   3.212   0.213  14.781 -0.1462  0.0522  0.0343
11080TIP3    H154655   3.236   0.206  14.873  1.5740 -0.4339 -0.4366
11080TIP3    H254656   3.148   0.285  14.778 -1.0588 -0.6787  1.7454
11081TIP3   OH254657   1.368   1.579  12.186 -0.3579  0.0450  0.2805
11081TIP3    H154658   1.424   1.510  12.150  0.2445 -0.4539  2.1017
11081TIP3    H254659   1.279   1.555  12.158 -0.0415 -0.9552  0.1056
11082TIP3   OH254660   6.429   5.962  16.915  0.5163  0.2922  0.1696
11082TIP3    H154661   6.348   5.946  16.866  0.4613 -0.9358  0.6416
11082TIP3    H254662   6.498   5.928  16.859  0.5009 -0.6172  0.6805
11083TIP3   OH254663   1.339   2.648   5.486 -0.1383  0.1179 -0.1804
11083TIP3    H154664   1.395   2.724   5.478 -0.7483  0.8868  2.3229
11083TIP3    H254665   1.258   2.682   5.525 -1.7288 -1.2412 -2.1842
11084TIP3   OH254666   4.888   4.928   5.486  0.4035 -0.8936  0.1893
11084TIP3    H154667   4.891   4.833   5.500 -3.0404 -0.9455  1.0715
11084TIP3    H254668   4.812   4.957   5.537  1.2166  2.3117 -0.3207
11085TIP3   OH254669   1.078   5.270  11.249  0.2655  0.4672  0.3452
11085TIP3    H154670   1.006   5.211  11.227  0.5889  0.1833  0.0416
11085TIP3    H254671   1.094   5.320  11.169  0.1472  0.7994  0.5302
11086TIP3   OH254672   3.176   1.255   5.076  1.1996 -0.2257  0.1500
11086TIP3    H154673   3.255   1.201   5.077  0.3698 -1.4766 -0.4836
11086TIP3    H254674   3.132   1.235   5.158  0.7606 -0.7102 -0.2025
11087TIP3   OH254675   5.518   2.937   4.598  0.3756  0.3246 -0.4815
11087TIP3    H154676   5.547   3.024   4.572  1.6624  0.1249  0.2343
11087TIP3    H254677   5.549   2.928   4.688  1.4070 -1.3714 -0.9826
11088TIP3   OH254678   6.632   1.232  12.462 -0.1526  0.3014  0.0004
11088TIP3    H154679   6.666   1.320  12.475  0.6780  0.1679 -1.2331
11088TIP3    H254680   6.571   1.219  12.535  0.6073  1.4493  0.8544
11089TIP3   OH254681   5.319   2.518   1.415  0.0812  0.2039 -0.2749
11089TIP3    H154682   5.386   2.475   1.468  0.0577 -0.1011 -0.4942
11089TIP3    H254683   5.238   2.507   1.465  0.1602  0.4220 -0.0945
11090TIP3   OH254684   4.494   0.652   0.387 -0.0272 -0.3096 -0.3600
11090TIP3    H154685   4.543   0.569   0.386 -0.4062 -0.5480  0.4670
11090TIP3    H254686   4.557   0.717   0.355  1.4139 -0.3016  2.3260
11091TIP3   OH254687   2.709   1.561   6.179  0.0922  0.3248  0.4632
11091TIP3    H154688   2.661   1.620   6.238 -0.4227 -1.6366  2.0597
11091TIP3    H254689   2.703   1.476   6.221  0.8060 -0.8860 -1.8306
11092TIP3   OH254690   0.447   1.952   2.523  0.2047 -0.5059  0.0683
11092TIP3    H154691   0.436   2.047   2.518 -0.4654 -0.4303  2.3194
11092TIP3    H254692   0.493   1.929   2.442  0.2896  1.7088 -0.5580
11093TIP3   OH254693   0.800   2.592   2.915 -0.4515  0.7204  0.5753
11093TIP3    H154694   0.833   2.530   2.850  0.4138 -0.3375  1.9733
11093TIP3    H254695   0.731   2.640   2.870 -1.7257 -1.8440 -0.3360
11094TIP3   OH254696   6.672   2.776  15.333  0.0623 -0.2253  0.2542
11094TIP3    H154697   6.720   2.845  15.379 -0.2329  1.0099 -1.2295
11094TIP3    H254698   6.580   2.793  15.352  0.0829 -1.3563  1.4164
11095TIP3   OH254699   6.672   2.491   1.764  0.0996 -0.7316 -0.1050
11095TIP3    H154700   6.759   2.514   1.731 -0.6458  1.5409 -0.5552
11095TIP3    H254701   6.657   2.402   1.731  1.1938 -0.1736 -2.1748
11096TIP3   OH254702   2.288   4.562   5.116 -0.1904  0.5170  0.0129
11096TIP3    H154703   2.376   4.543   5.083  0.3828  1.8902  0.7565
11096TIP3    H254704   2.236   4.576   5.036  0.5757  1.0911 -0.3923
11097TIP3   OH254705   3.897   2.520   4.023 -0.3867 -0.3502  0.6937
11097TIP3    H154706   3.889   2.425   4.012 -0.8370 -0.3870  1.3334
11097TIP3    H254707   3.825   2.544   4.081 -0.2998  0.3906  0.5022
11098TIP3   OH254708   5.406   5.619   4.607 -0.3053 -0.0145  0.9030
11098TIP3    H154709   5.360   5.689   4.560 -1.9503 -1.8078 -0.2107
11098TIP3    H254710   5.362   5.615   4.692 -1.3985 -0.8629  0.3120
11099TIP3   OH254711   2.089   5.665   4.861  0.0441 -0.5169  0.2858
11099TIP3    H154712   2.067   5.744   4.811  0.3749 -1.6860 -1.7283
11099TIP3    H254713   2.185   5.662   4.859  0.1178 -0.0355  1.8806
11100TIP3   OH254714   2.753   2.977   1.494  0.4512  0.1490  0.3738
11100TIP3    H154715   2.826   3.027   1.459  0.8861 -1.7197 -1.4714
11100TIP3    H254716   2.789   2.931   1.570  0.6632  0.7200  0.6249
11101TIP3   OH254717   5.001   1.277  10.803  0.8229 -0.6424  0.5918
11101TIP3    H154718   5.022   1.321  10.721  1.1775 -1.2358  0.3577
11101TIP3    H254719   4.980   1.347  10.864 -0.2764 -0.2430 -0.2396
11102TIP3   OH254720   1.308   4.308  14.973  0.2424 -0.2534 -0.0182
11102TIP3    H154721   1.292   4.402  14.980  0.5927 -0.3251  2.0967
11102TIP3    H254722   1.403   4.301  14.963  0.2219 -0.3807 -0.1242
11103TIP3   OH254723   5.483   3.195   4.754  0.0979 -0.3483  0.0984
11103TIP3    H154724   5.502   3.289   4.755 -0.0883 -0.3112  0.8136
11103TIP3    H254725   5.453   3.177   4.665  0.2172  0.2533 -0.0663
11104TIP3   OH254726   4.621   1.367   3.496 -0.5139 -0.1496 -0.9129
11104TIP3    H154727   4.537   1.324   3.480 -0.2524 -2.1195  2.3578
11104TIP3    H254728   4.598   1.442   3.552 -0.3640  0.8160 -2.1388
11105TIP3   OH254729   1.158   1.976   3.992  0.1437  0.4629  0.2227
11105TIP3    H154730   1.213   1.933   3.926 -0.8065  0.7982 -0.8072
11105TIP3    H254731   1.219   2.031   4.041  1.2354 -1.3981  1.0254
11106TIP3   OH254732   6.080   4.379  13.112 -0.1523  0.3710 -0.2964
11106TIP3    H154733   6.136   4.341  13.180 -0.4767  0.8552  0.2486
11106TIP3    H254734   6.137   4.391  13.037  0.3898  0.5370  0.1434
11107TIP3   OH254735   1.231   3.550  12.133  0.7383  0.8479 -0.3269
11107TIP3    H154736   1.183   3.539  12.215  0.6628  0.5942 -0.4043
11107TIP3    H254737   1.254   3.461  12.106  0.7130  0.9264 -0.6097
11108TIP3   OH254738   3.676   0.729  14.254  0.3159  0.3333 -0.0023
11108TIP3    H154739   3.745   0.794  14.248 -0.8706  1.8291  1.9369
11108TIP3    H254740   3.714   0.649  14.218  2.0079  1.9127 -1.8090
11109TIP3   OH254741   1.622   3.322   5.722 -0.3054  0.4314  0.6504
11109TIP3    H154742   1.542   3.370   5.701 -1.2869 -0.8438  1.3856
11109TIP3    H254743   1.685   3.349   5.655 -1.9570 -0.0303 -1.1227
11110TIP3   OH254744   0.668   0.111  11.460 -0.0688  0.3448 -0.5323
11110TIP3    H154745   0.598   0.175  11.454 -0.2948  0.0267 -1.3856
11110TIP3    H254746   0.671   0.070  11.373  1.5677  0.7706 -0.6875
11111TIP3   OH254747   0.484   5.892   4.844  0.0451 -0.5012 -0.4221
11111TIP3    H154748   0.544   5.852   4.907 -0.3804 -0.7200 -0.1567
11111TIP3    H254749   0.420   5.823   4.825 -1.2188  0.3274  0.7072
11112TIP3   OH254750   2.458   5.896  13.614  0.2928  0.1952 -0.0659
11112TIP3    H154751   2.506   5.821  13.649 -1.7956 -1.2295 -0.1720
11112TIP3    H254752   2.383   5.857  13.569 -1.9700  2.4432  1.6408
11113TIP3   OH254753   0.440   1.819  13.112 -0.6748  0.1199 -0.2467
11113TIP3    H154754   0.407   1.909  13.107 -1.9529 -0.0768  3.2935
11113TIP3    H254755   0.370   1.765  13.076  0.0240  0.4810 -2.2154
11114TIP3   OH254756   3.958   5.921  16.121  0.3972  0.1318 -0.6322
11114TIP3    H154757   4.023   5.991  16.112 -2.5400  3.2402  1.2971
11114TIP3    H254758   3.894   5.938  16.052 -1.3186  0.4991  1.0039
11115TIP3   OH254759   5.597   1.319   4.145 -0.1441  0.6392  0.4791
11115TIP3    H154760   5.667   1.380   4.165  0.6572 -0.0982 -0.0493
11115TIP3    H254761   5.587   1.267   4.224  0.5135  0.1611  0.2519
11116TIP3   OH254762   2.077   0.300  11.767 -0.3354  0.1325 -0.2735
11116TIP3    H154763   2.016   0.348  11.711 -0.7910  0.0427  0.1401
11116TIP3    H254764   2.025   0.227  11.803  0.2018 -0.3507 -0.4652
11117TIP3   OH254765   2.357   6.734  11.304  0.4450 -0.1851 -0.4842
11117TIP3    H154766   2.441   6.722  11.348  1.3421 -0.5342 -2.2621
11117TIP3    H254767   2.309   6.795  11.360  2.5514  1.3867 -0.3420
11118TIP3   OH254768   4.218   5.115   0.295 -0.0016 -0.4343  0.4594
11118TIP3    H154769   4.187   5.077   0.378  0.2092  1.2450  1.3196
11118TIP3    H254770   4.153   5.087   0.230  0.5739 -2.9361  0.9091
11119TIP3   OH254771   5.700   1.273  11.953  0.0234 -0.1899 -0.2321
11119TIP3    H154772   5.676   1.185  11.922 -0.7609 -0.2141  0.4119
11119TIP3    H254773   5.779   1.295  11.904 -0.3218 -0.8597 -1.1015
11120TIP3   OH254774   2.205   5.556  16.217 -0.8831 -0.3069 -0.0688
11120TIP3    H154775   2.280   5.565  16.158 -1.7943  0.0999 -1.1954
11120TIP3    H254776   2.129   5.571  16.160 -1.7509  0.8781  1.3783
11121TIP3   OH254777   3.511   0.566  13.951 -0.6703  0.3191 -0.1935
11121TIP3    H154778   3.517   0.654  13.989 -1.7519  0.3556 -0.0832
11121TIP3    H254779   3.494   0.508  14.025  0.6635 -0.0782 -0.1861
11122TIP3   OH254780   0.521   5.966  11.070  0.2792  0.0266 -0.0399
11122TIP3    H154781   0.614   5.987  11.063  0.6240 -1.7349 -0.9349
11122TIP3    H254782   0.511   5.884  11.023 -1.5832 -0.2441  0.7761
11123TIP3   OH254783   1.827   4.492  11.865  0.3255 -0.1551 -0.0775
11123TIP3    H154784   1.844   4.447  11.783 -2.1413 -0.1823 -0.6101
11123TIP3    H254785   1.732   4.502  11.868  0.6114  2.6194  1.2967
11124TIP3   OH254786   1.194   1.966  15.070 -0.4548  0.6552  0.7723
11124TIP3    H154787   1.127   1.982  15.004 -1.1995 -2.6293  0.6651
11124TIP3    H254788   1.145   1.946  15.150  0.4264  0.9139  1.3855
11125TIP3   OH254789   2.929   3.108   4.807 -0.5436  0.5256  0.3036
11125TIP3    H154790   2.902   3.095   4.716  1.0099 -1.5869  0.1015
11125TIP3    H254791   3.024   3.123   4.803  0.0139 -2.1741  1.7196
11126TIP3   OH254792   2.677   6.617  12.135  0.4494 -0.2210  0.7627
11126TIP3    H154793   2.639   6.529  12.136  0.3164 -0.2078 -1.2117
11126TIP3    H254794   2.727   6.621  12.054  0.4579  1.5296  0.8235
11127TIP3   OH254795   2.435   4.326   4.191  0.9315 -0.1136 -0.1631
11127TIP3    H154796   2.375   4.348   4.262  1.1228  0.1236 -0.0765
11127TIP3    H254797   2.516   4.299   4.236  0.9369 -0.3000 -0.2837
11128TIP3   OH254798   3.927   0.580   4.270  0.1556  0.1346  0.1852
11128TIP3    H154799   3.833   0.595   4.277  0.2543  2.8230 -2.7723
11128TIP3    H254800   3.966   0.662   4.300  1.6010 -1.0562  1.6571
11129TIP3   OH254801   5.446   6.394   2.262 -0.2922  0.7827  0.3658
11129TIP3    H154802   5.435   6.371   2.170 -0.1646  0.9185  0.3155
11129TIP3    H254803   5.518   6.458   2.262 -1.1907  1.8002  0.4042
11130TIP3   OH254804   0.617   5.077   3.178  0.3831  0.0378 -0.1893
11130TIP3    H154805   0.708   5.084   3.207  0.6303 -1.0438 -0.6873
11130TIP3    H254806   0.622   5.073   3.083 -0.2652  1.0986 -0.2762
11131TIP3   OH254807   3.921   0.040  15.985 -0.2573  0.5230  0.1853
11131TIP3    H154808   3.910  -0.031  16.048 -0.6344  0.9340  0.5848
11131TIP3    H254809   3.853   0.024  15.919 -1.3154  1.3340  1.0517
11132TIP3   OH254810   1.934   2.467  14.970 -0.9383 -0.3288 -0.3254
11132TIP3    H154811   1.886   2.397  15.015 -0.8258 -1.3686 -1.7810
11132TIP3    H254812   1.874   2.499  14.903 -0.6781  0.4046 -0.2153
11133TIP3   OH254813   1.437   5.587  16.561  0.0079  0.0241 -0.5414
11133TIP3    H154814   1.484   5.504  16.572 -0.6352 -0.0688  1.6154
11133TIP3    H254815   1.353   5.573  16.603  0.4390  2.2293  1.1667
11134TIP3   OH254816   2.238   1.758   1.264  0.2033  0.8567 -0.2881
11134TIP3    H154817   2.199   1.681   1.306 -0.2916  0.3355 -1.6809
11134TIP3    H254818   2.166   1.820   1.256  0.2985  0.9572 -0.3585
11135TIP3   OH254819   6.641   5.771  10.944 -0.4000  0.0605  0.1825
11135TIP3    H154820   6.667   5.747  10.856 -1.3777 -0.9062  0.1366
11135TIP3    H254821   6.701   5.841  10.970  0.7770 -0.6081 -0.7177
11136TIP3   OH254822   4.233   6.756   6.589 -0.1649 -0.0073  0.0009
11136TIP3    H154823   4.292   6.743   6.664  0.9253 -2.1726 -1.2156
11136TIP3    H254824   4.145   6.742   6.625  0.1763  1.1549  1.3501
11137TIP3   OH254825   5.949   0.174   4.851 -0.2826  0.2393 -0.3181
11137TIP3    H154826   5.949   0.267   4.876 -0.4072  0.3650 -0.7840
11137TIP3    H254827   6.041   0.148   4.859 -0.0659  0.6957 -1.2707
11138TIP3   OH254828   3.631   5.514   5.970  0.2652  0.2958 -0.2242
11138TIP3    H154829   3.591   5.512   5.883  0.9072  0.1039 -0.5110
11138TIP3    H254830   3.725   5.515   5.954  0.4062 -0.9542  0.4988
11139TIP3   OH254831   0.925   1.184  12.625 -0.0150 -0.8619  0.0631
11139TIP3    H154832   0.880   1.249  12.678  0.7212 -0.6171  0.3983
11139TIP3    H254833   1.012   1.177  12.664  1.1596  0.6208 -2.1702
11140TIP3   OH254834   2.899   2.067  16.324  0.0573 -0.3378 -0.5984
11140TIP3    H154835   2.987   2.104  16.318 -0.3695  0.8256  0.1671
11140TIP3    H254836   2.848   2.135  16.369 -0.4441 -2.3734  1.9970
11141TIP3   OH254837   1.200   1.932  15.574  0.0112 -0.0688 -0.0454
11141TIP3    H154838   1.152   1.925  15.656  2.8161 -0.0854  1.6488
11141TIP3    H254839   1.205   2.026  15.557  1.0339  0.0424  0.8117
11142TIP3   OH254840   0.599   5.709  15.136 -0.0274 -0.1612 -0.3659
11142TIP3    H154841   0.682   5.681  15.098 -0.7901 -0.3374 -1.9462
11142TIP3    H254842   0.612   5.802  15.154  0.3561 -0.0643 -1.0838
11143TIP3   OH254843   6.352   2.909  13.981 -0.3747 -0.0359  0.0530
11143TIP3    H154844   6.418   2.840  13.981  2.9420  3.0065 -1.5891
11143TIP3    H254845   6.374   2.965  14.055  0.5140  2.3931 -1.9464
11144TIP3   OH254846   6.781   4.428   0.806 -0.8163  0.2857  0.2433
11144TIP3    H154847   6.841   4.480   0.859 -0.1780 -2.2596  2.1030
11144TIP3    H254848   6.703   4.417   0.860 -0.4007 -1.7993  0.4864
11145TIP3   OH254849   4.291   5.577  14.897  0.4716  0.1254 -0.5989
11145TIP3    H154850   4.298   5.654  14.953  0.8985 -1.3131  1.3820
11145TIP3    H254851   4.296   5.503  14.957 -0.6346 -1.4501 -2.3905
11146TIP3   OH254852   1.275   3.143  11.822  0.4232  0.0377 -0.3336
11146TIP3    H154853   1.277   3.074  11.756  0.1413 -1.3992  1.1388
11146TIP3    H254854   1.261   3.223  11.772  1.7273 -0.8371 -2.1631
11147TIP3   OH254855   4.999   2.528   3.523  0.1453 -0.2255  0.3531
11147TIP3    H154856   5.009   2.624   3.525  0.4842 -0.2563  0.2207
11147TIP3    H254857   4.905   2.514   3.523  0.0681  0.0594  2.6881
11148TIP3   OH254858   3.234   5.547   1.205 -0.1160 -0.1696  0.1483
11148TIP3    H154859   3.316   5.595   1.197  0.9622 -2.0934 -0.7047
11148TIP3    H254860   3.243   5.497   1.286 -0.3925 -0.4836 -0.0122
11149TIP3   OH254861   2.188   5.317   5.007  0.0760 -0.1291 -0.8077
11149TIP3    H154862   2.258   5.358   4.958  0.4221 -2.2138 -2.1365
11149TIP3    H254863   2.112   5.322   4.949 -0.1938 -0.2215 -0.4659
11150TIP3   OH254864   4.936   1.714   3.573 -0.1851 -0.3970  0.2260
11150TIP3    H154865   4.866   1.655   3.600 -1.0111 -0.0569 -1.1471
11150TIP3    H254866   5.017   1.666   3.593 -0.8369 -2.7364 -2.4436
11151TIP3   OH254867   2.401   6.191   4.193 -0.2935 -0.5567 -0.7662
11151TIP3    H154868   2.346   6.149   4.259  0.3511  1.1609  0.9187
11151TIP3    H254869   2.484   6.145   4.197 -0.7520 -1.4473 -1.4590
11152TIP3   OH254870   5.825   1.595  11.332 -0.0004 -0.1011 -0.4385
11152TIP3    H154871   5.741   1.615  11.290 -0.0879  0.7912  0.1341
11152TIP3    H254872   5.885   1.576  11.260 -0.4258  0.3312 -0.9053
11153TIP3   OH254873   1.729   3.870   0.417 -0.1277  0.1049  0.2553
11153TIP3    H154874   1.823   3.857   0.403 -0.0084 -0.2542  1.3083
11153TIP3    H254875   1.715   3.963   0.400  0.5594  0.3106  0.7806
11154TIP3   OH254876   3.546   3.657  16.864  0.8131  0.0390  0.1571
11154TIP3    H154877   3.560   3.606  16.785  0.5527  0.2077  0.0007
11154TIP3    H254878   3.576   3.600  16.935 -0.9582 -0.9905  0.1301
11155TIP3   OH254879   4.167   2.716   6.744  0.4310  0.0207  0.1565
11155TIP3    H154880   4.123   2.646   6.695  0.3171  1.3473 -1.6910
11155TIP3    H254881   4.260   2.701   6.728  0.3864  0.5853 -0.7003
11156TIP3   OH254882   5.898   1.872  12.905  0.8150  0.0837  0.0736
11156TIP3    H154883   5.938   1.810  12.966  0.6155  1.1404  1.3106
11156TIP3    H254884   5.971   1.927  12.876  0.8748 -0.2899 -0.4903
11157TIP3   OH254885   2.030   6.177  14.500 -0.1609 -0.3774 -0.5236
11157TIP3    H154886   1.949   6.228  14.491 -0.3390 -0.7433 -0.9552
11157TIP3    H254887   2.081   6.227  14.564 -0.4443  0.2108 -0.7497
11158TIP3   OH254888   4.747   6.731   3.385 -0.1420 -0.4929 -0.9383
11158TIP3    H154889   4.658   6.747   3.353  0.1088  1.4583 -0.6883
11158TIP3    H254890   4.740   6.734   3.480  0.0963 -0.8916 -0.9069
11159TIP3   OH254891   6.785   1.690  13.631 -0.0268  0.0777  0.5212
11159TIP3    H154892   6.714   1.666  13.690  1.2329 -3.7219  0.6361
11159TIP3    H254893   6.820   1.772  13.667 -2.7042  0.6728  1.8848
11160TIP3   OH254894   1.211   2.644  14.853  0.3483 -0.4175  0.1319
11160TIP3    H154895   1.232   2.635  14.760  1.6239  0.9515  0.2585
11160TIP3    H254896   1.187   2.556  14.881 -0.2060 -0.8132 -1.5329
11161TIP3   OH254897   5.223   2.359   6.117 -0.1034  0.5858  0.0404
11161TIP3    H154898   5.173   2.302   6.175  0.3764 -0.0261 -0.1456
11161TIP3    H254899   5.296   2.390   6.171  0.9981 -0.9005 -0.5543
11162TIP3   OH254900   6.523   0.183   2.186 -0.0590 -0.4943 -0.2276
11162TIP3    H154901   6.446   0.211   2.136  1.7641  2.0176 -1.7088
11162TIP3    H254902   6.526   0.088   2.174 -0.7850 -0.1770 -3.2893
11163TIP3   OH254903   3.990   4.491   3.840  0.1548 -0.9687 -0.1324
11163TIP3    H154904   3.937   4.549   3.895 -0.4326 -1.7754  0.1773
11163TIP3    H254905   3.984   4.529   3.752  0.9993  0.2571  0.3371
11164TIP3   OH254906   0.909   1.796   4.662  0.1701  0.1634  0.2868
11164TIP3    H154907   0.876   1.751   4.740  2.0029 -2.5736 -0.4533
11164TIP3    H254908   0.840   1.785   4.597  0.2071 -0.8423  0.4007
11165TIP3   OH254909   1.527   4.731   4.674 -0.3793 -0.0286  0.5417
11165TIP3    H154910   1.458   4.796   4.685  1.0273  1.4208  1.0811
11165TIP3    H254911   1.526   4.680   4.754 -1.1658 -0.3484  0.3279
11166TIP3   OH254912   0.148   0.788   4.769  0.6976  0.6756 -0.1920
11166TIP3    H154913   0.197   0.835   4.701 -0.5796  0.4976 -1.2719
11166TIP3    H254914   0.099   0.721   4.721  1.8574 -1.2506  1.2331
11167TIP3   OH254915   1.445   6.626   2.039 -0.5652  0.3057  0.7117
11167TIP3    H154916   1.443   6.704   2.093 -0.7362  0.8027 -0.0129
11167TIP3    H254917   1.451   6.554   2.102  2.5037  1.0157  1.3093
11168TIP3   OH254918   0.842   0.993  16.625  0.1355  0.4337 -0.7841
11168TIP3    H154919   0.857   0.980  16.719 -0.6727 -0.4212 -0.7548
11168TIP3    H254920   0.895   0.925  16.583 -1.4804 -0.8459 -0.8058
11169TIP3   OH254921   1.657   5.081  14.641  0.1933  0.1701  0.1638
11169TIP3    H154922   1.572   5.043  14.617  0.2907 -0.7993  1.3238
11169TIP3    H254923   1.637   5.140  14.713  0.6216 -0.7013  1.0018
11170TIP3   OH254924   3.001   4.933  14.908 -0.1744 -0.3288  0.1223
11170TIP3    H154925   2.936   5.004  14.909 -0.5562 -0.6381 -1.2766
11170TIP3    H254926   3.035   4.934  14.818  2.2107  0.2201  1.0033
11171TIP3   OH254927   6.329   6.062   4.387 -0.3689  0.2433 -0.4785
11171TIP3    H154928   6.375   6.141   4.357 -1.2328  0.1285 -2.1532
11171TIP3    H254929   6.267   6.095   4.452  2.3591  0.3311  2.1732
11172TIP3   OH254930   1.916   1.827  15.217 -0.1810  0.0449 -0.2212
11172TIP3    H154931   1.953   1.912  15.192 -0.8330  0.4022  0.0164
11172TIP3    H254932   1.951   1.766  15.152 -0.8478  0.7505 -1.2582
11173TIP3   OH254933   4.604   5.022  15.891 -0.3223 -0.8275  0.0906
11173TIP3    H154934   4.619   5.000  15.799 -1.9126 -0.1694 -0.3460
11173TIP3    H254935   4.619   4.940  15.938  1.8483 -0.8382 -0.5942
11174TIP3   OH254936   2.068   6.256   1.109 -0.4254 -0.2740  0.2218
11174TIP3    H154937   2.160   6.249   1.134 -0.4455  0.5182  0.5217
11174TIP3    H254938   2.045   6.348   1.124 -0.8101 -0.0856 -1.4451
11175TIP3   OH254939   2.666   6.723   4.811  0.3499  0.1392 -0.4720
11175TIP3    H154940   2.614   6.788   4.858 -1.4655 -2.1623  0.8218
11175TIP3    H254941   2.735   6.698   4.872  0.9014  0.6655 -0.8766
11176TIP3   OH254942   1.667   4.007   1.469 -0.0100 -0.5408 -0.2911
11176TIP3    H154943   1.721   4.036   1.395  2.1454 -1.6769  0.7776
11176TIP3    H254944   1.729   3.962   1.527 -1.9335 -0.9164  1.5154
11177TIP3   OH254945   0.448   2.236   2.520 -0.0081 -0.5573 -0.4021
11177TIP3    H154946   0.511   2.308   2.525  0.1273 -0.6519 -0.7891
11177TIP3    H254947   0.386   2.255   2.590  1.1747 -1.1598  0.8274
11178TIP3   OH254948   6.744   4.399   5.527  0.1242 -0.2157  0.3047
11178TIP3    H154949   6.677   4.460   5.495  0.3219  0.4185  1.0662
11178TIP3    H254950   6.764   4.430   5.616  0.4178 -1.2377  0.6066
11179TIP3   OH254951   2.721   0.165  15.607 -0.0269  0.0301 -0.2402
11179TIP3    H154952   2.735   0.249  15.651  2.3676  0.2173 -1.3249
11179TIP3    H254953   2.662   0.117  15.665  1.0636  1.2520  1.9163
11180TIP3   OH254954   3.431   4.478  16.687  0.1940 -0.0893 -0.2301
11180TIP3    H154955   3.416   4.571  16.670 -0.5169  0.4743  3.1034
11180TIP3    H254956   3.346   4.446  16.717  1.3208 -0.9429  2.1672
11181TIP3   OH254957   1.732   0.994   0.829  0.5868  0.2567 -0.2357
11181TIP3    H154958   1.657   1.043   0.862  0.9612  0.2697  0.6201
11181TIP3    H254959   1.803   1.014   0.891  0.9225 -0.8442 -0.2482
11182TIP3   OH254960   4.150   0.205   2.392 -0.1639 -0.1429  0.6320
11182TIP3    H154961   4.132   0.113   2.373 -1.3434  0.2823 -0.4080
11182TIP3    H254962   4.196   0.204   2.476  0.0779 -1.6922  0.4973
11183TIP3   OH254963   6.379   6.568   5.655  0.3348  0.0672  0.3018
11183TIP3    H154964   6.291   6.594   5.625  0.3568  0.2460  0.3901
11183TIP3    H254965   6.436   6.639   5.626  0.8548 -1.2319 -1.9330
11184TIP3   OH254966   4.035   6.109  14.064  0.4666 -0.2942 -0.4705
11184TIP3    H154967   3.942   6.099  14.041  0.4372  0.0845 -0.5296
11184TIP3    H254968   4.077   6.131  13.981  0.6057 -0.4616 -0.4422
11185TIP3   OH254969   6.278   0.749   0.744  0.4351  0.1812 -0.5679
11185TIP3    H154970   6.317   0.746   0.657 -0.9073 -1.8146 -1.1315
11185TIP3    H254971   6.262   0.842   0.760 -2.2082  0.3678 -3.8035
11186TIP3   OH254972   4.089   6.400   1.159 -0.2772 -0.2228  0.3796
11186TIP3    H154973   4.079   6.366   1.248  0.7381  0.6341  0.8371
11186TIP3    H254974   4.074   6.324   1.103  2.1203 -1.5010  1.3842
11187TIP3   OH254975   4.681   1.635  13.893 -0.3490  0.2685  0.3352
11187TIP3    H154976   4.650   1.684  13.817 -1.2612  1.9617  1.7683
11187TIP3    H254977   4.684   1.544  13.864  0.2286  1.0143 -2.0020
11188TIP3   OH254978   3.375   0.198   4.959 -0.0089  0.7669 -0.0816
11188TIP3    H154979   3.422   0.148   5.026 -0.7703  0.7656  0.4621
11188TIP3    H254980   3.312   0.250   5.008  0.4785  1.9351 -0.6839
11189TIP3   OH254981   4.427   0.292  14.293  0.1091 -0.6608  0.4962
11189TIP3    H154982   4.498   0.245  14.338  1.2589  1.0493  0.5092
11189TIP3    H254983   4.397   0.231  14.225  1.2283 -1.6108  0.8350
11190TIP3   OH254984   2.389   0.111   2.451  0.1821 -0.3891 -0.2195
11190TIP3    H154985   2.376   0.070   2.365  0.1681  2.6137 -1.7096
11190TIP3    H254986   2.317   0.173   2.459  1.4640  0.9671  0.9821
11191TIP3   OH254987   0.647   2.663  15.737  0.4206 -0.7113  0.8485
11191TIP3    H154988   0.632   2.657  15.831  0.2149  0.3252  0.8828
11191TIP3    H254989   0.719   2.602  15.720  1.4345  0.1860  1.8941
11192TIP3   OH254990   5.371   1.811  12.584  0.4287  0.5478  0.9772
11192TIP3    H154991   5.392   1.802  12.677 -0.5882  0.5288  1.2105
11192TIP3    H254992   5.309   1.884  12.580  1.3804  1.3470  0.1643
11193TIP3   OH254993   0.536   2.413  12.069 -0.3588  0.0269  0.3421
11193TIP3    H154994   0.515   2.468  12.144 -0.3238 -0.6473  0.8578
11193TIP3    H254995   0.468   2.345  12.070  1.1549 -1.5387  1.3708
11194TIP3   OH254996   0.276   5.796  12.434  0.1326  0.2901  0.0392
11194TIP3    H154997   0.186   5.804  12.403  0.2280  0.0137 -0.3175
11194TIP3    H254998   0.277   5.838  12.519 -0.2666  0.5585 -0.0927
11195TIP3   OH254999   1.653   6.514   5.607 -0.1323  0.5045 -0.1490
11195TIP3    H155000   1.629   6.605   5.627  0.6698  0.6529  0.1480
11195TIP3    H255001   1.573   6.464   5.623 -0.5078  1.1241 -0.0743
11196TIP3   OH255002   5.476   4.157  13.115 -0.4932 -0.3201 -0.6908
11196TIP3    H155003   5.535   4.213  13.165 -1.0738 -1.2539  1.0759
11196TIP3    H255004   5.485   4.187  13.024  1.0477  0.9734 -0.1233
11197TIP3   OH255005   4.095   5.733  11.293  0.1583 -0.1571 -0.3875
11197TIP3    H155006   4.036   5.805  11.313 -0.2199 -0.1037 -1.6692
11197TIP3    H255007   4.180   5.762  11.325 -0.4279 -0.0891  1.1455
11198TIP3   OH255008   2.530   5.250  10.473  0.1124 -0.9248  0.1184
11198TIP3    H155009   2.618   5.227  10.501  0.0259 -2.0712 -0.5083
11198TIP3    H255010   2.474   5.184  10.514 -0.1058 -2.0897 -1.9714
11199TIP3   OH255011   4.589   3.303  11.385  0.3849 -0.2812 -0.4102
11199TIP3    H155012   4.682   3.283  11.381  0.2000 -1.0296 -1.1986
11199TIP3    H255013   4.567   3.335  11.297  0.1070  0.8563  0.0623
11200TIP3   OH255014   0.987   4.588   4.426  0.3800  0.1124 -0.1232
11200TIP3    H155015   0.934   4.511   4.445  0.1265 -0.1195 -1.6689
11200TIP3    H255016   0.998   4.632   4.510 -0.6385 -0.8735  0.5328
11201TIP3   OH255017   1.981   2.697   3.640 -0.1178 -0.5325 -0.1884
11201TIP3    H155018   2.044   2.634   3.673 -0.7591 -1.4652 -0.7373
11201TIP3    H255019   1.935   2.728   3.718  0.6670 -0.2202  0.1567
11202TIP3   OH255020   3.381   1.704   0.724  0.0636 -0.2924  0.1136
11202TIP3    H155021   3.326   1.728   0.797 -2.2779  0.3944 -1.8137
11202TIP3    H255022   3.331   1.637   0.677  1.3865 -0.5326 -0.9976
11203TIP3   OH255023   2.069   2.814   1.675 -0.3409 -0.1915 -0.1039
11203TIP3    H155024   2.147   2.792   1.624 -0.6317 -0.5125 -0.4128
11203TIP3    H255025   2.087   2.901   1.711 -0.6205  0.5541 -1.7257
11204TIP3   OH255026   1.353   0.087   5.840  0.1074 -0.3042  0.4077
11204TIP3    H155027   1.333   0.112   5.930  0.4884 -0.1716  0.4592
11204TIP3    H255028   1.411   0.010   5.849  0.3370 -0.1479  0.2832
11205TIP3   OH255029   2.664   3.366  14.022 -0.1472 -0.4924 -0.1584
11205TIP3    H155030   2.691   3.411  13.941 -0.7724  0.5394  0.1872
11205TIP3    H255031   2.693   3.276  14.010  2.8379  0.4090 -0.0836
11206TIP3   OH255032   3.576   6.131   4.255 -0.3664 -0.8019 -0.1198
11206TIP3    H155033   3.544   6.132   4.345 -0.2193  1.8577 -0.0571
11206TIP3    H255034   3.502   6.164   4.204  1.2808  2.8591 -0.2873
11207TIP3   OH255035   4.979   3.274  13.698  0.2302  0.0072  0.0222
11207TIP3    H155036   4.940   3.260  13.612  0.8519  0.4830 -0.3441
11207TIP3    H255037   5.048   3.339  13.683  0.6455 -0.2426  0.7903
11208TIP3   OH255038   4.973   4.968   6.558  0.0403  0.2220  0.9454
11208TIP3    H155039   5.063   5.000   6.561 -0.2362  0.9419  1.6556
11208TIP3    H255040   4.981   4.873   6.565  0.7784  0.2435  0.4188
11209TIP3   OH255041   1.626   4.334   2.626  0.0729 -0.2865 -0.2839
11209TIP3    H155042   1.576   4.289   2.557 -0.1911 -1.1952  0.4900
11209TIP3    H255043   1.647   4.265   2.689  1.0974  0.3679  0.0987
11210TIP3   OH255044   6.781   2.939   1.865  0.3121  0.1387 -0.2990
11210TIP3    H155045   6.696   2.972   1.837  0.5354  1.4475  0.4852
11210TIP3    H255046   6.771   2.925   1.959  0.7758 -0.2861 -0.3128
11211TIP3   OH255047   3.158   1.175   0.321 -0.5303  0.9718  0.2404
11211TIP3    H155048   3.138   1.105   0.383 -2.0421  0.6235 -0.6217
11211TIP3    H255049   3.080   1.232   0.324  0.5598  2.4841  0.7365
11212TIP3   OH255050   1.392   1.958  14.732 -0.0139  0.3579  0.4721
11212TIP3    H155051   1.299   1.976  14.741 -0.2261 -0.4534 -0.0435
11212TIP3    H255052   1.408   1.957  14.637  0.2949 -0.5530  0.5206
11213TIP3   OH255053   5.058   5.734   0.244  0.1552  0.6704  0.0770
11213TIP3    H155054   5.020   5.819   0.263 -2.1681  0.0214 -1.4444
11213TIP3    H255055   5.076   5.736   0.150 -0.2197 -0.6344 -0.0283
11214TIP3   OH255056   4.307   4.602  12.338  0.4804  0.1716 -0.1252
11214TIP3    H155057   4.320   4.649  12.256  0.1587  1.5476  0.6064
11214TIP3    H255058   4.228   4.550  12.323  0.4410  0.3903 -0.7009
11215TIP3   OH255059   3.676   0.393   4.234 -0.1065  0.4589  0.1558
11215TIP3    H155060   3.647   0.480   4.260 -0.9123  0.1436  0.3486
11215TIP3    H255061   3.606   0.360   4.178 -0.7807 -0.8523  1.7208
11216TIP3   OH255062   0.464   3.661  10.912 -0.3961 -0.7757  0.2394
11216TIP3    H155063   0.424   3.698  10.991 -0.8616 -1.0289  0.1240
11216TIP3    H255064   0.528   3.726  10.886 -2.8710  1.1202 -1.3378
11217TIP3   OH255065   3.650   5.231  12.190 -0.1458 -0.0733 -0.2416
11217TIP3    H155066   3.654   5.141  12.159 -1.0169  0.5055 -2.0733
11217TIP3    H255067   3.611   5.225  12.277  0.3096 -1.5038 -0.1299
11218TIP3   OH255068   3.045   0.641   2.512 -0.3111 -1.0435  0.5092
11218TIP3    H155069   3.039   0.729   2.549 -0.7341 -0.8910  0.0689
11218TIP3    H255070   3.010   0.649   2.423  3.5627 -0.7250 -1.0846
11219TIP3   OH255071   0.461   6.444   0.217  0.2169 -0.5680 -0.0870
11219TIP3    H155072   0.440   6.536   0.235 -0.2598 -0.5359 -0.7904
11219TIP3    H255073   0.510   6.415   0.294  0.6411  0.3662  0.0010
11220TIP3   OH255074   0.447   5.211   1.131 -0.1874 -0.2181  0.8297
11220TIP3    H155075   0.352   5.211   1.144  0.0760  1.3684  3.0609
11220TIP3    H255076   0.459   5.238   1.040 -1.8699 -0.3947  0.5428
11221TIP3   OH255077   4.022   4.097  11.064  0.2198  0.1766 -0.1777
11221TIP3    H155078   4.037   4.167  11.000 -1.0066  1.7403  1.1892
11221TIP3    H255079   4.101   4.097  11.119  1.7375 -1.8724 -2.2682
11222TIP3   OH255080   0.781   3.017  14.047  0.7466  0.3309  0.0998
11222TIP3    H155081   0.738   2.970  14.119  0.0846  0.0125 -0.5009
11222TIP3    H255082   0.817   3.095  14.088 -0.2786  0.5261  0.6460
11223TIP3   OH255083   2.489   6.438  12.808 -0.1749  0.9317  0.6395
11223TIP3    H155084   2.515   6.353  12.842 -0.2852  0.4854 -0.3743
11223TIP3    H255085   2.466   6.421  12.716  1.6033  2.3849 -0.1059
11224TIP3   OH255086   5.668   0.844   0.810 -0.3056  0.0148 -0.1947
11224TIP3    H155087   5.605   0.899   0.856 -1.0796 -0.6035 -0.5051
11224TIP3    H255088   5.733   0.906   0.776 -0.0839  0.5437  1.1408
11225TIP3   OH255089   5.711   3.373  16.813 -0.1775  0.0666 -0.2886
11225TIP3    H155090   5.689   3.310  16.745  1.2605 -0.6667 -0.0810
11225TIP3    H255091   5.645   3.360  16.880 -0.5775 -0.4073 -0.7712
11226TIP3   OH255092   6.613   3.527  14.362  0.3902  0.2701 -0.4702
11226TIP3    H155093   6.635   3.470  14.435  0.1659 -0.3187 -0.8634
11226TIP3    H255094   6.653   3.611  14.385  0.7753 -0.0589  0.0730
11227TIP3   OH255095   6.434   5.862   1.178  0.0597 -0.1870 -0.6174
11227TIP3    H155096   6.386   5.898   1.103 -0.2747 -0.6927 -0.6457
11227TIP3    H255097   6.520   5.903   1.173 -0.2952  0.5544 -0.6926
11228TIP3   OH255098   1.444   2.881  15.302 -0.1946  0.6415  0.3715
11228TIP3    H155099   1.386   2.840  15.238  0.9844  0.3651 -0.5241
11228TIP3    H255100   1.441   2.822  15.378 -1.4857  0.8998  0.5372
11229TIP3   OH255101   5.712   0.081   6.177 -0.4710 -0.0746 -0.2804
11229TIP3    H155102   5.757   0.090   6.093  0.2866  2.4001  0.3534
11229TIP3    H255103   5.703   0.170   6.209 -1.7954 -0.8963  1.7457
11230TIP3   OH255104   3.228   0.559  16.221 -0.3975 -0.1201  0.1723
11230TIP3    H155105   3.223   0.651  16.247  1.0127 -0.1557  0.6034
11230TIP3    H255106   3.142   0.523  16.244  0.4442  0.0738  4.0470
11231TIP3   OH255107   6.591   3.228  11.908 -0.2505 -0.5718  0.3722
11231TIP3    H155108   6.542   3.154  11.872 -0.0528 -0.2206 -0.6402
11231TIP3    H255109   6.661   3.187  11.960 -1.4533 -1.0711  1.6402
11232TIP3   OH255110   5.864   2.853  15.268  0.3723 -0.3495  0.1019
11232TIP3    H155111   5.773   2.838  15.294 -0.3017  1.7467 -0.9676
11232TIP3    H255112   5.869   2.818  15.179  0.4604  0.0496 -0.0506
11233TIP3   OH255113   1.297   4.142   0.383 -0.1802  0.4281 -0.2865
11233TIP3    H155114   1.269   4.233   0.392  1.5558  0.9957 -0.4567
11233TIP3    H255115   1.333   4.119   0.468  1.1719  0.5482 -0.8026
11234TIP3   OH255116   0.248   4.952  10.899 -0.1507 -0.3427  0.5405
11234TIP3    H155117   0.254   4.909  10.814  1.9626 -1.7938  1.3802
11234TIP3    H255118   0.265   4.883  10.962 -1.1434  0.8300  2.1355
11235TIP3   OH255119   3.265   1.153   2.934  0.4979 -0.1524 -0.2134
11235TIP3    H155120   3.201   1.131   2.867  0.8746  1.4045 -1.1043
11235TIP3    H255121   3.218   1.212   2.993  0.4125 -0.8698  0.4400
11236TIP3   OH255122   2.673   3.723   5.290  0.0917 -0.1768 -0.4254
11236TIP3    H155123   2.746   3.784   5.279  0.3977 -0.3778  0.4439
11236TIP3    H255124   2.715   3.640   5.311 -0.3530 -0.5199 -0.9002
11237TIP3   OH255125   1.997   4.095   4.478 -0.0806  0.0231 -0.4165
11237TIP3    H155126   1.942   4.172   4.491  0.3982  0.0023  2.0094
11237TIP3    H255127   1.936   4.025   4.456 -0.6662  0.7454 -1.1260
11238TIP3   OH255128   2.834   2.671  14.761 -0.0230 -0.0797 -0.0544
11238TIP3    H155129   2.828   2.764  14.740  2.2011 -0.3305 -1.9562
11238TIP3    H255130   2.903   2.665  14.827 -0.1276 -0.3842  0.0292
11239TIP3   OH255131   0.555   6.099   3.271  0.3142  0.2759 -0.2370
11239TIP3    H155132   0.501   6.096   3.193  0.1847 -1.1498 -0.1112
11239TIP3    H255133   0.642   6.072   3.241  0.0786 -1.0630  0.2412
11240TIP3   OH255134   0.677   3.637   5.277 -0.4167  0.2550  0.2207
11240TIP3    H155135   0.609   3.578   5.311  0.9489 -2.0022 -0.8893
11240TIP3    H255136   0.731   3.582   5.221  1.7183  2.2721  0.2409
11241TIP3   OH255137   2.055   1.100  12.385  0.4981 -0.3245  0.0859
11241TIP3    H155138   2.020   1.155  12.456 -0.9800 -0.1141 -0.7779
11241TIP3    H255139   2.103   1.161  12.329  0.7486 -0.3014  0.3268
11242TIP3   OH255140   1.281   4.142  11.935  0.5029 -0.1126  0.6293
11242TIP3    H155141   1.210   4.206  11.928 -3.4858 -4.1996  0.9689
11242TIP3    H255142   1.315   4.153  12.024 -0.7160  0.9973  0.9712
11243TIP3   OH255143   1.696   5.800   0.470 -0.0054 -0.1146 -0.4106
11243TIP3    H155144   1.728   5.803   0.560  2.3515 -0.9972 -1.1901
11243TIP3    H255145   1.769   5.831   0.417 -2.0369  2.3385 -1.8992
11244TIP3   OH255146   3.260   1.404  16.195  0.4192 -0.2140 -0.4451
11244TIP3    H155147   3.291   1.419  16.284 -0.6013  1.8687 -0.4235
11244TIP3    H255148   3.165   1.414  16.200  0.1350 -2.1477 -1.3834
11245TIP3   OH255149   6.757   1.059  14.729 -0.1826  0.1218 -0.3700
11245TIP3    H155150   6.773   0.969  14.699 -1.4586 -0.1717 -0.2058
11245TIP3    H255151   6.662   1.069  14.723  0.0286  1.7429 -1.1436
11246TIP3   OH255152   6.162   4.738   1.548 -0.3947 -0.0072 -0.5266
11246TIP3    H155153   6.144   4.721   1.641  1.1475 -1.3130 -0.4535
11246TIP3    H255154   6.176   4.833   1.543  1.6010 -0.2040  0.9483
11247TIP3   OH255155   0.606   6.540   0.857 -0.0995  0.0903  0.1373
11247TIP3    H155156   0.578   6.459   0.815  0.8686  0.0036 -0.3448
11247TIP3    H255157   0.610   6.520   0.950  0.2379 -0.4480  0.0064
11248TIP3   OH255158   6.281   2.953   5.744  0.5898 -0.9303 -0.0372
11248TIP3    H155159   6.331   2.947   5.825  2.7004 -1.5604 -1.3670
11248TIP3    H255160   6.259   2.863   5.722  1.2025 -0.8689 -0.9038
11249TIP3   OH255161   1.866   3.180   6.377  0.2162  0.3047  0.2287
11249TIP3    H155162   1.944   3.188   6.321 -0.5832 -0.8221 -1.0841
11249TIP3    H255163   1.860   3.086   6.395 -0.8279  0.3851  0.3227
11250TIP3   OH255164   5.013   5.589  15.538 -0.0141  0.0874 -0.3345
11250TIP3    H155165   4.972   5.628  15.615  1.0818 -0.7519  0.6813
11250TIP3    H255166   5.055   5.663  15.493 -0.0343  0.4546  0.2520
11251TIP3   OH255167   5.753   0.962  14.202 -0.8319 -0.2271  0.1784
11251TIP3    H155168   5.701   1.011  14.138  1.7302  0.2283 -1.6451
11251TIP3    H255169   5.755   0.873  14.167 -0.3320 -0.2295  0.2154
11252TIP3   OH255170   1.931   2.615   0.685 -0.4954 -0.6608 -0.4895
11252TIP3    H155171   2.020   2.602   0.653 -0.4680 -0.4117 -0.5175
11252TIP3    H255172   1.894   2.527   0.690  0.3369 -0.9529  1.2366
11253TIP3   OH255173   3.502   3.226   2.480 -0.3697  0.3583 -0.2487
11253TIP3    H155174   3.473   3.196   2.394 -3.1461 -0.5844  0.9397
11253TIP3    H255175   3.553   3.154   2.516  0.3490  0.5450 -0.8950
11254TIP3   OH255176   5.181   3.464  13.628  0.3475 -0.2540  0.2481
11254TIP3    H155177   5.148   3.526  13.562 -0.3416  0.5923  1.3694
11254TIP3    H255178   5.252   3.510  13.672 -0.7658  0.1198  1.7089
11255TIP3   OH255179   2.558   1.474   5.218 -0.5223 -0.5245  0.3240
11255TIP3    H155180   2.619   1.451   5.148 -1.9261 -0.3323 -1.0002
11255TIP3    H255181   2.569   1.406   5.284  2.2921  0.4162  0.8692
11256TIP3   OH255182   5.613   1.073  15.077  0.3391 -0.3979 -0.0219
11256TIP3    H155183   5.670   1.044  15.006  0.7054  0.5421 -0.1255
11256TIP3    H255184   5.599   0.995  15.130  0.7945 -0.9006 -0.6280
11257TIP3   OH255185   3.698   2.091   0.774  0.7629  0.3083 -0.8274
11257TIP3    H155186   3.725   2.022   0.835  0.2268  1.1939  0.4365
11257TIP3    H255187   3.643   2.047   0.710  0.8875 -0.5400 -0.3538
11258TIP3   OH255188   2.759   2.104  15.474  0.1472  0.3076  0.6266
11258TIP3    H155189   2.774   2.021  15.521  1.3424  0.6204  0.7937
11258TIP3    H255190   2.838   2.155  15.489  0.2138  0.7223 -1.0980
11259TIP3   OH255191   4.497   6.310  15.308 -0.0126 -0.7380 -0.0542
11259TIP3    H155192   4.404   6.310  15.332  0.1119  0.0674  0.4772
11259TIP3    H255193   4.533   6.232  15.350 -0.0628 -0.0233  1.3591
11260TIP3   OH255194   5.591   0.846   3.139  0.2864 -0.0423 -0.3111
11260TIP3    H155195   5.574   0.787   3.065  0.2342 -0.1754 -0.1934
11260TIP3    H255196   5.652   0.911   3.104 -0.7257  0.6515 -0.8392
11261TIP3   OH255197   5.885   6.353  15.153  0.3660  0.0367  0.1361
11261TIP3    H155198   5.790   6.363  15.139  0.2307  0.4455  1.3095
11261TIP3    H255199   5.921   6.440  15.135  0.6021 -0.2645 -0.8881
11262TIP3   OH255200   5.531   4.110   3.766 -0.2936 -0.6073  0.4844
11262TIP3    H155201   5.472   4.159   3.708  1.3127  1.7819  0.7827
11262TIP3    H255202   5.602   4.081   3.709  0.0771 -0.3145  0.7912
11263TIP3   OH255203   1.770   1.817   3.852 -0.0288  0.1148 -0.5582
11263TIP3    H155204   1.743   1.767   3.775  1.1390 -0.7651 -0.4086
11263TIP3    H255205   1.693   1.817   3.909 -0.5152 -0.2249 -1.2054
11264TIP3   OH255206   3.949   5.884  15.661 -0.3019 -0.0074  0.0949
11264TIP3    H155207   4.009   5.809  15.660 -0.0721  0.1298  2.0906
11264TIP3    H255208   4.006   5.961  15.664 -0.5292  0.1260  1.8792
11265TIP3   OH255209   3.251   1.248   5.759  0.2502  0.4457 -0.0643
11265TIP3    H155210   3.197   1.312   5.806  2.9987  1.7499  1.3947
11265TIP3    H255211   3.232   1.165   5.802 -3.1770  0.2273 -1.8223
11266TIP3   OH255212   4.501   6.221  11.592  0.3445  0.7507  0.0080
11266TIP3    H155213   4.529   6.212  11.683  0.0901  0.8524  0.0973
11266TIP3    H255214   4.579   6.249  11.545  1.4229 -2.7495 -0.4252
11267TIP3   OH255215   6.439   0.563  12.779  0.3100  0.1581  0.2259
11267TIP3    H155216   6.506   0.516  12.829  0.7303 -0.5868 -1.0284
11267TIP3    H255217   6.429   0.512  12.698 -2.0746  0.0022  0.5678
11268TIP3   OH255218   0.986   0.356  14.795  0.1311 -0.3754 -0.3327
11268TIP3    H155219   0.938   0.279  14.765 -1.8574  0.9375 -0.6276
11268TIP3    H255220   0.919   0.416  14.827  1.7326  0.7734  0.9957
11269TIP3   OH255221   4.172   5.416   1.281 -0.7428  0.2964 -0.0338
11269TIP3    H155222   4.167   5.372   1.196 -2.1845 -0.4634  0.4249
11269TIP3    H255223   4.220   5.354   1.336  1.4370  1.3978 -0.6438
11270TIP3   OH255224   3.323   4.093  15.327 -0.2147 -0.0737 -0.0760
11270TIP3    H155225   3.347   4.181  15.297 -0.4580 -0.0734 -0.2691
11270TIP3    H255226   3.235   4.079  15.292 -0.8942  0.3087  1.4107
11271TIP3   OH255227   3.184   2.603   3.373 -0.3706 -0.0615  0.0875
11271TIP3    H155228   3.243   2.672   3.403 -1.1588  0.5762  0.1772
11271TIP3    H255229   3.242   2.538   3.332  0.3566  0.7142 -0.1204
11272TIP3   OH255230   3.813   0.779  13.904  0.1799  0.3081 -0.2361
11272TIP3    H155231   3.898   0.747  13.933  0.9092  2.3473 -0.0530
11272TIP3    H255232   3.832   0.863  13.862 -1.6163  0.3081 -1.0926
11273TIP3   OH255233   6.525   3.225   1.122  0.3304 -0.0449 -0.5514
11273TIP3    H155234   6.488   3.174   1.050  0.4272 -1.7377  0.5634
11273TIP3    H255235   6.615   3.243   1.095 -0.3513  1.4064 -1.9013
11274TIP3   OH255236   5.143   3.344   2.187  0.0559 -0.3082  0.2944
11274TIP3    H155237   5.087   3.316   2.115 -0.3790  0.5782  0.2762
11274TIP3    H255238   5.216   3.283   2.187 -1.2299 -1.8685  0.7282
11275TIP3   OH255239   5.280   4.845   0.011 -0.1713 -0.4350  0.5268
11275TIP3    H155240   5.259   4.816  -0.078 -1.3906 -1.6442  1.1856
11275TIP3    H255241   5.355   4.903  -0.000 -1.5266  1.0000 -1.4910
11276TIP3   OH255242   3.558   4.213  14.589  0.7994 -0.2414 -0.3921
11276TIP3    H155243   3.641   4.193  14.633  0.7249  0.0576 -0.1142
11276TIP3    H255244   3.492   4.171  14.644  0.6090  1.0320  0.3869
11277TIP3   OH255245   6.243   4.103   3.354  0.0995 -0.5454  0.1326
11277TIP3    H155246   6.321   4.127   3.404 -0.7749 -0.0594  1.2834
11277TIP3    H255247   6.249   4.008   3.344 -0.1567 -0.7514  1.9104
11278TIP3   OH255248   0.738   0.560   1.987 -0.2669 -0.5101  0.1927
11278TIP3    H155249   0.662   0.548   1.930 -0.9667  0.8545  0.8173
11278TIP3    H255250   0.726   0.647   2.025  1.9096 -0.0241 -0.1575
11279TIP3   OH255251   6.315   0.070   1.562 -0.6192  0.1234 -0.4666
11279TIP3    H155252   6.221   0.072   1.543 -0.0246  1.9126 -3.5948
11279TIP3    H255253   6.335   0.160   1.589  0.7031  0.5776 -2.8191
11280TIP3   OH255254   6.762   1.649   4.076  0.0415 -0.2896 -0.0426
11280TIP3    H155255   6.800   1.594   4.007  1.3644  2.4916 -1.6120
11280TIP3    H255256   6.829   1.715   4.093 -1.9553  1.5099  0.9711
11281TIP3   OH255257   6.592   1.348   5.054 -0.5398  0.0233  0.4797
11281TIP3    H155258   6.614   1.314   5.140  0.1082 -2.8157 -0.7293
11281TIP3    H255259   6.676   1.359   5.010 -0.9208  0.3246 -0.1827
11282TIP3   OH255260   6.247   6.132  10.827 -0.4699 -0.0241 -0.6598
11282TIP3    H155261   6.254   6.133  10.731 -1.5331 -0.0261 -0.7418
11282TIP3    H255262   6.336   6.146  10.858  0.0789 -1.2371 -1.6554
11283TIP3   OH255263   2.194   4.144  11.339  0.1959 -0.5927 -0.2243
11283TIP3    H155264   2.208   4.225  11.289  1.2913  0.2836  1.4707
11283TIP3    H255265   2.188   4.076  11.272 -0.3002  0.8232 -1.6559
11284TIP3   OH255266   1.507   1.372  14.960 -0.1228  0.1744 -0.3042
11284TIP3    H155267   1.450   1.334  15.027  0.2895 -1.2363 -0.7462
11284TIP3    H255268   1.492   1.467  14.966 -1.1663 -0.0605  0.7923
11285TIP3   OH255269   5.507   1.367  14.059 -0.6624  0.1341 -0.0759
11285TIP3    H155270   5.489   1.411  14.142  0.2646  0.0000  0.2094
11285TIP3    H255271   5.449   1.408  13.996 -1.4456  0.1653  0.6664
11286TIP3   OH255272   2.107   2.979   4.983  0.2445 -0.3655  0.2462
11286TIP3    H155273   2.194   2.958   4.949 -0.0529  1.4754 -1.7581
11286TIP3    H255274   2.120   3.058   5.035 -0.0701 -0.6277  0.7208
11287TIP3   OH255275   2.123   4.293  12.394 -0.2806  0.5992  0.1874
11287TIP3    H155276   2.126   4.283  12.489 -0.6662  1.6421  0.3116
11287TIP3    H255277   2.108   4.387  12.380 -2.6436  0.0711 -0.8842
11288TIP3   OH255278   2.427   5.211  14.038 -0.6162  0.2950 -0.3042
11288TIP3    H155279   2.447   5.258  14.119 -3.1013 -0.1421  0.6057
11288TIP3    H255280   2.426   5.119  14.063 -1.8623  0.1860 -0.7034
11289TIP3   OH255281   5.032   2.297  13.860 -0.2545  0.0369  0.2604
11289TIP3    H155282   5.058   2.307  13.768 -2.3761  0.1860 -0.3453
11289TIP3    H255283   5.020   2.202  13.870 -4.1263  0.3409 -0.8253
11290TIP3   OH255284   3.183   2.873  12.976  0.2219 -0.2277  0.4802
11290TIP3    H155285   3.143   2.947  12.930 -0.3711  0.4817  2.1310
11290TIP3    H255286   3.173   2.800  12.914 -0.7857  0.6502 -0.4328
11291TIP3   OH255287   2.147   0.890  16.272 -0.6004  0.4470 -0.0330
11291TIP3    H155288   2.240   0.899  16.293 -0.5398  0.8028 -0.4472
11291TIP3    H255289   2.103   0.894  16.357 -0.1913 -0.4346  0.2379
11292TIP3   OH255290   3.578   5.741  11.033 -0.2971  0.4667 -0.4361
11292TIP3    H155291   3.593   5.751  10.939 -2.6571  0.8329 -0.7937
11292TIP3    H255292   3.483   5.737  11.043 -0.1080  0.8737  1.9941
11293TIP3   OH255293   0.129   1.493  11.927  0.1949  0.5220  0.5117
11293TIP3    H155294   0.086   1.527  11.849  2.5043  1.2842 -0.4682
11293TIP3    H255295   0.092   1.544  11.999 -0.9527  0.7662 -0.2468
11294TIP3   OH255296   2.743   1.968  17.020 -0.0663 -0.1892 -0.6852
11294TIP3    H155297   2.807   1.923  17.075  0.2836 -0.6780 -1.4781
11294TIP3    H255298   2.796   2.009  16.952 -0.4718  0.6275 -0.5066
11295TIP3   OH255299   1.249   2.345  10.618  0.5359  0.1104 -0.0424
11295TIP3    H155300   1.161   2.369  10.588 -1.4678 -2.7303  3.1723
11295TIP3    H255301   1.285   2.427  10.651 -0.6894  1.4227 -1.8082
11296TIP3   OH255302   4.184   5.780   4.475 -0.0877 -0.1096 -0.0248
11296TIP3    H155303   4.149   5.692   4.490 -0.5321  0.2344  0.9737
11296TIP3    H255304   4.276   5.766   4.453  0.3714 -0.7193  2.1264
11297TIP3   OH255305   5.452   3.052  10.366 -0.1498  0.6999  0.1270
11297TIP3    H155306   5.479   2.960  10.362  0.6006  0.8285  1.6339
11297TIP3    H255307   5.531   3.101  10.345 -0.2744  1.0169  0.3972
11298TIP3   OH255308   0.977   2.705  12.995  0.0508  0.2369  0.7226
11298TIP3    H155309   0.949   2.615  13.013 -0.8797 -0.0359 -1.8436
11298TIP3    H255310   0.899   2.748  12.961  1.1678  1.2416 -0.6438
11299TIP3   OH255311   2.160   2.666   3.058 -0.2836  0.3007 -0.1740
11299TIP3    H155312   2.203   2.684   3.142 -1.0933 -1.4094  0.6475
11299TIP3    H255313   2.195   2.581   3.031 -0.6404  0.4608 -1.1682
11300TIP3   OH255314   0.615   3.723  11.737  0.1604 -0.5499 -0.0172
11300TIP3    H155315   0.643   3.637  11.767  0.8470 -0.1805  0.4266
11300TIP3    H255316   0.641   3.727  11.645  0.6376 -0.5986  0.1170
11301TIP3   OH255317   0.380   3.751  16.230  0.2626 -0.3054 -0.7198
11301TIP3    H155318   0.440   3.754  16.155  2.2031 -0.2382  0.7918
11301TIP3    H255319   0.309   3.810  16.206  2.8676  2.9296 -0.8705
11302TIP3   OH255320   6.545   0.042   1.269 -0.2705 -0.1448  0.3418
11302TIP3    H155321   6.537  -0.006   1.186 -1.6187  1.6293 -0.5884
11302TIP3    H255322   6.464   0.093   1.275 -0.0841 -0.0794  2.6552
11303TIP3   OH255323   3.215   4.894   5.975 -0.0949  0.4264 -0.2396
11303TIP3    H155324   3.188   4.978   6.011 -0.7773 -0.2365  0.8140
11303TIP3    H255325   3.182   4.829   6.037  1.2087 -0.5736 -0.5516
11304TIP3   OH255326   3.182   3.218  11.600  0.3275 -0.7764  0.1246
11304TIP3    H155327   3.207   3.184  11.514  0.5204 -0.2081 -0.0511
11304TIP3    H255328   3.133   3.298  11.580  0.5624 -0.5248  0.5490
11305TIP3   OH255329   1.139   1.513   0.998 -0.0347  0.0857  0.4858
11305TIP3    H155330   1.101   1.443   0.945  0.3649  0.9903 -1.0247
11305TIP3    H255331   1.139   1.478   1.088 -2.4610 -0.7166  0.2008
11306TIP3   OH255332   3.227   2.264   1.120  0.5312  0.0379 -0.7285
11306TIP3    H155333   3.312   2.229   1.144  0.7827  0.1606 -1.4556
11306TIP3    H255334   3.210   2.232   1.032  0.7533  1.6978 -1.4014
11307TIP3   OH255335   1.375   3.933  10.726  0.4922  0.2230  0.0568
11307TIP3    H155336   1.460   3.908  10.763 -0.3454 -0.5204  1.5749
11307TIP3    H255337   1.335   3.849  10.701 -0.5079  0.3945  1.0183
11308TIP3   OH255338   0.757   0.621   1.650  0.5388  0.3789  0.9684
11308TIP3    H155339   0.729   0.705   1.613 -0.3384 -0.4428 -0.2867
11308TIP3    H255340   0.707   0.556   1.601  1.0793 -0.8717  2.0531
11309TIP3   OH255341   1.460   2.675  15.733 -0.0147  0.4738  0.2004
11309TIP3    H155342   1.501   2.738  15.793  0.5558  0.9303 -0.6583
11309TIP3    H255343   1.402   2.623  15.789  1.7694 -0.2223  1.4435
11310TIP3   OH255344   4.729   3.094  13.534 -0.5176 -0.3523  0.1196
11310TIP3    H155345   4.664   3.156  13.567 -0.6903 -0.5301  0.1185
11310TIP3    H255346   4.791   3.148  13.485 -0.3614 -0.1127  0.5801
11311TIP3   OH255347   4.419   2.742   4.290  0.2526 -0.1966 -0.1809
11311TIP3    H155348   4.495   2.760   4.235 -0.1419 -0.4651 -0.8232
11311TIP3    H255349   4.370   2.824   4.291 -0.0704 -0.3770 -0.7640
11312TIP3   OH255350   1.780   1.088  15.544  0.1682 -0.2199 -0.3386
11312TIP3    H155351   1.820   1.005  15.570  0.2388 -0.0510  0.1082
11312TIP3    H255352   1.848   1.132  15.492  0.4153 -0.1085  0.0776
11313TIP3   OH255353   0.280   3.333  11.149 -0.1763  0.5413  0.5203
11313TIP3    H155354   0.210   3.279  11.112 -0.4112  0.8576  0.4989
11313TIP3    H255355   0.355   3.275  11.155 -0.7749 -0.1332  1.6507
11314TIP3   OH255356   0.125   4.126  17.114  0.0411 -0.0083 -0.1764
11314TIP3    H155357   0.151   4.133  17.206 -0.7405  0.8859 -0.0080
11314TIP3    H255358   0.168   4.048  17.082 -1.1837 -1.3945  1.4670
11315TIP3   OH255359   2.553   2.713  14.953  0.3742  0.4778  0.2498
11315TIP3    H155360   2.592   2.758  15.027  0.5135 -1.2118  1.2211
11315TIP3    H255361   2.553   2.778  14.882  2.4087  1.3511  1.0318
11316TIP3   OH255362   4.853   2.382   1.620 -0.1104  0.4084 -0.5643
11316TIP3    H155363   4.833   2.475   1.622  0.5734  0.5874 -1.7195
11316TIP3    H255364   4.816   2.351   1.538 -2.7019 -0.9139  1.0275
11317TIP3   OH255365   5.123   4.844   4.019 -0.4287  0.1023  0.2852
11317TIP3    H155366   5.208   4.813   4.049 -0.6387 -1.3035 -0.5521
11317TIP3    H255367   5.142   4.890   3.937 -0.8149 -2.9002 -1.5731
11318TIP3   OH255368   4.301   4.726  14.235 -0.2851 -0.1155 -0.5844
11318TIP3    H155369   4.391   4.700  14.253 -0.4906 -0.2670  0.2679
11318TIP3    H255370   4.287   4.804  14.289 -1.1889 -1.0790  0.6018
11319TIP3   OH255371   6.341   3.869  12.691  0.1418 -0.0748  0.2791
11319TIP3    H155372   6.304   3.858  12.779  0.8620 -0.2300  0.5637
11319TIP3    H255373   6.297   3.803  12.638  1.9655 -2.0841  1.2240
11320TIP3   OH255374   2.488   3.097  16.958  0.1144  0.3378 -0.3427
11320TIP3    H155375   2.432   3.175  16.962  0.2240  0.3828  0.3601
11320TIP3    H255376   2.576   3.131  16.972  0.1608  0.0892 -0.0295
11321TIP3   OH255377   5.975   2.077  10.942 -0.3606  0.7507 -1.0099
11321TIP3    H155378   5.887   2.042  10.928 -0.4574  0.1357  0.9197
11321TIP3    H255379   6.034   2.007  10.914 -0.5449 -0.3654  1.2524
11322TIP3   OH255380   1.882   3.718   1.240  0.0777  0.1030  0.0695
11322TIP3    H155381   1.859   3.627   1.222 -0.1228  0.6196 -2.3971
11322TIP3    H255382   1.978   3.720   1.230 -0.1031  0.5315 -1.6267
11323TIP3   OH255383   6.627   1.508  12.528  0.3948  0.3083 -0.4550
11323TIP3    H155384   6.558   1.455  12.487  0.3989 -0.7435  0.8509
11323TIP3    H255385   6.583   1.551  12.601  1.3253 -1.1664  1.0155
11324TIP3   OH255386   5.102   4.239  15.441 -0.6025 -0.1423  0.5927
11324TIP3    H155387   5.119   4.150  15.473 -1.1165 -0.4004  0.1637
11324TIP3    H255388   5.081   4.289  15.520 -0.7338 -0.5061  0.7923
11325TIP3   OH255389   4.476   4.504   3.914 -0.3201 -0.2850 -0.0035
11325TIP3    H155390   4.461   4.591   3.878 -0.8364 -0.4356 -0.1565
11325TIP3    H255391   4.405   4.491   3.976 -1.3110 -1.3262 -1.3315
11326TIP3   OH255392   1.249   2.896  16.113 -0.8230 -0.2072 -0.3472
11326TIP3    H155393   1.179   2.878  16.050  0.4774  1.5529 -2.3491
11326TIP3    H255394   1.203   2.919  16.193 -2.5373  0.2324 -1.4323
11327TIP3   OH255395   0.530   2.521  16.501  0.0117 -0.8662 -0.0822
11327TIP3    H155396   0.600   2.502  16.563 -0.1988 -0.9342  0.1343
11327TIP3    H255397   0.474   2.585  16.545  1.2279  0.9883 -1.1545
11328TIP3   OH255398   4.994   5.081  12.013 -0.2285  0.2809 -0.3704
11328TIP3    H155399   5.015   5.075  12.107 -0.2807  0.5313 -0.3418
11328TIP3    H255400   5.040   5.007  11.974  0.4953  0.6612 -0.2692
11329TIP3   OH255401   6.466   5.477  14.938 -0.2304 -0.0538 -0.2199
11329TIP3    H155402   6.398   5.538  14.966 -2.7117 -2.1018 -1.4978
11329TIP3    H255403   6.509   5.449  15.019 -1.1270  1.0465  0.6491
11330TIP3   OH255404   3.277   5.668  16.531  0.3030 -0.2928 -0.3616
11330TIP3    H155405   3.345   5.641  16.593 -1.0404  0.0205  1.2967
11330TIP3    H255406   3.306   5.754  16.501  0.3683  0.0852  0.7553
11331TIP3   OH255407   2.380   1.147  12.105  0.5741  0.0883 -0.0429
11331TIP3    H155408   2.413   1.070  12.152  0.5978  0.5703  0.7281
11331TIP3    H255409   2.451   1.171  12.046 -0.3461 -1.9416 -2.0489
11332TIP3   OH255410   0.639   3.371  15.362  0.0826  1.0623  0.0735
11332TIP3    H155411   0.711   3.428  15.390 -0.0120  0.9447  0.5728
11332TIP3    H255412   0.673   3.282  15.374 -0.4241  0.9944  1.0924
11333TIP3   OH255413   6.240   6.732  14.179  0.2653 -0.5421 -0.2403
11333TIP3    H155414   6.250   6.802  14.244 -0.5908 -2.2979  1.8567
11333TIP3    H255415   6.158   6.751  14.135  1.5343  1.4410 -1.8346
11334TIP3   OH255416   3.305   5.054  12.145 -0.0040  0.0467  0.4722
11334TIP3    H155417   3.264   5.108  12.213 -0.1728 -1.2054  1.3779
11334TIP3    H255418   3.329   5.117  12.076 -1.0773  1.1443  1.0716
11335TIP3   OH255419   0.836   5.110  15.725  0.2334  0.3940 -0.6296
11335TIP3    H155420   0.862   5.096  15.816  0.8671  0.7104 -0.7654
11335TIP3    H255421   0.898   5.059  15.673 -1.1152 -1.1208 -0.8076
11336TIP3   OH255422   1.761   6.545  12.188 -0.4849  0.0246  0.1723
11336TIP3    H155423   1.826   6.487  12.228  0.3793  0.6164 -0.3394
11336TIP3    H255424   1.740   6.608  12.256 -0.4322 -0.0997  0.3045
11337TIP3   OH255425   5.947   4.300  11.738 -0.6213  0.0232 -0.3912
11337TIP3    H155426   5.912   4.388  11.752 -0.2116  0.3332 -1.2928
11337TIP3    H255427   5.990   4.305  11.653  0.9249 -0.5646  0.3360
11338TIP3   OH255428   3.229   5.844   6.310 -0.0334 -0.0207  0.0510
11338TIP3    H155429   3.195   5.904   6.377 -1.4818 -0.5693 -0.1868
11338TIP3    H255430   3.307   5.888   6.277 -0.6226  1.3554  0.4528
11339TIP3   OH255431   3.521   6.737   5.130  0.0366  0.4231 -0.2641
11339TIP3    H155432   3.579   6.665   5.155 -0.1556  0.2595 -0.2845
11339TIP3    H255433   3.434   6.708   5.158  0.0331  0.8633  0.1746
11340TIP3   OH255434   2.235   1.294  15.805  0.0850 -0.6415  0.2093
11340TIP3    H155435   2.260   1.305  15.897  0.3790  0.7754 -0.0318
11340TIP3    H255436   2.149   1.253  15.808 -1.2763  2.1774  1.1786
11341TIP3   OH255437   0.014   5.637   2.156  0.5374 -0.9228  0.1825
11341TIP3    H155438   0.104   5.647   2.185  0.4096 -0.2219  0.3464
11341TIP3    H255439   0.014   5.666   2.065  0.3087 -0.1079  0.4394
11342TIP3   OH255440   1.162   2.468  11.281  0.7358  0.2433  0.0078
11342TIP3    H155441   1.089   2.449  11.222 -0.2092 -0.4799  1.3764
11342TIP3    H255442   1.120   2.503  11.360  1.6966 -1.9921  1.5637
11343TIP3   OH255443   1.142   6.650  13.539  0.2356  0.3469  0.2210
11343TIP3    H155444   1.140   6.732  13.490  0.6824  0.2022 -0.0398
11343TIP3    H255445   1.217   6.657  13.597  0.7663 -0.2182 -0.3937
11344TIP3   OH255446   3.770   2.145   3.619  0.2533  0.0702  0.0013
11344TIP3    H155447   3.750   2.227   3.664 -0.8361 -0.5639  0.6984
11344TIP3    H255448   3.846   2.110   3.665 -1.0214 -0.7167  1.5762
11345TIP3   OH255449   2.104   3.933  11.700 -0.2014  0.1998 -0.1766
11345TIP3    H155450   2.075   3.933  11.792 -2.0206  0.7507 -0.7302
11345TIP3    H255451   2.198   3.950  11.705 -0.4564  1.2678  1.5491
11346TIP3   OH255452   5.770   4.287   0.536 -0.1681 -1.0285 -0.0841
11346TIP3    H155453   5.709   4.330   0.475 -2.2428 -1.1681  1.8026
11346TIP3    H255454   5.778   4.349   0.608 -0.5440 -2.3721  1.1165
11347TIP3   OH255455   4.867   6.114   4.314 -0.6299  0.0461 -0.3288
11347TIP3    H155456   4.777   6.091   4.339 -1.5982  0.2030 -3.4242
11347TIP3    H255457   4.858   6.195   4.265  1.3823  0.7506  0.4154
11348TIP3   OH255458   6.694   2.083   0.664  0.1746  0.3410 -0.5423
11348TIP3    H155459   6.707   2.175   0.688  1.5091  0.4444 -1.5637
11348TIP3    H255460   6.599   2.071   0.666  0.1381  0.8728  2.7051
11349TIP3   OH255461   4.068   0.518  11.389 -0.0697 -0.5048 -0.1449
11349TIP3    H155462   4.091   0.439  11.340  0.7700  0.0388 -0.6462
11349TIP3    H255463   4.114   0.509  11.472 -0.3513 -0.7661 -0.0174
11350TIP3   OH255464   6.362   2.704  12.389 -0.1903  1.2312 -0.1685
11350TIP3    H155465   6.310   2.731  12.314 -0.1496  1.0536 -0.2591
11350TIP3    H255466   6.440   2.760  12.385 -0.4392  1.6023  0.0547
11351TIP3   OH255467   3.258   5.154   3.360 -0.0213 -0.2210  0.1459
11351TIP3    H155468   3.353   5.166   3.366 -0.3024  1.5949  1.3872
11351TIP3    H255469   3.231   5.135   3.450 -1.2585  2.8290  0.4747
11352TIP3   OH255470   4.468   2.297  14.920  0.3014 -0.1765  0.3955
11352TIP3    H155471   4.484   2.323  14.829  0.9962 -0.6638  0.3705
11352TIP3    H255472   4.373   2.287  14.926  0.4083 -2.4337 -0.9283
11353TIP3   OH255473   5.138   6.475   2.210 -0.4097 -0.0750 -0.1504
11353TIP3    H155474   5.213   6.527   2.180 -2.0911  1.7551 -1.2372
11353TIP3    H255475   5.161   6.385   2.187  2.1774  0.2272  1.0006
11354TIP3   OH255476   3.823   2.200   2.789  0.4969 -0.7119 -0.3903
11354TIP3    H155477   3.824   2.280   2.737  1.6358 -0.9724 -0.7669
11354TIP3    H255478   3.732   2.170   2.784  0.2873  0.0135 -1.0618
11355TIP3   OH255479   1.109   6.748   3.730  0.9106 -0.3663 -0.6006
11355TIP3    H155480   1.067   6.758   3.816  2.8607 -1.4618  0.5228
11355TIP3    H255481   1.139   6.836   3.708 -0.2133  0.0541 -0.4909
11356TIP3   OH255482   2.578   3.856  14.381  0.4872  0.7658  0.0279
11356TIP3    H155483   2.658   3.813  14.349  0.6717  2.5019 -1.9305
11356TIP3    H255484   2.580   3.943  14.341 -1.2698  1.6242  1.7473
11357TIP3   OH255485   4.308   5.897  11.368  0.1983 -0.5497  0.1837
11357TIP3    H155486   4.311   5.992  11.375  0.6451 -0.5271 -0.3096
11357TIP3    H255487   4.398   5.868  11.386  0.0504 -0.8805  0.4035
11358TIP3   OH255488   4.775   2.146  12.748 -0.1946 -0.2253  0.3484
11358TIP3    H155489   4.836   2.107  12.810  1.4477  2.1834  0.2961
11358TIP3    H255490   4.749   2.229  12.788  0.4475  1.0908 -1.8784
11359TIP3   OH255491   2.912   1.610   0.789 -0.3677 -0.1414  0.6657
11359TIP3    H155492   2.918   1.536   0.727  1.4972  0.1818  0.4402
11359TIP3    H255493   2.937   1.686   0.737 -1.6695  0.5801  1.0746
11360TIP3   OH255494   0.154   0.848  12.200  0.1760 -0.2888  0.3178
11360TIP3    H155495   0.088   0.857  12.269 -1.5480 -1.4649 -1.1376
11360TIP3    H255496   0.203   0.769  12.223 -0.8162 -1.0477 -0.0998
11361TIP3   OH255497   4.295   3.636   1.780  0.2344 -0.1350  0.1902
11361TIP3    H155498   4.301   3.545   1.808  0.7253 -1.2189 -3.2017
11361TIP3    H255499   4.201   3.651   1.769  0.3030 -1.1463 -1.9539
11362TIP3   OH255500   1.839   6.292  16.788  0.1324  0.1693 -0.3978
11362TIP3    H155501   1.748   6.271  16.810 -0.2618  0.3268 -1.8192
11362TIP3    H255502   1.874   6.332  16.868 -1.6060  1.8452 -0.4268
11363TIP3   OH255503   6.245   3.564  12.750 -0.2210 -0.1846  0.0246
11363TIP3    H155504   6.313   3.514  12.704 -0.9590 -1.1650 -0.0177
11363TIP3    H255505   6.220   3.509  12.824 -0.0745  0.7467  0.7764
11364TIP3   OH255506   6.035   3.102  10.625  0.1989 -0.1497 -0.3615
11364TIP3    H155507   6.109   3.145  10.669 -0.3101 -0.9367  1.3063
11364TIP3    H255508   6.051   3.118  10.532  1.1704  1.7801  0.0873
11365TIP3   OH255509   3.371   2.486  14.951 -0.0510 -0.1848  0.5281
11365TIP3    H155510   3.308   2.478  14.879 -0.0363  0.3554  0.4538
11365TIP3    H255511   3.328   2.543  15.014  0.5557  0.5580  0.2677
11366TIP3   OH255512   0.626   0.129   2.721  0.0123  0.1380 -0.5373
11366TIP3    H155513   0.619   0.197   2.653  0.4756  0.4982 -0.2279
11366TIP3    H255514   0.695   0.161   2.779 -2.0865  1.0344  1.5043
11367TIP3   OH255515   1.859   0.891  12.343 -0.4198  0.2612 -0.1677
11367TIP3    H155516   1.878   0.819  12.403 -1.7314  0.4289  0.4714
11367TIP3    H255517   1.918   0.962  12.371 -0.8047  0.2336  0.7289
11368TIP3   OH255518   2.885   0.737  13.974 -0.1104 -0.1098 -0.3360
11368TIP3    H155519   2.970   0.751  14.017 -0.0149  1.4612 -0.9751
11368TIP3    H255520   2.829   0.702  14.042  0.7919 -0.2342  0.3525
11369TIP3   OH255521   4.984   0.892   6.693  0.8294  0.1939  0.8806
11369TIP3    H155522   4.981   0.814   6.748 -0.4716  0.1989  0.8468
11369TIP3    H255523   5.075   0.899   6.666  1.6089  0.4789  3.4352
11370TIP3   OH255524   3.275   3.223  12.471 -0.2854  0.6417  0.3355
11370TIP3    H155525   3.297   3.151  12.530  0.8230  0.1449 -0.6640
11370TIP3    H255526   3.190   3.254  12.501 -0.3550 -0.5033  1.3331
11371TIP3   OH255527   4.423   3.591   2.666  0.2675 -0.0653  0.3012
11371TIP3    H155528   4.343   3.645   2.672  0.7070  0.6513 -0.1716
11371TIP3    H255529   4.391   3.504   2.641 -0.3189  0.3635 -0.4873
11372TIP3   OH255530   3.468   4.297   5.485  0.2946 -0.5292 -0.4066
11372TIP3    H155531   3.512   4.339   5.559 -0.1862 -0.1689 -0.3213
11372TIP3    H255532   3.538   4.250   5.439  1.0806  1.4027 -1.2333
11373TIP3   OH255533   4.319   1.761   2.750 -0.4426 -0.3761  0.3596
11373TIP3    H155534   4.238   1.718   2.722 -0.5726  0.4498 -0.5455
11373TIP3    H255535   4.295   1.852   2.765  0.4401 -0.0073 -0.4395
11374TIP3   OH255536   1.556   3.751   1.503  0.4055 -0.1669 -0.2350
11374TIP3    H155537   1.582   3.837   1.470 -0.3487 -0.0990 -0.6529
11374TIP3    H255538   1.469   3.764   1.539  0.2229 -0.7924 -0.4479
11375TIP3   OH255539   3.552   2.972   5.058  0.1283  0.4361 -0.8162
11375TIP3    H155540   3.494   2.913   5.105 -0.0683  1.4215  0.2027
11375TIP3    H255541   3.609   2.914   5.008  0.2427 -0.6359  0.5180
11376TIP3   OH255542   3.864   6.002   2.935 -0.4109 -0.8264 -0.3645
11376TIP3    H155543   3.794   5.938   2.923 -0.6496 -0.7725  0.6637
11376TIP3    H255544   3.943   5.955   2.910 -0.7302 -1.1171 -0.8405
11377TIP3   OH255545   3.405   2.640   2.057 -0.1804  0.2805 -1.0303
11377TIP3    H155546   3.430   2.629   2.149  0.2289 -1.5014 -1.3361
11377TIP3    H255547   3.462   2.711   2.026  1.8655 -1.1537 -0.6946
11378TIP3   OH255548   6.006   2.605   0.293 -0.1082 -0.1590 -0.0390
11378TIP3    H155549   5.971   2.672   0.234  0.6651  0.1937 -0.0995
11378TIP3    H255550   6.093   2.637   0.317  0.1696 -1.0297  0.1205
11379TIP3   OH255551   0.892   0.899  16.230  0.0942  0.0512  0.4144
11379TIP3    H155552   0.923   0.911  16.320  0.2290  1.5866  0.1751
11379TIP3    H255553   0.971   0.896  16.177  0.0890 -2.5229  0.5159
11380TIP3   OH255554   6.130   3.232   2.194 -0.6551 -0.3532 -0.6907
11380TIP3    H155555   6.184   3.284   2.253  0.3738  0.6197 -2.4505
11380TIP3    H255556   6.144   3.142   2.221  2.0164 -0.1424 -1.2127
11381TIP3   OH255557   3.873   1.612  16.212 -0.1288 -0.3665  0.2122
11381TIP3    H155558   3.858   1.586  16.303 -0.8603  1.9251  0.7668
11381TIP3    H255559   3.815   1.555  16.161 -0.9871 -0.5029  1.3254
11382TIP3   OH255560   4.543   3.619   6.179  0.3608  0.0128 -0.1578
11382TIP3    H155561   4.610   3.687   6.173 -1.0647  1.6045  1.2815
11382TIP3    H255562   4.588   3.539   6.155  2.2123  1.3935 -1.4239
11383TIP3   OH255563   4.922   6.222   0.982  0.0161  0.1397  0.1309
11383TIP3    H155564   4.923   6.127   0.996  0.5364  0.1928  0.4564
11383TIP3    H255565   5.011   6.250   1.001  0.7302  0.2462 -3.0731
11384TIP3   OH255566   2.515   2.266   1.404  0.6017  0.3136  0.1171
11384TIP3    H155567   2.439   2.320   1.425 -1.0664 -1.8225 -0.2032
11384TIP3    H255568   2.535   2.287   1.313 -0.8333 -0.5165 -0.3990
11385TIP3   OH255569   5.559   0.410   2.456 -0.0703  0.4043  0.2126
11385TIP3    H155570   5.580   0.388   2.365 -1.0350  0.1169  0.0562
11385TIP3    H255571   5.546   0.325   2.499 -0.9485  0.5802  0.2957
11386TIP3   OH255572   0.979   1.452  15.098 -0.6877  0.8464  0.2348
11386TIP3    H155573   0.987   1.547  15.085 -1.8853  1.0355  0.7513
11386TIP3    H255574   1.054   1.429  15.153  0.1522  1.3280 -0.6988
11387TIP3   OH255575   0.558   1.639   4.030 -0.0466 -0.0621  0.9683
11387TIP3    H155576   0.521   1.552   4.042  0.8473 -0.2590  2.2658
11387TIP3    H255577   0.523   1.668   3.945  2.5845 -3.1407 -1.2834
11388TIP3   OH255578   4.374   1.157   1.180 -0.6590  0.2184  0.3158
11388TIP3    H155579   4.381   1.084   1.241  1.4554  0.4223  0.3729
11388TIP3    H255580   4.371   1.235   1.236  0.5762  0.3609  0.2110
11389TIP3   OH255581   0.678   3.840   5.446 -0.5555  0.3019  0.3396
11389TIP3    H155582   0.676   3.762   5.391  1.4730  0.4202  0.0765
11389TIP3    H255583   0.629   3.905   5.396 -1.2016 -0.4289  0.0029
11390TIP3   OH255584   4.931   4.538   0.730 -0.1380 -0.2940 -0.5108
11390TIP3    H155585   4.858   4.576   0.681 -1.0229  0.6871  1.5513
11390TIP3    H255586   4.976   4.613   0.769  0.7369 -1.0514 -0.0474
11391TIP3   OH255587   0.320   6.347  15.087 -0.5235 -0.3124  0.1129
11391TIP3    H155588   0.250   6.282  15.093  0.9655 -2.1411 -1.7439
11391TIP3    H255589   0.361   6.347  15.173 -1.8350 -0.3309  0.7459
11392TIP3   OH255590   0.388   2.375   4.838 -0.0338  0.3748  0.9699
11392TIP3    H155591   0.346   2.288   4.836  0.0235  0.3806 -0.7015
11392TIP3    H255592   0.436   2.380   4.756  2.1938  0.9112  2.2815
11393TIP3   OH255593   2.411   0.539  14.374 -0.1787 -0.1035 -0.0169
11393TIP3    H155594   2.425   0.632  14.388 -0.8517  0.0554 -0.3995
11393TIP3    H255595   2.382   0.532  14.283 -0.5041 -0.6493  0.1252
11394TIP3   OH255596   1.619   2.758   0.041  0.0099  0.4966  0.2616
11394TIP3    H155597   1.640   2.835  -0.013 -0.2830  0.6781  0.4005
11394TIP3    H255598   1.537   2.782   0.084 -1.3040 -0.8011 -1.4407
11395TIP3   OH255599   6.509   6.616   4.277  0.3343 -0.0328  0.4118
11395TIP3    H155600   6.438   6.577   4.327  0.5177 -0.2142  0.5342
11395TIP3    H255601   6.475   6.624   4.188 -0.2480  0.9557  0.7117
11396TIP3   OH255602   0.093   5.010  10.578 -0.1512 -0.0712 -0.2097
11396TIP3    H155603   0.169   4.955  10.598  1.3914  1.6993 -1.0453
11396TIP3    H255604   0.130   5.085  10.532 -2.4874  0.6042 -1.0323
11397TIP3   OH255605   5.590   2.711  16.332 -0.6020 -0.0586  0.0192
11397TIP3    H155606   5.573   2.618  16.315  0.2260 -0.4162  1.1217
11397TIP3    H255607   5.646   2.739  16.260 -0.7947 -0.4365 -0.2789
11398TIP3   OH255608   4.859   2.534  10.669 -0.0056 -0.1069  0.1316
11398TIP3    H155609   4.886   2.477  10.597  0.0378 -0.4487  0.4145
11398TIP3    H255610   4.769   2.507  10.689  0.0266 -0.0987  0.2884
11399TIP3   OH255611   3.725   6.633  14.442  0.0600 -0.1713 -0.1136
11399TIP3    H155612   3.745   6.550  14.399 -1.0782 -1.0376  1.0039
11399TIP3    H255613   3.658   6.673  14.387  1.2504  0.4482 -1.1475
11400TIP3   OH255614   2.409   2.920  10.989 -0.5978  0.1980 -0.0095
11400TIP3    H155615   2.423   3.013  10.972  0.5475 -0.1529 -0.9864
11400TIP3    H255616   2.473   2.875  10.935 -0.9180 -1.1597  0.7120
11401TIP3   OH255617   1.959   3.431  15.014 -0.3620  0.0279 -0.3614
11401TIP3    H155618   1.987   3.484  14.939 -0.5468  1.7254  0.7720
11401TIP3    H255619   1.949   3.343  14.977 -1.6256  1.0757 -2.6095
11402TIP3   OH255620   6.280   0.905  12.567  0.1988  0.0139  0.3402
11402TIP3    H155621   6.273   0.981  12.625 -0.9679 -0.6347  1.0710
11402TIP3    H255622   6.355   0.924  12.512  1.4663  0.5575  2.2107
11403TIP3   OH255623   3.740   2.853   4.908  0.2092  0.4915  0.2992
11403TIP3    H155624   3.790   2.776   4.936 -0.4995  0.7894  2.4806
11403TIP3    H255625   3.797   2.897   4.846  0.9564 -1.3684 -0.3758
11404TIP3   OH255626   1.677   4.883   5.541  0.4744 -0.2203  0.0408
11404TIP3    H155627   1.663   4.817   5.473 -3.5127  1.7021 -1.1596
11404TIP3    H255628   1.625   4.852   5.615 -0.3490  0.8499 -0.0750
11405TIP3   OH255629   1.636   4.830  11.019  0.6400  0.4387  0.0284
11405TIP3    H155630   1.709   4.885  11.049 -0.9459  2.8127 -0.3810
11405TIP3    H255631   1.635   4.842  10.924  0.6950 -0.8579 -0.1445
11406TIP3   OH255632   1.119   3.275  15.290 -0.5965  0.3351  0.0560
11406TIP3    H155633   1.076   3.358  15.271 -1.6227 -0.0370  0.7575
11406TIP3    H255634   1.146   3.242  15.204 -1.6825  0.5829 -0.3843
11407TIP3   OH255635   5.886   2.038   2.948  0.4074 -0.0636 -0.4707
11407TIP3    H155636   5.929   1.963   2.907 -1.2197 -0.8982 -0.6876
11407TIP3    H255637   5.868   2.098   2.876  1.6166  0.5104 -0.3118
11408TIP3   OH255638   6.369   6.050   5.618  0.0260  0.0895 -0.1609
11408TIP3    H155639   6.411   6.135   5.629  1.4304 -0.2591 -2.5642
11408TIP3    H255640   6.292   6.067   5.564  1.6692 -0.4913 -2.7596
11409TIP3   OH255641   5.023   1.214   6.521  0.5220  0.5324  0.4082
11409TIP3    H155642   4.947   1.248   6.475  0.2124  0.3938  0.8124
11409TIP3    H255643   4.997   1.212   6.613  0.1842 -1.7126  0.2876
11410TIP3   OH255644   1.061   2.009   2.743 -0.1852  0.4118 -0.2532
11410TIP3    H155645   1.069   2.033   2.835 -0.5900 -0.5973  0.0614
11410TIP3    H255646   0.974   2.040   2.717 -1.0970 -1.4788  0.4157
11411TIP3   OH255647   6.060   4.602  15.335  0.0686  0.0333 -0.0253
11411TIP3    H155648   6.002   4.568  15.403  1.2000 -1.5277  0.1797
11411TIP3    H255649   6.001   4.628  15.264 -0.8266 -3.0562 -0.4759
11412TIP3   OH255650   4.100   5.401   5.175  0.6950 -0.0011  0.2694
11412TIP3    H155651   4.061   5.347   5.244  1.2251 -0.2057  0.4110
11412TIP3    H255652   4.073   5.359   5.094  1.0658 -0.4474  0.3793
11413TIP3   OH255653   4.087   3.293  14.184  0.3501  0.6729  0.1575
11413TIP3    H155654   4.176   3.307  14.152 -0.4825  1.9939 -1.6872
11413TIP3    H255655   4.052   3.226  14.125 -1.1231  2.9573 -1.6603
11414TIP3   OH255656   3.186   0.185  11.614 -0.2646 -0.2455 -0.1153
11414TIP3    H155657   3.120   0.235  11.662 -0.1028 -0.1154 -0.0268
11414TIP3    H255658   3.184   0.221  11.526  1.2373  1.2695  0.4528
11415TIP3   OH255659   1.638   4.316  15.620  0.1037 -0.4609 -0.2436
11415TIP3    H155660   1.694   4.241  15.643  1.0800 -0.3883 -2.2128
11415TIP3    H255661   1.554   4.277  15.598  0.2067 -0.8528  0.0404
11416TIP3   OH255662   5.929   1.745   2.094 -0.0739 -0.1529 -0.6419
11416TIP3    H155663   5.899   1.764   2.183  2.1016 -0.1719  0.1380
11416TIP3    H255664   5.869   1.793   2.038  0.2831  2.2888  0.9798
11417TIP3   OH255665   3.022   5.621   5.295  0.5495  0.3903  0.7455
11417TIP3    H155666   3.114   5.629   5.268  0.1786 -1.3538 -1.1574
11417TIP3    H255667   2.973   5.659   5.221 -0.3012  0.5112  1.3681
11418TIP3   OH255668   1.131   6.667  15.016 -0.3623 -0.1129 -0.6502
11418TIP3    H155669   1.098   6.651  14.928  1.0479 -1.0423 -1.0409
11418TIP3    H255670   1.166   6.756  15.013 -1.0577  0.1582 -0.7858
11419TIP3   OH255671   4.257   6.625  15.407  0.0799 -0.6605  0.0775
11419TIP3    H155672   4.341   6.642  15.450 -0.0554 -0.6499  0.3331
11419TIP3    H255673   4.205   6.579  15.472 -1.3019  2.2329  1.0938
11420TIP3   OH255674   0.459   0.092   3.723  0.0685  0.9097 -0.2788
11420TIP3    H155675   0.439   0.165   3.665 -0.4433 -0.3393 -1.7037
11420TIP3    H255676   0.388   0.092   3.788 -1.3618  0.1103 -1.8106
11421TIP3   OH255677   0.925   2.902   5.233 -0.0830 -0.3654  0.1842
11421TIP3    H155678   1.020   2.900   5.233  0.0745  2.7957  3.1992
11421TIP3    H255679   0.903   2.971   5.170 -0.3021  0.3429  1.0358
11422TIP3   OH255680   2.071   3.029   3.278  0.5893  0.1541  0.2177
11422TIP3    H155681   2.156   3.047   3.237  0.9430 -1.8540  0.0302
11422TIP3    H255682   2.090   2.968   3.348 -0.8652 -1.3697 -0.6724
11423TIP3   OH255683   4.915   3.879  13.626  0.0649 -0.2831  0.0089
11423TIP3    H155684   4.915   3.972  13.648 -0.1377  0.1603 -1.7993
11423TIP3    H255685   4.982   3.871  13.558  0.0081 -1.4388  0.0834
11424TIP3   OH255686   1.303   0.483  12.846 -0.0724  0.1521 -0.0384
11424TIP3    H155687   1.345   0.486  12.760 -0.2495 -1.3435 -0.1926
11424TIP3    H255688   1.339   0.559  12.892 -0.2731  1.2004 -1.5546
11425TIP3   OH255689   6.775   5.081  16.549 -0.0440  0.0819 -0.1170
11425TIP3    H155690   6.727   5.163  16.541 -0.4100  0.0305  1.4555
11425TIP3    H255691   6.760   5.036  16.466 -1.3884  0.7694 -0.2550
11426TIP3   OH255692   6.322   0.290   4.527  0.0142  0.1638  0.2336
11426TIP3    H155693   6.334   0.202   4.490  0.2298  1.9689 -4.2894
11426TIP3    H255694   6.402   0.304   4.578  0.4515 -1.8755  0.1833
11427TIP3   OH255695   6.142   5.764   2.946 -0.5079  0.1151  0.7796
11427TIP3    H155696   6.227   5.806   2.960 -0.4110 -0.0280  0.6135
11427TIP3    H255697   6.089   5.832   2.904  0.2426 -0.5468 -1.2562
11428TIP3   OH255698   0.514   3.891  13.860  0.4475  0.0537 -0.0945
11428TIP3    H155699   0.421   3.872  13.850  0.3029  1.5421 -1.9746
11428TIP3    H255700   0.556   3.842  13.789  1.1061 -0.6857  0.8036
11429TIP3   OH255701   5.706   4.967   0.132 -0.0111 -0.2430  0.0783
11429TIP3    H155702   5.686   5.047   0.181 -1.2115  0.9033 -2.1562
11429TIP3    H255703   5.725   4.999   0.043  0.9197 -2.3250 -0.4892
11430TIP3   OH255704   1.256   4.453  12.887  0.9021  0.6764 -0.1429
11430TIP3    H155705   1.336   4.467  12.938  0.7672  0.8793  0.0189
11430TIP3    H255706   1.226   4.542  12.867 -1.1131  0.7163  2.6826
11431TIP3   OH255707   1.709   6.111  13.103  0.4055  0.3351  0.1618
11431TIP3    H155708   1.790   6.102  13.052  0.0982 -1.0276 -0.0936
11431TIP3    H255709   1.687   6.022  13.130  1.4642  1.1975  4.1676
11432TIP3   OH255710   1.657   1.881   0.209 -0.2137  0.5321 -0.5735
11432TIP3    H155711   1.649   1.799   0.160 -4.3607 -0.2075  1.1296
11432TIP3    H255712   1.697   1.854   0.292 -1.6777  0.1354  0.0311
11433TIP3   OH255713   5.172   4.284  14.204 -0.2939 -0.1545  0.0961
11433TIP3    H155714   5.154   4.308  14.295  0.0023  1.2675 -0.2221
11433TIP3    H255715   5.190   4.367  14.159 -0.1102 -0.8711 -1.1921
11434TIP3   OH255716   6.485   1.916  14.733  0.5966 -0.7998  0.4474
11434TIP3    H155717   6.462   1.823  14.722  0.1891 -0.8080  1.3120
11434TIP3    H255718   6.577   1.921  14.707  0.5669 -1.4062  0.2079
11435TIP3   OH255719   2.601   0.614   1.034  0.2515  0.4894 -0.2736
11435TIP3    H155720   2.606   0.681   1.102 -0.2892  1.1999 -0.9337
11435TIP3    H255721   2.581   0.662   0.953  1.0214 -0.3325 -0.9624
11436TIP3   OH255722   1.505   6.255   0.996 -0.3371 -0.1146  0.3024
11436TIP3    H155723   1.579   6.312   0.974 -1.4531  0.8450 -1.0731
11436TIP3    H255724   1.505   6.188   0.926 -1.6720  0.7822 -0.5715
11437TIP3   OH255725   3.309   2.017   1.450  0.3554  0.0662 -0.0610
11437TIP3    H155726   3.237   2.015   1.387 -0.0189  0.0672  0.3657
11437TIP3    H255727   3.369   2.083   1.415 -0.8517  1.5928  0.6772
11438TIP3   OH255728   3.117   6.325   3.447  0.1386 -0.0593  0.0097
11438TIP3    H155729   3.195   6.287   3.488 -1.3037 -2.0309  0.9699
11438TIP3    H255730   3.152   6.391   3.388  2.5157 -0.3994  0.9676
11439TIP3   OH255731   1.933   1.675  16.852  0.3032 -0.0118  0.4637
11439TIP3    H155732   1.904   1.746  16.795 -0.7768 -0.7394  0.1053
11439TIP3    H255733   2.025   1.696  16.870  0.3079  0.8866 -0.5273
11440TIP3   OH255734   5.877   4.681   2.853 -0.4346  0.2318  0.3392
11440TIP3    H155735   5.926   4.719   2.926  1.7631  1.6395 -1.7747
11440TIP3    H255736   5.822   4.753   2.822 -1.2247 -0.3034  0.5083
11441TIP3   OH255737   3.432   4.179   3.120  0.3543 -0.2858 -0.0985
11441TIP3    H155738   3.459   4.269   3.138 -0.9967  0.1495 -0.2085
11441TIP3    H255739   3.506   4.141   3.072  1.7804  0.1416  1.6780
11442TIP3   OH255740   0.904   4.566  11.644  0.0656  0.2948  0.3732
11442TIP3    H155741   0.978   4.617  11.611  0.8215 -0.8263  0.2942
11442TIP3    H255742   0.896   4.591  11.735  1.5200 -0.6632  0.7923
11443TIP3   OH255743   5.016   1.046  14.469  0.1394  0.5771  0.6446
11443TIP3    H155744   4.982   0.964  14.434 -2.2082  1.8212 -0.0997
11443TIP3    H255745   5.106   1.050  14.437 -0.3578 -0.7437 -0.9996
11444TIP3   OH255746   3.103   5.288   2.030  0.0743  0.5026 -0.2410
11444TIP3    H155747   3.124   5.229   2.102 -1.5222  1.4443  1.0202
11444TIP3    H255748   3.110   5.376   2.067  0.5926  1.0485 -1.6051
11445TIP3   OH255749   3.590   0.922  11.287 -0.1356  0.2274 -0.7580
11445TIP3    H155750   3.540   0.888  11.212  0.8816  0.9716 -1.7966
11445TIP3    H255751   3.665   0.863  11.294 -0.0226  0.3927 -0.5789
11446TIP3   OH255752   1.481   4.021  11.413  0.3636  0.0600 -0.4239
11446TIP3    H155753   1.419   3.949  11.412  0.0210  0.3113  1.4065
11446TIP3    H255754   1.541   4.000  11.485  0.0715  1.7614  0.3247
11447TIP3   OH255755   6.194   1.981   1.169 -0.0787 -0.3043  0.2116
11447TIP3    H155756   6.275   1.954   1.213  1.1207  1.2662 -0.9816
11447TIP3    H255757   6.178   1.913   1.104  0.7794 -0.1667 -0.1509
11448TIP3   OH255758   5.741   6.706  13.378  0.0664 -0.0119  0.7365
11448TIP3    H155759   5.745   6.638  13.310  0.0627  1.1990 -0.5083
11448TIP3    H255760   5.829   6.707  13.415  0.3187 -0.0905  0.1499
11449TIP3   OH255761   3.401   0.189  12.164 -0.3174  0.2779 -0.2105
11449TIP3    H155762   3.338   0.159  12.230 -1.9976 -0.5399 -2.1432
11449TIP3    H255763   3.448   0.110  12.137  0.4070  0.6196  0.0509
11450TIP3   OH255764   1.001   2.176  15.730  0.4896  0.0857  0.2918
11450TIP3    H155765   1.036   2.101  15.777 -1.0387 -0.9542 -0.1956
11450TIP3    H255766   1.076   2.209  15.680  0.8010 -2.1398 -0.7950
11451TIP3   OH255767   5.280   1.376   6.232  0.1640 -0.1503 -0.1683
11451TIP3    H155768   5.309   1.439   6.298 -1.2562  0.2128  0.1199
11451TIP3    H255769   5.358   1.359   6.179  1.1596  0.0164  1.2246
11452TIP3   OH255770   1.974   6.475  10.985  0.3294  0.2656 -0.1610
11452TIP3    H155771   1.886   6.508  11.002 -0.2310 -1.3368  0.1178
11452TIP3    H255772   1.960   6.391  10.941  1.7063 -0.3848  0.6095
11453TIP3   OH255773   5.345   5.508   1.410 -0.2002 -0.1024 -0.2432
11453TIP3    H155774   5.423   5.518   1.355  1.5182 -2.3744  1.6213
11453TIP3    H255775   5.287   5.451   1.360  0.4309 -0.4247 -0.6081
11454TIP3   OH255776   3.235   1.687  15.437 -0.2699 -0.2800  0.0723
11454TIP3    H155777   3.240   1.699  15.532 -1.5675 -0.5644  0.1871
11454TIP3    H255778   3.326   1.682  15.408  0.1466 -2.1671  1.5668
11455TIP3   OH255779   3.624   2.895   4.166  0.1600 -0.2530  0.3057
11455TIP3    H155780   3.550   2.944   4.204  0.1220 -0.0990  0.0307
11455TIP3    H255781   3.583   2.834   4.105  0.2906  0.0595 -0.0903
11456TIP3   OH255782   0.757   4.405  12.312  0.9456 -0.0992  0.0365
11456TIP3    H155783   0.747   4.443  12.225 -0.3430 -1.4102 -0.3981
11456TIP3    H255784   0.781   4.314  12.296  0.3708 -0.4363  1.0458
11457TIP3   OH255785   6.553   5.131  13.382 -0.0907  0.2461  0.0581
11457TIP3    H155786   6.625   5.179  13.422  1.3618 -2.0955  0.3599
11457TIP3    H255787   6.575   5.129  13.289 -0.2334  0.3396  0.0235
11458TIP3   OH255788   0.140   5.517  10.916  0.8176  0.4018  0.1974
11458TIP3    H155789   0.202   5.479  10.978  1.0889 -0.3120 -0.5085
11458TIP3    H255790   0.086   5.443  10.887 -0.5220  1.0450  0.9729
11459TIP3   OH255791   4.949   6.378   1.407  0.1260 -0.4415 -0.3244
11459TIP3    H155792   5.014   6.423   1.353 -0.5568 -0.8124 -1.4617
11459TIP3    H255793   4.925   6.300   1.356  1.5948 -2.3627  1.7907
11460TIP3   OH255794   6.437   2.618  11.246 -0.4307 -0.5896  0.3664
11460TIP3    H155795   6.417   2.610  11.153 -0.3155 -1.0928  0.3857
11460TIP3    H255796   6.360   2.660  11.284 -0.0709  0.5452 -0.1256
11461TIP3   OH255797   0.887   3.282   4.683 -0.1092 -0.0517 -0.1471
11461TIP3    H155798   0.907   3.288   4.776  0.5141 -0.1066 -0.2778
11461TIP3    H255799   0.837   3.202   4.674 -1.2561  0.6008  0.3326
11462TIP3   OH255800   6.759   5.984  16.564  0.6947 -0.0372 -0.0572
11462TIP3    H155801   6.665   6.005  16.567  0.2402 -2.0334  0.9697
11462TIP3    H255802   6.803   6.066  16.586 -0.8235  0.8114 -0.0902
11463TIP3   OH255803   3.483   3.533  12.887  0.1968 -0.2583  0.4196
11463TIP3    H155804   3.392   3.552  12.909 -0.8653 -1.0981 -2.9027
11463TIP3    H255805   3.483   3.523  12.792  3.5797 -1.2659  0.4543
11464TIP3   OH255806   6.151   6.472  13.936  0.3000  0.0918  0.0447
11464TIP3    H155807   6.209   6.537  13.897 -0.3165  1.1424  0.8439
11464TIP3    H255808   6.184   6.461  14.025  0.3027 -0.5757 -0.0345
11465TIP3   OH255809   5.800   0.372   3.376 -0.0204 -0.4040  0.1925
11465TIP3    H155810   5.790   0.413   3.462 -1.9189  1.1269 -0.7269
11465TIP3    H255811   5.753   0.430   3.317  0.4822 -1.9495 -1.7459
11466TIP3   OH255812   2.365   6.413   0.375  0.1664  0.0803 -0.2654
11466TIP3    H155813   2.324   6.382   0.294 -0.2969 -1.2728  0.4834
11466TIP3    H255814   2.316   6.370   0.445 -0.1888  2.1269  0.7955
11467TIP3   OH255815   5.056   4.780   0.831  0.5245  0.1817  0.1872
11467TIP3    H155816   5.091   4.808   0.915 -0.4771  1.2520  0.2461
11467TIP3    H255817   5.058   4.859   0.777  0.3881 -0.3129 -0.5440
11468TIP3   OH255818   5.741   2.496   5.658 -0.0871 -0.3492 -0.0044
11468TIP3    H155819   5.767   2.551   5.732  0.2926  2.4834 -2.1443
11468TIP3    H255820   5.647   2.512   5.648  0.2998  1.1831 -1.5578
11469TIP3   OH255821   4.937   3.067  11.810 -0.2947  0.3300  0.3034
11469TIP3    H155822   4.883   3.085  11.733 -0.1870  0.2553  0.2104
11469TIP3    H255823   4.910   2.980  11.839 -0.9818  0.7375  0.8900
11470TIP3   OH255824   3.775   2.695  14.915  0.0130 -0.3938  0.1662
11470TIP3    H155825   3.768   2.628  14.983  0.1074  1.8344  2.4149
11470TIP3    H255826   3.734   2.655  14.838 -2.0537 -2.1656  2.1115
11471TIP3   OH255827   2.840   0.967  17.238 -0.8241  0.0159 -0.1726
11471TIP3    H155828   2.829   0.961  17.143 -0.1599 -1.0564 -0.1852
11471TIP3    H255829   2.816   0.880  17.271  2.1428 -0.6863  0.3117
11472TIP3   OH255830   4.122   4.805   5.028 -0.0137 -0.0478  0.9504
11472TIP3    H155831   4.213   4.793   5.002  0.4024 -0.0591  2.3672
11472TIP3    H255832   4.072   4.772   4.954  1.1204  1.2727 -0.4301
11473TIP3   OH255833   4.451   6.296  14.582  0.2006 -0.0314 -0.5110
11473TIP3    H155834   4.393   6.341  14.522  0.5311  1.1043  0.0083
11473TIP3    H255835   4.508   6.365  14.617  0.8007 -0.8663  0.1875
11474TIP3   OH255836   5.746   2.095  17.072  0.0455  0.3495 -0.1482
11474TIP3    H155837   5.827   2.142  17.089 -0.0222  1.0887 -1.8089
11474TIP3    H255838   5.773   2.017  17.024 -0.2867  0.9409 -1.3055
11475TIP3   OH255839   5.117   1.499   2.063 -0.1054  0.4872 -0.6053
11475TIP3    H155840   5.074   1.572   2.107  2.3448  3.3899 -2.8423
11475TIP3    H255841   5.132   1.529   1.974  0.0146 -3.1691 -1.9185
11476TIP3   OH255842   1.830   4.508  15.099  0.7764 -0.0573 -0.2510
11476TIP3    H155843   1.881   4.586  15.121  1.2913 -0.1333 -1.1104
11476TIP3    H255844   1.875   4.473  15.022  0.6991 -1.3452  0.2856
11477TIP3   OH255845   5.020   6.568  11.806 -0.4831  0.8574  0.5924
11477TIP3    H155846   5.048   6.489  11.761 -0.6270  0.8221  0.5644
11477TIP3    H255847   4.943   6.598  11.756 -0.8915  0.5865  1.0657
11478TIP3   OH255848   4.391   5.200   4.626  0.0246 -0.0751  0.0850
11478TIP3    H155849   4.319   5.209   4.563  1.1680  3.3264 -0.8682
11478TIP3    H255850   4.449   5.134   4.588 -0.3446  0.4485 -1.4281
11479TIP3   OH255851   4.767   0.090   1.935 -0.0322  0.2782 -0.1875
11479TIP3    H155852   4.822   0.110   1.859  1.1788  0.8018  0.8081
11479TIP3    H255853   4.711   0.018   1.906 -0.1006  0.9622 -1.8137
11480TIP3   OH255854   4.143   4.629  16.926  0.1792 -0.3185 -0.3734
11480TIP3    H155855   4.171   4.693  16.860  2.3866 -0.9741 -0.1248
11480TIP3    H255856   4.097   4.561  16.875 -2.9085  1.8136 -0.5340
11481TIP3   OH255857   1.297   5.876  14.423  0.2076 -0.3432 -0.4397
11481TIP3    H155858   1.353   5.835  14.489  1.1272 -0.1699 -1.0915
11481TIP3    H255859   1.359   5.922  14.366 -0.6009 -0.2320 -1.2284
11482TIP3   OH255860   4.140   1.175   2.890 -0.5529  0.3385  0.3567
11482TIP3    H155861   4.048   1.161   2.909 -0.4820 -0.5311  0.1051
11482TIP3    H255862   4.186   1.107   2.940 -0.3364 -1.6327 -2.4119
11483TIP3   OH255863   1.721   0.074  17.169 -0.1275  0.0514  0.1968
11483TIP3    H155864   1.743  -0.009  17.212  1.2823  0.6575  0.6620
11483TIP3    H255865   1.695   0.132  17.241  1.2823  0.7644  0.1406
11484TIP3   OH255866   3.404   6.597   5.787  0.1407 -0.0556 -0.5355
11484TIP3    H155867   3.392   6.509   5.752  0.8632 -0.8363  1.1247
11484TIP3    H255868   3.498   6.602   5.808 -0.1846  0.5310  0.8767
11485TIP3   OH255869   2.074   6.118   3.013  0.0369 -0.5818 -0.2575
11485TIP3    H155870   2.110   6.068   2.940  1.3245 -2.8339  1.8454
11485TIP3    H255871   2.150   6.145   3.065 -0.9249 -0.4362  1.1280
11486TIP3   OH255872   1.237   0.025   4.528 -0.0145  0.3269 -0.4027
11486TIP3    H155873   1.321  -0.019   4.511  0.8683  1.2213  1.4337
11486TIP3    H255874   1.239   0.044   4.622 -1.7850  1.3998 -0.5589
11487TIP3   OH255875   1.068   2.872  15.869  0.2275 -0.5747 -0.5056
11487TIP3    H155876   1.061   2.955  15.822  0.8519 -0.3022 -0.1166
11487TIP3    H255877   0.977   2.850  15.892 -0.0936 -0.7154 -1.8397
11488TIP3   OH255878   6.517   3.104  15.233 -0.5668 -0.4059  0.3103
11488TIP3    H155879   6.565   3.029  15.269  0.6605 -0.1768 -0.8187
11488TIP3    H255880   6.485   3.151  15.310 -0.7852 -1.7175  1.0435
11489TIP3   OH255881   1.237   4.739   4.474 -0.0997 -0.5916  0.3622
11489TIP3    H155882   1.319   4.767   4.432  0.3382  1.0244  2.2077
11489TIP3    H255883   1.235   4.644   4.460  2.0077 -0.6433  0.1396
11490TIP3   OH255884   3.165   6.320  12.397 -0.4789 -0.2664 -1.0643
11490TIP3    H155885   3.111   6.241  12.405 -0.4323 -0.1163  0.9582
11490TIP3    H255886   3.250   6.288  12.367 -0.8423 -0.8383 -1.4868
11491TIP3   OH255887   1.184   0.882  13.928 -0.1029  0.2395  0.1863
11491TIP3    H155888   1.179   0.794  13.967 -0.8832 -0.0840 -0.6293
11491TIP3    H255889   1.262   0.879  13.873  0.0712  0.1691  0.4343
11492TIP3   OH255890   5.011   0.467  11.938  0.2443 -0.5527 -0.3823
11492TIP3    H155891   5.059   0.526  11.997 -0.2665  0.1159 -0.6288
11492TIP3    H255892   4.955   0.525  11.887 -2.4626 -1.4922  1.4037
11493TIP3   OH255893   6.637   4.465  17.034  0.2206 -0.1698 -0.3103
11493TIP3    H155894   6.545   4.491  17.032 -0.1698 -1.4285  0.6026
11493TIP3    H255895   6.674   4.514  17.108 -0.5998 -2.4124  1.6406
11494TIP3   OH255896   2.383   0.324  15.813 -0.1998 -0.3435  0.1737
11494TIP3    H155897   2.438   0.391  15.853  1.4477 -1.9363  0.6413
11494TIP3    H255898   2.305   0.321  15.869 -0.1761  1.0133  0.2854
11495TIP3   OH255899   1.919   4.674  13.535 -0.0254  0.1025 -0.3545
11495TIP3    H155900   1.956   4.601  13.585 -0.6961 -0.1449 -0.2132
11495TIP3    H255901   1.946   4.752  13.582 -0.7409 -0.1317  0.4646
11496TIP3   OH255902   3.541   2.695  17.078  0.3499 -0.0411 -0.3779
11496TIP3    H155903   3.626   2.733  17.055  0.1363  1.3915  1.0834
11496TIP3    H255904   3.477   2.753  17.036  0.0678 -0.6716 -0.8284
11497TIP3   OH255905   3.236   3.756  12.019  0.0350  0.0947 -0.7788
11497TIP3    H155906   3.305   3.692  11.997 -1.3650 -1.2245 -1.4173
11497TIP3    H255907   3.238   3.762  12.114  0.1519 -0.9604 -0.7075
11498TIP3   OH255908   3.291   2.522  17.210  0.1509 -0.0408  0.0962
11498TIP3    H155909   3.262   2.492  17.124 -0.1070 -0.0917  0.2017
11498TIP3    H255910   3.214   2.566  17.247 -0.0880 -0.9848  0.7496
11499TIP3   OH255911   4.125   3.743   0.747  0.1402 -0.1715  0.4136
11499TIP3    H155912   4.049   3.800   0.761 -0.3458 -0.9892  1.1945
11499TIP3    H255913   4.199   3.802   0.741 -0.6752  0.7066 -1.2396
11500TIP3   OH255914   1.446   0.955  13.797 -0.6829  0.0476  0.4871
11500TIP3    H155915   1.492   0.974  13.879  0.3621 -0.4823  0.0276
11500TIP3    H255916   1.515   0.936  13.734 -1.5160 -0.4397 -0.2978
11501TIP3   OH255917   6.267   3.533  16.728 -0.3047 -0.6521  0.3081
11501TIP3    H155918   6.264   3.539  16.823  0.7110 -0.6852  0.3412
11501TIP3    H255919   6.318   3.454  16.710 -0.7936 -0.8447 -0.2633
11502TIP3   OH255920   2.210   3.120   2.495  0.0367  0.1346  0.1099
11502TIP3    H155921   2.227   3.214   2.509 -1.3086  0.4456 -0.2475
11502TIP3    H255922   2.158   3.094   2.572  1.4703 -0.6254  0.8349
11503TIP3   OH255923   2.939   4.663   1.321  0.2243 -0.1155 -0.4370
11503TIP3    H155924   2.942   4.568   1.330 -0.5078 -0.1057 -0.0789
11503TIP3    H255925   2.890   4.693   1.397 -1.1534  0.4065 -1.5009
11504TIP3   OH255926   3.302   2.050  12.084  0.4858  0.2432 -0.7637
11504TIP3    H155927   3.384   2.000  12.081  0.1521 -0.6207  2.5336
11504TIP3    H255928   3.253   2.011  12.156 -1.6595  2.5479 -0.9237
11505TIP3   OH255929   0.795   5.660   2.951  0.1365  0.2221  0.4287
11505TIP3    H155930   0.817   5.674   3.043  2.4319 -0.0365 -0.0638
11505TIP3    H255931   0.840   5.579   2.927 -0.2724  0.3972 -0.9878
11506TIP3   OH255932   6.192   3.929   1.571  0.0543  0.1141 -0.6110
11506TIP3    H155933   6.215   4.022   1.577  1.5186 -0.3426  1.1539
11506TIP3    H255934   6.251   3.895   1.503  1.0412  0.0285  0.2790
11507TIP3   OH255935   4.276   0.586   5.646  0.4208  0.7582 -0.1059
11507TIP3    H155936   4.316   0.545   5.722 -0.1891  0.8265  0.2612
11507TIP3    H255937   4.204   0.638   5.682  1.4290  2.4934 -0.5175
11508TIP3   OH255938   6.629   1.393   6.460  0.1946  0.0734  0.1210
11508TIP3    H155939   6.695   1.361   6.521  1.4878  0.8117 -0.8705
11508TIP3    H255940   6.564   1.437   6.516  0.1784 -1.2554  1.1634
11509TIP3   OH255941   0.311   2.916   5.302 -0.5392 -0.2679  0.1939
11509TIP3    H155942   0.313   2.859   5.379 -2.1621 -0.8415 -0.1585
11509TIP3    H255943   0.261   2.993   5.331 -0.0122  0.1140  0.0960
11510TIP3   OH255944   6.149   6.200   1.682 -0.2798 -0.3349 -0.0777
11510TIP3    H155945   6.242   6.205   1.701 -0.1810 -2.7804  0.1628
11510TIP3    H255946   6.145   6.171   1.591 -0.7979 -0.4744 -0.0114
11511TIP3   OH255947   6.490   0.044   5.182  0.3319  0.4419 -0.4207
11511TIP3    H155948   6.535  -0.012   5.244 -1.8571  1.1402  1.8639
11511TIP3    H255949   6.459  -0.016   5.113 -0.8808 -0.9878  1.3314
11512TIP3   OH255950   5.777   0.914   4.836 -0.7346  0.0199  0.2398
11512TIP3    H155951   5.863   0.873   4.835 -1.1796 -0.9314 -1.2552
11512TIP3    H255952   5.757   0.926   4.928  0.8043 -0.1750  0.6061
11513TIP3   OH255953   3.133   2.796   1.728 -0.0559  0.0434 -0.3155
11513TIP3    H155954   3.041   2.821   1.725  0.7039  3.0679 -0.0150
11513TIP3    H255955   3.136   2.723   1.790 -2.2504 -0.1679 -0.4251
11514TIP3   OH255956   2.218   2.231   4.071 -0.4646  0.3311 -0.3474
11514TIP3    H155957   2.205   2.185   3.988 -0.2318 -2.7261  1.2292
11514TIP3    H255958   2.134   2.274   4.088 -1.5139 -1.5027 -0.7401
11515TIP3   OH255959   1.076   0.672   6.782 -0.3438  0.0345 -0.3034
11515TIP3    H155960   1.015   0.599   6.780 -0.9787  0.5802 -1.0976
11515TIP3    H255961   1.041   0.731   6.850  0.1578 -0.3863  0.3243
11516TIP3   OH255962   3.309   2.345  12.074 -0.6996 -0.2631 -0.2304
11516TIP3    H155963   3.316   2.389  12.158  2.7820  1.8799 -1.5437
11516TIP3    H255964   3.321   2.252  12.093 -0.9102  0.0982  1.7053
11517TIP3   OH255965   2.340   0.616  10.630 -0.1726 -0.0056 -0.0035
11517TIP3    H155966   2.393   0.580  10.701 -1.2563  0.2214  0.9382
11517TIP3    H255967   2.403   0.655  10.571  0.7150  0.3010  1.1228
11518TIP3   OH255968   0.631   4.357  14.596 -0.0243  0.0838 -0.2528
11518TIP3    H155969   0.710   4.321  14.635 -0.4973 -0.0744  0.5815
11518TIP3    H255970   0.660   4.396  14.513  0.7089 -1.0598 -0.5411
11519TIP3   OH255971   3.830   4.420   5.199 -0.3120 -0.2517  0.4302
11519TIP3    H155972   3.815   4.325   5.198  0.8073 -0.4505  1.7778
11519TIP3    H255973   3.919   4.431   5.167 -1.4353  0.5836 -2.5944
11520TIP3   OH255974   0.223   3.674   1.150  0.0897 -0.4681 -0.1455
11520TIP3    H155975   0.290   3.696   1.215 -0.5181  1.2792 -0.0747
11520TIP3    H255976   0.239   3.582   1.128  2.4329 -0.0897 -0.0655
11521TIP3   OH255977   5.684   4.896   6.163  0.6051  0.5181 -0.1085
11521TIP3    H155978   5.615   4.853   6.212  1.9669 -1.3151  0.2337
11521TIP3    H255979   5.697   4.980   6.208 -1.7493  1.1377 -0.5212
11522TIP3   OH255980   6.004   6.361   4.318 -0.1629 -0.2130  0.0062
11522TIP3    H155981   6.097   6.373   4.339 -0.3882 -0.3314  1.1005
11522TIP3    H255982   6.000   6.275   4.277  0.9197  1.7436 -4.5424
11523TIP3   OH255983   6.256   4.705   6.780  0.7749 -0.0096  0.0273
11523TIP3    H155984   6.308   4.629   6.754  0.3632 -0.1874 -0.2943
11523TIP3    H255985   6.317   4.779   6.775  0.7036 -0.0246 -1.5227
11524TIP3   OH255986   3.571   0.355   3.181  0.4142  0.0068  0.2826
11524TIP3    H155987   3.503   0.290   3.197  0.2648 -0.0791 -0.6574
11524TIP3    H255988   3.557   0.383   3.090  0.8619  0.8928  0.4750
11525TIP3   OH255989   4.408   0.006  11.786 -0.0307 -0.5111  0.3865
11525TIP3    H155990   4.460  -0.020  11.710 -1.9841 -0.8781 -0.8688
11525TIP3    H255991   4.447   0.088  11.816  4.0143 -2.9911  2.2313
11526TIP3   OH255992   0.595   5.679   1.678  0.0253 -0.3083  0.0246
11526TIP3    H155993   0.582   5.750   1.741 -1.3669  0.8830 -1.5240
11526TIP3    H255994   0.543   5.606   1.712  0.3133 -0.1105  0.8952
11527TIP3   OH255995   2.375   3.171   5.485  0.5496  0.4110 -0.2035
11527TIP3    H155996   2.470   3.174   5.498  0.5323  1.6201 -0.2915
11527TIP3    H255997   2.340   3.143   5.569  0.8639  1.7861  0.3895
11528TIP3   OH255998   0.141   6.313  13.950 -0.3462  0.0465  0.5581
11528TIP3    H155999   0.078   6.241  13.948 -0.5143  0.1283  2.4488
11528TIP3    H256000   0.184   6.309  13.864 -1.0201 -1.6986  0.2749
11529TIP3   OH256001   1.581   0.454  15.901  0.1177 -0.2394  1.0074
11529TIP3    H156002   1.535   0.392  15.845  0.0066  0.8889 -0.1923
11529TIP3    H256003   1.519   0.476  15.970  0.3153 -1.7843  1.6909
11530TIP3   OH256004   1.611   3.600   3.442 -0.3308 -0.0721 -0.0234
11530TIP3    H156005   1.528   3.597   3.393 -0.7474  1.6107  0.5354
11530TIP3    H256006   1.629   3.509   3.463 -2.0563 -0.4792 -0.1686
11531TIP3   OH256007   6.199   5.598   6.119  0.1901  0.1049  0.3724
11531TIP3    H156008   6.174   5.570   6.031  0.0305  0.9878  0.1341
11531TIP3    H256009   6.281   5.646   6.107 -0.5866  1.4884  0.5079
11532TIP3   OH256010   2.292   5.131   3.611 -0.1927 -0.3622  0.5073
11532TIP3    H156011   2.273   5.086   3.528 -0.0208  0.5008 -0.0020
11532TIP3    H256012   2.302   5.060   3.674 -0.5269 -1.0233 -0.1663
11533TIP3   OH256013   3.946   1.641   0.918  0.0609  0.2164  0.6937
11533TIP3    H156014   4.006   1.581   0.963  0.3758  0.0170  0.0051
11533TIP3    H256015   3.930   1.599   0.834  0.1213  1.0078  0.2927
11534TIP3   OH256016   2.464   6.724   4.620  0.5249 -0.2112 -0.2766
11534TIP3    H156017   2.526   6.723   4.547  1.4720 -1.7764  0.5207
11534TIP3    H256018   2.519   6.736   4.698 -0.4288  1.0098  0.2286
11535TIP3   OH256019   5.897   3.261  14.117  0.2089  0.2395 -0.1188
11535TIP3    H156020   5.959   3.244  14.187  0.7231  0.0989 -0.6063
11535TIP3    H256021   5.946   3.245  14.037 -0.2296  0.8681 -0.5219
11536TIP3   OH256022   0.441   5.317  15.252  0.2314 -0.1061  0.4012
11536TIP3    H156023   0.410   5.400  15.217 -1.8933 -0.8032  0.5908
11536TIP3    H256024   0.441   5.329  15.347 -1.6241 -0.8227  0.5155
11537TIP3   OH256025   3.220   5.088   0.554  0.9531 -1.2145  0.5714
11537TIP3    H156026   3.212   5.081   0.649 -1.6635  1.1403  0.5713
11537TIP3    H256027   3.142   5.043   0.520 -0.4558  1.7859 -0.2905
11538TIP3   OH256028   2.979   4.674  12.852 -0.3283 -0.8015  0.2993
11538TIP3    H156029   3.051   4.707  12.799 -0.5388  1.7438  1.5334
11538TIP3    H256030   3.004   4.584  12.874  2.0589 -0.2309  0.0252
11539TIP3   OH256031   2.417   2.544   5.567  0.1217  0.3530  0.0774
11539TIP3    H156032   2.387   2.614   5.625  0.0887 -0.1350  0.6569
11539TIP3    H256033   2.399   2.576   5.479  0.5567  1.2786  0.3231
11540TIP3   OH256034   0.513   2.230   6.517  0.6333  0.0324 -0.0933
11540TIP3    H156035   0.578   2.168   6.548 -0.3419  0.5001  2.9757
11540TIP3    H256036   0.438   2.176   6.492  0.4115 -0.1356  0.9475
11541TIP3   OH256037   3.544   2.961  13.243 -0.1068 -0.0507  0.0647
11541TIP3    H156038   3.555   3.012  13.162 -1.6723 -0.1262 -0.2118
11541TIP3    H256039   3.454   2.929  13.239  0.2093 -1.1304  1.2340
11542TIP3   OH256040   4.921   6.548   5.345  0.6120 -0.1172  1.5438
11542TIP3    H156041   4.966   6.532   5.261  0.2707  0.3820  1.2641
11542TIP3    H256042   4.924   6.464   5.390  1.1125 -0.2962  1.1758
11543TIP3   OH256043   2.733   0.086  13.275 -0.0289 -0.2671  0.5657
11543TIP3    H156044   2.679   0.161  13.299  1.1681  0.7390  0.1429
11543TIP3    H256045   2.671   0.013  13.272 -1.4121  0.8919 -0.0650
11544TIP3   OH256046   4.716   2.510   5.567 -0.1568  0.1007  0.0208
11544TIP3    H156047   4.735   2.432   5.619  0.3734  1.0337  1.2408
11544TIP3    H256048   4.799   2.558   5.563 -0.5637  0.7923 -0.3957
11545TIP3   OH256049   4.113   0.458  15.402  0.3543  0.3555 -0.3970
11545TIP3    H156050   4.101   0.549  15.374  0.7050  0.5188 -0.0270
11545TIP3    H256051   4.078   0.406  15.330  1.1267  0.7749 -1.0902
11546TIP3   OH256052   6.697   0.899  12.882 -0.2713 -0.1360 -0.9096
11546TIP3    H156053   6.704   0.863  12.970 -1.2701  1.8265  0.0024
11546TIP3    H256054   6.752   0.842  12.828 -2.4404 -3.5173  0.2847
11547TIP3   OH256055   1.219   5.377  14.682  0.4903 -0.3962 -0.1058
11547TIP3    H156056   1.151   5.332  14.633  0.0435 -0.6547  0.7415
11547TIP3    H256057   1.226   5.328  14.764  0.8260  0.3670  0.3250
11548TIP3   OH256058   1.457   6.727  16.342 -0.2072 -0.0900  0.5383
11548TIP3    H156059   1.449   6.678  16.260 -0.6363 -1.7182  1.5100
11548TIP3    H256060   1.549   6.754  16.346  0.5700 -2.6323  0.9331
11549TIP3   OH256061   2.563   4.730  12.050 -0.0039 -0.3279  0.0380
11549TIP3    H156062   2.626   4.800  12.068 -0.1606 -0.1262 -0.1990
11549TIP3    H256063   2.555   4.682  12.133  0.4789 -0.3662  0.0642
11550TIP3   OH256064   1.716   2.179  13.333  0.3485  0.5243 -0.4318
11550TIP3    H156065   1.778   2.228  13.279 -0.6582  2.7064  0.3000
11550TIP3    H256066   1.734   2.211  13.422 -1.6719  1.0430 -0.2014
11551TIP3   OH256067   2.580   1.488  16.537 -0.3650  0.6729 -0.0535
11551TIP3    H156068   2.614   1.411  16.582 -0.8588  1.0138  0.9297
11551TIP3    H256069   2.501   1.457  16.493  0.3097  0.2580 -0.9822
11552TIP3   OH256070   3.355   6.729  11.122  0.2087 -0.2259  0.0826
11552TIP3    H156071   3.291   6.708  11.190 -0.3305  0.8010 -0.1003
11552TIP3    H256072   3.432   6.759  11.170  0.3555 -0.9270  0.2849
11553TIP3   OH256073   1.341   6.496   0.935 -0.4065  0.2580 -0.4719
11553TIP3    H156074   1.386   6.464   1.013 -1.4800 -0.2614 -0.0538
11553TIP3    H256075   1.299   6.419   0.898 -0.8343  0.7069 -0.9331
11554TIP3   OH256076   2.979   0.046   1.350 -0.7416 -0.4308  0.6655
11554TIP3    H156077   3.020   0.087   1.427 -1.0356  0.2517  0.4644
11554TIP3    H256078   2.912   0.109   1.323 -0.3329 -0.4557 -0.4268
11555TIP3   OH256079   2.035   0.140   3.874 -0.9685  0.2160  0.1048
11555TIP3    H156080   2.075   0.167   3.956  0.4488  0.3500 -0.6134
11555TIP3    H256081   1.948   0.179   3.876 -0.0831  2.2491  0.4657
11556TIP3   OH256082   2.777   5.277  15.778 -0.5285  0.6130 -0.4150
11556TIP3    H156083   2.767   5.269  15.873 -0.1044 -0.7826 -0.4789
11556TIP3    H256084   2.859   5.325  15.766 -1.6413  2.6611 -0.0599
11557TIP3   OH256085   4.034   5.719   2.574  0.5119 -0.1272  0.6100
11557TIP3    H156086   3.963   5.779   2.595 -0.5322 -1.0017 -0.4057
11557TIP3    H256087   3.997   5.632   2.590 -0.1217 -0.8250 -4.1079
11558TIP3   OH256088   2.796   1.452  13.052  0.2056 -0.2019  0.0510
11558TIP3    H156089   2.733   1.392  13.011  0.3373  0.1911 -0.7401
11558TIP3    H256090   2.843   1.491  12.978  0.8848  0.0440  0.6086
11559TIP3   OH256091   0.514   2.781   3.599 -0.7237  0.1412 -0.7453
11559TIP3    H156092   0.574   2.770   3.525 -1.2166 -1.8493 -0.8757
11559TIP3    H256093   0.513   2.875   3.615  1.9603  0.2933 -1.1435
11560TIP3   OH256094   3.780   3.088  17.162  0.2499  0.0222 -0.0268
11560TIP3    H156095   3.708   3.063  17.105 -0.4308  1.6303  0.1095
11560TIP3    H256096   3.739   3.138  17.232  1.3975  0.2409  0.5027
11561TIP3   OH256097   4.103   6.101   5.992  0.3350  0.1811  0.3956
11561TIP3    H156098   4.193   6.093   5.961  0.1701  2.3644 -0.7786
11561TIP3    H256099   4.110   6.148   6.075  0.2218  1.4364 -0.2878
11562TIP3   OH256100   5.596   5.173   0.316 -0.3516  0.2859  0.1964
11562TIP3    H156101   5.533   5.114   0.357 -0.6654  1.8401  1.9808
11562TIP3    H256102   5.650   5.205   0.388  0.7449  1.0645 -0.9538
11563TIP3   OH256103   0.221   2.442  15.307  0.3798  0.0471 -0.6189
11563TIP3    H156104   0.128   2.429  15.286  0.6261  0.0230 -1.7177
11563TIP3    H256105   0.220   2.494  15.387 -0.5958  2.0219 -1.8707
11564TIP3   OH256106   6.244   4.689   2.515 -0.3933 -0.0014 -0.2457
11564TIP3    H156107   6.282   4.614   2.560  1.4086 -0.3207 -2.1730
11564TIP3    H256108   6.155   4.662   2.493  0.0443 -1.3634 -0.3863
11565TIP3   OH256109   4.050   6.363   5.758 -0.2521  0.4467  0.1799
11565TIP3    H156110   3.975   6.344   5.815 -1.7942  0.0533 -1.9189
11565TIP3    H256111   4.024   6.442   5.710  1.1457  0.9343  0.1856
11566TIP3   OH256112   6.699   4.098   3.299 -0.1629  0.4239 -0.3657
11566TIP3    H156113   6.728   4.184   3.268 -1.2291  0.8049 -0.3400
11566TIP3    H256114   6.717   4.038   3.227  0.7927  0.6239 -0.2998
11567TIP3   OH256115   3.519   3.068   6.133  0.2747  0.4464 -0.1211
11567TIP3    H156116   3.573   3.143   6.157 -0.2775  0.8912 -0.2624
11567TIP3    H256117   3.523   3.010   6.210 -1.5046  1.8762  1.1028
11568TIP3   OH256118   5.695   0.300  12.541 -0.5179 -0.2830  0.6655
11568TIP3    H156119   5.638   0.224  12.540  1.0146 -1.4658  1.0952
11568TIP3    H256120   5.774   0.270  12.586  0.4722  1.2819  0.0107
11569TIP3   OH256121   3.744   6.105  15.691 -0.5695 -0.9721  0.2092
11569TIP3    H156122   3.660   6.059  15.700 -1.3844  0.3863 -0.3317
11569TIP3    H256123   3.805   6.037  15.663 -1.8670 -1.6399 -1.0623
11570TIP3   OH256124   0.611   4.379  16.099 -0.0313  0.5539 -0.2663
11570TIP3    H156125   0.590   4.295  16.059  0.5634  0.7924 -1.0861
11570TIP3    H256126   0.633   4.357  16.190 -0.1672 -0.1366 -0.3974
11571TIP3   OH256127   6.686   1.290   6.180  0.2141  0.0964 -0.0943
11571TIP3    H156128   6.769   1.243   6.180  0.5849  0.7121 -1.1056
11571TIP3    H256129   6.673   1.318   6.270 -0.3264 -2.4662  0.6365
11572TIP3   OH256130   1.127   5.746   6.187  0.5983 -0.1867 -0.2846
11572TIP3    H156131   1.116   5.672   6.246 -1.0533  0.8768  0.7804
11572TIP3    H256132   1.060   5.809   6.214  2.6188  2.1416 -0.4776
11573TIP3   OH256133   2.635   4.739   2.879  0.3261  0.5388 -0.0287
11573TIP3    H156134   2.543   4.718   2.867  0.0476  1.4810  0.4065
11573TIP3    H256135   2.638   4.834   2.875  1.2712  0.5137  0.0353
11574TIP3   OH256136   2.458   6.173  12.920 -0.3305  0.1690 -0.0305
11574TIP3    H156137   2.537   6.159  12.973  0.8622  0.4997 -1.6946
11574TIP3    H256138   2.393   6.117  12.961  0.7942 -0.2144  1.3012
11575TIP3   OH256139   0.093   3.695   2.704  0.4422 -0.3006 -0.3448
11575TIP3    H156140   0.147   3.643   2.646  0.5504 -0.6978  0.1101
11575TIP3    H256141   0.044   3.754   2.646  0.8007 -0.4597 -0.8058
11576TIP3   OH256142   6.514   2.538   4.640 -0.4093 -0.6939 -0.1661
11576TIP3    H156143   6.454   2.497   4.702 -0.1052  0.6262  1.0326
11576TIP3    H256144   6.601   2.517   4.674 -0.1785 -1.9299 -1.4595
11577TIP3   OH256145   0.480   3.431  11.982  0.2950  0.1315 -0.1867
11577TIP3    H156146   0.449   3.499  11.923  0.4143 -0.2856 -0.7286
11577TIP3    H256147   0.412   3.363  11.978 -1.9506  1.9705  3.5010
11578TIP3   OH256148   3.687   4.802   2.048 -0.4210 -0.0791  0.0828
11578TIP3    H156149   3.631   4.757   2.111 -2.3415  1.4458 -0.4608
11578TIP3    H256150   3.633   4.809   1.969  0.6886  1.0828 -0.5924
11579TIP3   OH256151   5.712   1.307   5.989 -0.0322 -0.2463  0.0626
11579TIP3    H156152   5.668   1.238   6.038  0.5821 -0.1608  0.7485
11579TIP3    H256153   5.767   1.261   5.925  1.2287 -0.4328  1.2589
11580TIP3   OH256154   1.561   3.289  11.435  0.1454 -0.1330  0.1975
11580TIP3    H156155   1.571   3.383  11.420  1.3741 -0.5938 -2.0654
11580TIP3    H256156   1.620   3.270  11.508  1.0405  0.5944 -0.3366
11581TIP3   OH256157   0.884   3.093   3.438  0.1670 -0.2636 -0.7554
11581TIP3    H156158   0.789   3.096   3.430  0.0723  0.5180  0.5336
11581TIP3    H256159   0.908   3.177   3.476  1.2121 -1.1072  0.5149
11582TIP3   OH256160   5.185   4.367   4.331  0.3522  0.3955 -0.4187
11582TIP3    H156161   5.221   4.280   4.349 -1.2143 -0.2689 -0.4582
11582TIP3    H256162   5.148   4.360   4.243 -0.6055  0.8312 -0.0536
11583TIP3   OH256163   0.395   4.034  10.652 -0.3168 -0.4234 -0.1978
11583TIP3    H156164   0.461   4.014  10.719  1.2449  0.0910 -1.5425
11583TIP3    H256165   0.361   3.949  10.625 -1.5996 -0.6032  1.8276
11584TIP3   OH256166   6.280   3.229  11.110  0.2790 -0.1826  0.2744
11584TIP3    H156167   6.299   3.197  11.023 -0.2839 -1.0139  0.4509
11584TIP3    H256168   6.290   3.324  11.104 -2.6958  0.0738 -1.4849
11585TIP3   OH256169   3.359   6.111   2.345  0.2305  0.7895  0.1094
11585TIP3    H156170   3.383   6.105   2.252 -0.2092 -0.6878  0.0709
11585TIP3    H256171   3.391   6.196   2.373 -2.6398  2.7512 -2.2780
11586TIP3   OH256172   2.485   5.555   6.002 -0.4161  0.0885  0.4768
11586TIP3    H156173   2.443   5.562   6.088  0.5427  0.0055  0.9548
11586TIP3    H256174   2.475   5.642   5.963 -1.8573 -0.1888  0.1984
11587TIP3   OH256175   2.743   2.104  13.590 -0.9060 -0.8380 -0.3901
11587TIP3    H156176   2.764   2.189  13.550  2.8344 -1.4011  0.2285
11587TIP3    H256177   2.692   2.058  13.523  1.2188  0.0461 -2.6757
11588TIP3   OH256178   2.927   0.810   5.818  0.1483 -0.4284 -0.2907
11588TIP3    H156179   3.015   0.789   5.787  0.5496 -2.0870  1.8719
11588TIP3    H256180   2.899   0.732   5.866 -2.7076 -0.1137 -1.3177
11589TIP3   OH256181   5.257   4.203   0.668  0.2135  0.2385  0.1827
11589TIP3    H156182   5.163   4.217   0.658  0.5157  1.1537 -1.5433
11589TIP3    H256183   5.267   4.108   0.663 -0.5684  0.1588  0.0120
11590TIP3   OH256184   3.662   3.552  11.754 -0.2419 -0.3766  0.3873
11590TIP3    H156185   3.645   3.591  11.840  1.2475 -0.0395  0.5418
11590TIP3    H256186   3.576   3.547  11.712 -0.3799  3.7506  0.0396
11591TIP3   OH256187   5.253   2.117  13.062  0.2373 -0.0349 -0.0928
11591TIP3    H156188   5.282   2.205  13.087 -0.0203  0.1808 -0.5497
11591TIP3    H256189   5.230   2.075  13.145 -0.4762  0.6262  0.0503
11592TIP3   OH256190   4.073   4.868  12.820  0.6173 -0.0052  0.7200
11592TIP3    H156191   4.009   4.903  12.881  0.0702 -2.4525  1.5831
11592TIP3    H256192   4.144   4.836  12.876  1.6600  0.8185 -0.1182
11593TIP3   OH256193   3.110   3.064   5.468 -0.0158  0.0599  1.0055
11593TIP3    H156194   3.150   3.002   5.407 -0.2955  1.0808 -0.2468
11593TIP3    H256195   3.016   3.045   5.461 -0.4062  2.6494 -1.7440
11594TIP3   OH256196   6.397   3.952   2.592  0.8946  0.4196  0.6151
11594TIP3    H156197   6.429   3.959   2.503 -0.5910  1.3141  0.1411
11594TIP3    H256198   6.429   3.867   2.623  2.0941  0.4698 -0.4758
11595TIP3   OH256199   4.513   5.123  13.414 -0.1528  0.1719  0.1183
11595TIP3    H156200   4.451   5.057  13.382  0.5702  0.1412 -1.2116
11595TIP3    H256201   4.536   5.093  13.502  0.3408 -1.4761 -0.5515
11596TIP3   OH256202   1.127   2.247   4.168 -0.0423  0.4438 -0.2232
11596TIP3    H156203   1.216   2.216   4.149  0.5932  1.8787  0.3619
11596TIP3    H256204   1.126   2.257   4.263 -0.4077  1.7433 -0.3648
11597TIP3   OH256205   2.030   6.552   1.070  0.1497 -0.2612 -0.2828
11597TIP3    H156206   1.987   6.617   1.126 -1.5212 -1.2924 -0.3094
11597TIP3    H256207   1.999   6.573   0.982  0.1474 -0.6701 -0.3780
11598TIP3   OH256208   0.176   3.738  15.341 -0.5599  0.3580  0.2453
11598TIP3    H156209   0.239   3.811  15.337 -0.0879 -0.1010 -0.8260
11598TIP3    H256210   0.215   3.670  15.287 -1.4692 -0.3426  0.4641
11599TIP3   OH256211   6.765   0.914  15.964  0.4145 -0.1269 -0.1148
11599TIP3    H156212   6.842   0.857  15.961 -0.1422 -0.9575  0.9837
11599TIP3    H256213   6.783   0.981  15.898  2.9411  0.8067  1.4551
11600TIP3   OH256214   6.120   3.270  17.126  0.1828  0.3137  0.6089
11600TIP3    H156215   6.031   3.301  17.111  0.4360  1.0497  0.6294
11600TIP3    H256216   6.143   3.303  17.212  0.4045 -0.0494  0.6909
11601TIP3   OH256217   1.223   2.424  10.944  0.1702 -0.3435 -0.6748
11601TIP3    H156218   1.258   2.506  10.908 -0.1259  0.4326  0.7928
11601TIP3    H256219   1.283   2.401  11.015 -0.2080 -0.9701 -0.5525
11602TIP3   OH256220   4.207   0.590   3.068 -0.3181  0.2648 -0.0832
11602TIP3    H156221   4.124   0.542   3.075 -0.9942  1.4941  0.5065
11602TIP3    H256222   4.249   0.577   3.152 -0.5812  0.8461  0.1387
11603TIP3   OH256223   6.039   3.715   4.444 -0.0084  0.0892 -0.1880
11603TIP3    H156224   5.957   3.668   4.429 -0.3046  0.0379  1.4968
11603TIP3    H256225   6.065   3.746   4.357 -1.4537 -0.4718 -0.8385
11604TIP3   OH256226   3.197   3.336  13.680  0.1885  0.5889  0.3990
11604TIP3    H156227   3.110   3.330  13.643 -0.6782 -0.0614  2.4583
11604TIP3    H256228   3.229   3.246  13.681  0.9546  0.8346 -0.4467
11605TIP3   OH256229   5.443   1.361  12.235 -0.5306  0.5222 -0.1213
11605TIP3    H156230   5.417   1.272  12.212  2.3689 -0.1060 -1.1892
11605TIP3    H256231   5.443   1.408  12.151  1.3463  0.5698 -0.1220
11606TIP3   OH256232   5.209   2.493   5.100  0.1021 -0.2936 -0.4876
11606TIP3    H156233   5.222   2.510   5.007  0.9744 -0.9203 -0.4859
11606TIP3    H256234   5.185   2.578   5.137  0.2684  0.0642 -1.1925
11607TIP3   OH256235   4.180   2.593   1.474 -0.3993  0.3134  0.1707
11607TIP3    H156236   4.143   2.560   1.556  1.6881 -0.8176  0.6846
11607TIP3    H256237   4.159   2.687   1.475  0.7609  0.5997  2.6969
11608TIP3   OH256238   3.475   4.001   4.405 -0.1153 -0.0383 -0.3665
11608TIP3    H156239   3.403   4.050   4.443 -0.6822  0.4512 -2.0362
11608TIP3    H256240   3.551   4.059   4.414  0.0826 -0.5513  1.3812
11609TIP3   OH256241   6.050   6.127  13.148  0.3630 -0.0510 -0.1043
11609TIP3    H156242   6.112   6.200  13.157  0.8398 -0.6523  1.5785
11609TIP3    H256243   6.104   6.052  13.123  0.8786 -1.3455  4.4112
11610TIP3   OH256244   2.436   3.227   4.383 -0.6821 -0.1500 -0.6939
11610TIP3    H156245   2.357   3.217   4.330 -2.2991  1.8842  1.1999
11610TIP3    H256246   2.419   3.305   4.436  1.2911 -1.4764  2.0084
11611TIP3   OH256247   1.517   6.511  13.848  0.0317 -0.3696 -0.8183
11611TIP3    H156248   1.558   6.509  13.935 -0.5487  1.2380 -0.4859
11611TIP3    H256249   1.586   6.479  13.789  1.0322  0.1851  0.0171
11612TIP3   OH256250   3.517   1.283   3.581 -0.0751 -0.4346  0.2554
11612TIP3    H156251   3.539   1.223   3.509 -0.6988  0.8246 -1.0149
11612TIP3    H256252   3.573   1.256   3.653 -0.0314 -2.2743 -0.4329
11613TIP3   OH256253   3.637   0.974  15.050 -0.0443 -0.5353  0.3288
11613TIP3    H156254   3.684   1.010  15.125  0.2958 -1.2469  0.4571
11613TIP3    H256255   3.705   0.956  14.985 -0.3561  0.2555 -0.2361
11614TIP3   OH256256   2.391   0.862   5.002 -0.2801  0.5665 -0.0902
11614TIP3    H156257   2.458   0.800   5.030  0.0415  0.9895  0.0988
11614TIP3    H256258   2.390   0.929   5.071 -2.1236 -0.3338  0.7938
11615TIP3   OH256259   4.605   2.492   1.914  0.4674 -0.1691 -0.2164
11615TIP3    H156260   4.544   2.473   1.842 -0.0089  0.6701 -0.0450
11615TIP3    H256261   4.664   2.417   1.917 -0.1714 -0.6935 -0.8027
11616TIP3   OH256262   1.290   5.399  15.712 -0.4317 -0.0837 -0.2756
11616TIP3    H156263   1.223   5.344  15.670  0.3326 -1.3095  0.0841
11616TIP3    H256264   1.340   5.338  15.767  0.1012  1.0698  0.5409
11617TIP3   OH256265   0.723   1.197  11.926 -0.6438  0.9803  0.3799
11617TIP3    H156266   0.780   1.247  11.867 -1.0415  1.1977  0.1755
11617TIP3    H256267   0.647   1.177  11.873  0.4002 -1.6391 -0.1887
11618TIP3   OH256268   2.897   0.177   0.893 -0.2187  0.0813  0.6431
11618TIP3    H156269   2.948   0.248   0.852  0.1150 -0.2869  0.4132
11618TIP3    H256270   2.896   0.108   0.827  2.1321 -1.3606  2.0683
11619TIP3   OH256271   3.096   0.743  14.634 -0.1659  0.1441 -0.0668
11619TIP3    H156272   3.058   0.655  14.623 -0.2722  0.3115 -1.1207
11619TIP3    H256273   3.022   0.798  14.659 -0.0261 -0.1415  0.9832
11620TIP3   OH256274   0.247   5.649   2.278 -0.4704 -0.2207 -0.4545
11620TIP3    H156275   0.282   5.568   2.315  1.5586 -0.2565 -2.3340
11620TIP3    H256276   0.279   5.718   2.336  1.3846 -0.4155 -1.2132
11621TIP3   OH256277   3.546   6.565  15.722 -0.0356  0.3546 -0.0494
11621TIP3    H156278   3.590   6.642  15.756  0.4515  0.8395 -1.7534
11621TIP3    H256279   3.606   6.529  15.656 -0.6994 -0.8899 -0.0019
11622TIP3   OH256280   1.387   3.358  13.474  0.5699 -0.7945 -0.0458
11622TIP3    H156281   1.476   3.385  13.452  0.6695 -0.4707  0.7487
11622TIP3    H256282   1.398   3.287  13.537  0.2469  0.8303  1.8759
11623TIP3   OH256283   6.599   4.059  14.746 -0.2988  0.1934 -0.3600
11623TIP3    H156284   6.592   4.127  14.680 -0.3904  0.7115  0.1837
11623TIP3    H256285   6.509   4.031  14.763 -0.3166  0.4211 -0.0795
11624TIP3   OH256286   6.722   1.906  10.752  0.4733 -0.0116 -0.0668
11624TIP3    H156287   6.668   1.974  10.791  1.7661  0.1320  1.5086
11624TIP3    H256288   6.807   1.949  10.736  1.7289 -1.5432  2.1403
11625TIP3   OH256289   5.490   0.704   2.945  0.4943  0.0591  0.0710
11625TIP3    H156290   5.430   0.640   2.983 -0.6052 -0.2628 -2.1227
11625TIP3    H256291   5.560   0.652   2.907  0.5154  0.2555 -0.1607
11626TIP3   OH256292   5.421   2.067   5.529  0.2643 -0.2760 -0.7085
11626TIP3    H156293   5.406   2.013   5.607  1.1555  0.8998  0.2990
11626TIP3    H256294   5.390   2.013   5.457 -0.9047 -1.2578  0.4864
11627TIP3   OH256295   4.041   4.661   1.184 -0.3081 -0.1707 -0.3067
11627TIP3    H156296   4.012   4.726   1.119 -1.1947 -0.3295 -0.0871
11627TIP3    H256297   4.099   4.603   1.135 -0.9535 -0.2770 -0.9665
11628TIP3   OH256298   1.622   4.331  11.655  1.2461 -0.0194  0.8202
11628TIP3    H156299   1.625   4.298  11.744 -1.0818 -1.2661  0.4852
11628TIP3    H256300   1.666   4.264  11.603 -1.0732 -1.3535  0.5090
11629TIP3   OH256301   6.094   4.869   3.918  0.0373 -0.0729  0.4218
11629TIP3    H156302   6.123   4.918   3.841  1.6855 -0.9318  0.4539
11629TIP3    H256303   6.112   4.926   3.992 -0.5841  0.3432  0.2541
11630TIP3   OH256304   2.989   3.783   5.409 -0.1540 -0.5333  0.1888
11630TIP3    H156305   3.034   3.707   5.374 -0.3925 -0.8597  0.5871
11630TIP3    H256306   3.025   3.794   5.497  0.2156  0.0935 -0.0399
11631TIP3   OH256307   4.910   0.661   6.878  0.4424 -0.1240 -0.0741
11631TIP3    H156308   4.945   0.594   6.820  0.4397  1.0696 -1.4799
11631TIP3    H256309   4.815   0.659   6.863  0.3089 -0.6078  0.7698
11632TIP3   OH256310   5.221   3.417   4.544 -0.3976 -0.0664 -0.0872
11632TIP3    H156311   5.253   3.493   4.591 -1.7838 -0.3853  1.4271
11632TIP3    H256312   5.205   3.449   4.455  1.4971  0.7344 -0.1663
11633TIP3   OH256313   0.177   2.229   5.042  0.7761  0.2567 -0.5133
11633TIP3    H156314   0.193   2.145   5.085  1.9578  0.7288 -0.0084
11633TIP3    H256315   0.255   2.281   5.062 -0.4172  1.8549  0.1148
11634TIP3   OH256316   5.824   3.379   4.670  0.1469  0.0526  0.6520
11634TIP3    H156317   5.810   3.317   4.741  0.3225 -1.4383 -0.5758
11634TIP3    H256318   5.918   3.375   4.652 -0.1787 -1.1509 -0.9960
11635TIP3   OH256319   2.409   5.549  12.001  0.2388 -1.4794  1.0000
11635TIP3    H156320   2.342   5.604  11.961  2.6417  0.2597 -0.7426
11635TIP3    H256321   2.398   5.464  11.957 -1.4555 -1.5266  1.4651
11636TIP3   OH256322   2.767   3.946   5.526  0.0282 -0.3039 -0.6019
11636TIP3    H156323   2.792   4.000   5.601  0.4432 -2.7379  1.0804
11636TIP3    H256324   2.830   3.874   5.527 -2.0629 -2.1953 -1.1978
11637TIP3   OH256325   2.967   5.776   3.899  0.1647  0.0760 -0.7512
11637TIP3    H156326   2.871   5.767   3.901  0.1063  0.8390  1.9198
11637TIP3    H256327   2.983   5.853   3.845 -0.8823  1.1737  0.4573
11638TIP3   OH256328   0.308   1.487   1.744  0.2990  0.3251  0.5481
11638TIP3    H156329   0.262   1.468   1.826 -0.7307  0.6258  0.0486
11638TIP3    H256330   0.239   1.485   1.677  1.0742  0.4374 -0.2611
11639TIP3   OH256331   0.618   2.026  14.285 -0.5710 -0.6388 -0.0047
11639TIP3    H156332   0.556   2.075  14.339 -0.5374 -2.0958  1.4091
11639TIP3    H256333   0.685   1.995  14.347  0.6824 -0.4706 -1.2480
11640TIP3   OH256334   4.985   4.887  11.186  0.5736  0.3033 -0.1672
11640TIP3    H156335   5.064   4.932  11.214  0.8103  0.1369 -0.5575
11640TIP3    H256336   5.003   4.794  11.202  0.7501  0.1984 -0.9459
11641TIP3   OH256337   0.259   1.229  15.927  0.3981 -0.7505 -0.3829
11641TIP3    H156338   0.315   1.272  15.863  0.9321 -0.6748  0.1331
11641TIP3    H256339   0.315   1.217  16.004 -0.2851 -0.6875  0.1261
11642TIP3   OH256340   4.864   6.471  15.034 -0.3891 -0.5189 -0.3289
11642TIP3    H156341   4.919   6.524  14.976 -0.5314  0.4084  0.3742
11642TIP3    H256342   4.778   6.514  15.032  0.1737  0.8538  2.2779
11643TIP3   OH256343   4.529   5.981   1.437 -0.9127 -0.1447 -0.0613
11643TIP3    H156344   4.607   5.976   1.381 -2.5257 -0.7398 -2.2878
11643TIP3    H256345   4.538   6.065   1.482 -0.3276  1.0504 -2.3393
11644TIP3   OH256346   5.614   6.065  12.215  0.8440 -0.0130  0.2608
11644TIP3    H156347   5.605   5.972  12.194 -4.1527  0.0692  1.4650
11644TIP3    H256348   5.635   6.066  12.309 -3.5331 -0.0404  1.3894
11645TIP3   OH256349   1.827   0.908   0.345  0.2734 -0.0262 -0.0874
11645TIP3    H156350   1.789   0.917   0.432 -1.2620  0.5731 -0.8018
11645TIP3    H256351   1.867   0.821   0.345 -2.8146 -1.5259  0.0767
11646TIP3   OH256352   1.326   4.619  13.639 -0.2771 -0.6927 -0.0302
11646TIP3    H156353   1.413   4.657  13.630 -0.8532  0.2355 -1.7472
11646TIP3    H256354   1.342   4.526  13.656  1.0435 -0.4092  0.3258
11647TIP3   OH256355   4.952   0.993   3.026 -0.4368  0.2958  0.1566
11647TIP3    H156356   4.884   1.031   2.970  0.7329  1.3786 -0.5680
11647TIP3    H256357   4.954   0.901   3.002  0.3169  0.8193 -1.8969
11648TIP3   OH256358   4.256   6.526  14.111 -0.5289  0.0984 -0.5777
11648TIP3    H156359   4.324   6.586  14.081 -0.7949  1.0516  0.6915
11648TIP3    H256360   4.204   6.577  14.172 -0.1925 -1.6864  1.2674
11649TIP3   OH256361   4.930   6.502  16.192 -0.7043 -0.4327 -0.8597
11649TIP3    H156362   4.896   6.415  16.216 -1.7478  0.2421  0.1517
11649TIP3    H256363   5.007   6.513  16.247 -0.9986 -0.4197 -0.4415
11650TIP3   OH256364   0.465   2.867  11.105 -0.6319 -0.1827 -0.5313
11650TIP3    H156365   0.435   2.797  11.164 -1.0102  1.0335  0.7368
11650TIP3    H256366   0.432   2.841  11.019 -2.4835 -0.5732  0.2682
11651TIP3   OH256367   4.279   4.512   3.243  0.4151 -0.2173  0.1139
11651TIP3    H156368   4.364   4.556   3.244  1.1718 -1.6557  1.6444
11651TIP3    H256369   4.220   4.576   3.205  1.8665  1.4185  0.5160
11652TIP3   OH256370   6.071   1.119  15.583  0.6192 -0.4894  0.0798
11652TIP3    H156371   6.130   1.193  15.594  0.6883 -0.6959  1.2044
11652TIP3    H256372   6.009   1.147  15.516 -0.8046  1.5339  2.1633
11653TIP3   OH256373   0.622   1.940  12.482 -0.0228 -0.1497 -0.2429
11653TIP3    H156374   0.647   1.848  12.481 -2.3671 -0.8191 -1.7174
11653TIP3    H256375   0.526   1.939  12.483 -0.0801  2.2824  0.3581
11654TIP3   OH256376   1.877   2.780  16.338  0.1487 -0.3497  0.0591
11654TIP3    H156377   1.802   2.720  16.335  1.9289 -2.7337  0.8267
11654TIP3    H256378   1.877   2.823  16.253 -2.7733  0.6323  0.4797
11655TIP3   OH256379   1.106   6.236  12.545 -0.2456 -0.1775 -0.1193
11655TIP3    H156380   1.012   6.246  12.557  0.1888  1.4942  1.9281
11655TIP3    H256381   1.129   6.302  12.480 -0.3503 -0.1323 -0.1101
11656TIP3   OH256382   0.716   5.858   4.362 -0.1447  0.0440 -0.7630
11656TIP3    H156383   0.702   5.788   4.298 -4.5453  0.7321 -0.6918
11656TIP3    H256384   0.770   5.923   4.316  1.0338 -1.7529 -1.9847
11657TIP3   OH256385   0.489   2.966  13.276  0.8672 -0.0914  0.1967
11657TIP3    H156386   0.508   2.876  13.251 -0.0446  0.0912 -1.1979
11657TIP3    H256387   0.568   3.015  13.250  0.9213 -0.3149 -0.0634
11658TIP3   OH256388   0.021   4.532  14.846 -0.3441 -0.2821  0.3757
11658TIP3    H156389  -0.004   4.440  14.855  1.1046 -0.8336 -0.9299
11658TIP3    H256390  -0.059   4.581  14.865 -0.8369 -1.7612  2.2375
11659TIP3   OH256391   6.522   4.870   5.271 -0.2831  0.0147 -0.0909
11659TIP3    H156392   6.467   4.947   5.259 -1.0187 -0.5116 -0.1533
11659TIP3    H256393   6.605   4.904   5.306 -0.8539  0.7480  0.5566
11660TIP3   OH256394   0.904   1.414   2.126 -0.2382 -0.8499 -0.1336
11660TIP3    H156395   0.929   1.478   2.059 -0.6448  0.1097  0.6364
11660TIP3    H256396   0.965   1.341   2.112  0.2556 -0.2881 -0.9808
11661TIP3   OH256397   0.263   3.227  11.625  0.0818 -0.2123 -0.0155
11661TIP3    H156398   0.207   3.252  11.552  0.2814 -0.8524 -0.3994
11661TIP3    H256399   0.347   3.205  11.584 -0.5796 -3.1399  0.0795
11662TIP3   OH256400   2.331   0.849   2.521  0.6281  0.2625  0.0268
11662TIP3    H156401   2.362   0.859   2.431  0.3642 -0.3024 -0.1274
11662TIP3    H256402   2.357   0.930   2.565  1.8981 -0.0116 -0.2268
11663TIP3   OH256403   4.579   1.586   1.377 -0.1841  0.0609  0.2647
11663TIP3    H156404   4.663   1.560   1.339  0.1020 -0.8081  1.4573
11663TIP3    H256405   4.601   1.616   1.465 -0.9989  0.7827  0.2234
11664TIP3   OH256406   0.973   2.646   4.288 -0.8897 -1.0865 -0.2696
11664TIP3    H156407   1.068   2.653   4.296 -0.8615 -0.0472 -1.4808
11664TIP3    H256408   0.946   2.599   4.368  0.4892 -0.1871  0.7406
11665TIP3   OH256409   3.414   4.219   5.795  0.4621 -0.6282 -0.3165
11665TIP3    H156410   3.382   4.259   5.715 -1.5567 -0.5953  0.4810
11665TIP3    H256411   3.391   4.126   5.787  1.3744 -0.8629 -0.3097
11666TIP3   OH256412   1.107   0.482  16.110  0.3159 -0.8179 -0.1670
11666TIP3    H156413   1.032   0.540  16.116  2.3209  2.0735 -1.8032
11666TIP3    H256414   1.156   0.496  16.191  0.3102 -0.9730 -0.1338
11667TIP3   OH256415   3.341   6.404  14.191  0.7209 -0.4692 -0.3941
11667TIP3    H156416   3.286   6.392  14.114 -0.6496 -0.1885  0.5067
11667TIP3    H256417   3.417   6.348  14.176 -0.7144 -2.3678 -0.8263
11668TIP3   OH256418   1.650   2.948  12.977 -0.2779  0.1598  0.5303
11668TIP3    H156419   1.641   2.966  13.071 -2.1034 -0.3640  0.4757
11668TIP3    H256420   1.573   2.989  12.938 -0.0544 -0.5142 -0.6253
11669TIP3   OH256421   6.756   1.765   4.491  0.3636  0.4821  0.1935
11669TIP3    H156422   6.683   1.795   4.436  0.1789  1.8722  1.1790
11669TIP3    H256423   6.748   1.670   4.491 -0.6597  0.5558 -0.7898
11670TIP3   OH256424   1.102   0.915   5.834  0.5930 -0.2278 -0.0597
11670TIP3    H156425   1.136   0.931   5.745  1.4488 -3.3227 -0.3233
11670TIP3    H256426   1.080   1.003   5.866 -1.0106  0.8588 -3.7981
11671TIP3   OH256427   5.837   2.086  14.145  0.0999  1.0552  0.5781
11671TIP3    H156428   5.919   2.134  14.138  0.6206 -0.0169 -0.9148
11671TIP3    H256429   5.827   2.043  14.060 -1.7790  0.8062  0.8978
11672TIP3   OH256430   1.539   1.725   2.940 -0.0960  0.3980 -0.4256
11672TIP3    H156431   1.625   1.767   2.946  0.2535 -0.3574 -0.0537
11672TIP3    H256432   1.522   1.720   2.846  1.2342 -1.3635 -0.6018
11673TIP3   OH256433   1.968   0.880   1.628  0.0841 -0.0428 -0.2001
11673TIP3    H156434   1.921   0.797   1.628 -3.8434  2.0240 -1.6036
11673TIP3    H256435   1.902   0.945   1.653  2.7102  2.8309 -0.3172
11674TIP3   OH256436   1.628   0.693   5.050  0.2750  0.3065  0.0935
11674TIP3    H156437   1.533   0.689   5.042  0.5000 -2.7693 -2.0227
11674TIP3    H256438   1.644   0.759   5.117 -3.3062  1.4151 -0.0513
11675TIP3   OH256439   0.966   0.233  11.892  0.2384  0.6382  0.6222
11675TIP3    H156440   0.879   0.258  11.924 -0.7977  1.0350 -2.3124
11675TIP3    H256441   0.950   0.156  11.837  1.8440  0.2716  0.6463
11676TIP3   OH256442   1.502   5.532  16.848 -0.1807  0.2265 -0.5304
11676TIP3    H156443   1.423   5.480  16.835  1.8801 -2.9692 -0.7675
11676TIP3    H256444   1.531   5.554  16.760  0.2331 -0.2180 -0.5058
11677TIP3   OH256445   6.058   6.484  15.521 -0.4250  0.0026 -0.4147
11677TIP3    H156446   6.129   6.497  15.458  0.1404  0.8157  0.3714
11677TIP3    H256447   6.028   6.394  15.505  0.1551 -0.0262 -1.3856
11678TIP3   OH256448   0.380   1.029  14.096 -0.3772  0.0050 -0.1114
11678TIP3    H156449   0.413   1.115  14.121  0.1672 -0.4913  0.8880
11678TIP3    H256450   0.290   1.046  14.066 -0.5244  0.8139  0.7737
11679TIP3   OH256451   2.303   5.341  11.838  0.0678  0.1647 -0.3105
11679TIP3    H156452   2.341   5.276  11.779  0.5042  1.0629 -1.0300
11679TIP3    H256453   2.209   5.338  11.820 -0.1545 -1.5990  1.0136
11680TIP3   OH256454   2.532   0.745  15.121  0.4635  0.5545 -0.2046
11680TIP3    H156455   2.529   0.710  15.210  0.6629 -1.1610 -0.8484
11680TIP3    H256456   2.444   0.780  15.106  0.2250  0.2346  0.4275
11681TIP3   OH256457   0.056   2.666   4.087 -0.3735 -0.2065 -0.0102
11681TIP3    H156458   0.025   2.668   3.997 -2.0609 -0.9169  0.5348
11681TIP3    H256459  -0.005   2.607   4.132  0.9645 -0.5377  1.3993
11682TIP3   OH256460   6.416   5.232   1.807 -0.3930 -0.4123  0.1172
11682TIP3    H156461   6.365   5.282   1.743 -0.8480 -1.0156  0.0000
11682TIP3    H256462   6.506   5.264   1.797 -0.8925  1.3696  1.0075
11683TIP3   OH256463   1.893   1.807  12.870  0.4185  0.0768 -0.5730
11683TIP3    H156464   1.887   1.782  12.778 -1.0058 -0.9022 -0.2174
11683TIP3    H256465   1.831   1.750  12.915 -1.1093  2.5672  0.5930
11684TIP3   OH256466   6.773   1.824  15.326 -0.2592 -0.0908 -0.4765
11684TIP3    H156467   6.783   1.767  15.249  0.4889  0.0827 -0.5133
11684TIP3    H256468   6.854   1.875  15.328 -1.6629  2.2059 -1.4251
11685TIP3   OH256469   4.951   1.391   0.448 -0.4628  0.4953 -0.1981
11685TIP3    H156470   4.956   1.365   0.357 -2.1988  0.8326 -0.4006
11685TIP3    H256471   4.935   1.485   0.446 -0.4964  0.5117  0.4493
11686TIP3   OH256472   0.993   0.717  11.829  0.7543  0.1400  0.3964
11686TIP3    H156473   0.954   0.693  11.913 -0.6135  1.3062  0.1066
11686TIP3    H256474   1.056   0.647  11.812 -0.5439 -1.2993  1.3211
11687TIP3   OH256475   2.174   6.290   3.616  0.1793  0.3459 -0.2067
11687TIP3    H156476   2.193   6.197   3.621  1.0461  0.5490  0.3486
11687TIP3    H256477   2.212   6.318   3.533  1.2485  0.5049  0.3319
11688TIP3   OH256478   0.870   4.609  14.195  0.3143 -0.2833  0.3199
11688TIP3    H156479   0.876   4.635  14.103 -0.5252 -0.8639  0.0900
11688TIP3    H256480   0.954   4.568  14.214  0.4012 -0.3732 -0.2595
11689TIP3   OH256481   1.771   1.112   4.011  0.4448 -0.1602  0.1945
11689TIP3    H156482   1.740   1.137   3.924  2.0444  0.9783 -0.0739
11689TIP3    H256483   1.720   1.166   4.071 -0.0679 -0.3363 -0.0801
11690TIP3   OH256484   2.447   0.559  15.623 -0.3351 -0.7800  0.8950
11690TIP3    H156485   2.390   0.614  15.677 -2.0024 -1.8827  0.3092
11690TIP3    H256486   2.424   0.469  15.647  0.7884 -1.2442  0.2664
11691TIP3   OH256487   0.104   6.068  13.707 -0.4861 -0.0261  0.1873
11691TIP3    H156488   0.088   6.010  13.633 -0.3077  2.4121 -1.8387
11691TIP3    H256489   0.029   6.054  13.765 -0.2507 -2.5089 -0.0358
11692TIP3   OH256490   4.076   1.855  15.471 -0.0311 -0.2270  0.4891
11692TIP3    H156491   4.145   1.871  15.406 -1.5282  0.6078 -0.9365
11692TIP3    H256492   4.065   1.940  15.515 -0.7116 -0.1351  0.1450
11693TIP3   OH256493   5.615   1.098  16.607 -0.2520 -0.0108  0.2109
11693TIP3    H156494   5.556   1.027  16.632 -0.2493  0.2198  0.8848
11693TIP3    H256495   5.670   1.113  16.684 -0.1673  0.6313  0.0343
11694TIP3   OH256496   4.307   1.193   3.232  0.4693 -0.4197 -0.0072
11694TIP3    H156497   4.260   1.277   3.232 -0.4994 -0.9594  0.0856
11694TIP3    H256498   4.250   1.134   3.183  1.2021 -1.0080 -0.1592
11695TIP3   OH256499   6.587   2.847  11.015  0.4485 -0.1552 -0.4201
11695TIP3    H156500   6.639   2.804  11.083 -0.2213  0.0466  0.2257
11695TIP3    H256501   6.541   2.775  10.972  1.7720 -0.4105 -1.4488
11696TIP3   OH256502   5.217   3.762   3.452  0.0787  0.2619  0.4639
11696TIP3    H156503   5.148   3.716   3.499 -0.9966 -0.0984 -1.4240
11696TIP3    H256504   5.173   3.803   3.378  1.9346 -0.3755 -1.0493
11697TIP3   OH256505   1.835   0.394  15.948  0.6804 -0.5668 -0.1034
11697TIP3    H156506   1.818   0.301  15.938 -1.6018 -0.3254  1.3298
11697TIP3    H256507   1.752   0.437  15.930  0.4826  0.8830  3.7118
11698TIP3   OH256508   0.101   1.675  11.375 -0.1346  0.3264  0.1700
11698TIP3    H156509   0.093   1.769  11.394  2.2514  0.4593  0.7209
11698TIP3    H256510   0.170   1.671  11.308 -1.6439 -0.8966 -1.3497
11699TIP3   OH256511   3.463   0.242  16.995 -0.1185 -0.2933 -0.2321
11699TIP3    H156512   3.468   0.314  17.059  4.2280 -0.2407 -0.4345
11699TIP3    H256513   3.448   0.164  17.048 -0.6952  0.2552  0.4201
11700TIP3   OH256514   5.106   1.496  16.536 -0.1666 -0.0356 -0.0964
11700TIP3    H156515   5.014   1.514  16.518 -0.4413 -0.6089  0.7153
11700TIP3    H256516   5.112   1.401  16.537  0.6190 -0.0110 -1.0370
11701TIP3   OH256517   3.842   3.908   5.152 -0.2872  0.5632  0.6734
11701TIP3    H156518   3.898   3.982   5.131 -1.9824  1.6434 -0.1417
11701TIP3    H256519   3.886   3.832   5.113 -0.4077  1.6845 -1.7088
11702TIP3   OH256520   1.284   2.274   3.034  0.3560  0.0297  0.0364
11702TIP3    H156521   1.241   2.304   3.114  3.6790  0.1366  1.8641
11702TIP3    H256522   1.249   2.186   3.019 -0.9793  0.3603  1.0537
11703TIP3   OH256523   0.455   5.140  11.478  0.6067 -0.0327 -0.2154
11703TIP3    H156524   0.455   5.151  11.383 -0.8594 -0.4528 -0.2806
11703TIP3    H256525   0.400   5.212  11.510 -1.9082 -1.9682  0.0046
11704TIP3   OH256526   0.005   1.395  16.094 -0.3359  0.1534 -0.0747
11704TIP3    H156527   0.020   1.301  16.103 -0.3121  0.0859 -0.7448
11704TIP3    H256528   0.092   1.432  16.084 -0.3901  0.1543 -0.5702
11705TIP3   OH256529   1.896   1.982   4.098  0.1135 -0.4188 -0.3396
11705TIP3    H156530   1.855   1.896   4.095 -0.6810 -0.1044  1.0924
11705TIP3    H256531   1.955   1.977   4.174 -1.3068  0.8820  0.8788
11706TIP3   OH256532   4.615   1.364  14.219 -0.6889  0.6569  0.0382
11706TIP3    H156533   4.695   1.325  14.183 -1.0368  2.0105 -2.2838
11706TIP3    H256534   4.645   1.413  14.296  1.1319  2.9769 -2.0644
11707TIP3   OH256535   0.087   0.749   3.675  0.5220 -0.0898  0.5358
11707TIP3    H156536   0.109   0.684   3.742  2.3387  0.8418  0.8785
11707TIP3    H256537   0.168   0.761   3.626  0.0648  1.5377  0.1544
11708TIP3   OH256538   3.667   6.177   1.519  0.3879 -0.4673 -0.5097
11708TIP3    H156539   3.698   6.102   1.569 -0.9506 -1.7586 -1.5673
11708TIP3    H256540   3.620   6.139   1.445  1.6260  1.4138 -2.3251
11709TIP3   OH256541   6.365   1.184   3.807 -0.3980 -0.2965  0.7340
11709TIP3    H156542   6.382   1.096   3.841  0.3328 -0.4104  0.0787
11709TIP3    H256543   6.432   1.198   3.740 -0.9097  0.5101  0.3773
11710TIP3   OH256544   1.364   1.258   4.913 -0.4530 -0.3524  0.0574
11710TIP3    H156545   1.363   1.316   4.989  1.4705  1.3296 -1.1291
11710TIP3    H256546   1.313   1.304   4.846 -3.2863 -2.4427  0.6981
11711TIP3   OH256547   3.844   0.435  13.286  0.2398 -0.4327 -0.1601
11711TIP3    H156548   3.820   0.422  13.195  1.7522  0.4169 -0.7055
11711TIP3    H256549   3.919   0.494  13.283 -1.5346  2.0265  1.8008
11712TIP3   OH256550   2.229   1.589  11.974 -0.4336 -0.0111 -0.0903
11712TIP3    H156551   2.265   1.671  11.941 -2.5160  0.3841 -1.4525
11712TIP3    H256552   2.136   1.593  11.952 -0.4880 -2.9286 -0.5803
11713TIP3   OH256553   5.653   3.346  10.714  0.0643  0.0948  0.1120
11713TIP3    H156554   5.723   3.324  10.776 -0.9916  0.2456  1.3818
11713TIP3    H256555   5.622   3.432  10.744 -0.1599  0.3681 -0.9054
11714TIP3   OH256556   4.527   4.550   3.417 -0.4056 -0.3660 -0.1571
11714TIP3    H156557   4.460   4.555   3.485 -1.6810  1.8324 -1.5163
11714TIP3    H256558   4.584   4.625   3.433  1.0225 -1.4932  0.2057
11715TIP3   OH256559   1.270   4.669   0.422  0.6811 -0.0219 -0.0612
11715TIP3    H156560   1.207   4.737   0.444  0.2243 -0.1673 -0.8712
11715TIP3    H256561   1.331   4.712   0.362 -0.9192 -0.8722 -2.4222
11716TIP3   OH256562   0.509   5.742  16.508  0.8398  0.6230  0.0969
11716TIP3    H156563   0.468   5.730  16.422  1.2160 -3.0471  0.3697
11716TIP3    H256564   0.593   5.696  16.500  1.6136  1.6926  1.9133
11717TIP3   OH256565   2.005   6.087   0.049 -0.8635  0.0596  0.7419
11717TIP3    H156566   2.057   6.121   0.122 -1.9741  1.4491  0.9215
11717TIP3    H256567   1.985   5.997   0.073 -0.3141  0.1734  1.6446
11718TIP3   OH256568   4.050   2.402   3.725 -0.0602 -0.1783 -0.1278
11718TIP3    H156569   3.958   2.383   3.746 -0.4650  2.5463  0.7520
11718TIP3    H256570   4.047   2.446   3.640  0.3144  0.8343  0.3719
11719TIP3   OH256571   2.810   1.562  11.396 -0.0612  0.2550  0.6580
11719TIP3    H156572   2.873   1.629  11.370  0.8074 -0.5323  0.6631
11719TIP3    H256573   2.725   1.595  11.368  0.3556  1.3362  0.6373
11720TIP3   OH256574   0.330   5.056   4.976 -0.3185 -0.7160  0.4088
11720TIP3    H156575   0.316   5.147   5.003  0.9606  0.3358 -2.2859
11720TIP3    H256576   0.413   5.058   4.928 -1.2175 -2.9572 -1.3178
11721TIP3   OH256577   1.075   2.446  15.601  0.2848  0.1870 -0.6154
11721TIP3    H156578   0.980   2.446  15.613  0.1449 -0.5304 -1.7025
11721TIP3    H256579   1.110   2.456  15.690 -0.7916 -0.7149 -0.0717
11722TIP3   OH256580   5.096   2.690  15.784  0.4496  0.4113  0.0089
11722TIP3    H156581   5.152   2.621  15.747  0.2295  0.7051 -0.8955
11722TIP3    H256582   5.119   2.768  15.733  0.7174  1.0137  1.0443
11723TIP3   OH256583   0.025   0.340   3.996 -0.1381 -0.0952  0.2204
11723TIP3    H156584   0.005   0.247   4.006  0.2907 -0.1696  0.4153
11723TIP3    H256585   0.034   0.372   4.086 -1.8340  0.4828  0.1902
11724TIP3   OH256586   2.044   4.862   2.803 -0.5847 -0.6977 -0.2851
11724TIP3    H156587   1.955   4.892   2.824  0.2972  1.2323  0.8322
11724TIP3    H256588   2.053   4.779   2.849 -2.1682 -1.4429 -1.2747
11725TIP3   OH256589   5.314   4.624   1.712 -0.0730 -0.0752  0.4441
11725TIP3    H156590   5.380   4.669   1.765 -0.3146  0.6176  0.1635
11725TIP3    H256591   5.347   4.629   1.622 -0.1518 -0.3598  0.3994
11726TIP3   OH256592   5.106   0.831   5.036  0.5813 -0.0286 -0.2377
11726TIP3    H156593   5.091   0.767   4.965 -1.8719 -0.0030  0.2315
11726TIP3    H256594   5.179   0.794   5.086 -0.2554 -2.0672 -0.4738
11727TIP3   OH256595   4.069   0.232   4.009 -0.8541 -0.5563  0.2585
11727TIP3    H156596   4.085   0.145   4.045  1.3913  0.3281  1.5547
11727TIP3    H256597   3.974   0.243   4.014 -1.1320 -2.7478  0.4769
11728TIP3   OH256598   5.994   5.987  13.581  0.3376  0.1386  0.0693
11728TIP3    H156599   5.963   5.988  13.491 -0.5156  1.3697  0.3544
11728TIP3    H256600   5.928   5.935  13.628  2.0824 -2.6443 -0.4211
11729TIP3   OH256601   1.005   1.437   5.818  0.3122 -0.8663  0.5998
11729TIP3    H156602   1.016   1.489   5.739 -0.0372 -2.3155 -0.4056
11729TIP3    H256603   1.087   1.449   5.866  1.6795 -2.2436 -1.3211
11730TIP3   OH256604   4.420   0.142   3.138 -0.4496 -0.1060  0.6375
11730TIP3    H156605   4.450   0.070   3.083  1.0504  1.1684 -0.2421
11730TIP3    H256606   4.462   0.128   3.222  1.1660  0.6143 -0.0229
11731TIP3   OH256607   1.952   4.279  14.002 -0.0173 -0.4086 -0.1353
11731TIP3    H156608   1.961   4.218  14.075  1.5787  1.3116  1.1519
11731TIP3    H256609   1.857   4.289  13.992 -0.2695 -0.3010  2.0409
11732TIP3   OH256610   4.279   1.646  11.279  0.1208 -0.5292  0.9216
11732TIP3    H156611   4.360   1.694  11.259 -1.5133  2.0970  0.3827
11732TIP3    H256612   4.235   1.701  11.344 -1.6734 -1.4669  0.5092
11733TIP3   OH256613   2.010   2.594   1.358  0.1884 -0.2537  0.0130
11733TIP3    H156614   2.022   2.689   1.349 -0.1966 -0.3166 -1.2470
11733TIP3    H256615   2.025   2.577   1.451  1.5377  0.8649  0.0236
11734TIP3   OH256616   2.919   4.020  12.923  0.2002  0.4575 -0.1684
11734TIP3    H156617   2.843   4.041  12.977  1.1647  0.5148  1.1920
11734TIP3    H256618   2.899   3.934  12.886 -0.5073  0.4475  0.2350
11735TIP3   OH256619   5.773   4.462   2.241  1.2489 -0.1190  0.5406
11735TIP3    H156620   5.774   4.483   2.334  3.2816 -0.2246  0.5841
11735TIP3    H256621   5.789   4.367   2.238 -2.6194 -0.8126  0.1807
11736TIP3   OH256622   2.191   3.930  13.964  0.4079  0.9074 -0.2127
11736TIP3    H156623   2.134   4.005  13.946 -1.4988 -0.8281 -1.6246
11736TIP3    H256624   2.201   3.930  14.059 -0.2296  2.4806 -0.1316
11737TIP3   OH256625   0.491   0.128  15.469 -0.3381  0.2264  0.1179
11737TIP3    H156626   0.433   0.060  15.503 -1.5085  0.4406 -1.4382
11737TIP3    H256627   0.501   0.108  15.376  1.0030  0.9750  0.0807
11738TIP3   OH256628   1.397   1.782  11.946  0.5696  0.4547  0.1939
11738TIP3    H156629   1.422   1.775  11.854  0.1657 -0.4113  0.1446
11738TIP3    H256630   1.388   1.692  11.975  0.4080  0.7303  1.0089
11739TIP3   OH256631   3.471   4.057  11.791  0.3500  0.2228 -0.3113
11739TIP3    H156632   3.476   4.027  11.882 -0.3092  1.2541  0.0748
11739TIP3    H256633   3.512   3.987  11.741  2.9800  0.7586  1.0140
11740TIP3   OH256634   2.511   4.138  15.294  0.2599  0.7343 -0.1768
11740TIP3    H156635   2.446   4.203  15.322  0.3408  1.3201 -1.2950
11740TIP3    H256636   2.474   4.100  15.214  0.8732  0.4320 -0.3232
11741TIP3   OH256637   2.729   0.525  13.116 -0.2839  0.2447 -0.4612
11741TIP3    H156638   2.658   0.589  13.107 -1.3562 -0.7849  0.6113
11741TIP3    H256639   2.754   0.529  13.208  1.5767  1.1160 -0.9714
11742TIP3   OH256640   4.285   5.210   2.136  0.4050  0.4122  0.0106
11742TIP3    H156641   4.191   5.210   2.155  0.3776  2.6495 -0.0500
11742TIP3    H256642   4.325   5.248   2.214  1.2166  0.0426 -0.2196
11743TIP3   OH256643   0.554   3.022   1.768 -0.3634  0.2238 -0.1084
11743TIP3    H156644   0.501   2.961   1.717  1.3266 -0.0455 -1.5846
11743TIP3    H256645   0.644   3.005   1.741  0.2724  2.3921  0.4943
11744TIP3   OH256646   1.723   2.990  13.243  0.1053 -0.7056  0.0893
11744TIP3    H156647   1.683   2.989  13.330  1.4781  0.0586  0.7496
11744TIP3    H256648   1.694   3.072  13.203 -1.7950 -1.7923 -0.7943
11745TIP3   OH256649   5.461   6.449   0.566  0.1034  0.1971  0.2236
11745TIP3    H156650   5.384   6.468   0.512 -0.5215 -0.9814  0.6898
11745TIP3    H256651   5.427   6.444   0.655  0.2949 -2.7087  0.1669
11746TIP3   OH256652   3.492   0.153   5.828  0.4133  0.2732 -0.0957
11746TIP3    H156653   3.532   0.118   5.749 -0.1172 -1.5307  0.3924
11746TIP3    H256654   3.435   0.082   5.859  0.5998  0.9603  1.8790
11747TIP3   OH256655   1.172   1.616  16.861  0.0623  0.3271 -0.5437
11747TIP3    H156656   1.148   1.558  16.790 -0.7747 -0.3283  0.2577
11747TIP3    H256657   1.128   1.579  16.938  3.7550 -0.9725  1.0282
11748TIP3   OH256658   4.665   5.281   5.778  0.0486 -0.7151 -0.2274
11748TIP3    H156659   4.599   5.310   5.841 -1.7763 -1.1343 -1.9279
11748TIP3    H256660   4.687   5.192   5.806 -0.4019 -0.7290  0.0853
11749TIP3   OH256661   0.898   4.179   0.265  0.0255  0.5149 -0.4544
11749TIP3    H156662   0.930   4.195   0.354 -1.3669  0.2812  0.1019
11749TIP3    H256663   0.967   4.127   0.223 -0.3034 -1.3213  1.2195
11750TIP3   OH256664   5.344   1.145   6.804 -0.5009 -0.1424 -0.4721
11750TIP3    H156665   5.332   1.226   6.754  0.1201  0.0569 -0.3039
11750TIP3    H256666   5.268   1.092   6.782 -1.2655  0.7610 -0.0483
11751TIP3   OH256667   5.831   6.086  11.756  0.0921 -0.2591 -0.5179
11751TIP3    H156668   5.865   6.163  11.801 -0.9933  1.1617 -2.0594
11751TIP3    H256669   5.868   6.092  11.668  0.8100 -2.0540 -0.3510
11752TIP3   OH256670   3.032   0.427  11.881 -0.3057 -0.4566  0.0147
11752TIP3    H156671   3.054   0.446  11.790 -1.5672  0.3302 -0.1329
11752TIP3    H256672   3.104   0.371  11.912  0.2073 -0.5989 -1.4083
11753TIP3   OH256673   4.515   6.751  12.933 -0.4627 -0.0452  0.1613
11753TIP3    H156674   4.496   6.684  12.998  0.0168  1.0154  1.4027
11753TIP3    H256675   4.507   6.705  12.849  1.6703 -2.1588  1.0284
11754TIP3   OH256676   3.126   2.089  14.379  0.4671 -0.0316  0.0902
11754TIP3    H156677   3.127   1.993  14.386 -0.0269 -0.0123  0.5775
11754TIP3    H256678   3.051   2.108  14.323  0.4418  0.0714  0.1576
11755TIP3   OH256679   2.992   6.115  14.679  0.6287  0.1860 -0.5060
11755TIP3    H156680   3.072   6.063  14.666  1.2196  0.7096  0.8235
11755TIP3    H256681   2.975   6.107  14.773 -0.3980  0.7810 -0.6446
11756TIP3   OH256682   3.319   5.400  12.347 -0.4036 -0.3598  0.2461
11756TIP3    H156683   3.401   5.414  12.395 -0.8902 -1.3462  1.3719
11756TIP3    H256684   3.340   5.425  12.257  0.8971  0.2027  0.6924
11757TIP3   OH256685   5.251   6.319  15.043  0.2115  0.2719 -0.0251
11757TIP3    H156686   5.174   6.330  14.987 -0.2325  0.2529  0.5709
11757TIP3    H256687   5.224   6.354  15.128  0.9871  0.6111  0.0932
11758TIP3   OH256688   6.006   1.301  12.276 -0.3041 -0.0462  0.3105
11758TIP3    H156689   5.927   1.247  12.269 -0.1594 -0.5866  2.3474
11758TIP3    H256690   6.073   1.240  12.306  0.5536  0.6956 -0.1017
11759TIP3   OH256691   1.183   1.576   5.043  0.0704 -0.0070 -0.1521
11759TIP3    H156692   1.207   1.500   5.097  1.7165  0.9986  0.5752
11759TIP3    H256693   1.263   1.596   4.994 -0.7085  0.5539 -1.1885
11760TIP3   OH256694   3.053   3.390   4.790 -0.3370  0.5124 -0.4094
11760TIP3    H156695   3.097   3.471   4.765 -0.3249  0.0982 -1.7898
11760TIP3    H256696   3.003   3.412   4.868 -0.2958  1.8371 -0.7473
11761TIP3   OH256697   4.659   3.974  15.766  0.2581 -0.1935 -0.1723
11761TIP3    H156698   4.574   3.944  15.732 -0.8542  2.1749  0.3647
11761TIP3    H256699   4.640   4.001  15.856  1.7230 -0.1775  0.1377
11762TIP3   OH256700   4.093   4.822   2.100  0.2527  0.3984 -0.0009
11762TIP3    H156701   4.135   4.827   2.186  1.2916  0.4205 -0.5088
11762TIP3    H256702   4.016   4.879   2.108  1.1153  1.5195  0.4822
11763TIP3   OH256703   1.186   3.503   3.064  0.4081 -0.5246 -0.3674
11763TIP3    H156704   1.141   3.503   2.979  2.2901  0.5056 -1.3787
11763TIP3    H256705   1.148   3.427   3.110 -1.1805 -0.6483 -1.8065
11764TIP3   OH256706   6.510   1.539   6.196  0.1287  0.2457  0.2440
11764TIP3    H156707   6.545   1.451   6.178 -1.6502 -0.0699 -1.9510
11764TIP3    H256708   6.452   1.527   6.272 -1.2609 -0.8149 -0.9506
11765TIP3   OH256709   5.595   1.778   1.932  0.5020  0.0456 -0.0739
11765TIP3    H156710   5.662   1.710   1.926  1.5762  1.0833 -0.1414
11765TIP3    H256711   5.632   1.851   1.882 -0.6963  0.6245 -0.1200
11766TIP3   OH256712   1.574   6.776   0.493 -0.5254 -0.1009  0.4621
11766TIP3    H156713   1.604   6.697   0.537 -0.3988  0.4179  1.3097
11766TIP3    H256714   1.547   6.746   0.406 -1.2219 -1.2080  1.0427
11767TIP3   OH256715   0.896   1.983  15.556  0.6042 -0.2721 -0.0806
11767TIP3    H156716   0.928   2.043  15.623  2.7973 -0.6542 -0.7431
11767TIP3    H256717   0.820   2.026  15.519  0.2729  0.6379  1.6017
11768TIP3   OH256718   1.255   6.589  17.227 -0.2223 -0.2780  0.5760
11768TIP3    H156719   1.313   6.624  17.296  0.6582 -0.3255 -0.1223
11768TIP3    H256720   1.284   6.498  17.217  1.8929  0.6359 -2.1339
11769TIP3   OH256721   1.789   2.345  14.026  0.3218 -0.3067 -0.3504
11769TIP3    H156722   1.871   2.395  14.034  0.5469 -0.5708 -0.9356
11769TIP3    H256723   1.808   2.279  13.959 -0.9956  0.8854 -1.9478
11770TIP3   OH256724   0.597   6.137  15.778  0.4748 -0.2358  0.6561
11770TIP3    H156725   0.631   6.224  15.802  1.1651 -0.5630  0.8937
11770TIP3    H256726   0.547   6.109  15.855  0.6341 -0.2380  0.7609
11771TIP3   OH256727   3.049   5.216  13.600  0.0450  0.4238  0.3044
11771TIP3    H156728   3.093   5.154  13.659 -1.8682 -2.5625 -1.2710
11771TIP3    H256729   2.992   5.268  13.658  1.0983  0.1990  1.5599
11772TIP3   OH256730   3.943   1.745   0.192  0.3768 -0.2189 -0.1937
11772TIP3    H156731   3.864   1.760   0.245 -0.1000  2.2449 -1.5301
11772TIP3    H256732   3.928   1.659   0.151 -0.7124 -0.6588  1.0905
11773TIP3   OH256733   5.227   4.395   1.019 -0.2171  0.2489  0.2701
11773TIP3    H156734   5.271   4.424   0.939  0.6758  1.1754  1.0819
11773TIP3    H256735   5.288   4.333   1.059 -1.7614 -2.2318 -1.0334
11774TIP3   OH256736   5.057   4.040   1.882  0.0413 -0.1831 -0.3340
11774TIP3    H156737   5.087   4.039   1.972 -0.3548 -1.5541 -0.2018
11774TIP3    H256738   5.117   4.099   1.836  1.1689 -0.6877  0.5004
11775TIP3   OH256739   2.042   1.460  12.843 -0.3172 -0.1258  0.5372
11775TIP3    H156740   2.129   1.494  12.821 -0.5727  0.0276 -0.2453
11775TIP3    H256741   2.000   1.530  12.891 -0.9315  0.7838 -1.2764
11776TIP3   OH256742   1.046   6.777  15.442  0.4640 -0.2206 -0.5336
11776TIP3    H156743   1.132   6.789  15.402  1.1911 -0.9899  0.7787
11776TIP3    H256744   0.986   6.768  15.368  1.6310 -0.5418 -1.4527
11777TIP3   OH256745   6.015   3.175  14.363  0.0966 -0.2186 -0.3140
11777TIP3    H156746   5.960   3.103  14.392 -0.3938  0.3895  0.2681
11777TIP3    H256747   6.100   3.159  14.404  0.3072 -1.0510 -1.0579
11778TIP3   OH256748   0.309   3.382  14.927  0.1296  0.2433  0.5994
11778TIP3    H156749   0.234   3.399  14.985 -0.2390  0.0511  0.1867
11778TIP3    H256750   0.276   3.317  14.865  0.5070  0.4875  0.1461
11779TIP3   OH256751   0.565   5.495  13.941 -0.0369 -0.1453  0.2577
11779TIP3    H156752   0.582   5.579  13.984 -0.5743  1.1385 -1.9793
11779TIP3    H256753   0.479   5.506  13.901  0.0007 -1.6932 -0.2741
11780TIP3   OH256754   2.095   3.285   3.581  0.3144 -0.1194  0.4078
11780TIP3    H156755   2.038   3.309   3.508  1.5536 -0.7055 -0.7688
11780TIP3    H256756   2.183   3.296   3.547  0.9323 -3.2406  0.8315
11781TIP3   OH256757   5.909   0.058   2.291 -0.1315 -0.1934  0.7552
11781TIP3    H156758   5.927   0.061   2.197  2.7130 -0.7510  1.2407
11781TIP3    H256759   5.919   0.148   2.321  1.8056 -0.4815  0.9987
11782TIP3   OH256760   4.046   5.492  11.915 -0.1031  0.0167  0.2314
11782TIP3    H156761   3.993   5.474  11.837 -2.9495  1.3948  1.7781
11782TIP3    H256762   4.105   5.562  11.887  0.4187 -1.0233 -1.3235
11783TIP3   OH256763   6.459   0.771   5.953 -0.7877 -0.1444  0.2698
11783TIP3    H156764   6.478   0.680   5.974  0.0184  0.5248  2.5435
11783TIP3    H256765   6.368   0.783   5.978  0.1752  0.6602  3.6579
11784TIP3   OH256766   0.396   2.439  13.217 -0.4692  0.3374  0.1645
11784TIP3    H156767   0.400   2.402  13.128 -1.6770 -0.8277  0.5802
11784TIP3    H256768   0.338   2.514  13.209  1.7770  2.0793 -0.6277
11785TIP3   OH256769   4.448   2.804   2.112  0.6502  0.1773 -0.6706
11785TIP3    H156770   4.464   2.898   2.110 -0.4811  0.4651  1.6223
11785TIP3    H256771   4.353   2.795   2.103  0.5648 -0.6238  0.8425
11786TIP3   OH256772   5.406   0.404  17.122  0.7202 -0.6161 -0.4833
11786TIP3    H156773   5.353   0.470  17.167 -0.1691 -1.1964 -0.6581
11786TIP3    H256774   5.496   0.435  17.132  0.4417 -0.1490  0.7130
11787TIP3   OH256775   6.305   0.204  11.827 -0.2272 -0.1703 -0.4103
11787TIP3    H156776   6.274   0.145  11.757 -0.1880  0.9415 -1.3855
11787TIP3    H256777   6.400   0.203  11.819 -0.1116 -1.6035  0.9418
11788TIP3   OH256778   5.055   6.453  13.344 -0.0123  0.0630  0.3401
11788TIP3    H156779   5.026   6.539  13.313  0.8841  0.4498  0.5490
11788TIP3    H256780   4.980   6.418  13.392 -0.2681  0.8760  0.5406
11789TIP3   OH256781   4.518   4.920  16.567 -0.2366 -0.6825  0.2321
11789TIP3    H156782   4.438   4.880  16.536 -0.7577  1.7997 -1.8040
11789TIP3    H256783   4.493   5.010  16.590  1.5961 -0.3752  1.1771
11790TIP3   OH256784   4.633   0.455   5.751 -0.3573 -0.2272  0.1012
11790TIP3    H156785   4.558   0.449   5.810 -0.8228  1.0709 -0.3376
11790TIP3    H256786   4.668   0.366   5.748 -0.5031 -0.3720  2.0828
11791TIP3   OH256787   2.050   1.988  13.195 -0.5654 -0.7964  0.2862
11791TIP3    H156788   2.081   2.077  13.183 -0.6574 -0.9686 -1.3209
11791TIP3    H256789   1.974   1.981  13.137 -0.4879 -1.9466  0.3154
11792TIP3   OH256790   2.837   6.233  14.470  0.1369 -0.4464  0.6892
11792TIP3    H156791   2.883   6.188  14.541  1.6092  0.0737  0.0680
11792TIP3    H256792   2.809   6.316  14.508  1.0843 -0.0901  0.6067
11793TIP3   OH256793   5.718   2.750  11.652  0.5332  0.6050 -0.1071
11793TIP3    H156794   5.692   2.838  11.682 -1.1772  0.8895 -2.2295
11793TIP3    H256795   5.813   2.750  11.659  0.4200  1.8271  2.0300
11794TIP3   OH256796   2.895   4.905  16.748 -0.0033  0.0389 -0.5683
11794TIP3    H156797   2.961   4.837  16.758 -0.6982 -0.5782 -0.1623
11794TIP3    H256798   2.859   4.891  16.661 -0.7543 -0.6735 -0.1577
11795TIP3   OH256799   5.558   2.412  16.661  0.2484  0.2409  0.5189
11795TIP3    H156800   5.465   2.401  16.640  0.2207 -2.6560  2.0014
11795TIP3    H256801   5.602   2.344  16.610  1.1963 -0.5638  2.3930
11796TIP3   OH256802   0.949   1.742   5.030 -0.2528 -0.1216  0.1004
11796TIP3    H156803   1.005   1.681   5.079 -1.2767 -1.2186 -0.0903
11796TIP3    H256804   0.994   1.753   4.946 -0.6578 -1.5480 -0.3249
11797TIP3   OH256805   2.337   0.886  15.537 -0.2348 -0.0534  0.0722
11797TIP3    H156806   2.410   0.858  15.591 -1.0757 -3.2975 -0.3861
11797TIP3    H256807   2.277   0.812  15.536 -2.3493  1.5834 -1.6572
11798TIP3   OH256808   5.619   5.928  17.038 -0.1531 -0.2775  0.0625
11798TIP3    H156809   5.667   5.876  17.101  0.4281 -1.0545 -1.0057
11798TIP3    H256810   5.572   5.993  17.091 -2.5304 -3.1237  1.6209
11799TIP3   OH256811   0.670   2.067  15.426 -0.5077 -0.0991 -0.0195
11799TIP3    H156812   0.620   2.043  15.347  1.1583 -1.0912 -0.7944
11799TIP3    H256813   0.609   2.053  15.498 -2.4513  1.9194 -1.1928
11800TIP3   OH256814   0.383   2.778  15.407 -0.2932  0.2568  0.3318
11800TIP3    H156815   0.421   2.865  15.419 -0.6054  0.2742  1.3168
11800TIP3    H256816   0.332   2.764  15.487 -1.9967  0.0627 -0.7680
11801TIP3   OH256817   2.553   6.118   6.012 -0.1891 -0.1978  0.5506
11801TIP3    H156818   2.595   6.169   6.081 -0.2614  0.1988  0.3030
11801TIP3    H256819   2.614   6.046   5.995  1.0396  1.1110 -0.7379
11802TIP3   OH256820   1.483   3.176  13.932  0.5289 -0.4408  0.4988
11802TIP3    H156821   1.444   3.142  14.012  0.0948  0.0583  0.4968
11802TIP3    H256822   1.576   3.155  13.940  0.2517 -1.7789  0.4228
11803TIP3   OH256823   4.028   6.250  12.423 -0.5702  0.1359 -0.2241
11803TIP3    H156824   4.013   6.208  12.339 -1.0888 -0.1915  0.0341
11803TIP3    H256825   3.960   6.317  12.429 -0.5506  0.1417 -0.0552
11804TIP3   OH256826   5.080   3.252   1.570 -0.4558  0.2335  0.7678
11804TIP3    H156827   5.156   3.281   1.519 -0.1464  0.9324  1.6143
11804TIP3    H256828   5.101   3.276   1.660 -0.9317 -1.1310  1.2607
11805TIP3   OH256829   1.301   3.237  11.327  0.9232 -0.5198  0.1123
11805TIP3    H156830   1.305   3.236  11.231 -0.7172  0.8331 -0.0136
11805TIP3    H256831   1.388   3.266  11.354  0.4956  2.1168 -1.1300
11806TIP3   OH256832   6.217   3.026  16.757 -0.5610  0.2832  0.2135
11806TIP3    H156833   6.275   2.951  16.762 -0.0153  0.7672  1.3750
11806TIP3    H256834   6.171   3.016  16.674  1.0946 -0.1642 -0.6595
11807TIP3   OH256835   6.073   5.562  16.855 -0.7666 -0.2902  0.2625
11807TIP3    H156836   6.009   5.633  16.851  0.8022  1.1546  0.6552
11807TIP3    H256837   6.059   5.513  16.773 -0.8524  1.3484 -0.7348
11808TIP3   OH256838   1.101   6.088   3.356 -0.7695  0.2218  0.2997
11808TIP3    H156839   1.163   6.143   3.308 -0.5595 -0.5379 -0.2945
11808TIP3    H256840   1.144   6.003   3.362 -1.2756  0.0046  0.8640
11809TIP3   OH256841   3.346   1.344   1.116 -0.1766  0.2645  0.3340
11809TIP3    H156842   3.318   1.253   1.107 -1.3771  0.6664 -0.1814
11809TIP3    H256843   3.338   1.381   1.028 -0.5751  1.0996  0.7055
11810TIP3   OH256844   0.599   4.047  12.470  0.3892  0.1304  0.0245
11810TIP3    H156845   0.618   3.962  12.430 -2.1470 -0.3657 -0.2543
11810TIP3    H256846   0.657   4.052  12.545 -0.1485 -2.3561  0.6452
11811TIP3   OH256847   2.704   3.267  17.017  0.2887 -0.0515 -0.5442
11811TIP3    H156848   2.671   3.352  16.986  0.6815  0.4410  0.3688
11811TIP3    H256849   2.784   3.253  16.967  1.4135  1.1751  0.8566
11812TIP3   OH256850   2.692   3.889  16.240 -0.0270  0.2275  0.3469
11812TIP3    H156851   2.767   3.945  16.224  0.9654 -0.4996  2.2358
11812TIP3    H256852   2.652   3.875  16.154  0.5762  2.5863 -0.3369
11813TIP3   OH256853   4.502   6.626  14.502 -0.8386  0.3237 -0.0056
11813TIP3    H156854   4.437   6.664  14.442 -1.2184  1.2470  0.9707
11813TIP3    H256855   4.577   6.605  14.446 -1.2029  1.1204 -0.8192
11814TIP3   OH256856   3.545   5.456  12.522 -0.2760  0.5222 -0.0390
11814TIP3    H156857   3.620   5.456  12.463 -0.4891 -0.8485 -0.3214
11814TIP3    H256858   3.552   5.374  12.571 -2.0622 -0.0443 -0.6837
11815TIP3   OH256859   1.150   0.059  11.113  0.4175 -0.1579  0.1993
11815TIP3    H156860   1.057   0.071  11.093  0.7632  3.0033  0.2071
11815TIP3    H256861   1.188   0.025  11.033 -0.4676  0.1782 -0.3746
11816TIP3   OH256862   3.705   2.997   4.565  0.1649  0.7535  0.4446
11816TIP3    H156863   3.697   2.919   4.509  0.8686  1.3327 -0.4792
11816TIP3    H256864   3.792   2.989   4.603 -1.2377 -0.9327  3.4620
11817TIP3   OH256865   3.985   5.425   0.277 -0.2408  0.7882 -0.5428
11817TIP3    H156866   4.024   5.372   0.207  2.1949  0.3096  1.1116
11817TIP3    H256867   3.992   5.370   0.355 -0.5970  2.3186  0.5735
11818TIP3   OH256868   6.085   1.654   3.920  0.4337 -0.6588  0.2585
11818TIP3    H156869   6.110   1.728   3.975 -0.6969  0.4081 -0.6477
11818TIP3    H256870   6.168   1.612   3.898  0.9143 -1.1134  2.7614
11819TIP3   OH256871   1.472   0.741   6.241 -0.7008 -0.2947 -0.2922
11819TIP3    H156872   1.440   0.776   6.325  0.0725  1.0979 -0.5658
11819TIP3    H256873   1.562   0.714   6.259 -0.1534  1.0505 -0.9401
11820TIP3   OH256874   5.745   4.854   5.877  0.3098 -0.0250  0.2983
11820TIP3    H156875   5.804   4.779   5.886  2.0996  1.4624  1.3817
11820TIP3    H256876   5.713   4.869   5.966 -0.9844 -0.2532 -0.1290
11821TIP3   OH256877   2.495   3.994   5.475  0.2979 -0.1078 -0.2929
11821TIP3    H156878   2.584   3.963   5.491  0.9941  2.1114  0.2103
11821TIP3    H256879   2.444   3.958   5.548  0.8634 -0.9767 -0.3175
11822TIP3   OH256880   5.258   4.577   1.420  0.3858 -0.4969  0.3834
11822TIP3    H156881   5.183   4.620   1.379  1.1477  0.3137 -0.1923
11822TIP3    H256882   5.317   4.558   1.347  2.0229  1.4920  1.1420
11823TIP3   OH256883   6.697   5.320   4.820 -0.3059  0.4209 -0.5179
11823TIP3    H156884   6.723   5.404   4.857  1.3243  0.1790 -1.0403
11823TIP3    H256885   6.625   5.290   4.875  0.2815  1.3238  0.7572
11824TIP3   OH256886   5.283   5.645  11.717 -0.7305 -0.0126 -0.4321
11824TIP3    H156887   5.253   5.603  11.637  0.3423 -0.9374 -0.3756
11824TIP3    H256888   5.204   5.658  11.769 -1.1666 -1.4587 -0.6961
11825TIP3   OH256889   3.375   5.318   4.234  0.1134 -0.5248  0.6883
11825TIP3    H156890   3.448   5.378   4.220 -0.1266 -0.3856  0.0152
11825TIP3    H256891   3.321   5.361   4.300  0.7711 -0.7507  1.3808
11826TIP3   OH256892   1.636   1.795  12.201 -0.1509 -0.2510  0.4963
11826TIP3    H156893   1.690   1.720  12.226 -0.7941 -0.2526  1.9179
11826TIP3    H256894   1.556   1.755  12.165 -0.0740 -0.2531  0.3306
11827TIP3   OH256895   5.836   3.352   5.539 -0.2383  0.4626  0.3313
11827TIP3    H156896   5.835   3.331   5.446  1.1219 -3.5455  1.1433
11827TIP3    H256897   5.929   3.348   5.564 -0.6248  1.0096  1.9746
11828TIP3   OH256898   5.592   0.815   6.319  0.2555  0.1246  0.0413
11828TIP3    H156899   5.510   0.782   6.282  0.5957 -1.4457  0.6460
11828TIP3    H256900   5.571   0.837   6.409  0.4985 -0.2740  0.1960
11829TIP3   OH256901   2.592   3.506   3.991  0.1740 -0.1576 -0.7823
11829TIP3    H156902   2.616   3.485   3.900  0.3597 -2.1213 -0.3049
11829TIP3    H256903   2.498   3.490   3.995  0.1740 -0.1162 -0.6174
11830TIP3   OH256904   5.082   3.966  16.311  0.0289 -0.1740  0.1292
11830TIP3    H156905   5.163   3.956  16.361  0.5456  1.6202 -0.3255
11830TIP3    H256906   5.111   3.986  16.222 -0.9150  0.8725  0.0509
11831TIP3   OH256907   3.526   5.384  13.301  0.0611  0.1093  0.0678
11831TIP3    H156908   3.467   5.444  13.256  0.6817  1.3758  0.9469
11831TIP3    H256909   3.469   5.335  13.361  0.1464  2.6158  2.2726
11832TIP3   OH256910   4.782   5.677   1.625  0.3668  1.1646 -0.2520
11832TIP3    H156911   4.789   5.691   1.719  1.8807 -0.1497 -0.1478
11832TIP3    H256912   4.872   5.666   1.596 -0.2262 -0.4400 -1.5312
11833TIP3   OH256913   3.955   3.022  12.785 -0.1838  0.1955  0.2346
11833TIP3    H156914   3.995   2.951  12.835  0.4022  0.9062  0.7804
11833TIP3    H256915   4.028   3.077  12.756 -0.6866  1.0692  0.5844
11834TIP3   OH256916   0.740   1.359  16.447 -0.0138 -0.7756  0.1975
11834TIP3    H156917   0.756   1.324  16.535 -5.1055  0.3818  1.7323
11834TIP3    H256918   0.706   1.447  16.462  0.3958 -0.0092 -3.0356
11835TIP3   OH256919   4.224   4.088  13.740  0.2437 -0.3339 -0.0113
11835TIP3    H156920   4.173   4.037  13.676  0.4896 -0.5679 -0.0252
11835TIP3    H256921   4.240   4.172  13.696 -0.1352 -0.2569 -0.0045
11836TIP3   OH256922   3.897   3.395   5.211 -0.9537 -0.1627 -0.1168
11836TIP3    H156923   3.879   3.478   5.168 -1.9174  0.4779  1.4702
11836TIP3    H256924   3.823   3.339   5.189 -0.0251 -0.8196 -1.6622
11837TIP3   OH256925   3.358   4.733  15.671 -0.1254  0.5522 -0.4139
11837TIP3    H156926   3.283   4.715  15.727 -2.5606  1.0117 -3.3876
11837TIP3    H256927   3.432   4.690  15.715 -2.2599 -0.5825  2.1855
11838TIP3   OH256928   2.302   1.641   1.721  0.4431 -0.3023 -0.1139
11838TIP3    H156929   2.371   1.622   1.784 -0.1482  0.8921  0.9244
11838TIP3    H256930   2.332   1.719   1.675 -0.3763  0.4813  0.6399
11839TIP3   OH256931   5.570   3.857   3.155 -0.6782  0.1566  0.2179
11839TIP3    H156932   5.576   3.803   3.233 -1.1970 -1.9295 -1.1337
11839TIP3    H256933   5.477   3.879   3.149 -1.1514 -2.0686 -1.3139
11840TIP3   OH256934   0.705   1.057   3.783 -0.9188  0.4198 -0.2028
11840TIP3    H156935   0.781   1.071   3.727  1.2722 -0.2772  2.4736
11840TIP3    H256936   0.652   1.136   3.772 -1.1868 -0.1981 -4.0857
11841TIP3   OH256937   6.226   6.163   3.748  0.4453 -0.4306  0.1993
11841TIP3    H156938   6.302   6.133   3.698 -0.1476 -1.5543 -0.0415
11841TIP3    H256939   6.232   6.116   3.831 -0.1576 -0.7588  0.0596
11842TIP3   OH256940   2.298   1.418  13.093  0.9839  0.5485 -0.1871
11842TIP3    H156941   2.286   1.324  13.075  2.6521 -0.0317  1.5440
11842TIP3    H256942   2.217   1.444  13.137  0.0512  0.1937 -1.6702
11843TIP3   OH256943   4.503   5.288  16.295  0.0524  0.8278  0.2006
11843TIP3    H156944   4.483   5.267  16.386 -2.7866  0.3364 -0.4593
11843TIP3    H256945   4.528   5.204  16.257  0.8303  0.9551  0.4284
11844TIP3   OH256946   1.946   0.729  11.243  0.0462 -0.0090  0.3225
11844TIP3    H156947   1.993   0.742  11.160  0.3021 -4.6348 -0.3890
11844TIP3    H256948   1.992   0.784  11.306  2.3441  0.5764 -1.7779
11845TIP3   OH256949   5.196   5.600  12.770  0.1429  0.3492  0.2255
11845TIP3    H156950   5.121   5.659  12.781 -0.4428 -0.3756  0.1416
11845TIP3    H256951   5.161   5.525  12.722  0.6599 -0.5066  1.1646
11846TIP3   OH256952   6.427   3.578  14.934  0.0392 -0.9228  0.0057
11846TIP3    H156953   6.521   3.581  14.950  0.0001 -0.5508  0.1862
11846TIP3    H256954   6.415   3.505  14.873  0.2891 -1.8123  1.0089
11847TIP3   OH256955   4.854   3.835   4.772 -0.2306 -0.0245  0.5818
11847TIP3    H156956   4.925   3.898   4.787 -1.2255  1.3271 -0.2286
11847TIP3    H256957   4.790   3.884   4.720 -0.5329 -2.0621 -1.0244
11848TIP3   OH256958   1.952   0.503  12.992  0.2658 -0.4240 -0.0905
11848TIP3    H156959   1.863   0.510  13.026  0.3281  0.0047 -0.0131
11848TIP3    H256960   1.991   0.432  13.043  0.4031  0.3084  0.8294
11849TIP3   OH256961   2.596   2.089  12.247 -0.1616  1.0233  0.0215
11849TIP3    H156962   2.543   2.101  12.168  1.3829  1.2168 -1.0055
11849TIP3    H256963   2.539   2.119  12.318 -1.7955  0.2777 -0.9369
11850TIP3   OH256964   5.011   6.514   0.324 -0.4857 -0.3451  0.1271
11850TIP3    H156965   4.928   6.473   0.349  0.0312 -0.7377  1.2060
11850TIP3    H256966   5.065   6.509   0.403  1.6690 -2.8550 -1.4031
11851TIP3   OH256967   2.586   5.627   0.865 -0.0247 -1.1336  1.0186
11851TIP3    H156968   2.565   5.672   0.783 -0.4109 -0.4456  1.4805
11851TIP3    H256969   2.591   5.535   0.842 -0.1960 -0.9495  0.2332
11852TIP3   OH256970   4.723   1.441   2.991 -0.5438 -0.6834  0.0973
11852TIP3    H156971   4.631   1.457   2.969  0.1501  2.4775 -0.6092
11852TIP3    H256972   4.749   1.369   2.933 -1.5214  0.9054 -2.3577
11853TIP3   OH256973   5.855   4.209   0.288 -1.2706 -0.0245  0.3607
11853TIP3    H156974   5.829   4.237   0.376 -1.0705 -0.5389  0.5819
11853TIP3    H256975   5.945   4.239   0.278 -1.9224  1.7333 -0.3951
11854TIP3   OH256976   4.211   2.292   1.557 -0.2276  0.6939 -0.3207
11854TIP3    H156977   4.121   2.281   1.588  0.4024  0.5585  1.4782
11854TIP3    H256978   4.244   2.203   1.547 -0.1475  0.7508 -0.5815
11855TIP3   OH256979   1.018   0.946  10.923 -0.9282 -0.1532  0.2733
11855TIP3    H156980   1.005   0.938  10.828 -1.4808  2.1878  0.1233
11855TIP3    H256981   1.020   1.040  10.939  2.6465 -0.4714  2.1458
11856TIP3   OH256982   5.019   2.188  11.192 -0.2500  0.2147  0.1590
11856TIP3    H156983   4.925   2.184  11.178 -0.1584 -0.2106 -0.3576
11856TIP3    H256984   5.047   2.097  11.190  0.3178  0.4053 -0.7110
11857TIP3   OH256985   1.530   3.241  14.339  0.7972 -0.1522 -0.1144
11857TIP3    H156986   1.484   3.248  14.423 -0.4327  0.6500 -0.8376
11857TIP3    H256987   1.544   3.331  14.311 -0.4485 -0.3931 -1.6313
11858TIP3   OH256988   3.523   3.789   3.814 -0.0461 -0.6998 -0.4284
11858TIP3    H156989   3.516   3.799   3.719 -0.6180 -2.1934 -0.5467
11858TIP3    H256990   3.603   3.837   3.837 -1.8351  2.7451 -1.1513
11859TIP3   OH256991   1.711   1.686   3.632 -0.4239  0.3366 -0.1628
11859TIP3    H156992   1.688   1.715   3.543  1.0656  0.1079 -0.6287
11859TIP3    H256993   1.757   1.603   3.618  2.2332  1.6379  0.6226
11860TIP3   OH256994   0.290   6.120  15.666 -0.1086 -0.3408 -0.1014
11860TIP3    H156995   0.321   6.084  15.749 -0.1957  1.1829  0.6215
11860TIP3    H256996   0.328   6.063  15.599 -0.0470 -1.5881  0.9800
11861TIP3   OH256997   3.148   3.697  15.275  0.1987 -0.1199 -0.1285
11861TIP3    H156998   3.150   3.682  15.180  1.4110  3.3098 -0.7140
11861TIP3    H256999   3.239   3.688  15.303 -0.1077 -0.7804  0.6560
11862TIP3   OH257000   4.152   0.040  12.205  0.3257  0.3015 -0.0847
11862TIP3    H157001   4.169  -0.023  12.134  1.2209 -0.6446  0.9580
11862TIP3    H257002   4.079   0.093  12.172  2.5979  1.7941 -2.9337
11863TIP3   OH257003   4.818   6.346  12.053 -0.1528 -0.0327  0.0232
11863TIP3    H157004   4.833   6.438  12.074  0.9500 -0.0077 -0.8434
11863TIP3    H257005   4.887   6.299  12.099 -0.2847 -0.3604 -0.1136
11864TIP3   OH257006   0.246   0.337  13.719 -0.1763  0.6585 -0.0564
11864TIP3    H157007   0.257   0.359  13.626  0.7931  0.4853  0.0089
11864TIP3    H257008   0.276   0.247  13.726  1.4961  1.2580  0.7490
11865TIP3   OH257009   1.898   4.825  13.984 -0.2432  0.2300  0.0195
11865TIP3    H157010   1.879   4.917  13.967  0.0357  0.2027 -0.4528
11865TIP3    H257011   1.899   4.818  14.080  3.0714  1.4306  0.1519
11866TIP3   OH257012   5.143   6.266  12.362 -0.3274 -0.1164 -0.3340
11866TIP3    H157013   5.116   6.211  12.436  0.0293 -0.8446 -0.7368
11866TIP3    H257014   5.239   6.266  12.366 -0.3539  1.6650  0.5152
11867TIP3   OH257015   5.309   2.156  11.068 -0.0963  0.2812  0.3623
11867TIP3    H157016   5.303   2.169  10.973 -0.3107  0.5518  0.4112
11867TIP3    H257017   5.234   2.101  11.090  1.1385 -1.5371  0.0752
11868TIP3   OH257018   1.745   0.221   3.886 -0.1948  0.2913  0.3110
11868TIP3    H157019   1.682   0.280   3.927 -0.4926 -0.3350  0.7725
11868TIP3    H257020   1.711   0.133   3.904  0.0286 -0.0138 -0.7078
11869TIP3   OH257021   1.264   2.645   0.598  0.3763 -0.0550 -0.1432
11869TIP3    H157022   1.258   2.685   0.684  0.5742 -0.2949 -0.0183
11869TIP3    H257023   1.329   2.698   0.551  0.7816 -0.3438  0.0870
11870TIP3   OH257024   4.552   3.058   4.041 -0.3784  0.7527  0.1750
11870TIP3    H157025   4.517   3.001   3.973 -0.3471 -1.3738  1.8521
11870TIP3    H257026   4.630   3.013   4.072 -0.9390  1.1297  2.2674
11871TIP3   OH257027   6.182   3.789   2.800 -0.1800  0.0642 -0.3278
11871TIP3    H157028   6.213   3.749   2.719  0.5269  0.4165 -0.2288
11871TIP3    H257029   6.173   3.882   2.778  1.0661  0.3368  0.3213
11872TIP3   OH257030   4.045   2.763  14.844  0.1435  0.3124  0.4116
11872TIP3    H157031   3.952   2.742  14.859  0.1497  0.0367  0.0864
11872TIP3    H257032   4.082   2.681  14.811  0.1862  0.8251 -0.8484
11873TIP3   OH257033   1.996   0.969  15.254 -0.5904 -0.1931  0.4207
11873TIP3    H157034   1.940   0.951  15.178 -0.8936 -1.0411  0.8467
11873TIP3    H257035   1.952   0.926  15.327  0.0712  0.0278  0.9512
11874TIP3   OH257036   0.728   1.368  11.352  0.1243  0.2912 -0.0203
11874TIP3    H157037   0.671   1.359  11.428  0.1751 -0.7232 -0.0873
11874TIP3    H257038   0.799   1.425  11.382 -0.3654  0.6937  0.3855
11875TIP3   OH257039   3.223   1.755  15.702 -0.0360  0.1256  0.1414
11875TIP3    H157040   3.140   1.743  15.747  0.0222 -0.0779  0.1967
11875TIP3    H257041   3.286   1.707  15.756  0.2972  1.1149  0.6493
11876TIP3   OH257042   1.321   6.074  16.172 -0.4615  0.5081  0.1228
11876TIP3    H157043   1.340   6.160  16.134  1.0857  1.0845  2.0702
11876TIP3    H257044   1.397   6.056  16.228 -1.8196 -1.1133  1.4869
11877TIP3   OH257045   5.027   5.418  11.206 -0.3591 -0.3231 -0.4822
11877TIP3    H157046   5.093   5.458  11.150 -0.0292 -1.7139 -1.1101
11877TIP3    H257047   5.071   5.344  11.247 -1.4102 -1.0387 -0.6148
11878TIP3   OH257048   3.279   3.919   5.044  0.1678 -0.5999  0.3863
11878TIP3    H157049   3.341   3.971   4.992  0.5887 -0.5771  0.9112
11878TIP3    H257050   3.230   3.984   5.094 -0.3196 -0.6147 -0.0654
11879TIP3   OH257051   0.026   5.557  16.755  0.4966  0.2354 -0.4630
11879TIP3    H157052  -0.031   5.616  16.705  1.1044 -0.9339 -2.5959
11879TIP3    H257053   0.101   5.612  16.779  0.0094  0.9229 -0.5044
11880TIP3   OH257054   0.185   6.183  16.846 -0.0954  0.8528 -0.8929
11880TIP3    H157055   0.257   6.238  16.816  0.2895 -0.5193 -2.5344
11880TIP3    H257056   0.228   6.109  16.888 -0.6006  1.1354  0.1514
11881TIP3   OH257057   4.414   3.806  12.941  0.4809 -0.7084  0.6913
11881TIP3    H157058   4.490   3.750  12.953 -0.1251 -1.2061  2.3378
11881TIP3    H257059   4.447   3.882  12.894  1.9223 -1.0441  1.1503
11882TIP3   OH257060   5.943   1.620  16.819 -0.4886  0.1939  1.0508
11882TIP3    H157061   5.971   1.574  16.899 -0.4361  0.3383  1.1151
11882TIP3    H257062   5.895   1.554  16.769 -0.3272  0.0405  1.0983
11883TIP3   OH257063   1.302   5.773   2.032 -0.1813  0.0695  0.2674
11883TIP3    H157064   1.299   5.733   1.945  0.4292 -0.1724  0.3561
11883TIP3    H257065   1.355   5.713   2.084 -1.5768 -0.4386  1.1469
11884TIP3   OH257066   4.345   3.080   2.160 -0.8983 -0.1951 -0.2954
11884TIP3    H157067   4.277   3.047   2.219  0.1685  0.7975  1.5314
11884TIP3    H257068   4.297   3.104   2.080 -2.4085 -1.2803  0.2661
11885TIP3   OH257069   1.361   4.941  12.012  0.3881 -0.2221  0.5102
11885TIP3    H157070   1.360   4.866  11.952  2.5223 -0.2467  0.4772
11885TIP3    H257071   1.347   5.017  11.956  2.4592 -0.2398 -0.0739
11886TIP3   OH257072   1.950   5.526   3.954 -0.4793  0.0009 -0.4986
11886TIP3    H157073   2.043   5.546   3.945 -0.5573  1.5383  1.8407
11886TIP3    H257074   1.945   5.431   3.943  1.5022 -0.2430  0.4219
11887TIP3   OH257075   4.799   2.800   3.460  0.1824 -0.2667  0.5434
11887TIP3    H157076   4.729   2.833   3.404  0.0819  1.7409  1.7935
11887TIP3    H257077   4.766   2.810   3.549  2.4142  1.7527  1.2140
11888TIP3   OH257078   5.534   3.312  11.880  0.1428  0.1039  0.2742
11888TIP3    H157079   5.586   3.285  11.955  0.5298 -0.6703 -0.2623
11888TIP3    H257080   5.507   3.402  11.900  3.5399  1.3390 -0.4468
11889TIP3   OH257081   5.217   6.621  14.883 -0.3626 -0.4483  0.2123
11889TIP3    H157082   5.252   6.567  14.812 -0.1953 -0.7571  0.5294
11889TIP3    H257083   5.122   6.608  14.877 -0.2087 -2.4671  1.6150
11890TIP3   OH257084   2.817   1.462  15.707 -0.0418 -0.1245  0.3953
11890TIP3    H157085   2.763   1.416  15.771 -0.4854 -1.1702 -0.7098
11890TIP3    H257086   2.891   1.403  15.691  1.5721  1.4043  2.0726
11891TIP3   OH257087   1.559   4.014   5.917 -0.0350  0.4762 -0.1019
11891TIP3    H157088   1.543   4.028   6.010  1.1339  0.6044  0.0844
11891TIP3    H257089   1.653   4.026   5.906 -0.3592  1.8612 -1.5473
11892TIP3   OH257090   1.908   5.304  16.161 -0.7324  0.2898  0.0617
11892TIP3    H157091   1.988   5.274  16.204 -2.1603  0.4669  2.9756
11892TIP3    H257092   1.886   5.234  16.100  0.3052 -0.9220  1.0422
11893TIP3   OH257093   6.679   5.329   6.729 -0.3464 -0.3632  0.0095
11893TIP3    H157094   6.760   5.287   6.757 -0.1148  0.0385 -0.0447
11893TIP3    H257095   6.698   5.423   6.736 -1.1948 -0.2734  1.1216
11894TIP3   OH257096   4.956   5.365   4.792 -0.4929 -0.5899  0.6860
11894TIP3    H157097   4.910   5.423   4.731 -1.0464  1.5313  3.0417
11894TIP3    H257098   4.891   5.346   4.860  0.0297 -3.1358  0.5319
11895TIP3   OH257099   4.693   5.579   4.400 -0.2671  0.0672  0.6997
11895TIP3    H157100   4.683   5.665   4.440  0.8409  0.6080 -0.1856
11895TIP3    H257101   4.609   5.536   4.416 -1.0507  1.5276  0.6004
11896TIP3   OH257102   6.642   5.101  16.821  0.0887 -0.1772  0.2235
11896TIP3    H157103   6.696   5.170  16.858  0.5448  0.3311 -1.3810
11896TIP3    H257104   6.704   5.040  16.781 -0.4967  0.2086 -1.2914
11897TIP3   OH257105   4.997   0.711  16.863  0.0086 -0.6666 -1.4534
11897TIP3    H157106   4.940   0.788  16.853 -0.3993 -0.7857 -0.0721
11897TIP3    H257107   5.085   0.745  16.850 -0.1968 -0.0336 -1.2163
11898TIP3   OH257108   0.468   0.461   6.658  0.2815 -0.2971 -0.2018
11898TIP3    H157109   0.508   0.378   6.684  0.9922 -0.1696 -0.8691
11898TIP3    H257110   0.526   0.494   6.589  0.9363  1.5502  1.1964
11899TIP3   OH257111   4.202   0.962   3.127  0.1118  0.3840 -0.3962
11899TIP3    H157112   4.265   0.893   3.111  0.9470  1.3682 -1.4929
11899TIP3    H257113   4.116   0.922   3.111  0.7204  0.3430 -3.9603
11900TIP3   OH257114   5.793   5.993   2.113  0.3122  0.0669 -0.4606
11900TIP3    H157115   5.735   5.934   2.064 -0.3847 -0.0654  0.5210
11900TIP3    H257116   5.858   6.021   2.048 -1.3386  0.9034 -1.8079
11901TIP3   OH257117   3.130   2.461  16.992  0.3710  0.2505 -0.6983
11901TIP3    H157118   3.131   2.367  17.012  0.3158  0.8402  2.3456
11901TIP3    H257119   3.044   2.491  17.022  1.3818  1.7284  0.7997
11902TIP3   OH257120   1.388   5.903  14.813 -0.5428  0.5385  0.4247
11902TIP3    H157121   1.344   5.986  14.800 -1.0906  0.1969  0.0628
11902TIP3    H257122   1.477   5.926  14.841 -0.5279  1.2499 -0.1985
11903TIP3   OH257123   2.189   2.366   2.244  0.0015  0.4925 -0.5315
11903TIP3    H157124   2.098   2.342   2.261 -0.2229  0.6034 -1.5873
11903TIP3    H257125   2.204   2.344   2.152  1.8004 -1.8862  0.2568
11904TIP3   OH257126   6.100   3.381  13.268 -0.3455 -0.3641 -0.0287
11904TIP3    H157127   6.155   3.309  13.237  0.5223  0.1740  0.2424
11904TIP3    H257128   6.010   3.348  13.261 -0.1439 -0.4924 -2.5263
11905TIP3   OH257129   4.932   4.246   3.805 -0.6810 -0.5170  0.0446
11905TIP3    H157130   4.874   4.312   3.768 -2.3804 -1.3616  1.1170
11905TIP3    H257131   4.904   4.164   3.762  0.5845 -0.7346 -0.3766
11906TIP3   OH257132   3.412   2.358   4.519  0.0950  0.3388  0.3112
11906TIP3    H157133   3.396   2.413   4.442 -2.6628 -3.2711 -1.8055
11906TIP3    H257134   3.490   2.307   4.497  0.2371  0.4260  0.6019
11907TIP3   OH257135   4.919   0.369  11.674 -0.7109 -0.1378 -0.4033
11907TIP3    H157136   4.849   0.432  11.693  0.4296  0.8181  0.7309
11907TIP3    H257137   4.947   0.338  11.761 -0.4373 -1.3060 -0.8993
11908TIP3   OH257138   3.139   3.972  12.766  0.2339  0.2862 -0.6229
11908TIP3    H157139   3.084   4.005  12.695 -0.9316  0.2553  0.2562
11908TIP3    H257140   3.088   3.988  12.845  1.5838  0.4493  0.2270
11909TIP3   OH257141   6.593   6.278  17.094 -0.4373 -0.0283  0.5690
11909TIP3    H157142   6.530   6.350  17.081 -0.9353 -0.0127  2.7838
11909TIP3    H257143   6.664   6.318  17.144 -0.8320 -1.1389  2.0160
11910TIP3   OH257144   2.791   0.338   2.243  0.0098 -0.1949  0.1924
11910TIP3    H157145   2.815   0.258   2.289  1.0863 -0.3538 -0.6099
11910TIP3    H257146   2.862   0.399   2.264  0.3550 -0.1722 -0.9889
11911TIP3   OH257147   5.247   3.159   2.533 -0.0717  0.1559  0.1273
11911TIP3    H157148   5.273   3.250   2.518  0.8670 -0.2424 -0.7458
11911TIP3    H257149   5.216   3.158   2.623 -1.0615  1.5510 -0.1910
11912TIP3   OH257150   6.539   5.799   2.141  0.3606  0.0903  0.5498
11912TIP3    H157151   6.537   5.788   2.046  1.9766  0.2157  0.4717
11912TIP3    H257152   6.593   5.726   2.172  0.0889  0.2194  1.3376
11913TIP3   OH257153   4.966   3.690  13.134 -0.0234 -0.1015  0.5196
11913TIP3    H157154   5.019   3.755  13.088 -0.1993  0.1079  0.6087
11913TIP3    H257155   4.879   3.698  13.095  0.4197 -1.6713 -0.8678
11914TIP3   OH257156   3.817   0.114   1.600  0.0620 -0.4138 -0.6095
11914TIP3    H157157   3.909   0.130   1.577 -0.3453  1.1878 -1.1740
11914TIP3    H257158   3.773   0.105   1.515 -0.0757 -2.6789 -0.3393
11915TIP3   OH257159   2.961   2.912   5.062  0.8616  0.0773  0.2044
11915TIP3    H157160   2.906   2.898   5.139  1.2442  0.7763  0.6084
11915TIP3    H257161   2.902   2.896   4.988  0.8840 -2.1075  0.6220
11916TIP3   OH257162   6.658   3.883  14.951  0.1453 -0.2214  0.5044
11916TIP3    H157163   6.648   3.925  14.866 -1.5825 -1.5833  0.0060
11916TIP3    H257164   6.658   3.955  15.014  1.1744  0.7770 -0.6233
11917TIP3   OH257165   1.965   5.654  16.811  0.3793  0.1580  0.0009
11917TIP3    H157166   2.057   5.650  16.836  1.0499 -2.0878 -2.4898
11917TIP3    H257167   1.919   5.606  16.880  1.4665 -1.2146 -0.2084
11918TIP3   OH257168   3.761   0.687   5.082 -0.1290  0.0928  0.4969
11918TIP3    H157169   3.771   0.605   5.034  1.4168  0.5080  0.0847
11918TIP3    H257170   3.830   0.685   5.149 -1.2050  0.2626  1.6368
11919TIP3   OH257171   5.787   4.761  11.685 -0.2192  0.2531 -0.0926
11919TIP3    H157172   5.844   4.827  11.724  1.0609 -1.0183  0.2006
11919TIP3    H257173   5.712   4.756  11.745  0.8429 -0.3403  1.2018
11920TIP3   OH257174   5.873   5.688   5.611  0.2976  0.2989  0.6749
11920TIP3    H157175   5.787   5.706   5.575  0.7211  0.4906 -0.2611
11920TIP3    H257176   5.933   5.700   5.537  1.0792 -0.2198  1.2140
11921TIP3   OH257177   3.679   2.200   4.834  0.9403 -0.5386 -0.4505
11921TIP3    H157178   3.708   2.286   4.863  0.6153 -0.6507  0.2314
11921TIP3    H257179   3.747   2.171   4.773  1.5588 -0.2227  0.0792
11922TIP3   OH257180   5.723   0.499   3.611 -0.1687  0.7519  0.1589
11922TIP3    H157181   5.631   0.475   3.597  0.0156 -0.2776  0.6467
11922TIP3    H257182   5.725   0.535   3.699  0.3763 -1.9300  1.3069
11923TIP3   OH257183   5.672   5.249   5.984  0.0118  0.1023  0.1841
11923TIP3    H157184   5.660   5.208   6.070 -0.8715 -2.0971 -0.9573
11923TIP3    H257185   5.625   5.333   5.991 -1.8743 -0.9945  1.1793
11924TIP3   OH257186   3.301   0.850   4.652 -0.0717 -0.6230  0.1118
11924TIP3    H157187   3.381   0.802   4.627  1.4270  1.5412  0.6242
11924TIP3    H257188   3.287   0.911   4.579 -1.4486 -1.1737 -0.1012
11925TIP3   OH257189   3.920   4.582  14.976  0.1110 -0.1473 -0.0806
11925TIP3    H157190   3.852   4.647  14.955  1.7425  1.1090 -1.7043
11925TIP3    H257191   3.872   4.503  14.998 -1.9318  1.3490  1.0705
11926TIP3   OH257192   1.019   1.381   1.256  0.3815  0.2780 -0.5008
11926TIP3    H157193   0.926   1.372   1.237  0.2398  1.3371 -0.3801
11926TIP3    H257194   1.039   1.310   1.317 -0.9100  1.4317  1.3269
11927TIP3   OH257195   6.729   0.464  14.985 -0.2230 -0.2270 -0.1060
11927TIP3    H157196   6.736   0.421  14.900  0.6385  0.4093 -0.3571
11927TIP3    H257197   6.815   0.453  15.024 -0.3489  0.2665  0.3149
11928TIP3   OH257198   0.161   2.226   3.583 -0.3277  0.1580 -0.1127
11928TIP3    H157199   0.120   2.228   3.496  0.3411 -0.8920 -0.4615
11928TIP3    H257200   0.120   2.299   3.630  0.0153  1.3500 -1.6147
11929TIP3   OH257201   6.227   2.657   5.863 -0.2045  0.7163  0.0824
11929TIP3    H157202   6.196   2.577   5.819  0.5643  1.0166 -1.0391
11929TIP3    H257203   6.151   2.691   5.909 -0.9285  0.1636 -0.6990
11930TIP3   OH257204   0.152   0.045   4.344  0.6319  0.1404 -0.3570
11930TIP3    H157205   0.156  -0.022   4.276  0.5517 -1.2910  1.0077
11930TIP3    H257206   0.060   0.072   4.346  0.9119  1.3019 -1.8250
11931TIP3   OH257207   4.999   2.739   3.947 -0.0611  0.2851 -0.3836
11931TIP3    H157208   4.984   2.654   3.906  1.1099 -0.5129  0.8061
11931TIP3    H257209   5.084   2.768   3.913 -0.4487  0.9774 -0.7723
11932TIP3   OH257210   5.367   1.827   2.384 -0.5185 -0.1936 -0.1293
11932TIP3    H157211   5.368   1.831   2.288 -2.8634  3.7426 -0.1059
11932TIP3    H257212   5.305   1.757   2.404  0.6550 -1.6591 -1.4216
11933TIP3   OH257213   0.218   4.215  10.783  0.0504 -0.6037  0.1792
11933TIP3    H157214   0.283   4.155  10.748 -1.2329 -2.0496  0.2302
11933TIP3    H257215   0.163   4.238  10.708  0.6305  0.6424  0.1247
11934TIP3   OH257216   1.173   5.385   4.095  0.1304  0.0364  0.6413
11934TIP3    H157217   1.180   5.432   4.178  0.4885  0.4177  0.3957
11934TIP3    H257218   1.230   5.433   4.035 -0.5315  0.0625  0.0335
11935TIP3   OH257219   3.749   2.914  12.250  0.0179  0.2331  0.0761
11935TIP3    H157220   3.697   2.863  12.313 -0.9166  0.4289 -0.5320
11935TIP3    H257221   3.838   2.878  12.258 -0.5895 -1.3735 -0.2148
11936TIP3   OH257222   4.143   2.264   0.892 -0.2081  0.1224  0.3529
11936TIP3    H157223   4.134   2.358   0.882 -2.6692  0.1419  2.0874
11936TIP3    H257224   4.237   2.249   0.900  0.4523  2.0385 -2.9287
11937TIP3   OH257225   2.133   2.555   4.959  0.3262 -0.8678  0.1531
11937TIP3    H157226   2.053   2.605   4.947  0.4699 -0.7966 -0.5123
11937TIP3    H257227   2.126   2.520   5.048  0.8313  1.4027  1.1261
11938TIP3   OH257228   5.554   1.556  14.638 -0.1969 -0.0155 -0.5437
11938TIP3    H157229   5.633   1.607  14.656 -0.3225  0.2290 -0.6895
11938TIP3    H257230   5.491   1.619  14.603 -0.6690 -0.0779  0.1563
11939TIP3   OH257231   5.236   6.334   5.439 -0.3949  0.1484 -1.6917
11939TIP3    H157232   5.253   6.368   5.527 -0.7156  0.8339 -1.8927
11939TIP3    H257233   5.322   6.332   5.397 -0.2878  0.1342 -1.4738
11940TIP3   OH257234   5.940   2.184  13.742 -0.5566  0.0888 -0.0728
11940TIP3    H157235   5.890   2.128  13.683  0.4054 -0.3104 -0.5248
11940TIP3    H257236   5.882   2.199  13.817 -0.7901 -1.5790  0.0916
11941TIP3   OH257237   3.957   4.530   2.256 -0.4204 -0.1888 -0.3127
11941TIP3    H157238   4.003   4.449   2.276  0.7969  0.2643 -1.1945
11941TIP3    H257239   3.978   4.588   2.329  0.4866  0.0413 -0.7509
11942TIP3   OH257240   6.399   4.891   2.411 -0.0686 -0.1462  0.0731
11942TIP3    H157241   6.399   4.946   2.489 -0.3141  0.7389 -0.5376
11942TIP3    H257242   6.364   4.807   2.440  2.1250 -0.6192  1.4578
11943TIP3   OH257243   6.059   5.163  12.179 -0.1319 -0.3403  0.5865
11943TIP3    H157244   6.009   5.114  12.243  1.7269 -1.2268  1.3939
11943TIP3    H257245   6.118   5.098  12.139 -0.8603  0.2930 -1.6318
11944TIP3   OH257246   0.078   1.552  15.768  0.0806  0.2595 -0.0090
11944TIP3    H157247   0.038   1.593  15.691  0.2403  0.8439  0.2215
11944TIP3    H257248   0.006   1.509  15.813 -0.1521  0.6486 -0.0168
11945TIP3   OH257249   0.103   6.489  14.952 -0.3387  0.0434  0.0957
11945TIP3    H157250   0.164   6.419  14.976 -2.4589 -0.9136  3.0406
11945TIP3    H257251   0.022   6.443  14.929 -1.2409  1.4679  0.3802
11946TIP3   OH257252   2.315   0.466  12.034  0.0049  0.3652 -0.8195
11946TIP3    H157253   2.384   0.450  11.970  1.0016 -0.4474  0.4394
11946TIP3    H257254   2.326   0.557  12.059  1.0622  0.0614 -0.1341
11947TIP3   OH257255   0.146   5.067  12.539  0.2603 -0.5175 -0.6481
11947TIP3    H157256   0.179   5.069  12.448 -0.4878 -1.2630 -0.9337
11947TIP3    H257257   0.088   4.992  12.542 -0.6611  0.2170  0.1365
11948TIP3   OH257258   1.236   6.505  14.229  0.2715 -0.0885 -0.7122
11948TIP3    H157259   1.215   6.569  14.297  0.3754 -0.8594  0.0578
11948TIP3    H257260   1.193   6.539  14.150 -1.2598 -0.0318  0.1242
11949TIP3   OH257261   5.618   2.096   3.145  0.3049 -0.3394 -0.5577
11949TIP3    H157262   5.701   2.050   3.135  2.3740  2.3867  2.8172
11949TIP3    H257263   5.633   2.182   3.105 -0.9993  0.0615 -0.2150
11950TIP3   OH257264   2.380   6.034   6.522 -0.2845  0.1504  0.1561
11950TIP3    H157265   2.389   6.051   6.616 -0.1623 -0.5864  0.2801
11950TIP3    H257266   2.456   6.077   6.483 -0.0953  0.0862  0.4465
11951TIP3   OH257267   5.309   0.803   5.411 -0.1743 -0.2185 -0.3192
11951TIP3    H157268   5.237   0.783   5.471  0.7613 -0.6302  0.6878
11951TIP3    H257269   5.302   0.737   5.342  0.6794 -1.8024  1.0628
11952TIP3   OH257270   2.456   3.520  11.841  0.1174  0.0755 -0.7282
11952TIP3    H157271   2.417   3.442  11.880  0.9303  0.1491  0.2349
11952TIP3    H257272   2.423   3.593  11.894  2.9515 -0.0020  1.2570
11953TIP3   OH257273   2.186   0.848  11.772  0.7222  0.4661  0.1362
11953TIP3    H157274   2.139   0.764  11.778  2.3215 -0.6510 -2.1858
11953TIP3    H257275   2.212   0.867  11.862  0.0038 -1.3447  0.7651
11954TIP3   OH257276   4.185   1.064   1.011 -0.1567  0.2659 -0.1011
11954TIP3    H157277   4.260   1.111   1.047  1.9646 -1.6241 -1.8935
11954TIP3    H257278   4.153   1.011   1.083  1.2450 -0.1173  0.2566
11955TIP3   OH257279   2.947   5.045   4.069  0.0345  0.2273  0.6393
11955TIP3    H157280   2.903   5.071   3.988  0.4367 -0.9906  0.0141
11955TIP3    H257281   3.028   5.096   4.069 -0.3921  0.9072  0.7346
11956TIP3   OH257282   0.760   0.573   4.471  0.2058 -0.3916 -0.0327
11956TIP3    H157283   0.694   0.504   4.471 -0.3944  0.1712  0.4767
11956TIP3    H257284   0.757   0.609   4.382 -1.0724  0.4631  0.3440
11957TIP3   OH257285   5.728   0.721  11.704 -0.5774 -0.1896 -0.3250
11957TIP3    H157286   5.716   0.674  11.787  0.0321 -0.7884 -0.5719
11957TIP3    H257287   5.641   0.756  11.684 -0.5419  0.6409  0.9713
11958TIP3   OH257288   2.014   0.568   4.904 -0.3530 -0.1673 -0.8363
11958TIP3    H157289   1.952   0.525   4.963  0.8899 -1.4918 -0.4786
11958TIP3    H257290   2.096   0.521   4.917  0.8419  1.8158 -1.0167
11959TIP3   OH257291   6.690   0.538   0.357 -0.6969 -0.1718  0.0288
11959TIP3    H157292   6.714   0.544   0.264  1.8998  2.4340  0.7972
11959TIP3    H257293   6.618   0.474   0.359 -0.2014 -0.9675 -3.6384
11960TIP3   OH257294   5.026   6.213  16.611  0.7588  0.1988  0.1637
11960TIP3    H157295   4.951   6.238  16.558  0.6470  1.6507  0.9878
11960TIP3    H257296   5.090   6.179  16.548 -0.4793 -0.8239 -0.5606
11961TIP3   OH257297   2.594   6.174  13.421  0.6552 -0.6116  0.0726
11961TIP3    H157298   2.613   6.112  13.492 -2.5525 -2.1478 -0.3211
11961TIP3    H257299   2.589   6.259  13.464 -0.8550 -1.4701  1.6850
11962TIP3   OH257300   4.305   6.026  16.259  0.2186 -0.0704  0.2793
11962TIP3    H157301   4.253   6.009  16.180  0.0181  0.3797  0.3184
11962TIP3    H257302   4.348   6.109  16.242 -0.6498  0.5468  1.0814
11963TIP3   OH257303   0.186   2.227   1.293  0.4036 -0.6459 -0.8296
11963TIP3    H157304   0.239   2.307   1.291  0.6270 -0.8148 -2.1204
11963TIP3    H257305   0.243   2.162   1.334  1.4399 -0.9730 -2.7084
11964TIP3   OH257306   2.434   6.578  17.144  0.8383  0.3368  0.3286
11964TIP3    H157307   2.459   6.670  17.151  2.5956 -0.2071  1.6621
11964TIP3    H257308   2.498   6.532  17.199 -0.7077 -1.5631  0.5650
11965TIP3   OH257309   6.561   6.631  15.580 -0.1112  0.1344  0.2589
11965TIP3    H157310   6.527   6.693  15.644  0.0619  0.8170 -0.3066
11965TIP3    H257311   6.651   6.614  15.607 -0.8793 -1.7518  1.8166
11966TIP3   OH257312   0.972   1.244   3.918 -0.4534 -0.6020 -0.3910
11966TIP3    H157313   1.027   1.261   3.995  0.7296 -2.1290 -0.8788
11966TIP3    H257314   0.953   1.151   3.923 -1.4225 -0.4586 -1.2821
11967TIP3   OH257315   2.745   6.608   1.506  0.0773 -0.6408  1.0852
11967TIP3    H157316   2.821   6.555   1.527  0.3254 -0.0892  1.5731
11967TIP3    H257317   2.674   6.570   1.559 -0.0451 -1.2917  0.4646
11968TIP3   OH257318   3.370   6.606  15.267  0.1507 -0.2596  0.1218
11968TIP3    H157319   3.367   6.652  15.183  0.7847 -0.7009 -0.1539
11968TIP3    H257320   3.461   6.618  15.297 -0.4514  1.1644  1.4712
11969TIP3   OH257321   3.177   4.510  15.454  0.1061  0.2304  0.7087
11969TIP3    H157322   3.207   4.466  15.374 -1.9020  0.7660 -0.3829
11969TIP3    H257323   3.138   4.440  15.506  0.5935  0.0265  0.7950
11970TIP3   OH257324   0.357   3.336   0.699  0.5207  0.6065 -0.2172
11970TIP3    H157325   0.364   3.397   0.625  0.1475 -0.0900 -0.8452
11970TIP3    H257326   0.444   3.299   0.708  0.6059  0.8097 -0.2170
11971TIP3   OH257327   5.336   4.921  16.753  0.0309 -0.7250 -0.3755
11971TIP3    H157328   5.257   4.878  16.719 -0.7270  0.9489 -0.7708
11971TIP3    H257329   5.322   4.925  16.847 -0.5126 -0.1048 -0.4838
11972TIP3   OH257330   6.414   4.999  10.475 -0.1336  0.4595 -0.4627
11972TIP3    H157331   6.369   5.077  10.444 -1.4679  0.9175  2.4051
11972TIP3    H257332   6.507   5.017  10.458 -0.4594  2.4972 -0.2412
11973TIP3   OH257333   2.332   3.309  17.010  0.1603 -0.2965 -0.4370
11973TIP3    H157334   2.240   3.307  16.985 -0.1113 -1.4507  0.6227
11973TIP3    H257335   2.333   3.285  17.103  1.4962 -0.0636 -0.3768
11974TIP3   OH257336   4.264   6.293  13.619 -0.0854  0.1929 -0.1518
11974TIP3    H157337   4.353   6.274  13.592 -0.5288 -0.5741 -1.0895
11974TIP3    H257338   4.211   6.278  13.541 -1.1029  0.0950  0.5438
11975TIP3   OH257339   2.480   5.964   3.958  0.0548 -0.1129  0.1100
11975TIP3    H157340   2.434   5.884   3.934 -0.7395  0.3640  0.0168
11975TIP3    H257341   2.418   6.035   3.938  0.9414  0.5571 -0.2981
11976TIP3   OH257342   0.311   4.476   3.205  0.0255  0.1032 -0.3913
11976TIP3    H157343   0.363   4.396   3.204  1.4028  0.9827 -0.1771
11976TIP3    H257344   0.314   4.508   3.114 -1.6125 -0.7599 -0.7742
11977TIP3   OH257345   4.595   6.030   3.282  0.0374 -0.3164 -0.0979
11977TIP3    H157346   4.681   6.030   3.239 -0.2546  1.1642 -0.6967
11977TIP3    H257347   4.612   5.992   3.369  1.5333  1.0872  0.2460
11978TIP3   OH257348   4.035   1.240   0.265  0.0197  0.0822 -0.3411
11978TIP3    H157349   3.954   1.193   0.286 -1.2254  1.8231 -1.0845
11978TIP3    H257350   4.105   1.179   0.287 -1.5452 -2.5939 -2.5267
11979TIP3   OH257351   4.616   0.534  16.709  0.1715  0.5659 -0.5372
11979TIP3    H157352   4.545   0.593  16.682 -1.0203  0.2692  1.7715
11979TIP3    H257353   4.603   0.455  16.657 -0.6384  0.8666 -0.7976
11980TIP3   OH257354   5.005   5.795  12.102  0.1140  0.5191  1.0805
11980TIP3    H157355   5.026   5.876  12.055  0.5212  0.4900  1.2098
11980TIP3    H257356   4.914   5.805  12.129 -0.4302  0.1528 -0.5311
11981TIP3   OH257357   5.285   4.681   5.068  0.2009 -0.2898 -0.6025
11981TIP3    H157358   5.288   4.768   5.108 -0.4247 -0.3784 -0.3409
11981TIP3    H257359   5.229   4.692   4.991 -1.3422 -0.8204  0.4051
11982TIP3   OH257360   2.971   1.347   5.339 -0.0670  0.2194 -0.0684
11982TIP3    H157361   2.951   1.296   5.261 -0.3105 -0.8240  0.6616
11982TIP3    H257362   2.935   1.434   5.321  0.6843  0.2429 -1.4773
11983TIP3   OH257363   2.500   2.818  13.761 -0.6043  0.6738  0.2050
11983TIP3    H157364   2.584   2.771  13.763 -0.5134  0.8181 -0.1404
11983TIP3    H257365   2.485   2.843  13.852 -0.7107 -0.1224  0.4003
11984TIP3   OH257366   4.259   2.509  13.086 -0.1085  0.4381 -0.1555
11984TIP3    H157367   4.169   2.536  13.101 -1.0612 -2.4332 -0.3387
11984TIP3    H257368   4.291   2.484  13.173 -0.0686 -0.1923 -0.3492
11985TIP3   OH257369   4.751   1.784   1.630  0.0980  0.4260  0.1388
11985TIP3    H157370   4.777   1.842   1.560 -0.0241  0.3666  0.0434
11985TIP3    H257371   4.796   1.817   1.708  0.4130  0.3548 -0.0131
11986TIP3   OH257372   3.458   3.380  12.648 -0.2520  0.4009  0.3388
11986TIP3    H157373   3.364   3.381  12.668 -0.1257 -1.5549  1.1570
11986TIP3    H257374   3.471   3.300  12.598  1.2917 -0.3435  1.8726
11987TIP3   OH257375   5.418   0.435  15.560 -0.0189 -0.0106  0.2490
11987TIP3    H157376   5.506   0.429  15.524 -1.0233  0.0189 -2.3470
11987TIP3    H257377   5.361   0.405  15.489 -2.2491  2.0844  1.0663
11988TIP3   OH257378   2.320   1.731   3.119  0.5824  0.1272  0.7576
11988TIP3    H157379   2.301   1.764   3.031  2.2260 -0.8711 -0.0033
11988TIP3    H257380   2.236   1.696   3.150 -0.2574  1.4747  0.0322
11989TIP3   OH257381   0.790   3.785  16.587  0.1926  0.2381 -0.2346
11989TIP3    H157382   0.820   3.862  16.539 -1.8057  1.4411  0.3786
11989TIP3    H257383   0.711   3.757  16.542  1.8684 -2.5963 -1.5383
11990TIP3   OH257384   0.182   5.302   2.233 -0.3674 -0.6077 -0.0242
11990TIP3    H157385   0.215   5.218   2.202 -0.3740 -0.1987 -1.1684
11990TIP3    H257386   0.102   5.317   2.182  0.1593  0.5462 -0.5243
11991TIP3   OH257387   3.792   4.282   2.853  0.5593  0.5473  0.1107
11991TIP3    H157388   3.870   4.267   2.800 -0.2980 -0.6211 -0.8264
11991TIP3    H257389   3.726   4.314   2.791 -0.5261 -1.0828  0.4078
11992TIP3   OH257390   6.435   1.399   3.096  0.7485 -0.1471 -0.6503
11992TIP3    H157391   6.463   1.486   3.070  0.8720  0.1874  0.5550
11992TIP3    H257392   6.506   1.365   3.150 -0.2782 -0.0639  0.8010
11993TIP3   OH257393   4.643   5.419  14.505  0.0369 -0.0827 -0.0369
11993TIP3    H157394   4.601   5.412  14.591 -1.0174  2.2406 -0.3329
11993TIP3    H257395   4.737   5.412  14.524 -0.2272 -0.3926  1.1934
11994TIP3   OH257396   5.778   3.423   2.843  0.0540  0.4371 -0.5647
11994TIP3    H157397   5.827   3.502   2.820 -0.1365  0.3283 -1.3458
11994TIP3    H257398   5.806   3.358   2.780  0.4464 -0.2186  0.2786
11995TIP3   OH257399   1.341   4.826  11.455  1.0050 -0.3047  0.0629
11995TIP3    H157400   1.432   4.831  11.483  0.8656  0.8795  0.3670
11995TIP3    H257401   1.334   4.890  11.384 -0.1686  1.5988  1.7908
11996TIP3   OH257402   3.593   3.835  11.649 -0.1218 -0.6541  0.4976
11996TIP3    H157403   3.667   3.775  11.650  0.1772 -0.4497 -2.5403
11996TIP3    H257404   3.522   3.785  11.610 -0.2906  0.4796 -0.6954
11997TIP3   OH257405   4.423   4.603  14.885 -0.0594  0.5069  0.2136
11997TIP3    H157406   4.406   4.509  14.891  1.5483  0.1354 -0.7627
11997TIP3    H257407   4.465   4.614  14.800  1.6515  1.8094  1.1937
11998TIP3   OH257408   4.283   1.011   2.224 -0.8355 -0.3491  0.4507
11998TIP3    H157409   4.198   0.970   2.211 -0.2991 -1.9645  1.8343
11998TIP3    H257410   4.346   0.940   2.215  0.3710  0.8090 -0.4495
11999TIP3   OH257411   2.952   1.996   4.365 -0.3918 -0.2210 -0.2083
11999TIP3    H157412   2.869   2.044   4.368 -0.7444 -0.4672 -3.8158
11999TIP3    H257413   2.955   1.948   4.447 -2.0304  2.6806  1.6410
12000TIP3   OH257414   2.336   4.815  14.023  0.0594  0.1391  0.2271
12000TIP3    H157415   2.388   4.814  14.104  0.8666  2.0189 -0.2487
12000TIP3    H257416   2.254   4.858  14.049  0.1692  0.4047  0.1340
12001TIP3   OH257417   5.464   5.387   3.475 -0.3074  0.1976  0.1760
12001TIP3    H157418   5.460   5.421   3.565  0.3350  1.0861 -0.1253
12001TIP3    H257419   5.431   5.458   3.421  0.0369 -0.0502 -0.3648
12002TIP3   OH257420   6.051   4.157   3.861 -0.0646  0.2783  0.1866
12002TIP3    H157421   6.121   4.174   3.799 -0.4884  1.0224 -0.1034
12002TIP3    H257422   5.976   4.207   3.827 -0.0417  1.4349  1.7850
12003TIP3   OH257423   5.225   3.370  16.429  0.0161  0.3091  0.4346
12003TIP3    H157424   5.267   3.286  16.444  0.5297  0.3353 -0.7791
12003TIP3    H257425   5.135   3.349  16.404  0.1174  0.1226  0.2276
12004TIP3   OH257426   6.784   2.951  11.972  0.2374  0.4273 -0.0371
12004TIP3    H157427   6.815   2.996  11.893  1.0639  0.6672  0.4257
12004TIP3    H257428   6.823   2.999  12.045 -2.8558  2.0052  0.6449
12005TIP3   OH257429   3.867   5.444  15.499  0.3409 -0.1762  0.1201
12005TIP3    H157430   3.813   5.368  15.520 -0.8124  0.4823 -0.4139
12005TIP3    H257431   3.893   5.479  15.584 -1.4087  0.4272  0.4445
12006TIP3   OH257432   0.307   6.604  11.131  0.2024  0.4972 -0.0059
12006TIP3    H157433   0.354   6.541  11.077  1.0642  1.1554 -0.0339
12006TIP3    H257434   0.346   6.689  11.108 -1.2065  1.0898 -0.2606
12007TIP3   OH257435   5.951   1.804   0.347  0.0643 -0.6513 -0.0966
12007TIP3    H157436   6.012   1.863   0.390  1.8638 -2.2872 -0.3034
12007TIP3    H257437   5.911   1.754   0.418 -0.2512 -0.3187 -0.0378
12008TIP3   OH257438   1.206   0.601  15.875  0.3536 -0.1186  0.6763
12008TIP3    H157439   1.122   0.564  15.903  0.7302 -0.7079  1.0489
12008TIP3    H257440   1.250   0.625  15.957  0.4185  0.4878  0.4679
12009TIP3   OH257441   2.155   3.033   2.241  0.1579 -0.3625 -0.1952
12009TIP3    H157442   2.150   3.062   2.332 -1.4534  0.5840 -0.5568
12009TIP3    H257443   2.202   2.950   2.244  0.0464 -0.3732  1.5029
12010TIP3   OH257444   5.362   1.732   5.220 -0.1769  0.4649  0.5699
12010TIP3    H157445   5.447   1.771   5.240  0.2852 -1.0674  1.7016
12010TIP3    H257446   5.382   1.643   5.190 -1.2628  0.7677 -1.1541
12011TIP3   OH257447   6.304   6.134  15.427  0.1514  0.0239 -0.5216
12011TIP3    H157448   6.317   6.082  15.506  0.3418  1.0404  0.1306
12011TIP3    H257449   6.354   6.089  15.359  0.3710 -0.5989  0.0538
12012TIP3   OH257450   2.534   2.605  12.368 -0.1233 -0.2269  0.4232
12012TIP3    H157451   2.592   2.553  12.422  0.2857 -0.9843 -0.7218
12012TIP3    H257452   2.513   2.549  12.294  1.9966  1.9079 -1.9247
12013TIP3   OH257453   3.494   4.310   2.051  0.3446  0.4922 -0.4815
12013TIP3    H157454   3.508   4.403   2.036  1.5551  0.0763 -2.0862
12013TIP3    H257455   3.582   4.272   2.047 -0.0487 -0.5973  1.0152
12014TIP3   OH257456   1.969   6.726   0.832 -0.1436 -0.4741  1.3493
12014TIP3    H157457   1.984   6.819   0.847 -0.2498 -0.2638  0.1715
12014TIP3    H257458   2.027   6.704   0.760  0.1027 -1.3954  1.8189
12015TIP3   OH257459   5.372   3.562  14.861  0.3903  0.3086 -0.6107
12015TIP3    H157460   5.355   3.496  14.928 -0.5320  0.0522 -1.0781
12015TIP3    H257461   5.299   3.552  14.799  2.4578 -1.0758 -2.9194
12016TIP3   OH257462   4.517   4.417  16.938  0.0230 -0.6765 -0.3020
12016TIP3    H157463   4.459   4.400  16.865  1.7635 -0.6400 -1.7413
12016TIP3    H257464   4.460   4.424  17.014 -1.7926 -0.9172 -1.6281
12017TIP3   OH257465   1.923   2.584  15.256 -0.2129 -0.4326 -0.2977
12017TIP3    H157466   1.869   2.655  15.292 -1.3361 -1.4729  0.0865
12017TIP3    H257467   1.905   2.586  15.162 -2.0364 -1.6840  0.0005
12018TIP3   OH257468   2.220   3.979  11.126 -0.2098  0.2538 -0.1938
12018TIP3    H157469   2.188   3.976  11.036 -1.9704 -1.1182  0.4475
12018TIP3    H257470   2.286   3.910  11.130 -1.9993 -1.4865  0.2185
12019TIP3   OH257471   3.139   6.305   1.353 -0.3056 -0.3316  0.0836
12019TIP3    H157472   3.080   6.249   1.303  1.1797 -2.6947  0.9395
12019TIP3    H257473   3.218   6.311   1.300 -0.0531  0.0923  0.5062
12020TIP3   OH257474   4.043   2.107   2.053 -0.2681 -0.4545  0.2944
12020TIP3    H157475   3.949   2.128   2.056 -0.3918 -0.9424 -0.1439
12020TIP3    H257476   4.046   2.011   2.057  0.2692 -0.3951  1.6272
12021TIP3   OH257477   5.516   3.144   3.150  0.0260 -0.0949  0.0755
12021TIP3    H157478   5.607   3.131   3.126  0.4648  0.1472  1.5684
12021TIP3    H257479   5.517   3.156   3.245 -1.6823 -1.2644  0.2714
12022TIP3   OH257480   1.355   1.625   3.342 -0.4371 -0.0043 -0.0127
12022TIP3    H157481   1.295   1.567   3.295 -0.1819 -0.3591  0.0955
12022TIP3    H257482   1.439   1.614   3.297 -0.2433 -0.1783  0.3811
12023TIP3   OH257483   1.133   1.893   5.263 -0.3731  0.2269 -0.6605
12023TIP3    H157484   1.050   1.869   5.304 -0.1279 -0.9101 -0.8117
12023TIP3    H257485   1.175   1.952   5.326 -0.3252 -0.9312  0.4106
12024TIP3   OH257486   6.184   5.982  14.359 -0.0824 -0.1151  0.4296
12024TIP3    H157487   6.161   5.890  14.376 -1.1967 -0.1954 -1.3290
12024TIP3    H257488   6.145   6.030  14.432 -1.0993 -0.8699  0.4050
12025TIP3   OH257489   2.198   4.930  13.492  0.6814  0.0707 -0.1130
12025TIP3    H157490   2.137   4.879  13.546 -0.2193  0.2948 -0.9140
12025TIP3    H257491   2.275   4.942  13.548 -0.9354  1.8521  1.8279
12026TIP3   OH257492   0.578   3.596   1.545 -0.3496  0.6113  0.1258
12026TIP3    H157493   0.629   3.598   1.626 -1.6807  0.8193  0.9767
12026TIP3    H257494   0.487   3.588   1.575 -0.5758 -3.4225 -1.4438
12027TIP3   OH257495   5.651   5.842   4.404 -0.1066  0.0478  0.0833
12027TIP3    H157496   5.722   5.780   4.388 -1.3720 -1.0073 -1.5945
12027TIP3    H257497   5.607   5.850   4.320 -1.9150  0.7895  1.0740
12028TIP3   OH257498   5.690   3.719  13.833 -0.2875 -0.5818  0.0480
12028TIP3    H157499   5.601   3.687  13.842 -0.7721  0.2040 -1.8852
12028TIP3    H257500   5.715   3.698  13.743  1.6704 -1.2607  0.7091
12029TIP3   OH257501   0.441   3.899  11.440 -0.1566 -0.5191  0.4028
12029TIP3    H157502   0.358   3.862  11.470 -0.8190  0.4264 -0.2672
12029TIP3    H257503   0.416   3.968  11.379  1.1043  0.4457  0.9684
12030TIP3   OH257504   3.390   2.322  16.256 -0.2163 -0.1781  0.3848
12030TIP3    H157505   3.345   2.386  16.311 -0.1365  1.3054 -1.2232
12030TIP3    H257506   3.334   2.244  16.258 -1.9298  1.0220 -0.1577
12031TIP3   OH257507   1.529   1.322  10.882 -0.4609 -0.0284 -0.1353
12031TIP3    H157508   1.545   1.243  10.830  0.6001  0.6735 -0.9011
12031TIP3    H257509   1.575   1.391  10.835  0.5355  0.6309  1.7508
12032TIP3   OH257510   4.253   5.147   4.091 -0.0484  0.3951 -0.0924
12032TIP3    H157511   4.345   5.150   4.065 -0.0416  0.2045 -0.0863
12032TIP3    H257512   4.209   5.204   4.029 -0.2326 -1.0540 -1.3096
12033TIP3   OH257513   5.474   2.724  14.090  0.4433  0.6908 -0.3868
12033TIP3    H157514   5.381   2.714  14.070  0.6319 -0.8605 -0.5593
12033TIP3    H257515   5.511   2.765  14.011  0.0380  0.6161 -0.6185
12034TIP3   OH257516   3.343   5.019   5.363  0.8321 -0.0073  0.1442
12034TIP3    H157517   3.359   5.093   5.304  0.7168 -0.3637 -0.3442
12034TIP3    H257518   3.259   4.984   5.334  0.7406 -0.1436  0.5733
12035TIP3   OH257519   1.446   0.958   5.449 -0.2441  0.7415  0.0960
12035TIP3    H157520   1.499   0.885   5.419 -0.7100  0.2572  0.4549
12035TIP3    H257521   1.413   0.931   5.534 -0.0559  1.5514  0.4354
12036TIP3   OH257522   4.127   1.476  11.098  0.1864 -0.1799 -0.1473
12036TIP3    H157523   4.167   1.547  11.147 -0.5644  0.7571 -0.8901
12036TIP3    H257524   4.199   1.414  11.083  1.2084  1.1496 -0.8380
12037TIP3   OH257525   3.160   2.365   4.854 -0.2689 -0.2365  0.5023
12037TIP3    H157526   3.108   2.364   4.935  0.8762  3.0859  1.3489
12037TIP3    H257527   3.095   2.371   4.784 -1.1466  0.7126  1.3804
12038TIP3   OH257528   6.053   4.767   3.520  0.0872 -0.4367 -0.0032
12038TIP3    H157529   6.098   4.682   3.515  2.4473  0.7630 -0.2299
12038TIP3    H257530   6.005   4.764   3.602 -1.6393 -2.8065 -1.0364
12039TIP3   OH257531   5.546   2.839   4.837  0.5471 -0.7562 -0.0873
12039TIP3    H157532   5.598   2.764   4.812  0.2100 -1.0417  0.0654
12039TIP3    H257533   5.593   2.879   4.910  1.4024 -0.0683 -0.9972
12040TIP3   OH257534   6.642   2.227   3.469 -0.5880 -0.3453  0.2627
12040TIP3    H157535   6.572   2.268   3.418 -0.2343 -0.3592 -0.2408
12040TIP3    H257536   6.671   2.295   3.530 -0.1623  0.0797 -0.4091
12041TIP3   OH257537   5.500   3.703  12.655  0.4959  0.3099 -0.0650
12041TIP3    H157538   5.550   3.779  12.685  1.0639 -0.8595  2.0341
12041TIP3    H257539   5.544   3.676  12.574  1.7732  0.7591  0.4714
12042TIP3   OH257540   6.433   4.344   1.481  0.3171 -0.0045 -0.0366
12042TIP3    H157541   6.436   4.430   1.439  0.5165  0.3249  0.6458
12042TIP3    H257542   6.458   4.282   1.413 -0.1604  0.4453 -0.6251
12043TIP3   OH257543   6.422   3.892  13.199  0.4338 -0.0052 -0.2036
12043TIP3    H157544   6.504   3.886  13.249  0.4717 -1.0273 -0.3842
12043TIP3    H257545   6.355   3.857  13.258 -0.3220  3.1383  0.9109
12044TIP3   OH257546   3.580   4.713  12.565 -0.1929 -0.3674  0.1001
12044TIP3    H157547   3.569   4.707  12.470 -3.1400  1.0346  0.3031
12044TIP3    H257548   3.552   4.627  12.598  0.2688 -0.6559 -0.2647
12045TIP3   OH257549   4.381   2.350   3.578  0.0316 -0.3823  0.1416
12045TIP3    H157550   4.445   2.420   3.571 -0.3870  0.0729  0.8513
12045TIP3    H257551   4.393   2.314   3.666 -2.2309  1.2212  1.1484
12046TIP3   OH257552   0.365   3.230  15.234 -0.4776  0.0307  0.0620
12046TIP3    H157553   0.437   3.193  15.285  0.3986 -2.9715 -3.1504
12046TIP3    H257554   0.286   3.199  15.278  0.2351 -0.4346  1.0302
12047TIP3   OH257555   1.055   0.034  16.403 -0.3346 -0.0330 -0.4272
12047TIP3    H157556   0.969   0.069  16.427  1.2023  2.4607  1.8812
12047TIP3    H257557   1.063   0.051  16.310 -1.2685  2.2879 -0.1185
12048TIP3   OH257558   0.190   0.253  12.669 -0.1270 -0.2821 -0.3221
12048TIP3    H157559   0.142   0.272  12.749  0.8964  0.3286  0.1476
12048TIP3    H257560   0.189   0.334  12.619  0.3334 -0.2899 -0.3510
12049TIP3   OH257561   1.881   0.463  11.630  0.1687  0.0333  0.4050
12049TIP3    H157562   1.896   0.509  11.548  0.6683 -1.7020 -0.5028
12049TIP3    H257563   1.786   0.453  11.635  0.1751 -0.4003 -0.2751
12050TIP3   OH257564   4.550   5.097  13.719  0.0329 -0.0002 -0.3481
12050TIP3    H157565   4.589   5.171  13.766  0.4432 -1.3771  1.5539
12050TIP3    H257566   4.456   5.105  13.735  0.2137 -0.7328  1.1570
12051TIP3   OH257567   1.252   5.970  16.757 -0.4125 -0.1545 -0.0599
12051TIP3    H157568   1.340   5.998  16.732  0.0868 -0.1955  1.6266
12051TIP3    H257569   1.201   6.051  16.760  0.1893  0.1815  1.4176
12052TIP3   OH257570   3.918   4.205  13.000  0.1095  0.1253 -0.6470
12052TIP3    H157571   3.914   4.188  12.906  0.5113 -0.7638 -0.5074
12052TIP3    H257572   3.999   4.255  13.011  0.0740  0.2109 -0.7694
12053TIP3   OH257573   5.663   4.323   4.928  0.4668  0.2265  0.0568
12053TIP3    H157574   5.648   4.325   5.022  1.3081  2.4537  0.1752
12053TIP3    H257575   5.582   4.358   4.890  1.0184  1.6104  0.1087
12054TIP3   OH257576   2.523   4.085  10.795 -0.1589 -0.3144  0.2807
12054TIP3    H157577   2.467   4.007  10.794  1.3014 -1.3904 -0.6848
12054TIP3    H257578   2.501   4.131  10.714  0.3889 -0.7684 -0.1291
12055TIP3   OH257579   0.070   3.178  12.890 -0.3307  0.2035 -0.0086
12055TIP3    H157580  -0.011   3.229  12.890 -1.6654 -1.7814 -2.6157
12055TIP3    H257581   0.041   3.086  12.889  1.9597 -0.5613 -0.2081
12056TIP3   OH257582   1.273   5.220  16.620  0.0643  0.3454  0.2605
12056TIP3    H157583   1.224   5.141  16.599  2.8051 -1.0122 -1.2391
12056TIP3    H257584   1.243   5.284  16.555  1.8133 -1.1307 -2.0846
12057TIP3   OH257585   4.413   0.121   6.210 -0.3629 -0.9442  0.0699
12057TIP3    H157586   4.382   0.181   6.278  0.3878 -0.7945  0.2888
12057TIP3    H257587   4.381   0.159   6.128 -0.2258 -0.4570  0.2404
12058TIP3   OH257588   2.853   0.934  12.222 -0.1925  0.1445  0.2829
12058TIP3    H157589   2.842   0.915  12.129  0.9369 -1.2541  0.4069
12058TIP3    H257590   2.818   1.022  12.234  0.5146  0.6928 -1.6450
12059TIP3   OH257591   5.016   3.244  12.275  0.0896  1.2409 -0.0429
12059TIP3    H157592   4.954   3.230  12.203 -0.4382  0.6109  0.5315
12059TIP3    H257593   4.967   3.221  12.354  0.7902  1.5591  0.4877
12060TIP3   OH257594   4.819   5.430   3.782 -0.1160 -0.9443 -0.2880
12060TIP3    H157595   4.855   5.512   3.816  0.8247 -0.7138 -1.7651
12060TIP3    H257596   4.800   5.449   3.690 -0.4005 -2.2149 -0.4982
12061TIP3   OH257597   5.487   0.713   4.144  0.0158 -0.0294  0.4942
12061TIP3    H157598   5.484   0.804   4.175 -2.3952 -0.6467  2.2541
12061TIP3    H257599   5.559   0.674   4.193 -0.1392  0.4552  1.1174
12062TIP3   OH257600   3.757   5.793   1.859 -0.1086 -0.7070 -0.1984
12062TIP3    H157601   3.820   5.777   1.929 -0.5248  0.9643  0.5777
12062TIP3    H257602   3.686   5.731   1.877  0.2447 -0.9833  0.2743
12063TIP3   OH257603   4.290   4.695  14.556  0.6801 -0.1144  0.0050
12063TIP3    H157604   4.382   4.724  14.557  0.9415 -0.7144 -2.5807
12063TIP3    H257605   4.295   4.602  14.532 -0.6304  0.0624 -1.0343
12064TIP3   OH257606   3.234   2.933  15.619 -0.0107 -0.1757  0.2669
12064TIP3    H157607   3.239   3.027  15.603 -0.9584 -0.1460  0.0978
12064TIP3    H257608   3.250   2.924  15.713  3.4196 -0.1595 -0.2814
12065TIP3   OH257609   5.516   2.665  13.655 -0.2347 -0.2142  0.4406
12065TIP3    H157610   5.509   2.569  13.661  1.5737 -0.3275  1.0841
12065TIP3    H257611   5.587   2.680  13.592 -0.9878  0.7261 -0.2039
12066TIP3   OH257612   2.252   1.617   4.068 -0.2401  0.3522  0.0714
12066TIP3    H157613   2.291   1.538   4.031  0.1072  0.3917  0.3539
12066TIP3    H257614   2.299   1.689   4.027 -1.8745  0.4672 -1.6772
12067TIP3   OH257615   5.986   2.038  16.020  0.1407 -0.4524  0.1270
12067TIP3    H157616   5.919   1.974  16.043  0.9098 -1.4035 -0.2966
12067TIP3    H257617   6.014   2.074  16.104  0.0206 -0.9834  0.3961
12068TIP3   OH257618   2.082   3.535   4.254  0.0952  0.0588 -0.6906
12068TIP3    H157619   2.000   3.545   4.207 -0.7624 -0.1670  0.7341
12068TIP3    H257620   2.111   3.624   4.273 -0.7515  0.1021  0.3983
12069TIP3   OH257621   4.455   3.418   4.673 -0.0759 -0.1829  0.5526
12069TIP3    H157622   4.415   3.440   4.589  0.2507 -0.3827  0.3477
12069TIP3    H257623   4.547   3.439   4.663  0.1815 -1.2871  0.4724
12070TIP3   OH257624   0.082   5.282  13.218 -0.4136  0.5563 -0.9182
12070TIP3    H157625   0.149   5.350  13.208 -1.5733  1.4730 -2.5595
12070TIP3    H257626   0.122   5.203  13.182  0.7867  0.4184  0.6321
12071TIP3   OH257627   6.460   6.521  12.491  0.1584 -0.0139 -0.4756
12071TIP3    H157628   6.518   6.451  12.522 -0.1632 -0.6194 -1.2450
12071TIP3    H257629   6.515   6.600  12.493  0.6781 -0.3830 -0.1292
12072TIP3   OH257630   0.844   0.329   4.696 -0.1332 -0.1184 -0.4612
12072TIP3    H157631   0.884   0.341   4.610  0.8022  1.9761  0.2379
12072TIP3    H257632   0.774   0.395   4.699  0.1550  0.1365  0.5760
12073TIP3   OH257633   4.994   4.111  13.792  0.1077  0.1224  0.0016
12073TIP3    H157634   4.910   4.157  13.784 -0.1754 -0.5234 -0.9559
12073TIP3    H257635   5.010   4.106  13.886 -0.6331  0.7780  0.1757
12074TIP3   OH257636   3.283   4.776  12.153  0.7930 -0.0909  0.5988
12074TIP3    H157637   3.279   4.870  12.171  1.0280 -0.1546  0.9821
12074TIP3    H257638   3.318   4.770  12.064 -0.5829  0.2304  0.0130
12075TIP3   OH257639   2.528   3.750  14.084 -0.2400 -0.2203 -0.6269
12075TIP3    H157640   2.435   3.773  14.078 -0.0822 -0.0767 -3.6032
12075TIP3    H257641   2.568   3.825  14.128 -1.2135  0.7560 -1.3653
12076TIP3   OH257642   0.418   1.671   5.010 -0.2694 -0.0406 -0.0782
12076TIP3    H157643   0.327   1.694   5.027 -0.4544 -0.2451 -0.7578
12076TIP3    H257644   0.419   1.575   5.010  0.4761 -0.0835  2.6374
12077TIP3   OH257645   3.952   0.890   5.476 -0.1145 -0.0663  0.5158
12077TIP3    H157646   3.970   0.817   5.416  1.7914  0.1662  0.7822
12077TIP3    H257647   3.986   0.967   5.432  0.0030  0.3242  1.2792
12078TIP3   OH257648   5.185   5.784   3.155  0.0495  0.2745  0.0398
12078TIP3    H157649   5.228   5.844   3.216  0.2928  0.8686 -0.6957
12078TIP3    H257650   5.246   5.777   3.082 -0.5887  0.2110 -0.4952
12079TIP3   OH257651   0.311   5.199   3.603  0.4958  0.3327  0.2956
12079TIP3    H157652   0.299   5.255   3.680 -0.6289  1.6258 -0.7883
12079TIP3    H257653   0.399   5.162   3.613  0.4312  0.6411  2.0914
12080TIP3   OH257654   1.655   0.239   4.922  0.5040 -0.4703 -0.0714
12080TIP3    H157655   1.657   0.146   4.942 -1.1804 -0.1420  1.7192
12080TIP3    H257656   1.735   0.254   4.871  1.5184 -2.5959  0.8234
12081TIP3   OH257657   3.238   2.733  11.487  0.0839 -0.6521  0.0904
12081TIP3    H157658   3.237   2.694  11.399 -2.7279 -0.8674  0.1817
12081TIP3    H257659   3.177   2.806  11.481  0.4334 -0.2340  1.6813
12082TIP3   OH257660   6.355   2.249   5.943 -0.4031 -0.4306 -0.2958
12082TIP3    H157661   6.381   2.178   6.002  0.1308  0.6826  0.8183
12082TIP3    H257662   6.270   2.221   5.909 -1.4135 -0.4366  2.1093
12083TIP3   OH257663   4.933   0.779   5.342  0.0681  0.6426 -0.1207
12083TIP3    H157664   4.993   0.837   5.294 -0.1532 -0.5243 -1.8567
12083TIP3    H257665   4.847   0.795   5.303 -0.4205  0.9397  1.0768
12084TIP3   OH257666   3.067   2.194  14.756  0.3597 -0.2460  0.4253
12084TIP3    H157667   3.066   2.105  14.720 -0.4935  0.3821 -1.1046
12084TIP3    H257668   3.156   2.204  14.790  0.6765 -1.4285 -0.0171
12085TIP3   OH257669   4.548   0.373   5.475  0.2409 -0.0868  0.4209
12085TIP3    H157670   4.492   0.339   5.544  1.8385 -1.2445  1.1902
12085TIP3    H257671   4.626   0.404   5.521  1.7781 -1.8140 -0.9223
12086TIP3   OH257672   6.103   0.781   4.112  0.0532  0.0489  0.5473
12086TIP3    H157673   6.100   0.713   4.045 -2.1393 -0.0269  0.6942
12086TIP3    H257674   6.153   0.852   4.072  0.5497 -0.8203 -0.3872
12087TIP3   OH257675   3.245   5.519  15.689 -0.4790  0.4121 -0.1745
12087TIP3    H157676   3.247   5.536  15.783  0.0372 -1.2294  0.1272
12087TIP3    H257677   3.334   5.535  15.660 -0.2702 -0.5668 -0.0976
12088TIP3   OH257678   1.336   2.320   1.451 -0.0353 -0.3248  0.1681
12088TIP3    H157679   1.282   2.267   1.392  1.4234 -1.1585 -0.4435
12088TIP3    H257680   1.411   2.345   1.397 -0.5526  2.1207  0.5444
12089TIP3   OH257681   1.788   3.903   2.758 -0.1172  0.0780 -0.5611
12089TIP3    H157682   1.871   3.890   2.804  0.0993  0.5562 -0.8139
12089TIP3    H257683   1.812   3.910   2.666 -0.5592 -0.9491 -0.7611
12090TIP3   OH257684   1.067   6.087  13.381 -0.0483  0.6277  0.4772
12090TIP3    H157685   1.043   6.123  13.467 -1.5392  2.1018 -0.5297
12090TIP3    H257686   0.990   6.104  13.326 -0.4378 -3.2071 -0.3186
12091TIP3   OH257687   0.510   2.163   1.935  0.3691  0.2863  0.0419
12091TIP3    H157688   0.423   2.128   1.958  0.3198  0.0057 -0.5798
12091TIP3    H257689   0.555   2.170   2.019 -1.0573  2.6019  0.6468
12092TIP3   OH257690   0.192   3.442   2.127 -0.0675  0.7175 -0.5591
12092TIP3    H157691   0.200   3.521   2.075 -0.6851  0.2383 -1.3982
12092TIP3    H257692   0.201   3.370   2.063 -0.6741  0.1288  0.0129
12093TIP3   OH257693   2.945   0.558   0.427 -0.2965 -0.0537 -0.4494
12093TIP3    H157694   2.883   0.581   0.358 -1.1915 -0.4878  0.2094
12093TIP3    H257695   3.014   0.508   0.382 -1.4718 -1.3604 -0.8236
12094TIP3   OH257696   5.346   5.843  17.035 -0.1860  0.2783  0.2180
12094TIP3    H157697   5.430   5.882  17.010  0.3767 -0.6078  0.7082
12094TIP3    H257698   5.337   5.766  16.978 -0.7954  0.5263 -0.0249
12095TIP3   OH257699   1.518   6.264  14.232 -0.2868  0.5388  0.4076
12095TIP3    H157700   1.423   6.253  14.242 -0.3233  0.8251  0.4051
12095TIP3    H257701   1.534   6.354  14.262  0.4024 -0.4776  3.2879
12096TIP3   OH257702   3.006   4.102  13.368  0.5459  0.1471 -0.0739
12096TIP3    H157703   3.046   4.052  13.297 -0.1333 -0.5538  0.0410
12096TIP3    H257704   2.943   4.042  13.408  0.0034  0.9638  0.3098
12097TIP3   OH257705   4.048   0.509   1.087  0.5167  0.1166  0.4774
12097TIP3    H157706   4.011   0.474   1.168 -1.3988 -0.0304 -0.4260
12097TIP3    H257707   4.027   0.602   1.090  0.4007  0.0994  0.1146
12098TIP3   OH257708   6.545   3.752   4.126 -0.1463 -0.1591  0.3042
12098TIP3    H157709   6.492   3.766   4.047 -1.3788  0.3542  1.1997
12098TIP3    H257710   6.569   3.840   4.154 -0.3640 -0.2986  0.9321
12099TIP3   OH257711   2.470   5.390  14.244  0.0186 -0.1644  0.1269
12099TIP3    H157712   2.539   5.354  14.300 -1.1914 -2.2046  0.3467
12099TIP3    H257713   2.496   5.481  14.231  2.0576 -0.5328  1.2886
12100TIP3   OH257714   3.859   1.312   2.417  0.5160  0.0366  0.0056
12100TIP3    H157715   3.860   1.403   2.388 -0.9615  0.2617  0.5759
12100TIP3    H257716   3.951   1.289   2.428  1.0649  0.4027 -3.3000
12101TIP3   OH257717   0.423   4.839   1.607  0.4101 -0.4662 -0.1184
12101TIP3    H157718   0.402   4.789   1.528  0.4722  0.2199 -0.5756
12101TIP3    H257719   0.344   4.835   1.660  0.5111 -1.2839 -0.0327
12102TIP3   OH257720   5.377   5.470  15.013 -0.1813 -0.0279 -0.6251
12102TIP3    H157721   5.361   5.557  14.976  1.5954 -0.4858 -2.5983
12102TIP3    H257722   5.316   5.412  14.967  1.3893 -0.4434 -2.2598
12103TIP3   OH257723   2.815   3.775  12.778  0.5733  0.1800  0.7892
12103TIP3    H157724   2.785   3.728  12.856 -0.9881  1.0686  0.7351
12103TIP3    H257725   2.735   3.795  12.729  1.4276  0.7391 -0.4179
12104TIP3   OH257726   6.517   1.760   6.037 -0.2919  0.0115 -0.3284
12104TIP3    H157727   6.507   1.703   6.114  0.4733  2.1862  1.4474
12104TIP3    H257728   6.609   1.748   6.012  0.3416  1.6487  1.0773
12105TIP3   OH257729   0.231   1.033  16.413  0.3337 -0.1360  0.1109
12105TIP3    H157730   0.170   0.989  16.472  1.1148  0.7716  1.6452
12105TIP3    H257731   0.312   1.039  16.464  0.2487  3.1026  0.0019
12106TIP3   OH257732   1.755   0.753  14.370 -0.0008  0.0894  0.1441
12106TIP3    H157733   1.721   0.729  14.456  0.1667 -1.2433 -0.1466
12106TIP3    H257734   1.831   0.697  14.358  0.6925  1.1242 -0.3732
12107TIP3   OH257735   0.317   5.979  13.255  0.2552  0.2106  0.1644
12107TIP3    H157736   0.337   5.924  13.331  0.1035 -1.1766 -0.7766
12107TIP3    H257737   0.240   6.029  13.281 -1.0732 -1.7972  0.1808
12108TIP3   OH257738   4.828   1.341  15.815  0.5864 -0.0358 -0.3501
12108TIP3    H157739   4.781   1.258  15.813  1.0912 -0.3841  1.7135
12108TIP3    H257740   4.764   1.405  15.847  1.2159 -0.3371  1.5710
12109TIP3   OH257741   5.413   6.090   3.028 -0.2669  0.0958  0.9597
12109TIP3    H157742   5.429   6.148   3.102 -2.8103  0.5585  1.2252
12109TIP3    H257743   5.426   6.145   2.951  1.5528 -0.1632  1.0639
12110TIP3   OH257744   4.048   3.054   0.352 -0.0880  0.5780 -0.3317
12110TIP3    H157745   3.973   2.997   0.365 -0.6791  1.3465 -0.3394
12110TIP3    H257746   4.049   3.072   0.258 -0.7244  1.6863 -0.1345
12111TIP3   OH257747   5.389   6.732  16.384 -0.6049  0.2469  0.0613
12111TIP3    H157748   5.416   6.781  16.462 -2.5053  3.0797 -0.9454
12111TIP3    H257749   5.462   6.673  16.366  1.3089  1.9176  2.0421
12112TIP3   OH257750   5.687   2.468  11.035  0.4580 -0.5905  0.0979
12112TIP3    H157751   5.633   2.399  10.996  0.5485 -1.1788  1.0150
12112TIP3    H257752   5.773   2.456  10.996 -0.8071  2.3949 -3.9152
12113TIP3   OH257753   5.959   0.526  12.261  0.6527 -0.6196  0.5855
12113TIP3    H157754   5.912   0.443  12.261 -1.1785  0.3935 -0.9857
12113TIP3    H257755   6.051   0.501  12.249  0.3564 -2.5143  2.1164
12114TIP3   OH257756   2.439   3.806  15.143  0.2936  0.0112 -0.2970
12114TIP3    H157757   2.390   3.882  15.110 -0.6638  0.0427  1.1852
12114TIP3    H257758   2.377   3.759  15.198  1.5115 -0.7352  0.4584
12115TIP3   OH257759   6.590   5.116  14.869  0.4955 -0.1478  0.0592
12115TIP3    H157760   6.590   5.107  14.774  0.9660 -0.1196  0.0552
12115TIP3    H257761   6.678   5.090  14.896 -0.0481 -1.5047  0.6157
12116TIP3   OH257762   1.843   4.000  13.884  0.4860  0.4314  0.1404
12116TIP3    H157763   1.783   4.055  13.934 -0.2359  0.2260 -0.4990
12116TIP3    H257764   1.832   3.913  13.922  0.0856  0.3152 -0.2367
12117TIP3   OH257765   4.438   0.763   1.170 -0.3156 -0.0589 -0.7806
12117TIP3    H157766   4.508   0.752   1.106 -1.8414 -2.7915 -2.0564
12117TIP3    H257767   4.359   0.772   1.117 -1.1599  1.2665  0.6758
12118TIP3   OH257768   3.922   1.059  14.512 -0.0956 -0.1938 -0.1566
12118TIP3    H157769   3.962   1.023  14.432 -0.4872 -1.1224  0.0549
12118TIP3    H257770   3.977   1.027  14.583  0.2740  0.6666 -0.0544
12119TIP3   OH257771   5.161   6.753   4.481  0.0897 -0.5122 -0.0161
12119TIP3    H157772   5.163   6.787   4.392 -0.4885  0.7673  0.4477
12119TIP3    H257773   5.093   6.805   4.525 -0.6940 -2.1535  0.7595
12120TIP3   OH257774   0.269   3.414   1.080 -0.5886  0.2242  0.0697
12120TIP3    H157775   0.364   3.402   1.071 -0.0128  2.5896  2.4098
12120TIP3    H257776   0.233   3.380   0.998  2.2688 -0.6533 -0.8920
12121TIP3   OH257777   1.237   1.116  10.821  0.0185  0.4257  0.3151
12121TIP3    H157778   1.211   1.049  10.757 -1.3488  0.6464  0.6343
12121TIP3    H257779   1.194   1.090  10.902 -1.6218  2.4071  0.1170
12122TIP3   OH257780   6.586   6.326   3.773 -0.2927  0.7300 -0.3315
12122TIP3    H157781   6.645   6.277   3.830 -2.2944 -1.4278 -0.0742
12122TIP3    H257782   6.645   6.382   3.721  1.7482  0.7720  1.9280
12123TIP3   OH257783   3.334   3.273  16.948 -0.0985  0.3703 -0.2194
12123TIP3    H157784   3.360   3.248  17.036 -0.1798  1.5281  0.1495
12123TIP3    H257785   3.266   3.339  16.962 -0.4037  0.2536 -1.1483
12124TIP3   OH257786   2.053   0.999  12.103 -0.1016 -0.5263 -0.9832
12124TIP3    H157787   2.064   0.997  12.198 -1.0642 -2.6363 -0.8722
12124TIP3    H257788   2.121   0.940  12.070  0.2193  0.1849 -1.6082
12125TIP3   OH257789   3.881   2.304  15.456  0.4293 -0.0431  0.7145
12125TIP3    H157790   3.875   2.222  15.407 -0.6292 -0.1593  1.0307
12125TIP3    H257791   3.927   2.364  15.397 -1.0140 -0.1187 -0.5174
12126TIP3   OH257792   5.807   1.029   0.368 -0.1237 -0.3754  0.3990
12126TIP3    H157793   5.816   1.046   0.462 -0.4754  1.3409  0.1402
12126TIP3    H257794   5.897   1.027   0.336 -0.0550  1.5897  0.3747
12127TIP3   OH257795   3.550   3.874   3.553  0.4026  0.2989 -0.1342
12127TIP3    H157796   3.636   3.835   3.568 -0.1907 -1.1109 -0.3083
12127TIP3    H257797   3.513   3.823   3.481 -1.6520 -0.8831  1.6730
12128TIP3   OH257798   3.813   2.950  14.831 -0.0691  0.0506  0.7887
12128TIP3    H157799   3.899   2.947  14.790 -0.7689 -0.4263 -0.6948
12128TIP3    H257800   3.795   2.859  14.856 -1.2892 -0.3266 -1.3857
12129TIP3   OH257801   5.882   1.223  12.653  0.5906  0.6353 -0.2590
12129TIP3    H157802   5.793   1.256  12.644 -0.0246 -0.3826  1.8482
12129TIP3    H257803   5.930   1.295  12.695  0.7656  1.1486 -1.3121
12130TIP3   OH257804   0.483   6.200  10.768 -0.7239  0.3131  0.0795
12130TIP3    H157805   0.462   6.289  10.799 -1.0059  0.4554 -0.5198
12130TIP3    H257806   0.579   6.196  10.772 -0.7296  0.5159  0.4679
12131TIP3   OH257807   0.215   1.229  15.187  0.5387 -0.5352  0.1472
12131TIP3    H157808   0.308   1.213  15.170  0.4743 -0.6518 -0.1037
12131TIP3    H257809   0.169   1.165  15.132  0.3029 -0.1923 -0.0555
12132TIP3   OH257810   6.767   2.883  13.782 -0.1824  0.4629 -0.4136
12132TIP3    H157811   6.735   2.922  13.864  0.4630 -1.4675  0.7954
12132TIP3    H257812   6.753   2.950  13.716 -1.7170  1.6597  1.0966
12133TIP3   OH257813   3.953   5.830  13.436 -0.3682 -0.0654  0.5332
12133TIP3    H157814   3.957   5.744  13.396  0.2628 -0.4429  1.3871
12133TIP3    H257815   3.904   5.817  13.517 -1.9334  0.7599 -0.2614
12134TIP3   OH257816   5.904   0.536   1.219 -0.7293  0.2282  0.6712
12134TIP3    H157817   5.978   0.506   1.167 -1.9514 -2.4593  0.3621
12134TIP3    H257818   5.943   0.579   1.295  1.0933  2.8950 -1.6799
12135TIP3   OH257819   1.113   5.704  15.132 -0.1774  0.0817  0.3393
12135TIP3    H157820   1.148   5.770  15.191  0.5645 -0.9618  1.0746
12135TIP3    H257821   1.186   5.681  15.075  0.8759 -3.1462  2.7983
12136TIP3   OH257822   6.620   5.145  14.591 -0.3711 -0.2004  0.0757
12136TIP3    H157823   6.694   5.138  14.530  0.0561  1.3051  0.3967
12136TIP3    H257824   6.545   5.167  14.536 -0.6079 -1.7533 -0.2550
12137TIP3   OH257825   2.876   2.761  16.732  0.5210  0.3125 -0.2419
12137TIP3    H157826   2.833   2.696  16.787 -1.5326  2.4302  0.7696
12137TIP3    H257827   2.853   2.736  16.642 -0.0973 -0.4403  0.1187
12138TIP3   OH257828   4.651   3.309   1.866  0.0737  0.0554  0.2474
12138TIP3    H157829   4.581   3.251   1.837 -0.4056  0.0436  1.4236
12138TIP3    H257830   4.652   3.301   1.961  0.8519  0.9994  0.3281
12139TIP3   OH257831   4.994   2.940  13.192  0.5497  0.1641 -0.3772
12139TIP3    H157832   4.934   2.921  13.264  1.7064  2.5500  1.2977
12139TIP3    H257833   5.027   3.028  13.211  1.2064  0.6886 -3.6275
12140TIP3   OH257834   2.821   5.682   0.045  0.4206  0.5282 -0.3531
12140TIP3    H157835   2.725   5.693   0.043  0.4745  1.8593  2.0989
12140TIP3    H257836   2.834   5.593   0.077 -0.0065  0.8028  0.5991
12141TIP3   OH257837   4.682   0.363   1.640 -0.2993 -0.5450 -0.5082
12141TIP3    H157838   4.718   0.363   1.729 -0.5151  1.3944 -0.3988
12141TIP3    H257839   4.590   0.343   1.652 -0.4023  0.0494 -0.2358
12142TIP3   OH257840   5.842   6.274  14.136 -0.7698  0.7794 -0.5442
12142TIP3    H157841   5.921   6.260  14.188 -0.1309 -0.0774 -1.7489
12142TIP3    H257842   5.869   6.333  14.066 -1.3015  0.8113 -0.7247
12143TIP3   OH257843   6.022   3.374  16.152 -0.1427  0.2535  0.1141
12143TIP3    H157844   5.985   3.345  16.068 -0.8056  0.1416  0.4444
12143TIP3    H257845   6.117   3.379  16.136 -0.1383 -0.9788 -0.2786
12144TIP3   OH257846   3.020   0.726  11.017 -0.4311  0.0892  0.1860
12144TIP3    H157847   2.962   0.770  10.955  0.8460 -0.8775 -1.7636
12144TIP3    H257848   3.090   0.789  11.034 -1.0410  0.5395  1.0405
12145TIP3   OH257849   3.336   0.802  15.190 -0.3962 -0.1190 -0.4824
12145TIP3    H157850   3.405   0.762  15.137  1.3912  1.3947  0.6143
12145TIP3    H257851   3.300   0.730  15.241  1.3536 -0.7138 -0.0523
12146TIP3   OH257852   2.072   6.031   0.903 -0.2808  0.4565 -0.0057
12146TIP3    H157853   2.029   6.077   0.975 -0.3990 -0.9405  0.8226
12146TIP3    H257854   2.063   5.939   0.924  0.9186  0.0725 -1.1069
12147TIP3   OH257855   3.504   2.646  12.957  0.4091  0.7153  0.2799
12147TIP3    H157856   3.462   2.624  13.040  0.5272  1.4116  0.5295
12147TIP3    H257857   3.521   2.562  12.915  0.7856  0.3415  1.1741
12148TIP3   OH257858   0.515   0.383  17.083 -0.2511  0.0034 -0.3977
12148TIP3    H157859   0.558   0.330  17.016  0.6852 -0.5841  0.6460
12148TIP3    H257860   0.469   0.451  17.034  1.5818  0.4447 -1.5868
12149TIP3   OH257861   6.624   2.345   5.802 -0.3256 -0.0946 -0.2439
12149TIP3    H157862   6.653   2.419   5.748 -0.9213  1.3415  1.3428
12149TIP3    H257863   6.534   2.328   5.773  0.1156 -0.7948 -1.2224
12150TIP3   OH257864   1.636   5.356  12.393 -0.5186  0.2040  0.0374
12150TIP3    H157865   1.667   5.362  12.484 -3.2058 -0.6272  1.0405
12150TIP3    H257866   1.699   5.296  12.351  0.1695 -0.2071  1.6079
12151TIP3   OH257867   0.117   1.994  17.135 -0.2439 -0.2784  0.3609
12151TIP3    H157868   0.078   1.932  17.197 -0.0833 -1.4148 -0.6528
12151TIP3    H257869   0.208   1.965  17.127 -0.2084 -0.0023 -0.2427
12152TIP3   OH257870   3.773   5.909  12.151  0.0962  0.2554 -0.1737
12152TIP3    H157871   3.704   5.858  12.108 -0.3096  1.1359 -0.5764
12152TIP3    H257872   3.842   5.916  12.085 -0.1635  0.8673 -0.3811
12153TIP3   OH257873   5.684   2.852  13.454  0.2792  0.0084  0.3102
12153TIP3    H157874   5.773   2.816  13.448  0.2304  0.0997 -1.0623
12153TIP3    H257875   5.673   2.903  13.374 -1.8806 -1.9858 -0.7155
12154TIP3   OH257876   3.715   5.251  11.337 -0.2741 -0.0634  0.3214
12154TIP3    H157877   3.694   5.327  11.391  0.3611  0.7852 -0.6145
12154TIP3    H257878   3.710   5.283  11.247 -1.4931 -1.5088 -0.1483
12155TIP3   OH257879   0.209   4.035   2.793 -0.1175  0.5603  0.8564
12155TIP3    H157880   0.226   4.127   2.770  2.2756  0.1743  0.9508
12155TIP3    H257881   0.287   4.007   2.840 -0.9907 -1.4361  1.1885
12156TIP3   OH257882   6.087   6.035   5.232  0.3411  0.0782  0.0332
12156TIP3    H157883   6.043   6.051   5.149 -2.6595 -0.6611  1.4102
12156TIP3    H257884   6.168   5.990   5.208  0.0755  0.8897 -2.5442
12157TIP3   OH257885   0.185   3.909  16.110 -0.0820  0.4262 -0.3461
12157TIP3    H157886   0.111   3.860  16.146  0.1392 -1.6345 -2.6416
12157TIP3    H257887   0.150   3.953  16.033  0.8306  0.1897 -0.9085
12158TIP3   OH257888   6.583   4.526  14.445 -0.0023 -0.2981 -0.1425
12158TIP3    H157889   6.565   4.470  14.369 -0.8995 -1.1211  0.6618
12158TIP3    H257890   6.649   4.477  14.495  1.7370  0.9526 -1.1436
12159TIP3   OH257891   3.354   3.150  15.846 -0.0296 -0.6752 -0.2108
12159TIP3    H157892   3.373   3.184  15.759  1.6641 -0.9553  0.0387
12159TIP3    H257893   3.395   3.213  15.906 -2.2632  0.2131  0.4471
12160TIP3   OH257894   3.938   1.442   0.421  0.4292 -0.0713 -0.7148
12160TIP3    H157895   3.954   1.373   0.356  1.8765  1.2407 -1.7717
12160TIP3    H257896   3.843   1.457   0.416  0.3412 -0.8555 -1.6231
12161TIP3   OH257897   6.151   4.563  12.572  0.2714  0.0905  0.5714
12161TIP3    H157898   6.196   4.628  12.626  0.2939 -1.1304  2.0529
12161TIP3    H257899   6.221   4.516  12.527  0.3150  0.2511  0.4694
12162TIP3   OH257900   4.093   1.701  12.368 -0.4201 -0.4130  0.1404
12162TIP3    H157901   4.012   1.689  12.319 -0.2514  0.3763 -0.3328
12162TIP3    H257902   4.119   1.612  12.393 -0.6465 -0.7980 -0.9684
12163TIP3   OH257903   6.757   1.856  11.844 -0.7730 -0.3245 -0.5154
12163TIP3    H157904   6.664   1.840  11.830 -0.7982 -1.1293  0.5135
12163TIP3    H257905   6.800   1.781  11.802 -0.5123  0.5780 -1.9227
12164TIP3   OH257906   3.086   3.173  15.867 -0.2992 -0.4620  0.0803
12164TIP3    H157907   3.174   3.144  15.842 -0.5809 -0.5619 -0.8308
12164TIP3    H257908   3.069   3.130  15.950  0.5841 -0.3036  0.3516
12165TIP3   OH257909   3.253   2.584  13.612  0.3171  0.2834  0.1020
12165TIP3    H157910   3.216   2.594  13.699 -0.0706 -0.9397  0.0839
12165TIP3    H257911   3.224   2.662  13.564 -2.2458 -0.6741  0.0711
12166TIP3   OH257912   2.370   1.157  12.841 -0.3794  0.0634  0.0643
12166TIP3    H157913   2.369   1.061  12.844 -0.4185  0.0773  0.4979
12166TIP3    H257914   2.278   1.182  12.846 -0.3576  0.1276  0.1530
12167TIP3   OH257915   5.734   1.332   4.599  0.6745 -0.4719 -0.2896
12167TIP3    H157916   5.661   1.395   4.600 -0.8249 -2.1573 -1.0135
12167TIP3    H257917   5.797   1.368   4.661 -0.9336  0.8446  0.6442
12168TIP3   OH257918   4.549   1.088   3.217 -0.0737  0.2496  0.2003
12168TIP3    H157919   4.615   1.150   3.248  0.0379  0.4651 -0.4681
12168TIP3    H257920   4.465   1.132   3.233 -0.1201 -0.5100  2.1446
12169TIP3   OH257921   1.157   5.580  15.884 -0.4274  0.2749  0.2278
12169TIP3    H157922   1.207   5.519  15.830  0.5516  1.1235  0.1476
12169TIP3    H257923   1.127   5.648  15.823 -1.4857 -0.1145  0.3173
12170TIP3   OH257924   6.196   3.890  16.063  0.2017 -0.8824 -0.3199
12170TIP3    H157925   6.284   3.905  16.098 -0.3591 -0.6324  1.0324
12170TIP3    H257926   6.204   3.811  16.010  1.1277 -1.1765  0.2500
12171TIP3   OH257927   1.366   0.070   4.767  0.3304 -0.2728  0.3342
12171TIP3    H157928   1.381   0.110   4.853  1.1477 -2.8508  1.4658
12171TIP3    H257929   1.435   0.105   4.711 -0.3278  1.5831  0.6584
12172TIP3   OH257930   5.093   1.917  15.898  0.0334 -0.3439 -0.6259
12172TIP3    H157931   5.033   1.843  15.894  0.7755 -0.9587 -0.6573
12172TIP3    H257932   5.099   1.948  15.808 -1.8498  1.0567 -0.2993
12173TIP3   OH257933   1.722   0.134   2.052  0.0285 -0.2560 -0.1580
12173TIP3    H157934   1.695   0.205   1.994 -0.7342  0.2777  0.8425
12173TIP3    H257935   1.641   0.087   2.071  0.4741 -1.2084 -0.5429
12174TIP3   OH257936   2.299   3.394  14.997  0.4638  0.3215 -0.4246
12174TIP3    H157937   2.380   3.382  15.046  0.5524 -2.0435 -1.0734
12174TIP3    H257938   2.267   3.304  14.982 -1.2366  1.1439 -1.8842
12175TIP3   OH257939   0.484   1.681  14.956  0.3836 -0.0842  0.2615
12175TIP3    H157940   0.528   1.698  14.873  0.0864  0.0591  0.1319
12175TIP3    H257941   0.546   1.628  15.006  0.4391 -0.4255 -0.1711
12176TIP3   OH257942   5.407   1.470  13.079  0.4763 -0.1018 -0.2401
12176TIP3    H157943   5.467   1.400  13.055  0.4642 -0.3312  0.3927
12176TIP3    H257944   5.427   1.541  13.018 -0.8113 -1.3268 -2.1804
12177TIP3   OH257945   6.155   2.337  14.741 -0.2454  0.4591 -0.2355
12177TIP3    H157946   6.112   2.369  14.662 -0.5388 -0.2678 -0.3803
12177TIP3    H257947   6.217   2.270  14.710 -0.3201  0.2079  0.1416
12178TIP3   OH257948   2.490   2.708  14.168  0.1155 -0.4693  0.1434
12178TIP3    H157949   2.502   2.655  14.089  4.2570  0.4953  0.0271
12178TIP3    H257950   2.503   2.647  14.241 -1.3288 -0.8581  0.0927
12179TIP3   OH257951   1.159   3.931   3.120 -0.6096  0.2914 -0.3744
12179TIP3    H157952   1.087   3.914   3.182 -0.1348 -0.6338 -0.0759
12179TIP3    H257953   1.160   4.027   3.112  0.8548  0.6207  2.8923
12180TIP3   OH257954   2.296   0.166   3.713  0.3897  0.3076  0.4753
12180TIP3    H157955   2.224   0.108   3.739 -0.9231  1.7729  0.1284
12180TIP3    H257956   2.284   0.245   3.765  1.4933  0.7361  0.0863
12181TIP3   OH257957   0.819   3.905   1.594  0.2207 -0.3981 -0.1656
12181TIP3    H157958   0.739   3.913   1.541 -1.2505 -0.0609  2.0312
12181TIP3    H257959   0.889   3.897   1.530 -1.3411  1.4257 -2.2057
12182TIP3   OH257960   1.536   6.194   3.307  0.5921  0.3691 -1.2461
12182TIP3    H157961   1.451   6.237   3.320  1.3829  1.3980  0.6795
12182TIP3    H257962   1.517   6.122   3.247 -1.4844  1.0890 -1.5038
12183TIP3   OH257963   5.479   2.319   3.044  0.3219  0.4046  0.6060
12183TIP3    H157964   5.420   2.330   2.970  0.3485  0.2618  0.5634
12183TIP3    H257965   5.421   2.308   3.119  0.2578  3.2429  1.0386
12184TIP3   OH257966   0.741   6.280   1.715  0.3802 -0.3249  0.0585
12184TIP3    H157967   0.750   6.374   1.732  0.8361 -0.4836  0.7111
12184TIP3    H257968   0.649   6.268   1.693 -0.0380  0.0221  1.5888
12185TIP3   OH257969   6.679   6.481   0.600  0.1615 -0.0823  0.2237
12185TIP3    H157970   6.601   6.441   0.562 -0.5040  0.9069  0.5348
12185TIP3    H257971   6.745   6.475   0.531  0.0883 -1.7227  0.2673
12186TIP3   OH257972   1.923   0.297   0.031  0.7307  0.3000  0.6605
12186TIP3    H157973   1.901   0.217  -0.017  0.8563  1.4798 -1.4301
12186TIP3    H257974   1.976   0.348  -0.031  2.1154  1.2410  2.5903
12187TIP3   OH257975   4.653   6.032  14.302  0.7193  0.3194  0.3943
12187TIP3    H157976   4.598   6.094  14.254 -1.0986 -0.1680  1.8214
12187TIP3    H257977   4.605   6.014  14.383  0.8927 -3.4256 -0.2533
12188TIP3   OH257978   6.441   3.247  17.018  0.2555 -0.1309 -0.0624
12188TIP3    H157979   6.356   3.225  17.056  1.0527 -0.2480  1.6870
12188TIP3    H257980   6.494   3.276  17.092  0.9867  2.3346 -1.5062
12189TIP3   OH257981   1.784   5.628   1.586  0.1891 -0.1965  0.3456
12189TIP3    H157982   1.758   5.710   1.628 -0.7993  0.9517 -2.3906
12189TIP3    H257983   1.839   5.656   1.512 -0.0126 -2.0153 -0.5086
12190TIP3   OH257984   1.701   6.697   0.864 -0.0628  0.0253  0.2857
12190TIP3    H157985   1.676   6.686   0.772  0.4518 -1.2980  0.2887
12190TIP3    H257986   1.797   6.697   0.863 -0.0500 -0.8055  0.9017
12191TIP3   OH257987   3.023   5.927   5.347 -0.9027 -0.6346 -0.1260
12191TIP3    H157988   3.105   5.884   5.374 -0.6206  0.1082  0.2313
12191TIP3    H257989   3.021   6.008   5.399  0.0482  1.2332 -2.9113
12192TIP3   OH257990   6.044   6.382  14.673 -0.2159  0.1161  0.0937
12192TIP3    H157991   5.978   6.428  14.621 -0.1411 -0.6301 -0.6741
12192TIP3    H257992   5.998   6.353  14.751 -0.1464  1.9315  0.8333
12193TIP3   OH257993   3.434   4.402   3.954 -0.0107  0.8656  0.5362
12193TIP3    H157994   3.456   4.407   4.047 -0.7314  1.4310  0.6834
12193TIP3    H257995   3.385   4.320   3.946  0.9492  0.2977  0.4620
12194TIP3   OH257996   1.651   1.396   2.759 -0.0495  0.4073 -0.5565
12194TIP3    H157997   1.696   1.312   2.768  0.1826  0.5884 -0.0398
12194TIP3    H257998   1.558   1.375   2.765  0.0793  0.4798  1.9115
12195TIP3   OH257999   3.618   4.149  16.108  0.0215 -0.4832 -0.2859
12195TIP3    H158000   3.703   4.109  16.126  0.4854  1.0384  1.0183
12195TIP3    H258001   3.639   4.235  16.070 -0.9284  0.0256  0.3267
12196TIP3   OH258002   2.708   2.156  17.205  0.2450 -0.5659  0.2958
12196TIP3    H158003   2.737   2.120  17.289  1.3361 -0.2136  0.0801
12196TIP3    H258004   2.692   2.080  17.150 -0.4142 -0.7982  0.7894
12197TIP3   OH258005   1.545   3.370  11.885  0.0342 -0.4465 -0.0195
12197TIP3    H158006   1.641   3.373  11.886  0.0025  1.6953  2.0298
12197TIP3    H258007   1.520   3.453  11.843 -0.9232 -1.5288 -1.6067
12198TIP3   OH258008   1.065   0.660  10.965 -0.1043  0.4045  0.1334
12198TIP3    H158009   1.035   0.748  10.945 -0.3759  0.2085 -0.3286
12198TIP3    H258010   1.159   0.662  10.950 -0.3769  0.1133 -1.7249
12199TIP3   OH258011   3.610   2.025  15.610  0.5591  0.0773 -0.6785
12199TIP3    H158012   3.550   2.009  15.683  1.6973 -0.7841  0.0883
12199TIP3    H258013   3.635   2.117  15.618  0.6527 -0.0093 -0.0090
12200TIP3   OH258014   1.550   3.977   2.556  0.0486  0.3833 -0.0094
12200TIP3    H158015   1.501   3.986   2.637 -0.6469  0.8529 -0.4690
12200TIP3    H258016   1.509   3.904   2.510  0.5705 -0.0135  0.1495
12201TIP3   OH258017   2.280   2.281   1.709  0.0665 -0.3811  0.0302
12201TIP3    H158018   2.334   2.341   1.658  1.4668 -0.3707  1.4956
12201TIP3    H258019   2.277   2.201   1.657 -0.5781  0.4533 -1.2299
12202TIP3   OH258020   0.498   0.047   4.430 -0.5619 -0.3153  0.3100
12202TIP3    H158021   0.576   0.094   4.459  0.1234 -1.5344  0.4499
12202TIP3    H258022   0.430   0.074   4.491  0.0789 -0.2946  1.0184
12203TIP3   OH258023   4.323   1.288   6.273 -0.3498 -0.2538 -0.7719
12203TIP3    H158024   4.237   1.311   6.237 -0.3600 -0.1516 -0.6815
12203TIP3    H258025   4.325   1.330   6.359 -0.2375 -0.3154 -0.7450
12204TIP3   OH258026   1.511   3.055  12.413 -0.1821  0.2130  0.1021
12204TIP3    H158027   1.508   2.964  12.382  0.7607  0.3434 -0.3802
12204TIP3    H258028   1.603   3.080  12.407 -0.5456  1.4584 -0.5257
12205TIP3   OH258029   6.414   2.831  16.716  0.1936 -0.2966 -0.2085
12205TIP3    H158030   6.480   2.765  16.697  1.3430  1.0735 -1.0338
12205TIP3    H258031   6.451   2.883  16.787 -0.8559 -0.7304  0.6725
12206TIP3   OH258032   1.947   6.361   0.312  0.6168  0.4837  0.4904
12206TIP3    H158033   2.035   6.362   0.276 -0.8963  1.0618 -3.5100
12206TIP3    H258034   1.920   6.453   0.313 -0.3468  0.2088  0.4830
12207TIP3   OH258035   6.384   3.078  16.460  0.7642 -0.7876  0.7272
12207TIP3    H158036   6.449   3.011  16.438 -1.7505 -2.6026 -1.6159
12207TIP3    H258037   6.311   3.029  16.498 -0.4653  0.8152  0.5014
12208TIP3   OH258038   1.281   6.273  13.953  0.1250  0.4652 -0.4896
12208TIP3    H158039   1.369   6.241  13.972 -0.6491 -0.7540  1.1587
12208TIP3    H258040   1.265   6.246  13.862  0.8014 -0.8106 -0.2441
12209TIP3   OH258041   5.262   2.467   2.637  0.7248  0.3624 -0.0147
12209TIP3    H158042   5.276   2.389   2.584 -0.3980 -0.0960  0.3453
12209TIP3    H258043   5.179   2.503   2.605  1.4183  1.6168 -0.4330
12210TIP3   OH258044   6.700   0.995   1.414 -0.0949  0.0666  0.0852
12210TIP3    H158045   6.785   0.968   1.379  0.4313  1.4913  0.2494
12210TIP3    H258046   6.673   0.922   1.470 -0.2102 -1.5412 -1.9854
12211TIP3   OH258047   2.233   0.498  11.569 -0.1323  0.0727  0.6812
12211TIP3    H158048   2.267   0.570  11.621 -0.7289  0.6558  0.2797
12211TIP3    H258049   2.167   0.457  11.625 -1.5568  1.3760 -0.0031
12212TIP3   OH258050   4.372   3.175   3.253  0.2899  0.0686  0.3022
12212TIP3    H158051   4.405   3.231   3.323  0.5467  0.0022  0.2314
12212TIP3    H258052   4.394   3.221   3.172 -0.0932  0.1940  0.2676
12213TIP3   OH258053   2.000   0.279   5.403  0.3024 -0.3943  0.4090
12213TIP3    H158054   2.044   0.196   5.384  0.8562  0.1287 -0.6462
12213TIP3    H258055   1.997   0.283   5.499  0.1266 -1.7030  0.4642
12214TIP3   OH258056   1.789   6.444  12.806 -0.1764 -0.4599 -0.0799
12214TIP3    H158057   1.767   6.531  12.837  2.4656  0.2941 -0.2518
12214TIP3    H258058   1.715   6.389  12.834 -1.5547  1.6868  0.5676
12215TIP3   OH258059   0.258   5.991   2.579 -0.3874 -0.0409 -0.3899
12215TIP3    H158060   0.189   6.056   2.565  0.5292  1.3051  1.2020
12215TIP3    H258061   0.254   5.971   2.673 -0.2982 -1.9022 -0.7510
12216TIP3   OH258062   0.345   1.646   6.080  0.3494 -0.1479  0.0505
12216TIP3    H158063   0.308   1.558   6.065 -1.0450  0.5427 -0.6384
12216TIP3    H258064   0.353   1.684   5.993 -0.7380  1.0831  0.4834
12217TIP3   OH258065   2.302   5.000  13.257 -0.8046 -0.5035 -0.1733
12217TIP3    H158066   2.246   4.999  13.335 -3.1238 -0.0793 -1.7683
12217TIP3    H258067   2.241   5.010  13.184  1.0065 -4.2148 -2.3218
12218TIP3   OH258068   5.447   5.164  12.489  1.0852  0.4816 -0.3538
12218TIP3    H158069   5.446   5.206  12.575  0.0219 -2.2488  1.0168
12218TIP3    H258070   5.534   5.184  12.453  1.6631  1.3364  1.4787
12219TIP3   OH258071   0.767   6.545   1.783 -0.2849  0.1125 -0.3918
12219TIP3    H158072   0.738   6.571   1.871 -3.4061 -0.2298 -1.2744
12219TIP3    H258073   0.764   6.626   1.732  0.2233  0.0430 -0.5399
12220TIP3   OH258074   4.435   3.602   3.015 -0.3076 -0.1481 -0.6349
12220TIP3    H158075   4.417   3.676   3.073 -0.4805  0.3415 -1.3047
12220TIP3    H258076   4.348   3.570   2.990 -0.2330 -0.7259 -0.1628
12221TIP3   OH258077   3.614   4.876   3.924 -0.3788 -0.0433  0.7636
12221TIP3    H158078   3.552   4.862   3.996 -0.7772  0.3100  0.4901
12221TIP3    H258079   3.672   4.946   3.955 -0.7883  0.3727  0.5870
12222TIP3   OH258080   3.591   0.791   1.464  0.4230 -0.1751 -0.5461
12222TIP3    H158081   3.612   0.740   1.386  2.0891  0.9916 -0.8735
12222TIP3    H258082   3.651   0.758   1.531  1.1468  1.0081 -0.6183
12223TIP3   OH258083   0.507   1.994   2.195 -0.4621 -0.2227  0.7273
12223TIP3    H158084   0.553   1.916   2.225 -0.0604  0.3541  1.6108
12223TIP3    H258085   0.573   2.063   2.196 -0.5889 -0.0474 -0.8986
12224TIP3   OH258086   3.932   5.206  15.150  0.2896  0.5395 -0.7152
12224TIP3    H158087   3.956   5.295  15.178  0.6598  0.1446  0.2512
12224TIP3    H258088   4.015   5.161  15.137  0.1365 -0.4939  1.5568
12225TIP3   OH258089   4.835   0.523  13.634  0.4466 -0.1965  0.1489
12225TIP3    H158090   4.922   0.557  13.612  0.2946 -1.0254 -1.7321
12225TIP3    H258091   4.778   0.600  13.632  1.1212  0.3510  1.4025
12226TIP3   OH258092   0.915   1.791  13.499 -0.3432 -0.2117 -0.2913
12226TIP3    H158093   0.839   1.813  13.445 -0.0313  0.4088 -0.4786
12226TIP3    H258094   0.975   1.747  13.438  0.4338  1.3792 -0.6961
12227TIP3   OH258095   1.195   1.848   3.423  0.2536 -0.4142  0.0796
12227TIP3    H158096   1.201   1.856   3.518 -0.1898 -0.4228  0.1072
12227TIP3    H258097   1.229   1.760   3.404  0.3190 -0.4218  0.2324
12228TIP3   OH258098   6.250   0.681   6.084  0.1402  0.1915  0.3725
12228TIP3    H158099   6.178   0.623   6.057  0.8349 -0.2398 -0.5373
12228TIP3    H258100   6.239   0.688   6.179 -0.2642 -1.0239  0.4303
12229TIP3   OH258101   5.370   4.976  13.392 -0.3011 -0.3376  0.6170
12229TIP3    H158102   5.432   4.976  13.465  0.8392  0.2448 -0.3277
12229TIP3    H258103   5.395   4.900  13.339  1.1444  1.1866 -0.9961
12230TIP3   OH258104   0.229   4.971   3.418 -0.4719  0.6070  0.0737
12230TIP3    H158105   0.311   5.019   3.404  0.1391 -0.2483  0.7148
12230TIP3    H258106   0.205   4.990   3.509 -0.0771 -0.5389  0.4174
12231TIP3   OH258107   0.377   3.821   5.466 -0.5755 -0.4589  0.6587
12231TIP3    H158108   0.395   3.750   5.528 -0.4296 -1.7416 -0.8057
12231TIP3    H258109   0.310   3.785   5.408 -0.6173  0.6696  0.0041
12232TIP3   OH258110   1.707   5.877  11.661 -0.2499 -0.1715  0.0486
12232TIP3    H158111   1.706   5.786  11.632  1.2852 -0.5303  1.0605
12232TIP3    H258112   1.699   5.871  11.757 -3.4791  0.9046 -0.0834
12233TIP3   OH258113   1.772   1.345  14.535 -0.0707 -0.4628  0.3658
12233TIP3    H158114   1.738   1.256  14.521  0.3430 -0.8160  1.5095
12233TIP3    H258115   1.765   1.358  14.629 -0.6998  0.9656  0.1322
12234TIP3   OH258116   6.528   5.536  16.853  0.5102  0.5641  0.5396
12234TIP3    H158117   6.619   5.512  16.837  0.7822  0.4112  2.2108
12234TIP3    H258118   6.531   5.588  16.934 -1.1419 -1.3087  1.8481
12235TIP3   OH258119   2.146   0.342  16.356 -0.2301  0.0760 -0.1880
12235TIP3    H158120   2.050   0.339  16.351 -0.2223 -0.4883 -0.0664
12235TIP3    H258121   2.172   0.250  16.353  0.3022  0.2259 -0.0955
12236TIP3   OH258122   1.788   5.980   1.789  0.2379  0.2242  0.1697
12236TIP3    H158123   1.708   5.943   1.827  0.5850 -1.2037 -0.4682
12236TIP3    H258124   1.757   6.032   1.715 -0.2262  0.9337  0.8531
12237TIP3   OH258125   1.820   4.251  10.560  0.4153  0.0585 -0.0521
12237TIP3    H158126   1.874   4.264  10.482  0.5163  0.2320  0.0460
12237TIP3    H258127   1.878   4.206  10.622  1.0210  1.8362  0.7003
12238TIP3   OH258128   0.144   1.202   0.253  0.8318 -0.2474  0.4088
12238TIP3    H158129   0.112   1.150   0.327 -0.5289 -0.4345 -0.2984
12238TIP3    H258130   0.065   1.241   0.216  1.5868  0.3854 -0.5352
12239TIP3   OH258131   0.118   1.097  14.065  0.2202 -0.0646 -0.7437
12239TIP3    H158132   0.076   1.119  14.148 -1.3431 -0.4008 -1.4251
12239TIP3    H258133   0.096   1.005  14.050  1.0152 -0.1835 -1.2210
12240TIP3   OH258134   1.424   5.961  12.096 -0.4899 -0.6017  0.2996
12240TIP3    H158135   1.344   5.943  12.045 -0.1936 -0.1196 -0.3400
12240TIP3    H258136   1.405   6.042  12.143 -0.3553 -0.4568  0.1020
12241TIP3   OH258137   3.882   2.485  12.829 -0.5283  0.4872 -0.1903
12241TIP3    H158138   3.870   2.537  12.908 -1.3307  0.2225 -0.1305
12241TIP3    H258139   3.968   2.510  12.796  0.8283 -1.1064  2.0362
12242TIP3   OH258140   4.135   6.045   4.690  0.6361  0.3014  0.0549
12242TIP3    H158141   4.065   5.996   4.648  1.2612 -0.3727 -0.2165
12242TIP3    H258142   4.212   5.988   4.683  0.9483  0.5327  1.3705
12243TIP3   OH258143   2.213   6.154   3.355  0.7322 -0.4775 -0.3181
12243TIP3    H158144   2.273   6.151   3.280  0.7130  0.0662 -0.3596
12243TIP3    H258145   2.259   6.107   3.424  1.0610 -0.3682 -0.4585
12244TIP3   OH258146   3.454   6.242  15.780 -0.0079  0.4326  0.4677
12244TIP3    H158147   3.476   6.330  15.811  1.5422  0.9329 -1.9035
12244TIP3    H258148   3.502   6.184  15.839  1.3843  1.2972  0.2308
12245TIP3   OH258149   6.425   3.544  17.220 -0.0077  0.0850  0.0093
12245TIP3    H158150   6.511   3.556  17.182 -0.1784  0.1981 -0.3462
12245TIP3    H258151   6.442   3.511  17.308  0.4204  1.1617  0.3316
12246TIP3   OH258152   3.712   0.360   0.428  0.5087  0.3892 -0.2804
12246TIP3    H158153   3.797   0.393   0.398  0.7659  0.0247  0.0395
12246TIP3    H258154   3.703   0.394   0.516 -0.0978  1.1843 -0.6465
12247TIP3   OH258155   1.755   2.285   6.221 -0.3507 -0.6378 -0.5009
12247TIP3    H158156   1.765   2.226   6.296  0.5165 -0.7959 -0.7333
12247TIP3    H258157   1.723   2.367   6.258  0.1194 -0.7011  0.0459
12248TIP3   OH258158   4.921   3.562  14.084 -0.2432 -0.0016 -0.2872
12248TIP3    H158159   4.942   3.478  14.041  2.1416  0.3991  0.0006
12248TIP3    H258160   4.943   3.628  14.018  1.0035  0.5163  0.6314
12249TIP3   OH258161   6.023   6.000   3.457  0.1089 -0.8982 -0.5736
12249TIP3    H158162   6.115   6.008   3.480  0.0090 -1.5468  0.0518
12249TIP3    H258163   6.024   5.965   3.368  0.4758  0.7709 -1.2610
12250TIP3   OH258164   3.355   1.824  13.423 -0.3069  0.4098 -0.2149
12250TIP3    H158165   3.348   1.888  13.352 -0.4383 -0.6478 -1.1701
12250TIP3    H258166   3.264   1.808  13.450 -0.3817 -0.4487 -0.9585
12251TIP3   OH258167   1.487   6.723   1.103 -0.5686  0.0620 -0.4506
12251TIP3    H158168   1.487   6.746   1.010  3.1750  0.9968 -0.2869
12251TIP3    H258169   1.530   6.798   1.146  0.2256 -1.5696  1.6653
12252TIP3   OH258170   2.637   6.627  13.667  0.2838  0.2185 -0.8680
12252TIP3    H158171   2.695   6.703  13.667  1.0804 -0.3724  0.7349
12252TIP3    H258172   2.549   6.664  13.680  0.5472  0.9437 -1.1224
12253TIP3   OH258173   2.612   0.241  16.107 -0.2140 -0.5189  0.3664
12253TIP3    H158174   2.518   0.242  16.090  0.0735 -1.2787 -1.4631
12253TIP3    H258175   2.644   0.324  16.070  0.1721 -1.4127 -1.3880
12254TIP3   OH258176   3.142   0.932  13.825 -0.1092  0.3579  0.1388
12254TIP3    H158177   3.097   0.853  13.796  0.7312 -0.5541  1.2825
12254TIP3    H258178   3.115   0.999  13.762 -1.0148 -0.7718 -0.7018
12255TIP3   OH258179   2.558   2.619  12.956  0.3128 -0.6187  0.4193
12255TIP3    H158180   2.623   2.559  12.919  0.8958 -0.2500  0.8378
12255TIP3    H258181   2.601   2.658  13.032 -0.9242 -1.4937  1.6075
12256TIP3   OH258182   1.544   6.700  11.316 -0.3882 -0.1523  0.2899
12256TIP3    H158183   1.525   6.785  11.356  0.2301 -0.3220  0.9531
12256TIP3    H258184   1.531   6.714  11.222  1.9749  1.3027  0.1401
12257TIP3   OH258185   4.740   5.428   3.219  0.1642 -0.3337 -0.1757
12257TIP3    H158186   4.811   5.426   3.154 -1.4763  0.1639 -2.0198
12257TIP3    H258187   4.725   5.521   3.235 -1.8524 -0.3602 -1.7960
12258TIP3   OH258188   1.158   2.708   2.025 -0.1084  0.1930  0.3214
12258TIP3    H158189   1.100   2.776   1.992 -0.3507 -0.7971 -1.3784
12258TIP3    H258190   1.117   2.626   1.997  0.5687 -0.6329  1.6723
12259TIP3   OH258191   3.964   6.731  13.619 -0.0129  0.0947 -0.0951
12259TIP3    H158192   4.044   6.678  13.617 -0.6041 -0.8607  0.9747
12259TIP3    H258193   3.959   6.770  13.532  1.3372 -0.2455 -0.3428
12260TIP3   OH258194   4.910   6.110  13.856  0.2941 -0.2825  0.2380
12260TIP3    H158195   4.954   6.031  13.825 -0.3036 -0.5539  0.0854
12260TIP3    H258196   4.931   6.114  13.950 -0.1411 -0.9253  0.3632
12261TIP3   OH258197   6.220   4.278   5.642 -0.2085  0.0866 -0.0850
12261TIP3    H158198   6.308   4.243   5.626  0.0492  0.8301 -0.2905
12261TIP3    H258199   6.226   4.370   5.618 -0.7134  0.4332  1.0817
12262TIP3   OH258200   4.407   1.509   3.714  0.0650  0.5255  0.1117
12262TIP3    H158201   4.334   1.459   3.750 -0.1239  0.6296 -0.1258
12262TIP3    H258202   4.387   1.600   3.735  1.7022  0.2957  2.8703
12263TIP3   OH258203   2.706   4.098  13.481  0.4612 -0.1840  0.0956
12263TIP3    H158204   2.713   4.025  13.419  1.8391 -1.1172  1.3346
12263TIP3    H258205   2.702   4.176  13.425 -1.5638 -1.2300 -1.2479
12264TIP3   OH258206   2.177   4.922   2.298 -0.0110  0.1796 -0.1388
12264TIP3    H158207   2.137   4.865   2.233  1.4466  0.7449 -1.5753
12264TIP3    H258208   2.103   4.956   2.349 -1.0618 -1.2769 -0.6575
12265TIP3   OH258209   3.780   1.906   5.570  0.3869  0.4202 -0.3648
12265TIP3    H158210   3.718   1.836   5.588 -0.7097  1.4406 -0.0441
12265TIP3    H258211   3.823   1.921   5.654  0.4921  0.2520 -0.3887
12266TIP3   OH258212   3.326   0.867   4.203  0.6253 -0.7476  0.3249
12266TIP3    H158213   3.359   0.778   4.188  0.8824 -0.7270  0.7757
12266TIP3    H258214   3.383   0.903   4.270  0.3969 -0.3070  0.2833
12267TIP3   OH258215   6.092   4.988   5.928 -0.4482  0.2394  0.3164
12267TIP3    H158216   6.165   4.956   5.875 -0.4343 -0.4774  0.7665
12267TIP3    H258217   6.126   4.990   6.018 -0.8470  0.3131  0.4671
12268TIP3   OH258218   3.731   6.444  16.504  0.2812  0.0424 -0.6366
12268TIP3    H158219   3.682   6.522  16.529 -0.6141 -0.5949 -0.3658
12268TIP3    H258220   3.780   6.420  16.583 -0.6643 -0.5735 -0.2328
12269TIP3   OH258221   0.610   0.636   6.007  0.1044  0.1386 -0.1486
12269TIP3    H158222   0.574   0.615   6.093  0.5829  0.1585  0.0566
12269TIP3    H258223   0.569   0.572   5.948  0.3779 -0.3810  0.2211
12270TIP3   OH258224   2.862   5.758   5.117 -0.0789 -0.4805  1.1161
12270TIP3    H158225   2.809   5.760   5.037  1.1799 -0.0818  0.2841
12270TIP3    H258226   2.803   5.790   5.186 -0.7543  0.5238  0.0888
12271TIP3   OH258227   1.605   3.410  16.370  0.0126 -0.6779  0.2629
12271TIP3    H158228   1.602   3.500  16.336  1.4489 -0.7363 -0.0850
12271TIP3    H258229   1.566   3.416  16.457 -1.8371 -0.1272 -0.5866
12272TIP3   OH258230   5.409   5.018   0.456  0.1321  0.2712 -0.4952
12272TIP3    H158231   5.373   4.998   0.542  2.0777 -0.0391  0.2872
12272TIP3    H258232   5.361   4.961   0.395 -1.1818  0.4266  0.3847
12273TIP3   OH258233   0.317   5.611  14.526  0.0915  0.3077 -0.0805
12273TIP3    H158234   0.330   5.566  14.609 -2.9120 -0.7146 -0.1029
12273TIP3    H258235   0.374   5.688  14.530 -0.3886  0.5364  3.1261
12274TIP3   OH258236   3.896   2.229  12.887  0.1980  0.8068 -0.3336
12274TIP3    H158237   3.868   2.319  12.902 -1.3873  0.3275 -0.3701
12274TIP3    H258238   3.988   2.237  12.861  0.9881  2.1843  2.6381
12275TIP3   OH258239   5.006   1.782   4.416 -0.7127  0.1654  0.4392
12275TIP3    H158240   4.996   1.789   4.510  0.9092 -0.6596  0.6901
12275TIP3    H258241   4.973   1.695   4.394 -1.5265  0.5347  0.1724
12276TIP3   OH258242   5.215   6.432   0.023 -0.4707 -0.0737 -0.1245
12276TIP3    H158243   5.230   6.367  -0.045 -0.0760 -1.0616  0.9003
12276TIP3    H258244   5.219   6.516  -0.023 -1.3014 -0.7695 -1.5155
12277TIP3   OH258245   2.582   1.973   4.112  0.2697 -0.4408  0.0663
12277TIP3    H158246   2.565   1.986   4.205  1.8483 -1.3697  0.5026
12277TIP3    H258247   2.675   1.992   4.101 -0.5001  2.6002 -1.8947
12278TIP3   OH258248   2.151   2.811   4.731 -0.0235 -0.1314  0.7822
12278TIP3    H158249   2.162   2.893   4.683 -1.4110 -0.4645 -0.1551
12278TIP3    H258250   2.184   2.744   4.672 -2.3549 -0.6164 -0.0379
12279TIP3   OH258251   4.217   2.270   2.666  0.6887  0.0412 -0.4645
12279TIP3    H158252   4.264   2.350   2.689 -1.8371  1.9806 -1.7635
12279TIP3    H258253   4.263   2.236   2.589  2.9419 -0.8545  1.2480
12280TIP3   OH258254   4.724   0.261  12.436  0.1961  0.2629  0.1091
12280TIP3    H158255   4.663   0.198  12.475  3.4677 -1.7554  2.2263
12280TIP3    H258256   4.737   0.230  12.347 -0.3479 -0.4599  0.2771
12281TIP3   OH258257   2.820   3.746   0.813  0.0946  0.6288  0.3526
12281TIP3    H158258   2.740   3.798   0.811 -0.2401  0.1391  0.9074
12281TIP3    H258259   2.791   3.656   0.798  0.5623  0.4746  0.3443
12282TIP3   OH258260   5.114   6.242   6.218 -0.1785  1.0879  0.2367
12282TIP3    H158261   5.146   6.153   6.237 -2.0142  0.0970 -1.1375
12282TIP3    H258262   5.077   6.272   6.301 -1.7665 -0.4268  0.1212
12283TIP3   OH258263   2.726   2.677   4.295 -0.2765 -0.1666 -0.6748
12283TIP3    H158264   2.801   2.718   4.337 -0.3696  0.1525 -0.8197
12283TIP3    H258265   2.738   2.694   4.202  0.2570 -1.4189 -0.8408
12284TIP3   OH258266   3.024   4.128  16.367 -0.0203  0.1300 -0.2224
12284TIP3    H158267   2.970   4.096  16.295 -3.7871  3.4056  1.0129
12284TIP3    H258268   3.022   4.058  16.431 -1.0184 -0.6322 -1.0730
12285TIP3   OH258269   5.967   4.033  12.659  0.0365 -0.2212  0.2897
12285TIP3    H158270   6.004   3.945  12.653  0.8936  0.1997 -0.8554
12285TIP3    H258271   5.911   4.031  12.736 -0.3393 -1.9153 -0.0157
12286TIP3   OH258272   1.510   6.630   5.254  0.0015  0.5247  0.1593
12286TIP3    H158273   1.441   6.696   5.263  0.0603  0.4344  1.4329
12286TIP3    H258274   1.502   6.599   5.164 -1.3488  0.8258  0.1599
12287TIP3   OH258275   0.777   1.392   1.630  0.1396  0.0735  0.3560
12287TIP3    H158276   0.836   1.367   1.701 -0.1318  0.2214  0.6334
12287TIP3    H258277   0.810   1.476   1.598  0.5707 -0.2400 -0.0402
12288TIP3   OH258278   4.970   0.422   1.227 -0.7400 -0.5734  0.1402
12288TIP3    H158279   5.029   0.482   1.271 -0.4816 -0.2985 -0.5839
12288TIP3    H258280   5.023   0.380   1.159 -1.7870  0.9161 -1.6437
12289TIP3   OH258281   4.512   2.084   5.237 -0.1778  0.7715 -0.5036
12289TIP3    H158282   4.504   2.109   5.145 -0.8419  0.0393 -0.6565
12289TIP3    H258283   4.600   2.047   5.244  0.5961  2.5905 -0.3993
12290TIP3   OH258284   2.228   1.629  12.699  0.0470 -0.4584  0.1691
12290TIP3    H158285   2.224   1.598  12.608 -2.2253  0.2534 -0.0187
12290TIP3    H258286   2.234   1.724  12.692 -0.3177 -0.3915  0.7605
12291TIP3   OH258287   0.040   2.972   1.442  0.8280  0.2121 -0.6688
12291TIP3    H158288   0.030   3.044   1.379 -3.5347  0.1762 -0.2063
12291TIP3    H258289   0.043   2.893   1.387  0.0820  0.4039 -1.0020
12292TIP3   OH258290   3.205   3.496   0.868  0.1486 -0.2354 -0.2932
12292TIP3    H158291   3.157   3.509   0.786 -0.9892  0.5060  0.4713
12292TIP3    H258292   3.154   3.544   0.934  1.1057 -0.7245  0.8327
12293TIP3   OH258293   2.977   0.184  12.498  0.4454 -0.0725  0.5755
12293TIP3    H158294   2.945   0.094  12.503  0.0376 -0.0399 -1.2600
12293TIP3    H258295   2.927   0.230  12.566 -2.9797 -0.1906 -1.7337
12294TIP3   OH258296   1.030   3.538   2.841  0.5982 -0.7837  0.3749
12294TIP3    H158297   0.964   3.500   2.783  0.0951  0.0704  0.3772
12294TIP3    H258298   1.030   3.632   2.820  1.2822 -0.6572  0.8977
12295TIP3   OH258299   5.675   6.154  13.626 -0.3135 -0.2015  0.3022
12295TIP3    H158300   5.663   6.100  13.705  1.9598 -1.3307 -0.0784
12295TIP3    H258301   5.735   6.103  13.571  0.2965  1.8202 -0.9626
12296TIP3   OH258302   2.319   1.741  14.690  0.0036  0.4307  0.5485
12296TIP3    H158303   2.408   1.706  14.686 -0.5262 -0.8403 -0.1466
12296TIP3    H258304   2.314   1.784  14.776  0.8818 -0.5761  1.1047
12297TIP3   OH258305   0.541   0.565  13.041  0.1383  0.6787 -0.0231
12297TIP3    H158306   0.504   0.643  13.081  0.7038  0.9543 -0.0325
12297TIP3    H258307   0.635   0.583  13.036  0.7451 -1.2959  2.9166
12298TIP3   OH258308   1.182   2.635  11.935 -0.0486 -0.0445  0.2148
12298TIP3    H158309   1.147   2.547  11.925 -1.4042  0.2394  2.1884
12298TIP3    H258310   1.247   2.643  11.866 -0.2307 -2.4265 -0.2653
12299TIP3   OH258311   6.190   6.037   2.371 -0.0350  0.0484  0.0677
12299TIP3    H158312   6.216   6.041   2.279  1.8343  0.1631  0.5823
12299TIP3    H258313   6.178   5.944   2.389  1.0833 -0.0965  0.0954
12300TIP3   OH258314   4.207   6.536   3.576 -0.0200  0.2340  0.0819
12300TIP3    H158315   4.179   6.605   3.516  1.9598  0.2342 -0.9021
12300TIP3    H258316   4.242   6.584   3.652  2.7437  0.4186 -1.2371
12301TIP3   OH258317   3.461   2.956  14.195  0.1977 -0.0162  0.1722
12301TIP3    H158318   3.385   2.939  14.252  0.4480 -0.8025  0.2671
12301TIP3    H258319   3.485   3.047  14.215  0.6327 -0.4651  1.7531
12302TIP3   OH258320   2.772   5.912  15.561  0.3342  0.0229  0.5933
12302TIP3    H158321   2.785   5.991  15.613 -0.1853  1.6994 -1.7888
12302TIP3    H258322   2.796   5.936  15.472 -2.9028 -1.5339 -0.7989
12303TIP3   OH258323   6.440   4.519   6.636  0.5155 -0.3213 -0.2479
12303TIP3    H158324   6.381   4.522   6.560  1.5279 -0.1768 -1.0459
12303TIP3    H258325   6.488   4.436   6.626 -0.0461 -0.7786  0.7800
12304TIP3   OH258326   0.054   1.610  13.985  0.4227  0.7487  0.1599
12304TIP3    H158327   0.006   1.683  13.947  0.6501  0.3288 -0.9482
12304TIP3    H258328  -0.013   1.547  14.011  0.1897  1.5890  1.6491
12305TIP3   OH258329   1.766   2.404   0.915 -0.1449 -0.4789  0.6494
12305TIP3    H158330   1.859   2.420   0.932 -0.0209 -0.7634  0.2734
12305TIP3    H258331   1.762   2.310   0.895 -0.5147 -0.4672  0.6667
12306TIP3   OH258332   3.258   4.637   0.418  0.1207  0.0235 -0.7925
12306TIP3    H158333   3.323   4.705   0.400 -1.2173  1.4267 -0.4644
12306TIP3    H258334   3.253   4.633   0.513  0.2244 -0.5681 -0.8107
12307TIP3   OH258335   3.791   4.586   3.392 -0.1053 -0.4986 -0.6925
12307TIP3    H158336   3.703   4.616   3.415 -0.4244  0.4868 -2.9721
12307TIP3    H258337   3.788   4.576   3.297  2.2965 -0.2819 -0.8204
12308TIP3   OH258338   5.310   5.023  11.507  0.4760  0.6365  0.0881
12308TIP3    H158339   5.335   4.957  11.571 -1.7873 -0.8067 -0.4478
12308TIP3    H258340   5.270   5.093  11.559 -1.7592 -0.7250  0.3122
12309TIP3   OH258341   3.150   4.194   2.011 -0.1276 -0.1457 -0.3757
12309TIP3    H158342   3.194   4.278   2.003 -0.6636  0.3202  1.2424
12309TIP3    H258343   3.097   4.186   1.932 -0.1540  1.0896 -0.4830
12310TIP3   OH258344   3.002   1.560   2.089  0.2744 -0.0712  1.4186
12310TIP3    H158345   3.006   1.479   2.140 -0.5884 -0.5287  0.7662
12310TIP3    H258346   2.908   1.580   2.084  0.2403 -0.7891 -1.1679
12311TIP3   OH258347   1.329   2.225   4.535 -0.0746  0.1615  0.5090
12311TIP3    H158348   1.383   2.157   4.576  0.4875  0.0669 -0.3685
12311TIP3    H258349   1.349   2.304   4.584  2.0710  0.4586 -0.8001
12312TIP3   OH258350   5.671   2.591   4.739  0.1327  0.2650  0.2333
12312TIP3    H158351   5.663   2.568   4.832  0.9585 -2.0097 -0.2336
12312TIP3    H258352   5.755   2.554   4.713 -1.2253 -1.3111 -2.0404
12313TIP3   OH258353   1.050   0.580   5.798 -0.0229 -0.0173 -0.4494
12313TIP3    H158354   1.145   0.584   5.788  0.0315  1.0451  0.3583
12313TIP3    H258355   1.036   0.528   5.877 -0.0830  0.4574 -0.1456
12314TIP3   OH258356   0.376   5.394  11.066 -0.5567 -0.3288 -0.8307
12314TIP3    H158357   0.375   5.300  11.084 -0.5941 -0.2188 -0.2226
12314TIP3    H258358   0.435   5.404  10.992  0.3883 -0.7055 -0.1321
12315TIP3   OH258359   0.386   6.279  11.629  0.2706 -0.0006 -0.0407
12315TIP3    H158360   0.476   6.299  11.605  1.2389 -1.5226  2.2431
12315TIP3    H258361   0.354   6.358  11.673  0.0898  0.9551 -1.8431
12316TIP3   OH258362   5.060   4.002   4.846  0.0031 -0.1847 -0.5871
12316TIP3    H158363   5.029   3.968   4.930  0.4785 -1.6816 -1.0038
12316TIP3    H258364   5.120   4.073   4.871  0.4735 -0.8943  0.3644
12317TIP3   OH258365   4.604   0.574  17.001 -0.0254  0.2055  0.1669
12317TIP3    H158366   4.624   0.534  16.916  1.5195  0.1955  0.5134
12317TIP3    H258367   4.521   0.533  17.027  0.6693 -1.5513 -0.2667
12318TIP3   OH258368   2.366   5.683   6.224  0.2361 -0.4292  0.6600
12318TIP3    H158369   2.382   5.674   6.318  2.3501  1.9074  0.5988
12318TIP3    H258370   2.419   5.759   6.198 -1.9812  0.3129 -2.0059
12319TIP3   OH258371   1.218   4.519   2.040 -0.0111  0.3293 -0.0368
12319TIP3    H158372   1.172   4.602   2.029  1.4417  0.9819 -1.3438
12319TIP3    H258373   1.299   4.543   2.085  1.1592 -0.1270 -1.8652
12320TIP3   OH258374   1.291   0.638  12.040 -0.7804  0.7749  0.0607
12320TIP3    H158375   1.360   0.665  12.101 -0.3397 -0.7116  0.2442
12320TIP3    H258376   1.236   0.579  12.092 -1.1788  0.5780 -0.5870
12321TIP3   OH258377   4.619   6.012   1.055 -0.0214 -0.7999  0.3628
12321TIP3    H158378   4.635   6.077   0.985  2.0698  1.5633  2.9264
12321TIP3    H258379   4.537   6.041   1.095  0.2016 -0.5227  0.6248
12322TIP3   OH258380   3.487   3.413   4.516 -0.3148  0.1086  0.4060
12322TIP3    H158381   3.449   3.469   4.448  1.2405  0.5599 -0.0918
12322TIP3    H258382   3.561   3.370   4.474 -1.0343 -1.7568  1.0066
12323TIP3   OH258383   2.582   6.061   0.857  0.3524  0.4302 -0.1229
12323TIP3    H158384   2.617   6.052   0.946 -0.9613  1.2426  0.4842
12323TIP3    H258385   2.658   6.089   0.805  0.5996  2.3978  1.2195
12324TIP3   OH258386   3.637   0.069   0.339  0.5686 -0.4714  0.2922
12324TIP3    H158387   3.649   0.014   0.416 -0.3656 -0.6205  0.3331
12324TIP3    H258388   3.709   0.132   0.344  2.9028 -2.9395 -0.8762
12325TIP3   OH258389   6.000   5.211  10.573 -0.5520  0.0861  0.1510
12325TIP3    H158390   6.087   5.212  10.613 -0.6626 -0.3196  0.4166
12325TIP3    H258391   5.965   5.299  10.588  0.4827  0.7875 -1.4726
12326TIP3   OH258392   6.366   5.771   3.337  0.2091 -0.0318 -0.0186
12326TIP3    H158393   6.337   5.823   3.412 -0.0911 -0.6980  0.3252
12326TIP3    H258394   6.460   5.790   3.331  0.4222 -0.6854  1.0959
12327TIP3   OH258395   2.136   6.674  14.105  0.0525 -0.5242  0.4474
12327TIP3    H158396   2.230   6.656  14.114  0.4473  0.9313 -0.6929
12327TIP3    H258397   2.129   6.725  14.024 -1.4472  1.3151  1.6995
12328TIP3   OH258398   0.525   1.367  13.440 -0.3462 -0.1184 -0.5257
12328TIP3    H158399   0.484   1.443  13.399  0.9060  0.7901 -0.1476
12328TIP3    H258400   0.573   1.325  13.368  2.2413  1.7431  0.0112
12329TIP3   OH258401   0.573   5.745  10.860 -0.5226 -0.3554 -0.1802
12329TIP3    H158402   0.622   5.767  10.781  1.4782 -2.3650  0.4740
12329TIP3    H258403   0.490   5.711  10.827 -0.4951  0.6604 -1.3560
12330TIP3   OH258404   0.073   5.941  15.297 -0.2481 -0.4663 -0.4647
12330TIP3    H158405   0.157   5.958  15.255 -0.9434  1.4312 -1.1350
12330TIP3    H258406   0.062   5.846  15.291  2.1652 -0.8046  0.2774
12331TIP3   OH258407   3.347   2.415   2.548 -0.4336  0.0680 -0.3138
12331TIP3    H158408   3.296   2.352   2.498 -0.7487  0.6679 -0.7541
12331TIP3    H258409   3.284   2.455   2.608 -0.3846  0.4714 -0.5278
12332TIP3   OH258410   1.098   0.550  13.089  0.2412  0.6710  0.3335
12332TIP3    H158411   1.152   0.543  13.167  0.9081  1.5688 -0.0374
12332TIP3    H258412   1.143   0.613  13.034  0.4607 -0.9079 -1.3546
12333TIP3   OH258413   0.599   2.695  11.488 -0.1084 -0.5156 -0.4452
12333TIP3    H158414   0.560   2.645  11.560 -0.5549 -0.9167 -0.9649
12333TIP3    H258415   0.652   2.762  11.531 -0.4131 -0.7259  0.2550
12334TIP3   OH258416   4.096   6.684   0.026 -0.8408 -0.3312  0.6803
12334TIP3    H158417   4.004   6.698   0.005 -1.1052 -1.4688  1.0850
12334TIP3    H258418   4.107   6.723   0.113 -0.6533  0.8514  0.1466
12335TIP3   OH258419   3.589   3.462  16.662  0.3117  0.2609 -1.0313
12335TIP3    H158420   3.495   3.462  16.683 -0.1909  0.3681 -3.2249
12335TIP3    H258421   3.610   3.371  16.644  1.4459 -0.3331  2.7481
12336TIP3   OH258422   0.515   2.765   5.143  0.1167  0.3052 -0.0342
12336TIP3    H158423   0.477   2.691   5.095  1.6202 -3.0763  3.7301
12336TIP3    H258424   0.441   2.805   5.188 -0.0813 -1.9273  1.7086
12337TIP3   OH258425   6.593   2.034   3.701  0.2052 -0.1574  0.0203
12337TIP3    H158426   6.602   2.117   3.654 -2.3299 -1.2204 -2.4956
12337TIP3    H258427   6.531   2.054   3.771  0.0159  0.2294 -0.2518
12338TIP3   OH258428   1.548   1.251  13.592  0.1418 -0.0347 -0.2456
12338TIP3    H158429   1.532   1.189  13.663  0.5315 -1.1437 -1.1143
12338TIP3    H258430   1.585   1.327  13.635  1.4754 -1.1518  0.6104
12339TIP3   OH258431   6.023   5.068   1.646  0.2554 -0.5650  0.3704
12339TIP3    H158432   6.078   5.064   1.567 -0.4726 -2.6610 -0.0784
12339TIP3    H258433   5.938   5.099   1.614  0.2430 -0.4760  0.4916
12340TIP3   OH258434   0.283   3.346  12.590  0.9658 -0.0070  0.2620
12340TIP3    H158435   0.279   3.360  12.495 -0.6525  0.5206  0.3898
12340TIP3    H258436   0.329   3.263  12.600  0.0451 -0.6903 -1.0453
12341TIP3   OH258437   5.916   0.432   5.210  0.0532 -0.0792  0.4908
12341TIP3    H158438   6.007   0.425   5.181  0.1560  2.3258  0.1176
12341TIP3    H258439   5.891   0.522   5.190 -2.2220 -0.5162  1.1693
12342TIP3   OH258440   4.863   0.892  15.622  0.2467  0.3261 -0.3760
12342TIP3    H158441   4.942   0.906  15.570  1.2878 -3.2947  0.0786
12342TIP3    H258442   4.812   0.828  15.571 -1.5447  1.2616  0.2095
12343TIP3   OH258443   5.926   3.456  11.902  0.3423  0.4271 -0.3069
12343TIP3    H158444   5.860   3.473  11.969 -0.0923  1.2657 -0.9294
12343TIP3    H258445   5.993   3.523  11.918  0.2945  0.5520 -0.6371
12344TIP3   OH258446   6.498   4.507   0.808 -0.1461  0.0052  0.6506
12344TIP3    H158447   6.477   4.586   0.758 -1.3004  0.2629  1.5355
12344TIP3    H258448   6.433   4.504   0.878  0.2056 -1.4539  0.9374
12345TIP3   OH258449   6.354   3.187   3.684  0.1385 -0.0152 -0.3615
12345TIP3    H158450   6.372   3.126   3.755  1.5711  0.2001 -0.5207
12345TIP3    H258451   6.259   3.202   3.688 -0.0142 -1.1703  0.5361
12346TIP3   OH258452   1.575   4.366   5.802  0.2431  0.0928 -0.2383
12346TIP3    H158453   1.639   4.425   5.842 -1.0813 -0.2946  2.5705
12346TIP3    H258454   1.506   4.424   5.768 -0.2907  0.2618  1.1193
12347TIP3   OH258455   4.099   3.439   2.270 -0.4582  0.1616 -0.0289
12347TIP3    H158456   4.044   3.507   2.308 -0.6834 -0.1357  0.1770
12347TIP3    H258457   4.113   3.468   2.180 -1.8937 -0.3211 -0.4241
12348TIP3   OH258458   1.771   2.319   5.842 -0.4161 -0.0538  0.1820
12348TIP3    H158459   1.767   2.401   5.794 -1.4550 -0.3244 -0.2052
12348TIP3    H258460   1.754   2.251   5.776 -0.3261 -0.5326  0.6443
12349TIP3   OH258461   6.564   2.208   1.196  0.4353  0.0534 -0.4084
12349TIP3    H158462   6.569   2.291   1.148  1.5315 -0.0017 -0.4173
12349TIP3    H258463   6.643   2.160   1.168  1.1113  0.0348  1.4737
12350TIP3   OH258464   5.154   0.521   3.542 -0.4789 -0.0254 -0.0898
12350TIP3    H158465   5.157   0.599   3.485 -2.7070  1.3019  1.5458
12350TIP3    H258466   5.185   0.553   3.627  1.1718 -1.5852 -0.0917
12351TIP3   OH258467   5.111   5.876   0.725 -0.1899 -0.0797  0.1280
12351TIP3    H158468   5.138   5.968   0.728  2.2383 -0.8008  2.3464
12351TIP3    H258469   5.174   5.835   0.667 -2.0134 -0.1612 -1.8446
12352TIP3   OH258470   2.125   4.035  12.276 -0.5290  0.2227  0.1881
12352TIP3    H158471   2.110   4.110  12.333 -0.7810 -1.5866  2.5609
12352TIP3    H258472   2.087   3.961  12.323  3.0010 -2.0263 -0.3614
12353TIP3   OH258473   5.579   2.760   2.757  0.0762 -0.7220 -0.2823
12353TIP3    H158474   5.577   2.669   2.726 -0.8573 -1.0109  0.6344
12353TIP3    H258475   5.490   2.792   2.745  0.3479  0.0159 -0.3814
12354TIP3   OH258476   0.179   5.016  13.900  0.2255 -0.3876 -0.1977
12354TIP3    H158477   0.125   4.960  13.845 -1.3700  0.6850  0.2602
12354TIP3    H258478   0.178   4.974  13.986 -1.7337  0.7885  0.3889
12355TIP3   OH258479   4.898   3.741   3.552 -0.2142 -0.0990  0.3609
12355TIP3    H158480   4.913   3.794   3.473  0.6297  3.2482  2.6890
12355TIP3    H258481   4.804   3.750   3.569  0.0307  1.1773  1.0849
12356TIP3   OH258482   6.186   3.570  15.297  0.3363  0.2935  0.2596
12356TIP3    H158483   6.267   3.520  15.286  0.2690  0.1314  0.4823
12356TIP3    H258484   6.142   3.527  15.370  0.1860  0.5641  0.3284
12357TIP3   OH258485   1.905   5.496  15.062 -0.7321 -0.0619  0.3879
12357TIP3    H158486   1.818   5.467  15.035 -0.3085 -1.9217  0.9671
12357TIP3    H258487   1.927   5.440  15.136  0.0111  1.9436  1.7404
12358TIP3   OH258488   2.146   2.704  12.610  0.5615  0.1489 -0.1678
12358TIP3    H158489   2.193   2.763  12.669  0.7948  0.8366 -1.0315
12358TIP3    H258490   2.215   2.651  12.569  0.6391  1.4228 -1.7275
12359TIP3   OH258491   1.759   0.116  14.250 -0.0303  0.1912 -0.1531
12359TIP3    H158492   1.826   0.180  14.229  0.4540 -0.2104  0.1334
12359TIP3    H258493   1.805   0.032  14.246 -0.5307 -0.0892 -0.0216
12360TIP3   OH258494   2.988   5.705  16.501 -0.0919  0.3173 -0.4254
12360TIP3    H158495   3.078   5.725  16.526  0.0692 -0.3013 -0.5188
12360TIP3    H258496   2.971   5.620  16.541 -1.4813  1.5541  1.7768
12361TIP3   OH258497   2.673   2.008  11.091 -0.3002 -0.2329 -0.2486
12361TIP3    H158498   2.629   2.053  11.019  0.0717  1.7724  0.7385
12361TIP3    H258499   2.736   1.950  11.048  0.7475  1.8073 -1.5265
12362TIP3   OH258500   3.925   5.691   2.073  0.1754  0.4354 -0.2093
12362TIP3    H158501   3.869   5.679   2.150 -1.2990 -0.4150 -1.3917
12362TIP3    H258502   3.945   5.602   2.044  0.9301  0.7544 -0.6685
12363TIP3   OH258503   3.311   1.987  16.109  0.2790  0.0666 -0.0364
12363TIP3    H158504   3.383   2.020  16.163  1.7703 -1.5696 -0.9774
12363TIP3    H258505   3.276   1.913  16.158  0.7464 -0.5723 -0.6563
12364TIP3   OH258506   5.363   2.901   5.709  0.4930 -0.5632 -0.0517
12364TIP3    H158507   5.396   2.859   5.789  2.0549 -3.1090 -1.9392
12364TIP3    H258508   5.438   2.950   5.675  0.3133 -0.7947 -0.7893
12365TIP3   OH258509   5.941   3.310  13.610  0.5225 -0.1179  0.0520
12365TIP3    H158510   5.853   3.329  13.641 -0.0420 -0.5211 -1.2837
12365TIP3    H258511   5.966   3.230  13.658 -0.1787 -0.5053 -0.2275
12366TIP3   OH258512   5.094   3.251  11.032  0.2124 -0.1496  0.2673
12366TIP3    H158513   5.032   3.262  10.960  0.6399  2.6102  0.2678
12366TIP3    H258514   5.075   3.164  11.067 -1.6557 -0.5332 -1.6075
12367TIP3   OH258515   1.896   6.660  14.237 -0.0935 -0.1840  0.0575
12367TIP3    H158516   1.984   6.660  14.198 -1.5291 -0.6483 -3.4290
12367TIP3    H258517   1.901   6.596  14.308  2.1541 -0.8931 -0.6873
12368TIP3   OH258518   3.909   1.961  13.310  0.3205  0.0649  0.1911
12368TIP3    H158519   3.889   1.984  13.219  2.9981  0.1775 -0.4269
12368TIP3    H258520   3.998   1.994  13.324  1.1915 -2.7501  1.8219
12369TIP3   OH258521   4.410   1.466  11.659 -0.3747  0.0214  0.1638
12369TIP3    H158522   4.350   1.423  11.598 -0.3533  0.4442 -0.1578
12369TIP3    H258523   4.386   1.558  11.656 -0.2339  0.0761  0.6387
12370TIP3   OH258524   1.204   3.287   2.798 -0.4378 -0.7766 -0.4413
12370TIP3    H158525   1.176   3.224   2.732 -0.0364 -1.1610 -0.2445
12370TIP3    H258526   1.150   3.364   2.782 -2.3592 -1.8594  0.5636
12371TIP3   OH258527   5.307   4.657   3.727 -0.0610  0.2320 -0.1923
12371TIP3    H158528   5.232   4.602   3.746 -0.7362  0.7872 -1.2140
12371TIP3    H258529   5.273   4.726   3.670  1.1151  0.7583 -0.2817
12372TIP3   OH258530   3.457   5.891   4.452  0.5848 -0.2925  0.5085
12372TIP3    H158531   3.483   5.837   4.378  0.9245  1.1608 -0.4449
12372TIP3    H258532   3.374   5.930   4.426  0.0100 -0.8554  1.4564
12373TIP3   OH258533   1.815   4.127   4.856 -0.4256  0.1699  0.3739
12373TIP3    H158534   1.878   4.100   4.923 -1.3213  0.2736  1.2689
12373TIP3    H258535   1.780   4.045   4.821  0.3351  0.1086 -0.2572
12374TIP3   OH258536   3.272   4.555  11.456  0.6511 -0.0867  0.2778
12374TIP3    H158537   3.333   4.555  11.383 -0.1645 -1.2918 -0.4095
12374TIP3    H258538   3.186   4.546  11.416  0.1384  0.0047  1.3363
12375TIP3   OH258539   6.663   6.177   1.586  0.3291  0.4773 -0.2915
12375TIP3    H158540   6.683   6.091   1.624  0.4321  1.9675  3.2478
12375TIP3    H258541   6.731   6.234   1.621 -1.7358  2.6931  0.1967
12376TIP3   OH258542   2.495   6.515   5.008 -0.2054  0.9406 -0.0048
12376TIP3    H158543   2.499   6.611   5.013 -0.4205  0.9982 -0.9310
12376TIP3    H258544   2.459   6.496   4.921 -1.0990  0.0320  0.5532
12377TIP3   OH258545   1.907   3.437  10.546  0.2236  0.1062  1.0675
12377TIP3    H158546   1.834   3.496  10.565 -0.3672 -0.9814  2.3323
12377TIP3    H258547   1.873   3.350  10.569  0.8579 -0.8154 -1.3124
12378TIP3   OH258548   5.579   3.348  12.864 -0.3581 -0.2408  0.0138
12378TIP3    H158549   5.631   3.424  12.841 -0.0317 -0.1876  0.8749
12378TIP3    H258550   5.509   3.345  12.799  0.9958 -0.5888 -1.4407
12379TIP3   OH258551   3.095   6.177   5.084  0.0106  0.0088 -0.0899
12379TIP3    H158552   3.126   6.191   5.174  0.8063  0.9939 -0.4993
12379TIP3    H258553   3.158   6.115   5.047  0.4828  0.6416 -0.3705
12380TIP3   OH258554   1.952   5.661   2.452 -0.3429 -0.1268 -0.4654
12380TIP3    H158555   1.862   5.688   2.435  0.2548  2.6547  0.5558
12380TIP3    H258556   1.943   5.573   2.490 -2.5632 -0.2054 -1.0754
12381TIP3   OH258557   3.565   2.198  13.286  0.2466  0.7230 -0.2285
12381TIP3    H158558   3.575   2.150  13.368  3.5056  0.9260 -0.4705
12381TIP3    H258559   3.487   2.159  13.245 -0.1696 -0.8238  1.9694
12382TIP3   OH258560   3.954   4.961  13.078  0.0459 -0.5771  0.1473
12382TIP3    H158561   3.863   4.934  13.066  0.0640 -0.6763  0.2241
12382TIP3    H258562   3.950   5.055  13.093  0.0112 -0.4841 -0.4531
12383TIP3   OH258563   4.701   2.103  15.840  0.5657  0.6148 -0.2234
12383TIP3    H158564   4.658   2.053  15.909 -1.0202  0.7446 -1.1034
12383TIP3    H258565   4.737   2.036  15.782 -0.0052  0.4959 -0.4428
12384TIP3   OH258566   6.133   1.513  12.385 -0.4209 -0.4248  1.0588
12384TIP3    H158567   6.216   1.474  12.412  0.8040  0.8238 -0.7518
12384TIP3    H258568   6.083   1.440  12.349  1.5833 -0.5335 -1.6764
12385TIP3   OH258569   5.875   3.262  14.992 -0.2437  0.1230 -0.1077
12385TIP3    H158570   5.935   3.228  14.925 -0.8676 -1.1917 -0.0131
12385TIP3    H258571   5.812   3.314  14.943  1.1925  1.8491 -0.1637
12386TIP3   OH258572   6.290   1.973   1.949  0.0041  0.4663  0.1474
12386TIP3    H158573   6.370   2.014   1.917  1.9045 -0.9478  2.8942
12386TIP3    H258574   6.277   2.010   2.036 -2.4051  0.7151 -0.2825
12387TIP3   OH258575   6.515   3.376   3.404  0.0683  0.3538  0.3435
12387TIP3    H158576   6.527   3.417   3.318 -1.0200 -0.3274 -0.1474
12387TIP3    H258577   6.424   3.398   3.428  0.1583 -0.0070  1.0263
12388TIP3   OH258578   1.917   6.331   2.938  0.6879  0.1801 -0.4917
12388TIP3    H158579   1.969   6.252   2.929  0.6597  0.2151 -0.9652
12388TIP3    H258580   1.849   6.308   3.001  1.6903  0.3512  0.6543
12389TIP3   OH258581   3.630   5.661  11.303 -0.5346 -0.1211  0.2855
12389TIP3    H158582   3.569   5.600  11.261  0.1911 -0.9116  0.3635
12389TIP3    H258583   3.658   5.719  11.232 -0.8941 -0.1500  0.1174
12390TIP3   OH258584   4.965   3.004  14.673  0.3434 -0.2221  0.2595
12390TIP3    H158585   4.997   2.944  14.606  1.8957  1.8375 -0.8926
12390TIP3    H258586   4.871   3.007  14.660  0.2717 -2.2097  0.1918
12391TIP3   OH258587   1.200   0.100   3.374  0.0931 -0.1700 -0.4199
12391TIP3    H158588   1.181   0.126   3.464 -1.2759  0.8641 -0.9882
12391TIP3    H258589   1.223   0.181   3.329 -1.9303 -0.2292 -1.6430
12392TIP3   OH258590   0.304   3.289   1.386  0.3465  0.6369 -0.0284
12392TIP3    H158591   0.356   3.369   1.376 -0.5634  1.4525  1.4558
12392TIP3    H258592   0.368   3.220   1.399  1.1231  1.3258 -0.1395
12393TIP3   OH258593   2.593   4.914   3.333  0.3778  0.1417 -0.0292
12393TIP3    H158594   2.622   4.880   3.417  0.0948  0.1503  0.0722
12393TIP3    H258595   2.665   4.895   3.273  1.0245  1.0717  0.4436
12394TIP3   OH258596   5.058   0.080  15.949 -0.5204 -0.1962  0.6895
12394TIP3    H158597   5.149   0.108  15.960 -0.6579  1.3186 -1.6694
12394TIP3    H258598   5.057   0.034  15.866 -2.6160  3.2546 -1.3143
12395TIP3   OH258599   1.467   6.577   4.450 -0.2189  0.0298 -0.1305
12395TIP3    H158600   1.447   6.500   4.396  2.4545  0.1431 -1.3515
12395TIP3    H258601   1.443   6.652   4.395  1.4094  0.1263 -0.7277
12396TIP3   OH258602   0.331   1.885  15.043  0.1279  0.0336 -0.2213
12396TIP3    H158603   0.397   1.825  15.009 -1.2376 -0.0679 -2.8726
12396TIP3    H258604   0.349   1.968  15.001  0.3003  0.7680  1.2679
12397TIP3   OH258605   4.797   2.124   0.725  0.0287 -0.3785 -0.6467
12397TIP3    H158606   4.855   2.184   0.772 -2.7404  1.0292  1.1048
12397TIP3    H258607   4.796   2.157   0.635  0.3697  0.7625 -0.2373
12398TIP3   OH258608   5.367   6.191   4.239  0.3563  0.2714  0.1234
12398TIP3    H158609   5.433   6.211   4.306  1.3843 -1.3351 -0.3804
12398TIP3    H258610   5.346   6.276   4.200  1.5398  0.9118  0.8428
12399TIP3   OH258611   2.627   3.281  14.782 -1.0025 -0.2082 -0.0258
12399TIP3    H158612   2.618   3.310  14.691  2.9781  0.5856 -0.2641
12399TIP3    H258613   2.619   3.361  14.834 -0.8687 -0.2984  0.1351
12400TIP3   OH258614   0.322   3.659   1.632  0.6973 -0.0581 -0.2541
12400TIP3    H158615   0.326   3.753   1.649  0.4244 -0.6088  3.1164
12400TIP3    H258616   0.238   3.646   1.588  0.2032  1.1289  0.3289
12401TIP3   OH258617   3.566   5.365   2.934  0.1139 -0.1547  0.4485
12401TIP3    H158618   3.600   5.414   3.008 -2.1766  0.5827  1.0422
12401TIP3    H258619   3.505   5.424   2.891  0.3043 -1.0886 -1.1898
12402TIP3   OH258620   0.870   4.739   2.634  0.1073  0.6113 -0.6437
12402TIP3    H158621   0.953   4.781   2.656  1.4009 -1.5024 -1.3339
12402TIP3    H258622   0.889   4.689   2.554 -1.6619 -0.3938 -0.4574
12403TIP3   OH258623   4.387   5.568  13.865 -0.5399  0.1537  0.9743
12403TIP3    H158624   4.469   5.617  13.871 -0.7690  0.5892  0.5975
12403TIP3    H258625   4.397   5.497  13.928  0.0671  0.2926  1.0426
12404TIP3   OH258626   4.861   1.611   2.223 -0.1079 -0.0766  0.2622
12404TIP3    H158627   4.924   1.671   2.184 -0.8880 -0.9181 -2.4202
12404TIP3    H258628   4.914   1.545   2.268  0.8752  0.2410 -0.4224
12405TIP3   OH258629   1.249   0.456  16.365  0.4017  0.6176 -0.7938
12405TIP3    H158630   1.217   0.384  16.419  0.6955  1.6350  0.7927
12405TIP3    H258631   1.329   0.422  16.324  0.4347 -0.0189 -0.2027
12406TIP3   OH258632   6.571   1.457   5.347  0.0292 -0.0675 -0.6344
12406TIP3    H158633   6.605   1.540   5.379 -0.4882 -0.1707  0.2143
12406TIP3    H258634   6.644   1.396   5.357 -0.1558 -0.1261  0.5039
12407TIP3   OH258635   3.641   5.044   0.702  0.4572 -0.2758 -0.6620
12407TIP3    H158636   3.582   5.043   0.627 -0.1117 -1.4573 -0.2094
12407TIP3    H258637   3.611   5.117   0.755 -0.7838 -1.0403 -0.2926
12408TIP3   OH258638   5.946   5.600   5.146 -0.0017 -0.2875 -0.3105
12408TIP3    H158639   6.018   5.635   5.094  0.0029 -0.7718 -0.6381
12408TIP3    H258640   5.964   5.506   5.153 -0.0732 -0.2494  0.4582
12409TIP3   OH258641   2.520   5.906   4.436  0.1317 -0.4716  0.4565
12409TIP3    H158642   2.475   5.829   4.401 -2.9306  1.7577 -0.7613
12409TIP3    H258643   2.577   5.935   4.364 -0.3936 -0.3306  0.0939
12410TIP3   OH258644   1.686   2.588   3.598  0.4071  0.1298  0.0937
12410TIP3    H158645   1.743   2.510   3.597 -0.2612 -0.4188 -3.9778
12410TIP3    H258646   1.601   2.556   3.568 -0.2648  2.1997 -0.2698
12411TIP3   OH258647   5.924   1.579   2.525  0.1695 -0.3480 -0.0626
12411TIP3    H158648   5.940   1.564   2.618 -0.3608 -0.1818  0.0590
12411TIP3    H258649   5.835   1.614   2.522  0.5439  0.5738 -0.5420
12412TIP3   OH258650   2.666   1.524  12.614  0.3118 -0.3883 -0.2728
12412TIP3    H158651   2.682   1.429  12.615  0.2939 -0.3946 -0.5001
12412TIP3    H258652   2.572   1.532  12.633  0.4928 -0.3725  0.6150
12413TIP3   OH258653   0.322   0.028  12.077 -0.1726 -0.2606 -0.0172
12413TIP3    H158654   0.342   0.049  12.168  0.5495  0.4205 -0.3343
12413TIP3    H258655   0.316  -0.068  12.076 -0.3492 -0.2639  0.7737
12414TIP3   OH258656   0.620   6.044   2.069 -0.4004 -0.3588 -0.4997
12414TIP3    H158657   0.585   6.001   1.991 -1.6706  0.5354 -0.4391
12414TIP3    H258658   0.590   5.990   2.142  0.3368 -0.8966 -0.5886
12415TIP3   OH258659   2.100   3.406   1.933 -0.1692 -0.2477  0.7991
12415TIP3    H158660   2.122   3.491   1.971 -2.5618  0.8852 -0.2179
12415TIP3    H258661   2.168   3.392   1.867  0.7917  0.4144  1.6214
12416TIP3   OH258662   2.960   3.353  16.602 -0.2767 -0.0511 -0.2471
12416TIP3    H158663   2.899   3.279  16.598  0.2427 -0.4269 -1.5180
12416TIP3    H258664   3.046   3.314  16.587 -0.1093  0.9350 -2.0177
12417TIP3   OH258665   1.395   2.320  12.890  0.3509 -0.0098 -0.2416
12417TIP3    H158666   1.353   2.305  12.805 -0.8688 -1.2259  0.5483
12417TIP3    H258667   1.354   2.399  12.924  0.0639 -0.1255 -0.3149
12418TIP3   OH258668   3.589   4.105   0.175 -0.1216 -0.0224  0.5101
12418TIP3    H158669   3.670   4.053   0.186 -0.0495 -0.1381 -0.4806
12418TIP3    H258670   3.619   4.196   0.174 -0.0685 -0.0383  0.7578
12419TIP3   OH258671   0.342   2.423   0.087 -0.0022  0.2598  0.4945
12419TIP3    H158672   0.297   2.350   0.044 -0.8766  1.7105 -1.1004
12419TIP3    H258673   0.381   2.473   0.015  0.1204  1.6774  1.5268
12420TIP3   OH258674   5.249   3.596  13.364 -1.1278 -0.2234 -0.0942
12420TIP3    H158675   5.164   3.610  13.321 -1.3131  1.1151  0.6790
12420TIP3    H258676   5.253   3.664  13.431  0.4960 -0.3815 -0.0169
12421TIP3   OH258677   3.816   3.983  11.576 -0.0017 -0.4442 -0.0878
12421TIP3    H158678   3.805   3.952  11.666 -1.8689  1.0772  0.2473
12421TIP3    H258679   3.788   3.909  11.522  1.5582 -1.5305  0.5575
12422TIP3   OH258680   4.018   1.833   2.191  0.1322  0.1864 -0.6602
12422TIP3    H158681   4.083   1.815   2.259 -0.1292 -0.0792 -0.4793
12422TIP3    H258682   3.965   1.754   2.187 -1.1895  0.9871  0.3223
12423TIP3   OH258683   3.885   4.894   4.107 -0.3311  0.3384 -0.1545
12423TIP3    H158684   3.878   4.877   4.201 -1.0489 -1.4822 -0.5179
12423TIP3    H258685   3.836   4.975   4.093  0.6083  1.1579  1.1763
12424TIP3   OH258686   6.110   1.261  15.985  0.3309 -0.2747  0.3156
12424TIP3    H158687   6.027   1.242  15.940  0.9929  0.9504 -1.4705
12424TIP3    H258688   6.123   1.186  16.043 -1.7411 -0.7687  0.1916
12425TIP3   OH258689   0.269   4.318   2.757  0.0731  0.0604 -0.0819
12425TIP3    H158690   0.323   4.349   2.685  0.1063 -0.2878 -0.2111
12425TIP3    H258691   0.183   4.357   2.740  0.7552  2.1432  1.1635
12426TIP3   OH258692   5.350   2.986  13.609 -0.5903 -0.4026  0.4221
12426TIP3    H158693   5.332   3.078  13.593 -0.3755 -0.2336  1.1541
12426TIP3    H258694   5.444   2.982  13.624 -0.5800 -0.7596  0.2715
12427TIP3   OH258695   2.862   1.720  13.657  0.3364  0.2149  0.4383
12427TIP3    H158696   2.776   1.743  13.694 -0.8410 -2.0307 -0.8291
12427TIP3    H258697   2.853   1.629  13.631  3.1783 -0.0707  0.3752
12428TIP3   OH258698   4.808   1.824  13.561  0.0628 -0.3213  0.1260
12428TIP3    H158699   4.758   1.837  13.481  0.3481 -0.5011 -0.0804
12428TIP3    H258700   4.742   1.803  13.628 -0.1134 -0.7659 -0.1865
12429TIP3   OH258701   5.438   6.333  15.662  0.5578  0.1449  0.3463
12429TIP3    H158702   5.371   6.319  15.595 -1.9418  1.1790  2.5593
12429TIP3    H258703   5.456   6.245  15.696 -0.1798 -0.0681  0.2099
12430TIP3   OH258704   0.168   1.367  17.070  0.4359 -0.1699 -0.0350
12430TIP3    H158705   0.119   1.293  17.104  1.6904 -0.8035  0.4285
12430TIP3    H258706   0.189   1.420  17.147  3.4123 -1.6860  0.2781
12431TIP3   OH258707   1.145   3.665  16.956  0.1529  0.4522 -0.4210
12431TIP3    H158708   1.186   3.628  17.034 -1.4063  0.7949  0.5693
12431TIP3    H258709   1.056   3.631  16.957 -0.1324  1.1398 -1.5896
12432TIP3   OH258710   4.069   3.606  16.938 -0.0758 -0.2083  0.3524
12432TIP3    H158711   4.024   3.628  16.856  1.4267 -1.8851 -0.9572
12432TIP3    H258712   4.158   3.638  16.925  0.9575 -3.0591  0.1589
12433TIP3   OH258713   3.801   1.571   1.920 -0.5745 -0.0329  0.2154
12433TIP3    H158714   3.716   1.613   1.935 -0.5851  0.1134 -0.2191
12433TIP3    H258715   3.855   1.597   1.995 -1.1052 -0.6434  0.8135
12434TIP3   OH258716   4.506   1.911   4.418 -0.4949  0.3044 -0.3652
12434TIP3    H158717   4.578   1.915   4.355  0.4335 -3.3030  0.3689
12434TIP3    H258718   4.516   1.827   4.461 -3.3019  1.1140  2.0429
12435TIP3   OH258719   6.269   1.689  11.915  0.0230  0.4769  0.2416
12435TIP3    H158720   6.294   1.641  11.994 -0.7216 -0.2283  0.0599
12435TIP3    H258721   6.351   1.724  11.881  0.6979 -1.3435 -0.0540
12436TIP3   OH258722   3.670   4.171   4.373 -0.5111 -0.0511  0.2287
12436TIP3    H158723   3.697   4.148   4.284  0.6814  0.5758  0.4248
12436TIP3    H258724   3.745   4.218   4.410 -0.8071 -0.7401  1.7395
12437TIP3   OH258725   6.608   0.410   6.152 -0.2250 -0.1388  0.1911
12437TIP3    H158726   6.628   0.437   6.062  0.3806 -1.4672 -0.0867
12437TIP3    H258727   6.570   0.488   6.193  1.9166  1.2789 -0.4330
12438TIP3   OH258728   2.954   2.778   4.398  0.7145  0.1175 -0.0217
12438TIP3    H158729   2.993   2.786   4.486  1.5601  1.5456 -0.4988
12438TIP3    H258730   3.011   2.716   4.353 -0.3347 -1.4355  0.7537
12439TIP3   OH258731   2.178   0.044  11.554 -0.0166 -0.0766 -0.5362
12439TIP3    H158732   2.101   0.097  11.534  1.5555  2.2079 -0.6815
12439TIP3    H258733   2.150  -0.012  11.626 -1.6520  1.1257 -0.2075
12440TIP3   OH258734   0.509   3.881  17.050  0.2035 -0.1348 -0.5623
12440TIP3    H158735   0.430   3.897  16.999 -0.4527  2.5024  1.1825
12440TIP3    H258736   0.580   3.887  16.986 -0.8447 -0.4286 -1.7751
12441TIP3   OH258737   2.941   4.629   5.325 -0.7361  0.4295 -0.3888
12441TIP3    H158738   3.001   4.688   5.371 -0.1003 -0.6428  0.1872
12441TIP3    H258739   2.880   4.687   5.280  0.4356  1.5332 -0.5768
12442TIP3   OH258740   4.714   0.082  16.596 -0.2729  0.2960 -0.1446
12442TIP3    H158741   4.715   0.105  16.689  0.1734  0.1096 -0.1038
12442TIP3    H258742   4.675   0.159  16.553  1.3294  1.1914 -0.0267
12443TIP3   OH258743   5.654   5.711   3.926  0.1327 -0.0326  0.1561
12443TIP3    H158744   5.635   5.630   3.881  0.5844  1.6173 -3.1440
12443TIP3    H258745   5.716   5.757   3.869 -0.3052  2.7298  1.7862
12444TIP3   OH258746   4.436   4.765   4.623 -0.1073  0.2821 -0.2773
12444TIP3    H158747   4.388   4.711   4.687  1.2627  0.2551  0.7500
12444TIP3    H258748   4.375   4.775   4.550 -2.8459  2.6835  2.1820
12445TIP3   OH258749   3.870   6.725   0.800  0.5826  0.0420  0.0355
12445TIP3    H158750   3.845   6.733   0.708  0.0681 -1.0125  0.0727
12445TIP3    H258751   3.917   6.806   0.820 -0.6555  0.9705 -0.7368
12446TIP3   OH258752   4.303   3.668  15.264 -0.3601 -0.1227  0.2911
12446TIP3    H158753   4.277   3.690  15.174  1.4235  1.4074  0.1178
12446TIP3    H258754   4.229   3.695  15.318 -0.0286  2.2771 -0.3964
12447TIP3   OH258755   2.331   3.766   1.805 -0.2083  0.0157  0.4017
12447TIP3    H158756   2.269   3.712   1.756  0.0642  0.1776 -0.1235
12447TIP3    H258757   2.292   3.853   1.806  1.8443  1.0818 -3.3523
12448TIP3   OH258758   1.476   2.717   1.693  0.2965 -0.0612  0.1617
12448TIP3    H158759   1.403   2.774   1.666 -0.8615 -1.1797  0.8775
12448TIP3    H258760   1.537   2.776   1.737  0.5189  1.1549 -1.7070
12449TIP3   OH258761   1.184   0.799   6.376 -0.2772 -0.3190 -0.4794
12449TIP3    H158762   1.278   0.812   6.378 -0.3281  0.0242 -0.2763
12449TIP3    H258763   1.166   0.737   6.447 -0.7004  2.8582  2.2955
12450TIP3   OH258764   0.082   5.916   4.824  0.2857 -0.2338 -0.3036
12450TIP3    H158765   0.132   5.997   4.820  2.3952 -1.4844 -0.2859
12450TIP3    H258766   0.109   5.875   4.907 -1.6540 -0.4125  0.2813
12451TIP3   OH258767   0.528   6.001  13.698 -0.0658  0.0223  0.1027
12451TIP3    H158768   0.450   6.005  13.752  0.5554 -0.3050  1.0295
12451TIP3    H258769   0.586   6.068  13.734  1.3588 -1.8990  1.4501
12452TIP3   OH258770   6.204   4.687   4.822  0.4097  0.3096 -0.1127
12452TIP3    H158771   6.220   4.648   4.908  0.7476 -1.1244 -0.8051
12452TIP3    H258772   6.274   4.653   4.767 -0.8058 -0.1819 -1.3805
12453TIP3   OH258773   2.258   6.530   2.336  0.3612 -0.0113  0.1220
12453TIP3    H158774   2.209   6.574   2.266  1.9821  0.4831 -0.7325
12453TIP3    H258775   2.244   6.437   2.319  2.2901  0.0479 -2.0557
12454TIP3   OH258776   5.760   3.299  11.731  0.2457 -0.1899  0.1622
12454TIP3    H158777   5.830   3.314  11.795 -0.4681 -0.2595  0.9687
12454TIP3    H258778   5.679   3.299  11.783 -0.3545 -0.1472 -0.7541
12455TIP3   OH258779   3.037   0.271  16.448 -0.4392  0.2991  0.4540
12455TIP3    H158780   3.033   0.313  16.362 -0.6420 -1.5065 -0.4430
12455TIP3    H258781   3.127   0.238  16.454 -0.6923 -0.3968  0.5205
12456TIP3   OH258782   5.039   0.934   1.014  0.7708  0.6687 -0.5032
12456TIP3    H158783   5.024   1.027   0.994 -0.0684  1.0139  1.6033
12456TIP3    H258784   4.983   0.916   1.089  1.0408 -1.5291 -0.7899
12457TIP3   OH258785   6.556   4.409   3.571 -0.2280  0.1603 -1.0193
12457TIP3    H158786   6.536   4.488   3.622  0.1460  0.0950 -0.7722
12457TIP3    H258787   6.650   4.414   3.555 -0.1334 -0.4669 -0.6298
12458TIP3   OH258788   0.128   0.533   4.924 -0.0668  0.1889  0.3988
12458TIP3    H158789   0.176   0.548   5.006  1.4586 -0.6316 -0.3128
12458TIP3    H258790   0.135   0.616   4.877 -0.7443  0.5873  0.9941
12459TIP3   OH258791   6.001   2.519  17.127 -0.1124 -0.3987  0.2997
12459TIP3    H158792   5.924   2.526  17.072 -0.5474 -1.5036  0.7578
12459TIP3    H258793   6.027   2.610  17.143 -1.1965 -0.0275 -0.0156
12460TIP3   OH258794   1.697   6.283   3.076 -0.0466 -0.2709  0.3519
12460TIP3    H158795   1.670   6.197   3.109  0.7646 -0.3205  0.8841
12460TIP3    H258796   1.640   6.345   3.120 -1.8026 -0.6519 -1.3085
12461TIP3   OH258797   2.017   4.775   4.521  0.0232 -0.1606 -0.2836
12461TIP3    H158798   2.082   4.827   4.474  1.3074  0.2532  1.8622
12461TIP3    H258799   2.025   4.687   4.484  2.3752 -0.2881  0.4609
12462TIP3   OH258800   0.402   2.681   2.321 -0.2595  0.5889 -0.2910
12462TIP3    H158801   0.327   2.690   2.262 -0.0687 -1.1959 -0.8194
12462TIP3    H258802   0.472   2.731   2.278 -0.5728  0.5950 -0.8010
12463TIP3   OH258803   0.225   2.486  10.388  0.3671 -0.2548  0.0374
12463TIP3    H158804   0.273   2.536  10.322  1.5364 -0.8008  0.4612
12463TIP3    H258805   0.251   2.395  10.373 -0.8122 -0.6141  0.0503
12464TIP3   OH258806   0.272   0.995   5.016  0.1812 -0.3943 -0.2133
12464TIP3    H158807   0.360   1.012   4.980 -0.3878  1.0575 -0.9856
12464TIP3    H258808   0.235   0.928   4.958  0.6781 -0.8132 -0.0475
12465TIP3   OH258809   5.275   2.791   2.680 -0.2039  0.3426  0.5918
12465TIP3    H158810   5.213   2.790   2.607  0.8175 -0.1886 -0.2754
12465TIP3    H258811   5.301   2.883   2.687  0.5407  0.2286 -0.4586
12466TIP3   OH258812   0.891   6.475   4.615 -0.3517 -0.3816 -0.0544
12466TIP3    H158813   0.935   6.520   4.687  2.8396  0.7714 -2.6152
12466TIP3    H258814   0.912   6.382   4.627 -0.1070 -0.2302  0.6792
12467TIP3   OH258815   1.031   4.199  17.107  0.6252 -0.2479 -0.6389
12467TIP3    H158816   0.981   4.124  17.140  1.4022  0.0076  1.2490
12467TIP3    H258817   1.103   4.160  17.058  0.0978 -0.6915 -1.0577
12468TIP3   OH258818   2.432   1.947   2.928  0.1774 -0.9620  0.5677
12468TIP3    H158819   2.382   2.024   2.902 -1.7660 -2.0019  1.0821
12468TIP3    H258820   2.501   1.940   2.862  0.9675  1.7300  1.0457
12469TIP3   OH258821   2.432   2.587   0.103 -0.4049 -0.4339  0.2192
12469TIP3    H158822   2.374   2.513   0.088 -0.5381 -0.4695  0.8881
12469TIP3    H258823   2.509   2.549   0.145 -0.9914 -0.0325  1.6915
12470TIP3   OH258824   4.643   3.786   3.580  0.2738 -0.2062  0.6736
12470TIP3    H158825   4.581   3.732   3.629 -0.9724  0.0149 -0.6237
12470TIP3    H258826   4.622   3.768   3.488  0.5430  1.6789  0.2279
12471TIP3   OH258827   4.556   3.240  15.473  0.0350 -0.0197 -0.0676
12471TIP3    H158828   4.540   3.146  15.472  0.5257 -0.1035 -0.6737
12471TIP3    H258829   4.477   3.278  15.511  0.0377 -0.7113  0.6469
12472TIP3   OH258830   0.093   0.167  15.826 -0.8056  0.2788  0.6420
12472TIP3    H158831   0.177   0.123  15.835 -0.1445  1.5013  0.5565
12472TIP3    H258832   0.030   0.107  15.864  0.0929 -0.6969  0.6001
12473TIP3   OH258833   1.016   5.506   4.518 -0.4997 -0.1668 -0.3089
12473TIP3    H158834   0.938   5.487   4.569  0.0805 -0.1204  0.6019
12473TIP3    H258835   1.062   5.573   4.568 -0.3841  0.5486 -1.3463
12474TIP3   OH258836   0.727   5.868   4.661 -0.2833 -0.6357 -0.1408
12474TIP3    H158837   0.648   5.823   4.692 -0.3255 -0.5417 -0.1111
12474TIP3    H258838   0.720   5.867   4.566 -0.4404 -0.4156 -0.1330
12475TIP3   OH258839   6.002   2.400   3.077 -0.1737  0.0794 -0.2307
12475TIP3    H158840   5.975   2.451   3.154  1.5455  0.7811 -0.0747
12475TIP3    H258841   5.923   2.396   3.022 -0.9924  0.8524  0.8563
12476TIP3   OH258842   2.406   2.552   0.425  0.4101 -0.2323  0.6285
12476TIP3    H158843   2.370   2.548   0.514 -0.3630  0.7991  0.3690
12476TIP3    H258844   2.432   2.462   0.406 -0.3247 -0.6497  1.5331
12477TIP3   OH258845   0.457   0.368  12.036 -0.2193 -0.0819 -0.0721
12477TIP3    H158846   0.367   0.353  12.007  0.8986 -0.6157 -3.5090
12477TIP3    H258847   0.469   0.463  12.029 -0.3941 -0.0557 -0.0134
12478TIP3   OH258848   1.902   5.839   2.814  0.2966 -0.7328  0.0335
12478TIP3    H158849   1.925   5.784   2.889  0.3694 -0.9223 -0.1275
12478TIP3    H258850   1.986   5.854   2.769  0.2959 -0.3846  0.1502
12479TIP3   OH258851   2.283   4.310   1.362  0.5491 -0.3193 -0.0450
12479TIP3    H158852   2.255   4.391   1.319  1.2715  1.5463  2.8240
12479TIP3    H258853   2.320   4.257   1.291 -1.9552  0.9087 -2.3671
12480TIP3   OH258854   5.884   2.642   2.242  0.5229 -0.6377  0.3209
12480TIP3    H158855   5.860   2.557   2.203 -0.1938  0.0236 -0.7075
12480TIP3    H258856   5.814   2.660   2.304 -0.2138 -0.0195 -0.6730
12481TIP3   OH258857   0.471   3.903   0.706 -0.8254  0.2456 -0.0650
12481TIP3    H158858   0.393   3.945   0.671 -0.8986 -0.2908 -0.5483
12481TIP3    H258859   0.515   3.865   0.630 -0.1473  0.4535  0.2180
12482TIP3   OH258860   3.235   4.362  15.867 -0.3141  0.0444 -0.0066
12482TIP3    H158861   3.162   4.411  15.830 -1.4210 -0.2493  1.7335
12482TIP3    H258862   3.261   4.411  15.945  1.1316 -0.0473 -0.4039
12483TIP3   OH258863   6.558   4.776   0.969 -1.2516 -0.2113  0.1234
12483TIP3    H158864   6.575   4.868   0.951  0.8263 -0.5582  0.1201
12483TIP3    H258865   6.503   4.747   0.896 -2.0575  1.0608  0.2135
12484TIP3   OH258866   1.181   0.121  13.412 -0.1359  0.5918  0.1194
12484TIP3    H158867   1.239   0.140  13.338 -1.2074  1.1581 -0.5978
12484TIP3    H258868   1.110   0.185  13.404 -1.1519 -0.4388  0.6491
12485TIP3   OH258869   5.748   3.754   2.864 -0.7476  0.1625 -1.4481
12485TIP3    H158870   5.796   3.759   2.946 -0.2476  0.2673 -1.7450
12485TIP3    H258871   5.685   3.826   2.869  0.7287  1.5397 -2.0708
12486TIP3   OH258872   6.206   5.021   1.457  0.3129 -0.1069 -0.5268
12486TIP3    H158873   6.164   4.965   1.392  2.1509 -0.2841 -1.5869
12486TIP3    H258874   6.244   5.093   1.406  0.1363  0.7619  0.5547
12487TIP3   OH258875   1.802   5.541   1.320  0.0777 -0.1380 -0.0760
12487TIP3    H158876   1.739   5.586   1.264  0.1268 -0.1981 -0.1792
12487TIP3    H258877   1.752   5.471   1.362 -0.1180  0.3300  0.4721
12488TIP3   OH258878   5.649   0.264   4.554 -0.2432 -0.1776 -0.4918
12488TIP3    H158879   5.573   0.322   4.548  1.1107  1.5887 -0.9546
12488TIP3    H258880   5.612   0.180   4.582 -2.2469  0.8784  0.1883
12489TIP3   OH258881   3.849   2.524  17.175 -0.3257 -0.2260 -0.5797
12489TIP3    H158882   3.927   2.473  17.154 -0.1898 -0.3396  0.1891
12489TIP3    H258883   3.846   2.592  17.108  0.0785 -0.6084 -0.9877
12490TIP3   OH258884   1.407   4.059   3.645 -0.4338 -0.0426 -0.2906
12490TIP3    H158885   1.364   3.994   3.590 -0.4270 -1.2783  1.1248
12490TIP3    H258886   1.496   4.066   3.609 -0.4415 -0.8090 -0.4577
12491TIP3   OH258887   2.808   4.636   3.798  0.1344 -0.4599  0.0133
12491TIP3    H158888   2.898   4.666   3.783 -0.1165  0.6764  0.7119
12491TIP3    H258889   2.818   4.547   3.832  1.0052 -0.3107  0.1672
12492TIP3   OH258890   2.662   2.473  14.904 -0.2892  0.0334  0.1406
12492TIP3    H158891   2.734   2.501  14.849  0.5580  1.6754  2.0423
12492TIP3    H258892   2.620   2.554  14.933 -0.9630 -0.8100  1.5787
12493TIP3   OH258893   5.883   3.287   2.122 -0.1366  0.3819 -0.3033
12493TIP3    H158894   5.838   3.211   2.159  0.4157  1.4074  2.5727
12493TIP3    H258895   5.976   3.265   2.127 -0.0561  0.4866 -1.2195
12494TIP3   OH258896   3.573   3.001   6.627 -0.0775 -0.3307  0.2623
12494TIP3    H158897   3.645   2.938   6.634 -0.5975 -1.0854 -0.9318
12494TIP3    H258898   3.506   2.954   6.577 -0.8504  0.8527  0.1850
12495TIP3   OH258899   1.895   5.784   3.295  0.1239  0.3228 -0.3549
12495TIP3    H158900   1.871   5.692   3.307  0.5948  0.3612  0.9074
12495TIP3    H258901   1.990   5.784   3.296  0.1453  0.6689 -1.6422
12496TIP3   OH258902   2.569   1.107  16.588  0.3601  0.3313 -0.3026
12496TIP3    H158903   2.475   1.125  16.589  0.6462  1.8491  0.3720
12496TIP3    H258904   2.610   1.186  16.624  1.8912 -0.3574 -0.4582
12497TIP3   OH258905   4.776   3.495  16.284 -0.1179  0.3170  0.2291
12497TIP3    H158906   4.770   3.586  16.313 -1.7301  0.1508  0.4190
12497TIP3    H258907   4.865   3.468  16.310  0.0724  1.5743  0.9112
12498TIP3   OH258908   6.772   2.218   5.999 -0.3128  0.2996  0.9415
12498TIP3    H158909   6.729   2.259   5.924  1.2402 -1.8862 -1.2299
12498TIP3    H258910   6.840   2.281   6.025  0.0889  0.4699 -0.4485
12499TIP3   OH258911   1.899   1.576   2.829  0.4612 -0.1341  0.8888
12499TIP3    H158912   1.899   1.632   2.751 -0.5450 -1.4781 -0.0823
12499TIP3    H258913   1.813   1.534   2.829  0.5478 -0.3414  2.5916
12500TIP3   OH258914   1.683   5.213   2.716  0.5580  0.0210 -0.0464
12500TIP3    H158915   1.623   5.283   2.693  0.8120  0.0349 -0.6946
12500TIP3    H258916   1.628   5.144   2.752  0.3305  0.6308  0.7938
12501TIP3   OH258917   4.548   5.197  16.946 -0.4788 -0.4326 -0.2396
12501TIP3    H158918   4.630   5.150  16.959  0.1224  0.4344 -0.8448
12501TIP3    H258919   4.525   5.181  16.855 -1.3637 -1.2652  0.1228
12502TIP3   OH258920   6.339   4.129  13.491  0.2091 -0.0380 -0.0145
12502TIP3    H158921   6.359   4.038  13.516  0.7035 -0.1058 -0.6485
12502TIP3    H258922   6.407   4.181  13.534  0.4523 -0.0549 -0.3813
12503TIP3   OH258923   2.817   0.047  12.901  0.6466  0.0289 -0.0253
12503TIP3    H158924   2.725   0.026  12.916  0.4228 -0.6207 -2.1280
12503TIP3    H258925   2.841   0.104  12.974 -1.9990  1.8847 -0.5326
12504TIP3   OH258926   4.523   4.326   5.806  0.2556 -0.0829  0.7189
12504TIP3    H158927   4.548   4.413   5.775 -0.2376 -0.6992 -1.4586
12504TIP3    H258928   4.595   4.300   5.864  1.7186  0.6748 -0.7067
12505TIP3   OH258929   1.108   3.466   0.183 -0.1176 -0.5013 -0.4910
12505TIP3    H158930   1.079   3.485   0.273 -1.2158 -0.6262 -0.8219
12505TIP3    H258931   1.164   3.388   0.192 -2.1358 -1.9459 -0.2286
12506TIP3   OH258932   6.608   1.645  11.226 -0.5169 -1.1070  0.3181
12506TIP3    H158933   6.535   1.699  11.195 -0.2694 -0.4790  0.8175
12506TIP3    H258934   6.686   1.696  11.203 -0.2825 -1.2612  0.7877
12507TIP3   OH258935   0.348   0.074  15.827  0.4322  0.7029  0.9024
12507TIP3    H158936   0.308   0.016  15.762 -0.3112  1.4376  0.6939
12507TIP3    H258937   0.442   0.066  15.811  0.3655 -0.6516  1.0633
12508TIP3   OH258938   6.668   1.663  10.851 -0.1261 -0.0923  0.7859
12508TIP3    H158939   6.697   1.734  10.793 -1.2846  0.3164  0.7027
12508TIP3    H258940   6.745   1.644  10.905  1.5753 -1.6947 -2.0492
12509TIP3   OH258941   5.749   5.309  13.349  0.7173  0.2368 -0.4805
12509TIP3    H158942   5.829   5.308  13.401  0.3786  1.9346  0.1321
12509TIP3    H258943   5.693   5.243  13.389  1.0497  0.4521  0.3435
12510TIP3   OH258944   6.669   1.590  17.219 -0.0086  0.0835  0.3069
12510TIP3    H158945   6.582   1.587  17.177  0.9489  0.7133 -1.7935
12510TIP3    H258946   6.690   1.683  17.224  1.7803 -0.1515 -1.9072
12511TIP3   OH258947   4.824   3.276  15.285 -0.0197  0.1311 -0.2479
12511TIP3    H158948   4.906   3.314  15.255 -0.5428  1.6166  0.1567
12511TIP3    H258949   4.837   3.262  15.379  0.8220 -2.4394 -0.7094
12512TIP3   OH258950   1.656   1.691  13.270 -0.9101 -0.1220 -0.0733
12512TIP3    H158951   1.630   1.724  13.356 -1.4410 -1.2181  0.2031
12512TIP3    H258952   1.698   1.607  13.289  0.6600  0.4809 -0.7270
12513TIP3   OH258953   0.252   5.754   3.634  0.4464 -0.0080 -0.2488
12513TIP3    H158954   0.313   5.825   3.615 -0.1826  0.2794 -1.2119
12513TIP3    H258955   0.303   5.674   3.619  0.0490  0.2030 -3.0192
12514TIP3   OH258956   0.406   2.167  10.896  0.2687  0.0686 -0.0389
12514TIP3    H158957   0.399   2.192  10.804 -1.6352  1.2902  0.4106
12514TIP3    H258958   0.330   2.206  10.937  1.0241 -0.5975  2.0499
12515TIP3   OH258959   5.502   1.638   1.680  0.5516 -0.0379  0.4247
12515TIP3    H158960   5.549   1.665   1.601  0.1911 -0.6359  0.0066
12515TIP3    H258961   5.548   1.683   1.751  1.1181  0.1957 -0.0832
12516TIP3   OH258962   6.444   3.109  13.407 -0.7854 -0.1702  0.0773
12516TIP3    H158963   6.451   3.035  13.347 -0.5337 -0.9020  0.9968
12516TIP3    H258964   6.351   3.113  13.431 -1.0434  0.6536 -1.0079
12517TIP3   OH258965   3.934   1.279   3.699  0.5335  0.0575 -0.2540
12517TIP3    H158966   3.947   1.204   3.641  0.3051 -0.5761  0.5086
12517TIP3    H258967   4.022   1.300   3.730  0.6134  0.1790 -0.5616
12518TIP3   OH258968   1.775   3.393  14.012  0.3068 -0.4477 -0.0268
12518TIP3    H158969   1.688   3.398  13.973  0.2129  2.5332  0.4964
12518TIP3    H258970   1.760   3.373  14.104  0.2424 -0.9543 -0.1435
12519TIP3   OH258971   6.487   6.030  17.175 -0.3429 -0.1969  0.4916
12519TIP3    H158972   6.449   6.004  17.091 -1.0669 -1.1618  1.1109
12519TIP3    H258973   6.517   6.120  17.161 -0.7905 -0.2286 -0.6875
12520TIP3   OH258974   5.380   3.807  14.625  0.1433  0.1486 -0.1784
12520TIP3    H158975   5.336   3.724  14.644  1.9601 -0.2515  2.5580
12520TIP3    H258976   5.332   3.872  14.676  1.1354  0.1045  0.8387
12521TIP3   OH258977   2.797   5.277  15.422 -0.0316 -0.1277 -0.3625
12521TIP3    H158978   2.880   5.323  15.436  1.1236 -2.9679  2.6663
12521TIP3    H258979   2.731   5.333  15.465  0.9513  0.0468  0.9443
12522TIP3   OH258980   4.123   0.148   3.085  0.2324  0.6483 -0.2830
12522TIP3    H158981   4.059   0.123   3.151  0.3526  0.3109 -0.2920
12522TIP3    H258982   4.206   0.153   3.133  0.5374 -0.7776 -0.6376
12523TIP3   OH258983   0.881   2.103   4.846 -0.7378 -0.4538  0.5739
12523TIP3    H158984   0.918   2.071   4.928  2.6403  1.1523 -0.2398
12523TIP3    H258985   0.818   2.170   4.871  0.6551  0.3971  1.8536
12524TIP3   OH258986   0.376   4.819   2.531 -0.6053  0.7972 -0.3044
12524TIP3    H158987   0.338   4.885   2.473 -1.5527 -0.1085 -0.7441
12524TIP3    H258988   0.454   4.787   2.485 -1.4496 -0.0448 -1.1920
12525TIP3   OH258989   2.758   0.045  14.851 -0.3964 -0.0055  0.0643
12525TIP3    H158990   2.716   0.130  14.846 -2.6892 -0.9931  1.6297
12525TIP3    H258991   2.775   0.031  14.944  0.6923 -0.9342 -0.2448
12526TIP3   OH258992   6.002   5.784  12.685  0.0680 -0.2829 -0.3266
12526TIP3    H158993   5.938   5.828  12.741 -0.1769  1.3104 -1.8108
12526TIP3    H258994   5.952   5.757  12.608  0.6148 -1.5521 -0.2511
12527TIP3   OH258995   4.566   5.200   3.002  0.6565  1.3862 -0.1394
12527TIP3    H158996   4.560   5.291   2.973  0.8843  1.2047 -0.7601
12527TIP3    H258997   4.657   5.175   2.985  0.7961  1.2735  0.7333
12528TIP3   OH258998   2.697   4.561  15.634  0.2522  0.1261 -0.7057
12528TIP3    H158999   2.642   4.516  15.569 -1.3015 -0.1274  0.7566
12528TIP3    H259000   2.638   4.580  15.707  2.0813 -0.0284  0.8567
12529TIP3   OH259001   3.685   2.781   0.110 -0.2353 -0.8566 -0.6093
12529TIP3    H159002   3.741   2.806   0.036 -0.7907 -0.3542 -0.8543
12529TIP3    H259003   3.659   2.864   0.150 -0.6406 -1.1002 -0.3685
12530TIP3   OH259004   5.610   1.075  16.248  0.4063 -0.3758 -0.1186
12530TIP3    H159005   5.625   1.126  16.327  0.4267  1.1449 -1.0776
12530TIP3    H259006   5.646   0.989  16.268 -1.0868 -0.5141  2.0982
12531TIP3   OH259007   4.119   1.997   4.070 -0.3693 -0.6257  0.1871
12531TIP3    H159008   4.177   1.923   4.054  1.1284  0.6326 -0.3467
12531TIP3    H259009   4.162   2.045   4.141 -2.5511 -1.5207  2.1842
12532TIP3   OH259010   2.969   5.419  12.562 -0.0042  1.0582  0.5145
12532TIP3    H159011   2.953   5.494  12.620 -0.2476  1.2030  0.2615
12532TIP3    H259012   2.921   5.347  12.602  1.5846  0.6181  1.6601
12533TIP3   OH259013   1.358   5.398  15.368  0.4190  0.4977  0.4643
12533TIP3    H159014   1.305   5.378  15.446  0.6081  0.9248  0.7022
12533TIP3    H259015   1.366   5.493  15.369  0.3288  0.5101 -0.1387
12534TIP3   OH259016   3.110   1.387  13.311  0.1117 -0.5063  0.0626
12534TIP3    H159017   3.139   1.303  13.347  0.0214 -0.2294  0.7867
12534TIP3    H259018   3.189   1.439  13.303 -0.0594 -0.0624  1.2113
12535TIP3   OH259019   0.427   5.224   4.648 -0.0471 -0.4069 -0.0595
12535TIP3    H159020   0.471   5.269   4.720 -0.2604 -2.9691  1.7619
12535TIP3    H259021   0.338   5.210   4.680 -0.1922 -1.4101 -0.8965
12536TIP3   OH259022   0.005   0.604   3.175 -0.0217 -0.0494 -0.1319
12536TIP3    H159023  -0.002   0.580   3.267 -0.0234 -0.6221 -0.2810
12536TIP3    H259024  -0.063   0.554   3.131 -1.2080  1.5798 -0.1940
12537TIP3   OH259025   1.604   1.704  14.192 -0.0518  0.2376 -0.2850
12537TIP3    H159026   1.687   1.674  14.229 -0.0329  0.4150 -0.1827
12537TIP3    H259027   1.565   1.626  14.153 -1.7625 -0.7649  3.2501
12538TIP3   OH259028   3.483   3.832  12.269 -0.1901  0.5710  0.1897
12538TIP3    H159029   3.393   3.821  12.299 -0.3440  1.6137  0.1280
12538TIP3    H259030   3.531   3.760  12.311 -0.3273  2.1741  3.2516
12539TIP3   OH259031   4.378   4.142  14.432 -0.4858 -0.1276 -0.0322
12539TIP3    H159032   4.332   4.095  14.502 -1.5333  2.0011  0.7511
12539TIP3    H259033   4.403   4.073  14.370  0.3204 -2.0452  2.3257
12540TIP3   OH259034   1.667   4.663   1.496  0.1113 -0.3314  0.7126
12540TIP3    H159035   1.659   4.730   1.429 -0.5609 -0.8075  0.3122
12540TIP3    H259036   1.657   4.580   1.449 -0.9201 -0.6495  1.4797
12541TIP3   OH259037   4.157   2.230  13.715 -0.6384  0.1899  0.6183
12541TIP3    H159038   4.227   2.281  13.757 -1.1835  0.7244  0.8810
12541TIP3    H259039   4.130   2.283  13.640 -1.3552  0.3969  1.0198
12542TIP3   OH259040   1.612   2.232   2.750  0.2544 -0.4274 -0.4609
12542TIP3    H159041   1.637   2.251   2.659 -1.1186 -1.0406 -0.9872
12542TIP3    H259042   1.520   2.258   2.755  0.1752 -0.9009  0.6054
12543TIP3   OH259043   5.323   5.989  13.461  0.7882 -0.2458 -0.1647
12543TIP3    H159044   5.393   6.036  13.506 -0.7930  2.1593 -0.1567
12543TIP3    H259045   5.368   5.927  13.404  2.9419  1.9290 -0.8937
12544TIP3   OH259046   1.382   4.873   3.990 -0.2511 -0.2362 -0.5180
12544TIP3    H159047   1.413   4.959   3.961  2.0323 -0.4232  1.1754
12544TIP3    H259048   1.340   4.835   3.913  0.5271  1.5818 -1.8773
12545TIP3   OH259049   2.276   0.073  12.094 -0.1034  0.1759  0.9636
12545TIP3    H159050   2.342   0.137  12.119 -0.8708  1.2574  0.2713
12545TIP3    H259051   2.326  -0.007  12.077  1.4426  1.6982 -2.3297
12546TIP3   OH259052   6.413   3.110  10.918  0.3293 -0.5237 -0.3868
12546TIP3    H159053   6.508   3.111  10.915  0.3664  0.0390  0.6670
12546TIP3    H259054   6.387   3.040  10.858  1.4864 -2.0742  0.8788
12547TIP3   OH259055   0.549   3.523   1.058  0.4302 -0.4365 -0.1818
12547TIP3    H159056   0.498   3.566   1.127  2.5105  0.2881  0.9764
12547TIP3    H259057   0.583   3.596   1.005 -0.1618 -0.9282 -1.2396
12548TIP3   OH259058   1.293   4.555  12.596 -0.0522  0.0525  0.3066
12548TIP3    H159059   1.214   4.513  12.563 -0.0142  0.8320 -0.8159
12548TIP3    H259060   1.260   4.628  12.649 -0.0960  0.8123 -0.7450
12549TIP3   OH259061   6.524   0.762   4.432  0.0762 -0.0721  0.0425
12549TIP3    H159062   6.488   0.800   4.512 -1.2778 -0.1370 -0.5286
12549TIP3    H259063   6.592   0.824   4.405  0.1625  0.2305  0.9264
12550TIP3   OH259064   2.832   0.782  14.408 -0.0882 -0.7865  0.5640
12550TIP3    H159065   2.797   0.721  14.473  1.8201  0.5916  3.0046
12550TIP3    H259066   2.912   0.740  14.377  1.8891  0.9359  3.1563
12551TIP3   OH259067   5.362   0.965  12.878 -0.0508 -0.6242  0.4009
12551TIP3    H159068   5.409   1.000  12.803 -2.6621  1.3309 -0.3833
12551TIP3    H259069   5.330   0.879  12.849 -0.1236 -0.3469 -0.3224
12552TIP3   OH259070   6.661   6.206  14.058  0.0908  0.4310 -0.0373
12552TIP3    H159071   6.662   6.118  14.022  0.7015  0.7744 -0.8843
12552TIP3    H259072   6.576   6.242  14.032  0.0710  0.2879 -0.1699
12553TIP3   OH259073   2.122   1.698  11.459  0.1204  0.2732  0.4555
12553TIP3    H159074   2.210   1.734  11.452  0.1593 -0.1104 -1.2884
12553TIP3    H259075   2.088   1.701  11.370 -0.9540 -1.3004  0.7933
12554TIP3   OH259076   6.241   4.334  13.334 -0.3163 -0.1944  0.0979
12554TIP3    H159077   6.286   4.273  13.393 -0.5303  0.4103  0.8937
12554TIP3    H259078   6.149   4.326  13.357 -0.2733  0.9348  0.6929
12555TIP3   OH259079   1.504   5.056   2.874  0.5627 -0.3271 -0.5188
12555TIP3    H159080   1.495   4.961   2.865 -0.1423 -0.2728 -0.4683
12555TIP3    H259081   1.435   5.091   2.817  0.3877  0.1460 -0.0137
12556TIP3   OH259082   6.071   1.721   3.528  0.2511 -0.6207 -0.6862
12556TIP3    H159083   6.124   1.780   3.474  0.6559  0.1648  0.5438
12556TIP3    H259084   6.126   1.645   3.542  0.3895 -0.5487 -0.8307
12557TIP3   OH259085   2.545   4.553   0.001  0.2557  0.0746 -0.2109
12557TIP3    H159086   2.473   4.563   0.064  0.9578  0.6654  0.5133
12557TIP3    H259087   2.624   4.566   0.054  0.8856 -0.4716 -1.0186
12558TIP3   OH259088   4.368   1.608  14.948  0.4586 -0.0993 -0.1958
12558TIP3    H159089   4.303   1.545  14.980  0.7638  0.0392  0.7154
12558TIP3    H259090   4.404   1.567  14.870 -1.1837  0.1132 -1.0968
12559TIP3   OH259091   5.776   0.957   1.592  0.2795 -0.3211 -1.2629
12559TIP3    H159092   5.851   0.929   1.540  0.3718  0.1082 -1.3620
12559TIP3    H259093   5.794   0.924   1.680 -0.8329 -2.7935 -1.9319
12560TIP3   OH259094   4.161   1.047   5.686  0.4564  0.5537  0.0401
12560TIP3    H159095   4.170   1.127   5.634 -0.5071  0.0103 -0.9813
12560TIP3    H259096   4.086   1.002   5.648  1.9589 -1.6233 -0.4056
12561TIP3   OH259097   6.043   1.345   5.159  0.1183 -0.3615  0.1670
12561TIP3    H159098   6.137   1.338   5.139 -0.2600  1.2676 -2.4224
12561TIP3    H259099   6.001   1.284   5.099 -0.6951  1.1134 -0.7897
12562TIP3   OH259100   5.156   2.092  12.718 -0.2702  0.2706  0.0766
12562TIP3    H159101   5.153   2.124  12.627 -0.0557 -0.2643 -0.1214
12562TIP3    H259102   5.243   2.117  12.749  1.0040 -2.6015 -1.0109
12563TIP3   OH259103   1.500   0.015  14.353 -0.4566 -0.0146 -0.5336
12563TIP3    H159104   1.469   0.042  14.267  0.3992  1.9504 -0.2536
12563TIP3    H259105   1.594   0.032  14.352  0.1291 -2.9476 -0.2804
12564TIP3   OH259106   1.273   5.160  15.921 -0.2106  0.3789 -0.0472
12564TIP3    H159107   1.336   5.171  15.992  1.3342 -1.2327 -1.1263
12564TIP3    H259108   1.278   5.067  15.899 -2.3708  0.3885 -0.7241
12565TIP3   OH259109   4.782   1.581  15.110  0.0908  0.1764 -0.4949
12565TIP3    H159110   4.687   1.592  15.117 -0.1352 -1.5078 -0.7693
12565TIP3    H259111   4.803   1.606  15.020 -0.0155  0.9674 -0.3082
12566TIP3   OH259112   0.305   0.151   0.528 -0.0892 -0.0182 -0.3280
12566TIP3    H159113   0.355   0.171   0.607  1.7440  3.2976 -2.2168
12566TIP3    H259114   0.223   0.200   0.539  0.2773  0.6593 -0.5899
12567TIP3   OH259115   3.007   2.778   0.617 -0.2016  0.6423 -0.0557
12567TIP3    H159116   3.002   2.783   0.522 -0.4780  2.7755  0.0538
12567TIP3    H259117   3.080   2.835   0.640 -1.2238  1.4826  1.1375
12568TIP3   OH259118   3.933   5.926   5.496  0.4579  0.4008  0.0369
12568TIP3    H159119   3.996   5.854   5.502 -2.1449 -1.9414  0.3941
12568TIP3    H259120   3.912   5.931   5.403  1.4108  1.4375 -0.1355
12569TIP3   OH259121   6.074   2.365  13.576 -0.2650  0.0079 -0.1424
12569TIP3    H159122   6.135   2.395  13.643  0.4516 -0.8223 -0.4299
12569TIP3    H259123   6.001   2.328  13.625  1.4538 -3.0624  0.1918
12570TIP3   OH259124   1.130   3.441  13.535  0.1456  0.4781  0.8834
12570TIP3    H159125   1.218   3.404  13.528  1.1475  2.2054  3.3739
12570TIP3    H259126   1.072   3.365  13.536  1.6792 -0.7298  0.0867
12571TIP3   OH259127   6.324   3.437   4.040 -0.2609 -0.3363 -0.0890
12571TIP3    H159128   6.304   3.526   4.068 -1.6874 -1.2857  2.1383
12571TIP3    H259129   6.275   3.426   3.959  0.2845  1.0406 -0.6189
12572TIP3   OH259130   6.475   3.678   4.929 -0.5551 -0.2994 -0.3907
12572TIP3    H159131   6.410   3.675   5.000 -1.8037  0.3119 -1.4811
12572TIP3    H259132   6.427   3.650   4.852  0.1403  1.3711 -1.4624
12573TIP3   OH259133   1.458   2.796   0.479 -0.2828  0.0595 -0.1445
12573TIP3    H159134   1.523   2.859   0.509 -1.3667  0.7008  0.8757
12573TIP3    H259135   1.429   2.829   0.394  0.2520  0.1051 -0.3126
12574TIP3   OH259136   1.677   6.164   1.580 -0.3595  0.4690  0.7600
12574TIP3    H159137   1.670   6.215   1.499  0.5562 -0.0795  0.3294
12574TIP3    H259138   1.588   6.161   1.614 -0.9978 -0.4690 -0.9386
12575TIP3   OH259139   4.393   4.737  11.366 -0.8415  0.2036 -0.3931
12575TIP3    H159140   4.432   4.650  11.363  0.2392  0.6715 -0.1775
12575TIP3    H259141   4.318   4.728  11.425 -0.8187 -0.6166 -0.4929
12576TIP3   OH259142   3.943   0.883   3.804  0.4280  0.0742 -0.3551
12576TIP3    H159143   3.954   0.943   3.730 -0.3830  2.1096  1.1745
12576TIP3    H259144   3.970   0.933   3.881 -2.0649 -0.8588  1.1836
12577TIP3   OH259145   6.038   1.585  13.451 -0.5459  0.1458 -0.0773
12577TIP3    H159146   6.132   1.595  13.435 -0.0051 -1.6563  1.8475
12577TIP3    H259147   6.024   1.624  13.537 -0.9329 -2.5587  1.1205
12578TIP3   OH259148   4.999   4.998  13.550  0.3310  0.1620  0.4468
12578TIP3    H159149   4.940   5.062  13.511  0.8288  0.5041  0.2463
12578TIP3    H259150   5.077   5.049  13.575 -0.2846  0.1039  2.6011
12579TIP3   OH259151   1.788   6.622  15.708  1.3086 -0.1897 -0.4664
12579TIP3    H159152   1.709   6.667  15.678  0.4049  0.7191  3.0894
12579TIP3    H259153   1.759   6.533  15.726  1.2481 -0.0331  0.2083
12580TIP3   OH259154   6.504   6.179  14.349  0.1268 -0.3394  0.1678
12580TIP3    H159155   6.574   6.237  14.321 -0.6827  0.2238 -0.6826
12580TIP3    H259156   6.424   6.229  14.337 -0.4552 -1.0677  0.9020
12581TIP3   OH259157   3.873   6.462   1.431 -0.0642 -0.1768 -0.0569
12581TIP3    H159158   3.861   6.368   1.443 -1.6892 -0.1214 -1.0819
12581TIP3    H259159   3.809   6.502   1.490 -0.4712  0.2673 -0.8005
12582TIP3   OH259160   5.567   2.890   1.009  0.1732 -0.3692 -0.1045
12582TIP3    H159161   5.542   2.978   1.037 -0.7786 -1.5030  2.8093
12582TIP3    H259162   5.505   2.868   0.940  0.0572  1.0018 -0.4586
12583TIP3   OH259163   4.091   5.163  14.373  0.4109 -0.0236  0.3385
12583TIP3    H159164   4.027   5.171  14.302  1.1448 -0.1528 -0.3468
12583TIP3    H259165   4.069   5.234  14.434  0.1929  0.5137 -0.3611
12584TIP3   OH259166   0.158   0.562  11.945  0.6008 -0.0344 -0.1228
12584TIP3    H159167   0.073   0.527  11.918 -1.4923  2.1776  3.1210
12584TIP3    H259168   0.166   0.645  11.897  0.8588 -0.1647 -0.3049
12585TIP3   OH259169   1.406   3.501  14.527 -0.2800 -0.2892  0.3847
12585TIP3    H159170   1.359   3.421  14.550 -0.2075  0.4237  3.0965
12585TIP3    H259171   1.497   3.474  14.517 -0.5669 -0.8911 -0.7500
12586TIP3   OH259172   6.363   4.765  10.591  0.3551  0.5199 -0.1565
12586TIP3    H159173   6.369   4.839  10.530 -0.3754 -0.9014 -1.9862
12586TIP3    H259174   6.330   4.693  10.538  0.5462 -0.9923  1.7413
12587TIP3   OH259175   3.006   4.711   0.621  0.1550 -0.2105  0.4404
12587TIP3    H159176   2.996   4.782   0.684 -0.7421 -0.5234  0.6521
12587TIP3    H259177   2.947   4.642   0.653  2.4669 -1.8310  1.3476
12588TIP3   OH259178   3.068   2.499  13.425  0.2522  0.1706  0.0920
12588TIP3    H159179   3.103   2.587  13.441  0.5844  0.1492 -0.5171
12588TIP3    H259180   3.094   2.449  13.503  2.9571 -0.2467 -1.0209
12589TIP3   OH259181   4.066   5.239  11.659 -0.2307 -0.1627  0.6250
12589TIP3    H159182   4.109   5.265  11.741  0.6956 -1.5561  0.6039
12589TIP3    H259183   4.015   5.162  11.683 -3.9255  2.2887  0.9731
12590TIP3   OH259184   4.719   3.985  13.107  0.7308  0.2329 -0.5241
12590TIP3    H159185   4.749   4.022  13.190 -0.7959  1.0913 -0.3459
12590TIP3    H259186   4.693   3.895  13.129 -0.6867  0.7978  0.1616
12591TIP3   OH259187   3.991   1.620   5.758  0.1605 -0.4749  0.5464
12591TIP3    H159188   4.041   1.694   5.723  1.9771 -1.9889 -0.1385
12591TIP3    H259189   4.004   1.625   5.853  1.5547 -0.8117  0.3791
12592TIP3   OH259190   5.695   4.982   3.262  0.0181 -0.4270 -0.9869
12592TIP3    H159191   5.759   5.019   3.322 -1.3056 -0.7143  0.6467
12592TIP3    H259192   5.613   5.026   3.285 -0.3852 -0.0588 -3.0360
12593TIP3   OH259193   2.184   6.720  15.916  0.2035  0.5801  0.6292
12593TIP3    H159194   2.150   6.794  15.967 -0.0004  0.9203  0.0145
12593TIP3    H259195   2.279   6.729  15.920  0.1769  1.1182  0.2282
12594TIP3   OH259196   3.583   1.825   1.672 -0.1077  0.4953  0.6567
12594TIP3    H159197   3.516   1.768   1.636 -0.5155  1.1694  0.3388
12594TIP3    H259198   3.660   1.810   1.616 -0.7848  1.6579 -0.6042
12595TIP3   OH259199   1.212   0.534  14.347 -0.2392 -0.3780 -0.2046
12595TIP3    H159200   1.192   0.553  14.255  0.4804  1.2258 -0.0594
12595TIP3    H259201   1.135   0.565  14.394  0.1228  0.4395 -0.1333
12596TIP3   OH259202   4.668   5.111  16.207  0.0250  0.0805  0.2707
12596TIP3    H159203   4.661   5.016  16.211 -0.6258  0.0747 -0.7443
12596TIP3    H259204   4.756   5.130  16.240  0.7981 -1.0064 -1.0840
12597TIP3   OH259205   0.248   6.677  13.905 -0.3093  0.2022 -0.3927
12597TIP3    H159206   0.334   6.638  13.893 -0.3712 -0.4449  1.1970
12597TIP3    H259207   0.187   6.604  13.900 -0.8146  0.6900 -1.7844
12598TIP3   OH259208   5.379   0.227  13.570  0.1255 -0.0597  0.3734
12598TIP3    H159209   5.472   0.208  13.559  0.1528  0.9856 -1.3966
12598TIP3    H259210   5.357   0.193  13.656  1.5511 -2.6048 -0.2459
12599TIP3   OH259211   2.306   5.588  12.251 -0.2129  0.2106 -0.7943
12599TIP3    H159212   2.332   5.576  12.160  0.8806  2.3493 -0.7859
12599TIP3    H259213   2.367   5.653  12.285  0.7714 -2.0906  2.0770
12600TIP3   OH259214   6.337   4.604  14.592 -0.8196 -0.0513  0.0479
12600TIP3    H159215   6.403   4.562  14.537 -1.2611 -0.8798  0.1406
12600TIP3    H259216   6.383   4.677  14.633  0.5676 -1.7425  1.6147
12601TIP3   OH259217   1.510   2.796  12.338  0.2474 -0.0777 -0.2329
12601TIP3    H159218   1.553   2.738  12.402  1.4146  0.7348 -0.2567
12601TIP3    H259219   1.424   2.757  12.325 -0.1446 -0.1004  2.0813
12602TIP3   OH259220   6.257   6.487   4.409 -0.0674 -0.2398  0.3158
12602TIP3    H159221   6.294   6.465   4.494 -0.4621 -1.3486  0.2070
12602TIP3    H259222   6.213   6.571   4.423 -0.4340 -0.5867  1.2910
12603TIP3   OH259223   1.019   4.264   6.059  0.0886  0.1005  0.1754
12603TIP3    H159224   1.011   4.170   6.079 -1.2772 -0.1709 -1.5877
12603TIP3    H259225   1.044   4.303   6.143  0.3824 -1.7967  1.0139
12604TIP3   OH259226   0.868   5.214   6.431 -0.7930  0.2616 -0.2281
12604TIP3    H159227   0.851   5.301   6.468  0.8418  1.4643 -2.1957
12604TIP3    H259228   0.789   5.163   6.451 -2.2014  2.4966  0.0342
12605TIP3   OH259229   4.009   0.596  10.814 -0.2297 -0.0724  0.2359
12605TIP3    H159230   4.075   0.527  10.808 -0.7025 -0.4597 -0.6098
12605TIP3    H259231   3.991   0.604  10.907 -1.6568 -2.5162  0.1910
12606TIP3   OH259232   3.905   5.241   4.274 -0.0188 -0.0924 -0.7125
12606TIP3    H159233   3.904   5.333   4.299  1.1707 -0.2204 -0.1295
12606TIP3    H259234   3.966   5.237   4.200  0.0945 -0.4317 -0.6051
12607TIP3   OH259235   1.139   1.138  16.171 -0.1263 -0.0035  0.2166
12607TIP3    H159236   1.051   1.173  16.182 -0.4472 -1.1547  1.4529
12607TIP3    H259237   1.167   1.115  16.260  1.1259 -0.3489 -0.2482
12608TIP3   OH259238   2.046   6.679   3.545  0.7406  0.1638  0.6699
12608TIP3    H159239   1.958   6.679   3.507  0.9807  0.6749  0.1115
12608TIP3    H259240   2.032   6.659   3.637 -0.1574  2.1935  1.0040
12609TIP3   OH259241   0.878   0.317   1.110  0.8694  0.2282  0.3185
12609TIP3    H159242   0.878   0.343   1.018  0.8167  1.9866  0.7846
12609TIP3    H259243   0.946   0.250   1.117  2.0041  1.2551 -0.6864
12610TIP3   OH259244   5.490   6.373  13.613 -0.0019 -0.4508 -0.5340
12610TIP3    H159245   5.556   6.305  13.597 -0.3199 -1.0846  0.7409
12610TIP3    H259246   5.488   6.424  13.532  2.7900  0.2159 -0.2317
12611TIP3   OH259247   2.144   6.459   0.833  0.6224  0.5034  0.2515
12611TIP3    H159248   2.143   6.381   0.889 -0.6665  0.6272  0.4288
12611TIP3    H259249   2.225   6.505   0.857  1.9866 -1.3494 -0.6908
12612TIP3   OH259250   6.314   4.968  13.435  0.3542  0.2189 -0.1435
12612TIP3    H159251   6.409   4.973  13.440  0.4252  0.9855 -1.8803
12612TIP3    H259252   6.284   4.986  13.524  1.8943 -2.4262  0.9490
12613TIP3   OH259253   6.114   6.696  16.296  0.6311  0.0221 -0.0844
12613TIP3    H159254   6.064   6.711  16.216  2.0165 -0.2951 -1.0296
12613TIP3    H259255   6.127   6.601  16.299 -0.9362 -0.1628  1.4633
12614TIP3   OH259256   1.260   4.741   2.461 -0.3001 -0.4938  0.0686
12614TIP3    H159257   1.266   4.656   2.418  0.4336 -0.4652  0.1171
12614TIP3    H259258   1.250   4.720   2.554  3.6424 -0.5258  0.5784
12615TIP3   OH259259   1.923   1.913  16.692  1.0875  0.1032 -0.2741
12615TIP3    H159260   1.882   1.994  16.722  1.2840 -0.4263  1.4823
12615TIP3    H259261   1.928   1.922  16.597 -1.6051  0.8631 -0.3744
12616TIP3   OH259262   2.689   4.128   5.023  0.4459 -0.2979  0.2737
12616TIP3    H159263   2.756   4.124   4.954 -1.5313 -0.6231 -1.7166
12616TIP3    H259264   2.695   4.044   5.067 -0.4703 -1.4684 -1.7345
12617TIP3   OH259265   3.096   2.650   0.102  0.2394 -0.4125  0.4321
12617TIP3    H159266   3.073   2.573   0.154  2.4401 -1.0929  0.4421
12617TIP3    H259267   3.012   2.687   0.076 -0.8657 -1.8134  1.9009
12618TIP3   OH259268   4.571   2.875   0.372  0.3278  0.2776 -0.0422
12618TIP3    H159269   4.662   2.846   0.369  0.7687  1.5816  0.3738
12618TIP3    H259270   4.561   2.913   0.460  0.3990  3.3059 -1.2847
12619TIP3   OH259271   4.538   6.522   0.805 -0.2710 -0.1040 -0.0022
12619TIP3    H159272   4.555   6.500   0.714 -1.3243  0.4472 -0.3394
12619TIP3    H259273   4.619   6.498   0.851 -0.1002 -1.3313 -0.9114
12620TIP3   OH259274   1.681   3.002  14.765  0.2375 -0.0448 -0.0983
12620TIP3    H159275   1.702   2.997  14.672 -0.6010 -0.0209 -0.2879
12620TIP3    H259276   1.588   2.980  14.770  0.1645  0.4319  0.6820
12621TIP3   OH259277   6.559   0.229  14.460  0.3301 -0.2854 -0.2405
12621TIP3    H159278   6.622   0.227  14.388  0.6449 -1.2063  0.0553
12621TIP3    H259279   6.539   0.137  14.478  0.1664 -0.0666  0.7662
12622TIP3   OH259280   2.049   1.627   6.493 -0.2126 -0.2914 -0.0612
12622TIP3    H159281   2.140   1.627   6.465 -0.3799  0.0338 -0.6337
12622TIP3    H259282   1.999   1.628   6.411 -0.7080  1.9835  0.2198
12623TIP3   OH259283   2.500   2.902   5.686  0.4191  0.0056 -0.4129
12623TIP3    H159284   2.419   2.852   5.683 -0.0034  0.7036 -0.7304
12623TIP3    H259285   2.556   2.853   5.746 -0.4173 -0.1982  0.2058
12624TIP3   OH259286   5.543   2.840  13.836  1.0048  0.3341 -0.1969
12624TIP3    H159287   5.631   2.877  13.826  0.2530  1.9506 -0.9244
12624TIP3    H259288   5.524   2.800  13.751  0.6503  0.8502 -0.3628
12625TIP3   OH259289   5.704   0.259   0.762 -0.2367 -0.1272 -0.6080
12625TIP3    H159290   5.752   0.339   0.742  0.9537 -0.4796  0.7372
12625TIP3    H259291   5.746   0.192   0.708 -1.6973  0.2820 -2.2673
12626TIP3   OH259292   3.299   2.026   3.963  0.1986  0.4727 -0.0005
12626TIP3    H159293   3.282   2.078   4.041  1.2796  2.5142 -1.1076
12626TIP3    H259294   3.299   1.935   3.995 -2.7117  1.0227  1.7794
12627TIP3   OH259295   5.086   5.317   3.684  0.2149 -0.4751 -0.2619
12627TIP3    H159296   5.119   5.401   3.716  2.4958 -0.6774 -1.8902
12627TIP3    H259297   5.002   5.338   3.643  0.9674  1.1057 -1.0376
12628TIP3   OH259298   0.217   2.379  14.023  0.5728 -0.4615 -0.0246
12628TIP3    H159299   0.276   2.306  14.007  0.1008 -0.9382  0.3978
12628TIP3    H259300   0.147   2.343  14.078  0.0534  0.1711 -0.2535
12629TIP3   OH259301   0.885   2.373   1.671 -0.0961  0.1962 -0.6960
12629TIP3    H159302   0.867   2.288   1.711  2.0407  0.7031  1.4540
12629TIP3    H259303   0.804   2.423   1.683 -0.2196 -0.4022  1.1010
12630TIP3   OH259304   4.449   0.281  16.795 -0.3137 -0.0781 -0.1821
12630TIP3    H159305   4.407   0.289  16.710 -2.6535  0.6643  1.0084
12630TIP3    H259306   4.382   0.308  16.858  2.0537  1.4138  1.7671
12631TIP3   OH259307   4.993   5.067  15.545 -0.1104 -0.8446  0.1865
12631TIP3    H159308   5.079   5.090  15.580  0.0923 -1.5377  0.1421
12631TIP3    H259309   4.962   4.997  15.601 -0.1951 -1.3162 -0.4458
12632TIP3   OH259310   5.663   5.394  12.198  0.4128 -0.2337  0.1318
12632TIP3    H159311   5.585   5.433  12.158  1.1880  0.8545 -0.3300
12632TIP3    H259312   5.674   5.310  12.154 -0.1414 -0.1150 -0.2289
12633TIP3   OH259313   6.388   2.189   2.941 -0.0536 -0.6482  0.3788
12633TIP3    H159314   6.384   2.122   3.009  0.3971 -0.6241  0.4330
12633TIP3    H259315   6.458   2.248   2.970  0.4279 -0.8734 -0.3150
12634TIP3   OH259316   5.666   2.408   3.861  0.2586  0.4950  0.3809
12634TIP3    H159317   5.619   2.414   3.945 -0.1045  1.9717  0.0888
12634TIP3    H259318   5.604   2.365   3.803  0.4514 -0.3919  0.8268
12635TIP3   OH259319   3.672   6.136  14.524  0.3618  0.3299 -0.0248
12635TIP3    H159320   3.717   6.188  14.591 -1.2076  0.8836  0.6106
12635TIP3    H259321   3.610   6.082  14.573 -0.6543  0.5842 -1.0101
12636TIP3   OH259322   3.829   5.729   3.880 -0.3027  0.3044 -0.6615
12636TIP3    H159323   3.923   5.747   3.886 -0.3841  0.3272  0.7940
12636TIP3    H259324   3.787   5.813   3.900 -0.6329  0.2329 -1.0575
12637TIP3   OH259325   1.138   0.590   3.989  0.5267 -0.0702 -0.6247
12637TIP3    H159326   1.096   0.567   3.907  0.1467  4.7143 -1.9507
12637TIP3    H259327   1.227   0.615   3.965  0.9912 -0.4234  0.6770
12638TIP3   OH259328   6.618   4.461   5.192  0.5093 -0.4561  0.0677
12638TIP3    H159329   6.665   4.541   5.168  1.6796 -0.1477  3.1309
12638TIP3    H259330   6.581   4.481   5.278 -4.0854 -1.2054 -1.6074
12639TIP3   OH259331   5.909   4.243  15.938  0.1774 -0.1957  0.6144
12639TIP3    H159332   5.888   4.289  16.019 -0.9380 -0.5586  0.5307
12639TIP3    H259333   5.920   4.152  15.964  3.1277  0.1872  0.9051
12640TIP3   OH259334   5.827   6.568   3.863 -0.0250  0.0885  0.0070
12640TIP3    H159335   5.806   6.543   3.953 -1.4397  1.2210  0.0073
12640TIP3    H259336   5.750   6.541   3.812  0.2666  0.5229 -0.6744
12641TIP3   OH259337   3.727   6.443   5.823  0.3416 -0.7886 -0.1488
12641TIP3    H159338   3.754   6.530   5.853  0.1854 -0.9094  0.3348
12641TIP3    H259339   3.737   6.447   5.728  0.0396 -0.1376 -0.1570
12642TIP3   OH259340   4.020   6.518  12.965 -0.5281 -0.1598 -1.0721
12642TIP3    H159341   3.928   6.497  12.950 -0.9478 -0.5234  1.6849
12642TIP3    H259342   4.048   6.457  13.034  1.1491  1.3751 -0.3333
12643TIP3   OH259343   2.201   1.889  12.639  0.2196 -0.1880  0.5214
12643TIP3    H159344   2.195   1.924  12.727  0.0945 -1.3468  0.9862
12643TIP3    H259345   2.170   1.959  12.582 -1.9160 -0.2434  1.5745
12644TIP3   OH259346   5.066   6.106  17.187  0.7444  0.6005 -0.3186
12644TIP3    H159347   5.004   6.129  17.118  1.5936  0.5891 -1.0966
12644TIP3    H259348   5.028   6.144  17.267 -1.8486 -2.0632 -0.1946
12645TIP3   OH259349   3.157   4.676   1.495 -0.6575  0.3586 -0.1632
12645TIP3    H159350   3.116   4.605   1.545  0.1707 -0.3941 -0.5266
12645TIP3    H259351   3.120   4.669   1.407  2.4399 -2.2955 -1.3696
12646TIP3   OH259352   0.052   5.041  14.900  0.0304 -0.0337 -0.1829
12646TIP3    H159353   0.088   5.000  14.821 -0.0947  2.7175 -1.7291
12646TIP3    H259354   0.128   5.081  14.942 -0.1487 -0.1889  0.2909
12647TIP3   OH259355   5.033   4.455   3.478  0.7579 -0.1149  0.0088
12647TIP3    H159356   5.059   4.529   3.533 -0.1369 -1.3007  2.0987
12647TIP3    H259357   4.944   4.477   3.450  0.9109  0.1180 -0.2955
12648TIP3   OH259358   2.319   2.923   1.856  0.2866  0.4049 -0.4165
12648TIP3    H159359   2.358   2.837   1.870 -1.3486 -0.2411  0.2260
12648TIP3    H259360   2.349   2.949   1.769  2.1977 -0.0288  0.0839
12649TIP3   OH259361   1.756   4.585   5.817 -0.6502  0.0940  0.4460
12649TIP3    H159362   1.717   4.672   5.813  1.5338  1.0477 -0.9070
12649TIP3    H259363   1.826   4.592   5.882 -0.4287 -0.6525  0.2974
12650TIP3   OH259364   0.120   6.217   6.024  0.0492 -0.2951 -0.8117
12650TIP3    H159365   0.212   6.206   6.000 -0.1916 -0.7207 -1.5321
12650TIP3    H259366   0.116   6.190   6.116  0.5903 -0.5085 -0.8487
12651TIP3   OH259367   4.162   4.957  12.556 -0.8499  0.8299  0.3017
12651TIP3    H159368   4.116   4.890  12.505 -0.2448  1.1693 -0.6875
12651TIP3    H259369   4.124   4.949  12.644 -0.6747 -0.9365  0.2431
12652TIP3   OH259370   0.039   1.102  11.942 -0.0043 -1.0363 -0.1009
12652TIP3    H159371   0.054   1.133  11.853  0.1597  1.3135  0.7172
12652TIP3    H259372   0.127   1.100  11.981 -0.3615  0.5008  0.8081
12653TIP3   OH259373   3.762   4.529   4.905 -0.1163 -0.3674 -0.0304
12653TIP3    H159374   3.759   4.438   4.876 -0.0373 -0.1174 -0.8624
12653TIP3    H259375   3.693   4.537   4.971 -0.5673 -0.8676 -0.4385
12654TIP3   OH259376   2.626   6.370  11.516 -0.6151  0.5934 -0.0871
12654TIP3    H159377   2.649   6.293  11.568 -0.9053  0.1689 -0.5882
12654TIP3    H259378   2.596   6.434  11.581 -0.8496  0.1136  0.2772
12655TIP3   OH259379   1.290   5.351   4.833 -0.1858 -0.1105 -0.7017
12655TIP3    H159380   1.351   5.406   4.783  0.1389  0.2259  0.0645
12655TIP3    H259381   1.249   5.296   4.767  1.3147 -0.6889 -1.1662
12656TIP3   OH259382   6.507   1.755  12.061 -0.4437 -0.4836 -0.4679
12656TIP3    H159383   6.595   1.737  12.027  0.7445  2.8904  0.6318
12656TIP3    H259384   6.486   1.678  12.114  2.0770 -1.1254 -0.3153
12657TIP3   OH259385   0.521   5.685   5.947 -0.2019 -0.0446  0.4194
12657TIP3    H159386   0.466   5.751   5.907  0.5631  0.3201 -0.0525
12657TIP3    H259387   0.480   5.666   6.032 -1.6706 -0.6142 -0.4056
12658TIP3   OH259388   3.436   1.169  14.394 -0.1486 -0.0031 -0.2039
12658TIP3    H159389   3.514   1.129  14.356  0.2493 -0.1568  0.7654
12658TIP3    H259390   3.414   1.114  14.469  0.5340  1.6730  1.2730
12659TIP3   OH259391   2.889   2.105   6.350  0.5707 -0.1738 -0.0845
12659TIP3    H159392   2.887   2.075   6.441 -0.5292 -1.4334 -0.5154
12659TIP3    H259393   2.976   2.078   6.319  0.4847 -0.8317  0.2291
12660TIP3   OH259394   0.799   0.552   6.713 -0.1984 -0.0873 -0.2787
12660TIP3    H159395   0.748   0.603   6.650 -0.0689  3.0224  2.0114
12660TIP3    H259396   0.733   0.507   6.766 -0.4572  0.8768  0.2232
12661TIP3   OH259397   5.684   0.516  12.900  0.0962 -0.6414  0.4223
12661TIP3    H159398   5.762   0.568  12.917  0.1485 -0.5735 -0.0259
12661TIP3    H259399   5.628   0.530  12.977 -0.1680  0.5884  0.0101
12662TIP3   OH259400   5.164   3.371  12.488  0.1362  0.7209  0.2970
12662TIP3    H159401   5.080   3.380  12.533  0.5307  1.2239  0.9560
12662TIP3    H259402   5.141   3.358  12.396 -0.6725  0.3010  0.5526
12663TIP3   OH259403   5.200   2.751   1.597 -0.2950 -0.1649  0.2692
12663TIP3    H159404   5.141   2.770   1.671 -1.5893 -1.0205 -0.5217
12663TIP3    H259405   5.259   2.683   1.631 -0.4831 -0.1083  0.7201
12664TIP3   OH259406   3.627   1.667   5.109  0.6728 -0.2431 -0.0179
12664TIP3    H159407   3.723   1.657   5.111  0.7148  0.2283  1.1519
12664TIP3    H259408   3.611   1.732   5.041  1.4614  2.0760  1.9148
12665TIP3   OH259409   3.144   4.413   4.851  0.1285 -0.2926  0.3076
12665TIP3    H159410   3.195   4.410   4.770  1.2546  1.5481  0.8963
12665TIP3    H259411   3.053   4.419   4.821  0.4370 -0.9727 -0.8076
12666TIP3   OH259412   5.327   3.968   4.977 -0.0508 -0.2208 -0.3080
12666TIP3    H159413   5.280   3.888   5.002  0.4673  0.0471  1.6315
12666TIP3    H259414   5.306   4.031   5.046  0.7351  0.8507 -1.0247
12667TIP3   OH259415   1.873   3.893   5.418  0.0090  0.2150  0.2494
12667TIP3    H159416   1.872   3.987   5.400 -0.5034 -0.0363 -1.0497
12667TIP3    H259417   1.964   3.867   5.402  0.0176  0.3798  0.0324
12668TIP3   OH259418   2.668   4.419  11.722  0.1405 -0.6525 -0.2993
12668TIP3    H159419   2.671   4.360  11.648 -1.0546 -0.1497 -0.7559
12668TIP3    H259420   2.758   4.422  11.754  0.0737 -3.3336  0.2366
12669TIP3   OH259421   4.540   4.868  13.972 -0.2527  0.1030  0.5753
12669TIP3    H159422   4.504   4.785  13.943 -1.0156  0.5170  0.3469
12669TIP3    H259423   4.466   4.915  14.011  0.1729  0.6714  0.7114
12670TIP3   OH259424   0.469   1.950  15.602 -0.1570 -0.4040  0.1663
12670TIP3    H159425   0.502   1.879  15.656 -0.3075 -0.5907  0.0149
12670TIP3    H259426   0.494   2.030  15.649 -0.2693 -0.5632  0.4964
12671TIP3   OH259427   2.077   5.246  16.960 -0.2754  0.0985  0.2593
12671TIP3    H159428   2.036   5.293  16.887  0.8610  1.0034  0.2023
12671TIP3    H259429   2.138   5.185  16.918  0.4540  0.6902  0.4545
12672TIP3   OH259430   2.894   6.310   3.781 -0.8177  0.2449  0.0977
12672TIP3    H159431   2.811   6.339   3.743 -1.3953 -0.7957  0.5367
12672TIP3    H259432   2.916   6.231   3.731  0.3136  0.9584 -0.5434
12673TIP3   OH259433   1.146   2.284   2.293 -0.3604  0.9204 -0.2807
12673TIP3    H159434   1.101   2.203   2.319  1.9825 -0.1960  0.3937
12673TIP3    H259435   1.187   2.263   2.210  1.8275  0.7723  0.7926
12674TIP3   OH259436   5.445   1.822  13.964  0.3950  0.4968  0.5115
12674TIP3    H159437   5.376   1.838  13.899 -1.6662 -0.8148  2.3114
12674TIP3    H259438   5.519   1.791  13.912 -0.2662  2.1454 -1.4989
12675TIP3   OH259439   3.743   0.978   4.876  0.6246  0.2161  1.0771
12675TIP3    H159440   3.758   0.974   4.970 -1.1205  0.9805  1.4074
12675TIP3    H259441   3.659   0.934   4.863  0.2467  1.2164  0.0365
12676TIP3   OH259442   5.719   5.845   2.407  0.1557 -0.1023  0.5173
12676TIP3    H159443   5.740   5.849   2.314  1.1929 -4.3621  0.4629
12676TIP3    H259444   5.624   5.845   2.411  0.1002 -0.9531 -0.6415
12677TIP3   OH259445   5.336   1.549   6.458  0.7740 -0.4075  0.5529
12677TIP3    H159446   5.301   1.608   6.526 -2.7217 -0.5333 -1.0160
12677TIP3    H259447   5.396   1.603   6.408 -1.2803  1.5006  0.0481
12678TIP3   OH259448   5.023   4.033   6.185  0.0769  0.2387  0.2408
12678TIP3    H159449   5.025   3.962   6.120 -1.4503 -0.3836  0.8507
12678TIP3    H259450   5.024   4.113   6.133 -0.1268 -0.2460 -0.5175
12679TIP3   OH259451   4.484   2.116   1.657 -0.0867  0.6042 -0.2554
12679TIP3    H159452   4.494   2.209   1.677 -0.4756  0.4292  0.7600
12679TIP3    H259453   4.463   2.075   1.741  0.2497 -0.4298 -0.6661
12680TIP3   OH259454   4.845   0.927  10.564  0.2610 -0.3835  0.3838
12680TIP3    H159455   4.905   0.892  10.498 -1.1755 -0.3658 -0.9483
12680TIP3    H259456   4.882   1.013  10.586  1.1774 -0.7187  0.1926
12681TIP3   OH259457   4.022   2.043  14.342 -0.1458 -0.0490  0.5572
12681TIP3    H159458   4.029   1.953  14.309 -2.0804 -1.2927  3.2897
12681TIP3    H259459   3.962   2.086  14.281  2.5371  0.1227 -2.0791
12682TIP3   OH259460   1.120   0.461  11.815 -0.1591 -0.3521 -0.6593
12682TIP3    H159461   1.083   0.446  11.728 -1.2209 -0.7405 -0.1480
12682TIP3    H259462   1.076   0.397  11.871 -0.9087  1.1736  0.5377
12683TIP3   OH259463   4.122   0.637  14.237 -0.3820 -0.2651 -0.2468
12683TIP3    H159464   4.214   0.612  14.243 -0.8761 -2.2617 -0.4564
12683TIP3    H259465   4.115   0.686  14.156  0.5692  0.2141 -0.0373
12684TIP3   OH259466   4.386   0.565  14.204  0.5687 -0.1234  0.4399
12684TIP3    H159467   4.419   0.490  14.253  1.6601 -0.1825 -0.3942
12684TIP3    H259468   4.369   0.532  14.116 -0.1841  0.2979  0.4140
12685TIP3   OH259469   1.615   3.880  13.101  0.3250  0.0706 -0.1413
12685TIP3    H159470   1.548   3.947  13.094 -0.1655 -0.5928 -2.2199
12685TIP3    H259471   1.607   3.830  13.020  2.1170 -1.1508  0.4081
12686TIP3   OH259472   4.072   4.101  13.303 -0.3772  0.2596 -0.1746
12686TIP3    H159473   4.153   4.089  13.255 -1.1974 -0.6996 -1.3323
12686TIP3    H259474   4.008   4.047  13.257 -1.2490 -0.4722  1.8265
12687TIP3   OH259475   1.669   0.237  11.910  0.1981  0.2932  0.6212
12687TIP3    H159476   1.662   0.142  11.923  0.7673 -0.0494 -1.3792
12687TIP3    H259477   1.739   0.264  11.969  1.3229 -0.8666 -0.1202
12688TIP3   OH259478   2.248   0.655  16.500  0.7652 -0.1287  0.2705
12688TIP3    H159479   2.249   0.560  16.508 -1.3689 -0.2732 -0.7976
12688TIP3    H259480   2.183   0.673  16.431  0.8221  2.1084  0.7453
12689TIP3   OH259481   5.473   5.298  11.211 -0.2626 -0.3945 -0.3251
12689TIP3    H159482   5.443   5.289  11.120  0.3156  1.7966 -0.7847
12689TIP3    H259483   5.393   5.293  11.263 -0.6047 -1.6325 -0.9566
12690TIP3   OH259484   4.859   1.029   2.689 -0.2355  0.8124  0.4544
12690TIP3    H159485   4.838   0.999   2.600  1.9554  1.4184 -0.2960
12690TIP3    H259486   4.938   0.980   2.712  0.3197  2.0808  1.2909
12691TIP3   OH259487   4.832   6.084   5.313 -0.4353 -0.2146 -0.6725
12691TIP3    H159488   4.839   5.992   5.339 -1.3093 -0.6942 -2.1254
12691TIP3    H259489   4.745   6.111   5.343 -0.1628  0.1640 -0.2044
12692TIP3   OH259490   2.039   2.088  17.007  0.1078  0.2003  0.0699
12692TIP3    H159491   2.040   2.155  16.939 -0.3922  0.4300  0.2901
12692TIP3    H259492   1.956   2.042  16.994 -0.0826  0.3772  0.6528
12693TIP3   OH259493   0.500   3.096   5.217  1.0100 -0.5413  0.0607
12693TIP3    H159494   0.585   3.074   5.181  0.0460 -1.3381 -1.8263
12693TIP3    H259495   0.457   3.012   5.233  0.5514 -0.1535  0.9484
12694TIP3   OH259496   1.593   0.587   1.388  0.4170 -0.4668 -0.0710
12694TIP3    H159497   1.533   0.659   1.367  1.4560  0.1800 -0.8315
12694TIP3    H259498   1.567   0.560   1.476  0.7215  1.5741  0.6829
12695TIP3   OH259499   4.027   0.805  12.978  0.2591  0.8502 -0.2026
12695TIP3    H159500   4.089   0.733  12.966  0.4956  1.0565 -0.2305
12695TIP3    H259501   3.942   0.763  12.989  0.7047  0.4789  2.0324
12696TIP3   OH259502   3.784   5.240   5.416  0.2213  0.0665  0.2721
12696TIP3    H159503   3.733   5.159   5.414  1.1380 -0.4956 -1.4994
12696TIP3    H259504   3.784   5.271   5.325  1.4555  1.0374  0.5877
12697TIP3   OH259505   6.782   5.289  10.819 -0.2745  0.1794 -0.3214
12697TIP3    H159506   6.774   5.212  10.876  2.9955  0.8467  1.1954
12697TIP3    H259507   6.709   5.282  10.758 -1.0656 -3.1755  0.9024
12698TIP3   OH259508   6.211   4.822   0.261 -0.1924  0.2458  0.0570
12698TIP3    H159509   6.120   4.841   0.238  0.2656  0.5037 -1.6129
12698TIP3    H259510   6.261   4.893   0.220  0.7571  0.1536  1.0381
12699TIP3   OH259511   1.043   6.582   4.851 -0.7644 -0.4052 -0.7766
12699TIP3    H159512   1.123   6.615   4.893 -1.3365 -1.7435  1.4787
12699TIP3    H259513   0.985   6.658   4.845 -1.3086 -0.4767  2.4886
12700TIP3   OH259514   4.192   1.575   5.298  0.2392 -0.5507 -0.0628
12700TIP3    H159515   4.266   1.516   5.301  0.5994 -0.1471 -0.8342
12700TIP3    H259516   4.115   1.518   5.305  0.6211 -0.9694  0.6956
12701TIP3   OH259517   2.745   2.072   5.651 -0.7044  0.1971 -0.3020
12701TIP3    H159518   2.805   2.035   5.716 -0.5827 -1.6873 -1.4704
12701TIP3    H259519   2.781   2.159   5.633  0.9255 -0.3899 -0.0031
12702TIP3   OH259520   2.876   2.050   5.283  0.3852  0.0576  0.4144
12702TIP3    H159521   2.951   2.026   5.228 -0.2096  0.6597 -0.6562
12702TIP3    H259522   2.819   1.974   5.280  0.1754  0.2306 -0.1200
12703TIP3   OH259523   3.801   0.662   1.232 -0.5541  0.2405 -0.2643
12703TIP3    H159524   3.857   0.591   1.263 -2.1419 -1.0711 -0.3419
12703TIP3    H259525   3.742   0.620   1.170 -1.0235  1.7887 -0.8721
12704TIP3   OH259526   0.442   1.562  11.621 -0.1092  0.5508 -0.5712
12704TIP3    H159527   0.415   1.601  11.704 -1.2413  1.2551 -1.2543
12704TIP3    H259528   0.439   1.633  11.558  2.0839  0.3213 -0.9591
12705TIP3   OH259529   4.360   3.154   5.401  0.0668 -0.1627  0.2262
12705TIP3    H159530   4.441   3.128   5.443 -0.1861 -2.6146 -0.7599
12705TIP3    H259531   4.297   3.087   5.427 -1.2692  0.8685 -0.2918
12706TIP3   OH259532   0.118   4.756   0.449  0.0172 -0.0827  0.2810
12706TIP3    H159533   0.200   4.780   0.406  0.6885  0.8652  2.0499
12706TIP3    H259534   0.051   4.805   0.402  0.3271 -1.5718 -1.7787
12707TIP3   OH259535   3.614   6.635   2.848 -0.5238  0.4076 -0.1457
12707TIP3    H159536   3.651   6.547   2.850 -1.4632 -0.0078 -0.6346
12707TIP3    H259537   3.593   6.654   2.940 -1.1882 -0.2509 -0.1626
12708TIP3   OH259538   6.386   1.765  10.914 -0.2305  0.2352 -0.0649
12708TIP3    H159539   6.471   1.720  10.922  0.3432  1.3033  0.0048
12708TIP3    H259540   6.337   1.714  10.850  0.8000  0.0885 -0.7548
12709TIP3   OH259541   3.972   3.907   3.002  0.3271  0.0574 -0.8959
12709TIP3    H159542   3.973   3.937   2.911  0.9628 -0.2687 -1.0034
12709TIP3    H259543   4.002   3.982   3.053  1.6269 -0.2831 -1.1340
12710TIP3   OH259544   0.043   1.273   2.935 -0.1044 -0.2943  0.4562
12710TIP3    H159545   0.121   1.236   2.894 -0.3320  0.9087 -1.0666
12710TIP3    H259546   0.077   1.334   3.000  0.2201  0.2172 -0.1958
12711TIP3   OH259547   3.903   5.650  16.061 -0.6107  0.1411  0.4242
12711TIP3    H159548   3.992   5.629  16.089 -0.1827 -0.5879 -1.4208
12711TIP3    H259549   3.907   5.743  16.038  0.5404 -0.6651 -2.8124
12712TIP3   OH259550   2.344   5.239   5.523  0.2827 -0.0542  0.0743
12712TIP3    H159551   2.323   5.186   5.599 -0.2922  0.3857  0.2268
12712TIP3    H259552   2.260   5.277   5.496  0.4712 -0.2697 -0.8186
12713TIP3   OH259553   5.787   6.689  16.892 -0.2163  0.4512  0.4335
12713TIP3    H159554   5.832   6.641  16.962  1.3569  1.1397 -0.0992
12713TIP3    H259555   5.804   6.637  16.814 -0.1719  0.8240  0.1954
12714TIP3   OH259556   2.947   1.345  17.043 -0.2262 -0.2769  0.2181
12714TIP3    H159557   3.035   1.374  17.067 -0.3628 -0.2066  0.6467
12714TIP3    H259558   2.959   1.255  17.012 -0.1729 -0.7294  1.4947
12715TIP3   OH259559   4.759   3.116  11.606 -0.5396 -0.5148 -0.8405
12715TIP3    H159560   4.672   3.094  11.572 -1.5172  2.5788 -0.5278
12715TIP3    H259561   4.795   3.177  11.542 -0.0902  0.9783  0.7851
12716TIP3   OH259562   0.964   6.085   0.041  0.1109 -0.4520 -0.0173
12716TIP3    H159563   0.987   5.992   0.038 -0.8927 -0.6937 -0.6764
12716TIP3    H259564   0.876   6.089   0.003 -0.3081  0.6277  1.0131
12717TIP3   OH259565   6.543   4.987   4.481 -0.1507 -0.0768 -0.3998
12717TIP3    H159566   6.562   4.907   4.433 -1.6738 -0.9234  0.3622
12717TIP3    H259567   6.467   5.025   4.436 -1.0448 -0.4257  0.7839
12718TIP3   OH259568   4.641   4.196   3.480 -0.3414 -0.0110 -0.3602
12718TIP3    H159569   4.602   4.247   3.550  1.0368  0.3972  0.1367
12718TIP3    H259570   4.728   4.174   3.513  0.1056 -0.2952 -1.7067
12719TIP3   OH259571   6.012   1.847  15.245 -0.0269  0.3636 -0.3966
12719TIP3    H159572   6.083   1.908  15.263  0.3568  0.1670 -1.2161
12719TIP3    H259573   6.001   1.799  15.327 -0.3697  1.5593  0.2735
12720TIP3   OH259574   2.051   1.386   4.691 -0.3217 -0.5875 -0.3373
12720TIP3    H159575   2.017   1.384   4.601  0.9600  1.9194 -0.9308
12720TIP3    H259576   2.011   1.464   4.730 -0.1784 -1.1665  0.9900
12721TIP3   OH259577   4.704   0.870  10.959  0.5228  0.0881 -0.4614
12721TIP3    H159578   4.698   0.898  11.050 -0.3447 -0.7320 -0.2610
12721TIP3    H259579   4.695   0.951  10.909 -0.4765  0.3549  0.1441
12722TIP3   OH259580   5.834   5.437  11.949  0.0297 -0.5040  0.2531
12722TIP3    H159581   5.756   5.466  11.900 -0.0637 -1.4228 -0.1463
12722TIP3    H259582   5.907   5.466  11.894  0.0281  1.5040  1.2499
12723TIP3   OH259583   6.715   0.190   4.663 -0.4492 -0.2065  0.7040
12723TIP3    H159584   6.797   0.219   4.623 -0.2893 -1.2778  0.2372
12723TIP3    H259585   6.660   0.269   4.664  0.1031  0.2037 -0.2152
12724TIP3   OH259586   4.629   3.025   5.439 -0.3820 -0.6471  0.2048
12724TIP3    H159587   4.600   2.943   5.479  0.0894 -0.3091  1.2596
12724TIP3    H259588   4.655   3.001   5.350  1.2209 -1.9237  0.9907
12725TIP3   OH259589   6.666   2.190  15.247 -0.3378 -0.2220 -0.3658
12725TIP3    H159590   6.574   2.202  15.224 -0.2865 -0.2053 -0.5608
12725TIP3    H259591   6.671   2.218  15.339 -0.3183  0.7854 -0.6719
12726TIP3   OH259592   0.348   6.646   4.009 -0.2223 -0.5734 -0.1489
12726TIP3    H159593   0.284   6.575   4.002 -2.0967  0.7721  2.2741
12726TIP3    H259594   0.384   6.636   4.097 -0.8368  1.7168  0.3778
12727TIP3   OH259595   6.311   3.223   5.820 -0.1844  0.2695 -0.4205
12727TIP3    H159596   6.298   3.144   5.768  0.9055 -0.8710  1.0219
12727TIP3    H259597   6.259   3.210   5.899  0.3022  0.8139  0.0010
12728TIP3   OH259598   0.866   5.856  12.675  0.3984 -0.0960  0.1075
12728TIP3    H159599   0.952   5.897  12.683  0.1143  0.2728  1.4733
12728TIP3    H259600   0.846   5.824  12.762 -0.0979 -1.7515 -0.5949
12729TIP3   OH259601   0.255   1.998   5.648 -0.0548  0.1490 -0.4078
12729TIP3    H159602   0.198   1.959   5.714  0.8556 -0.9648 -0.2669
12729TIP3    H259603   0.334   2.021   5.696  0.3548 -0.0593 -0.9804
12730TIP3   OH259604   2.437   4.187   0.737  0.1383  0.0838  0.3435
12730TIP3    H159605   2.459   4.094   0.736  1.3714  0.3572  1.6299
12730TIP3    H259606   2.503   4.228   0.792 -0.6093  1.6821  0.1033
12731TIP3   OH259607   6.694   6.352   3.123 -0.3828  0.3841 -0.3524
12731TIP3    H159608   6.680   6.416   3.054 -0.0315 -0.2371 -1.0062
12731TIP3    H259609   6.746   6.399   3.189 -0.8534  1.0236 -0.4338
12732TIP3   OH259610   5.134   4.779  10.572  0.6972  0.6715  0.3114
12732TIP3    H159611   5.064   4.809  10.515  1.5324  0.7286 -0.7082
12732TIP3    H259612   5.123   4.684  10.574  0.0266  0.7606  0.9062
12733TIP3   OH259613   1.046   3.842  15.787 -0.6416 -0.1203 -0.0295
12733TIP3    H159614   0.957   3.810  15.796 -0.3081 -0.7003  1.3154
12733TIP3    H259615   1.089   3.817  15.869  0.5864  0.6772 -0.4154
12734TIP3   OH259616   5.679   1.735   3.663 -0.4846  0.2836  0.2698
12734TIP3    H159617   5.773   1.721   3.679 -0.3519  0.5597 -0.2674
12734TIP3    H259618   5.661   1.821   3.699 -0.6757 -0.0310  0.9474
12735TIP3   OH259619   3.160   2.129   4.638 -0.2402  0.3448  0.7300
12735TIP3    H159620   3.107   2.209   4.636  0.4929  0.8303  0.3705
12735TIP3    H259621   3.234   2.148   4.580 -0.9345 -1.2113 -0.7473
12736TIP3   OH259622   5.553   2.100  13.183  0.1907 -0.2292  0.4713
12736TIP3    H159623   5.598   2.021  13.212  1.1084  1.1846  3.0837
12736TIP3    H259624   5.553   2.094  13.087  2.1962 -2.2805  0.5594
12737TIP3   OH259625   1.725   2.529   0.124  0.1515  0.0772 -0.0892
12737TIP3    H159626   1.775   2.582   0.186  0.6673 -0.1313 -0.3148
12737TIP3    H259627   1.662   2.590   0.086  2.0641  1.0681 -1.8156
12738TIP3   OH259628   3.172   2.076  13.490  0.1069  0.4701  0.1938
12738TIP3    H159629   3.241   2.084  13.424  1.0078 -0.8662  0.9448
12738TIP3    H259630   3.155   2.166  13.518  0.0063  1.0103 -1.5448
12739TIP3   OH259631   1.298   6.441   2.755  0.3351 -1.1163 -0.1385
12739TIP3    H159632   1.393   6.429   2.763  0.4074 -0.2792  0.4096
12739TIP3    H259633   1.277   6.409   2.668  1.0682 -1.6587 -0.1246
12740TIP3   OH259634   2.008   3.550  13.962  0.2390  0.5940  0.1542
12740TIP3    H159635   1.923   3.512  13.984  0.3443  0.4674  0.3503
12740TIP3    H259636   2.063   3.474  13.944  0.7196  0.6009  1.5056
12741TIP3   OH259637   2.026   4.746  11.505  0.2749 -0.1303 -0.6536
12741TIP3    H159638   1.958   4.813  11.498  1.0528  0.5088 -2.3842
12741TIP3    H259639   2.098   4.790  11.551 -0.3926 -0.7492  1.0101
12742TIP3   OH259640   4.819   1.528  16.707  0.0025  0.1826 -0.0270
12742TIP3    H159641   4.724   1.531  16.692  0.5141  1.9401 -3.4618
12742TIP3    H259642   4.846   1.620  16.706  1.8411 -0.3483  0.3412
12743TIP3   OH259643   0.990   0.614  16.890  0.4621 -0.0890 -0.6376
12743TIP3    H159644   0.992   0.560  16.811  0.4390  0.4339 -0.9980
12743TIP3    H259645   0.898   0.635  16.903  0.3956 -0.6742 -0.1284
12744TIP3   OH259646   3.063   6.200  11.421 -0.0502  0.4689  0.4309
12744TIP3    H159647   2.997   6.185  11.354  0.0613  0.6549  0.2781
12744TIP3    H259648   3.146   6.201  11.373  0.3816 -2.7451  1.0000
12745TIP3   OH259649   5.713   6.410   5.712 -0.0285  0.1204 -0.2467
12745TIP3    H159650   5.770   6.385   5.785 -1.5039 -2.4863  0.0662
12745TIP3    H259651   5.765   6.474   5.663  2.1103 -0.1945  1.5009
12746TIP3   OH259652   3.625   2.727   3.018 -0.4493 -0.2989 -0.5891
12746TIP3    H159653   3.704   2.750   2.970 -1.3570 -0.0628 -2.0010
12746TIP3    H259654   3.563   2.797   2.997 -1.1386 -0.6430  0.2512
12747TIP3   OH259655   4.636   6.686  16.388  0.3613  0.5589  0.2485
12747TIP3    H159656   4.647   6.749  16.460  1.2790  0.3853  0.2612
12747TIP3    H259657   4.718   6.637  16.386  1.6580  2.6778 -2.9654
12748TIP3   OH259658   6.665   3.667   2.489  0.5616  0.1607  0.5049
12748TIP3    H159659   6.688   3.574   2.491  0.5959  0.1812  1.3780
12748TIP3    H259660   6.589   3.673   2.432  0.4338 -0.4361  0.6186
12749TIP3   OH259661   3.724   5.492  15.904 -0.1977  0.0845 -0.4097
12749TIP3    H159662   3.756   5.509  15.993  1.1463 -0.0761 -0.8567
12749TIP3    H259663   3.632   5.468  15.916  0.2610 -1.0038  1.0526
12750TIP3   OH259664   5.547   5.569   1.198  0.2141 -0.0339 -0.7238
12750TIP3    H159665   5.612   5.639   1.199  1.0063 -0.7540 -0.8000
12750TIP3    H259666   5.481   5.599   1.136 -0.8036  1.8142  1.2138
12751TIP3   OH259667   3.919   5.329   3.326  0.5239  0.0539 -0.5804
12751TIP3    H159668   3.919   5.418   3.361 -3.5579  0.5091 -1.4987
12751TIP3    H259669   3.941   5.274   3.401  1.5426  1.6920  0.3658
12752TIP3   OH259670   2.256   1.682   4.980 -0.5168 -0.6215 -0.6522
12752TIP3    H159671   2.312   1.733   5.039  0.4685 -1.9419 -0.4217
12752TIP3    H259672   2.195   1.746   4.944  1.1138  0.8552 -0.8710
12753TIP3   OH259673   1.109   4.902   3.053 -0.2270  0.1372 -0.2480
12753TIP3    H159674   1.170   4.920   3.124  1.9460 -0.4132 -1.9276
12753TIP3    H259675   1.074   4.987   3.029  0.1458  0.5041  0.4992
12754TIP3   OH259676   5.430   2.203   6.303  0.2875  0.2471 -0.0929
12754TIP3    H159677   5.336   2.197   6.287  0.0476 -0.2892  1.5026
12754TIP3    H259678   5.470   2.169   6.223 -0.8574  1.0231 -1.0127
12755TIP3   OH259679   5.907   3.881   4.625  0.8859 -0.0274  0.1463
12755TIP3    H159680   5.935   3.969   4.601  0.5014  0.5825  1.8744
12755TIP3    H259681   5.965   3.822   4.576 -0.0556  1.1668 -2.4382
12756TIP3   OH259682   5.817   1.185  16.029  0.1024  0.2872  0.2810
12756TIP3    H159683   5.821   1.263  16.085 -2.5632  1.0422 -0.5159
12756TIP3    H259684   5.847   1.114  16.085 -1.7074  1.1589  2.4391
12757TIP3   OH259685   3.142   4.459   6.066 -0.5094 -0.2161  0.1050
12757TIP3    H159686   3.105   4.493   5.985 -2.1759 -0.4510  0.7547
12757TIP3    H259687   3.221   4.512   6.081  0.5409 -1.0380 -2.3247
12758TIP3   OH259688   2.886   1.916   3.241 -0.1122 -0.2163  0.3099
12758TIP3    H159689   2.854   1.996   3.283  0.2527 -0.7790  1.7061
12758TIP3    H259690   2.811   1.857   3.243 -0.5098  0.2294 -1.1099
12759TIP3   OH259691   0.580   1.961   3.139 -0.4683 -1.1259  0.0022
12759TIP3    H159692   0.614   1.873   3.153  0.8103 -0.4142  1.5145
12759TIP3    H259693   0.633   1.996   3.067 -0.1371 -1.1301  0.2472
12760TIP3   OH259694   1.951   2.121   5.637  0.1311 -0.5550 -0.6355
12760TIP3    H159695   1.940   2.043   5.584 -1.7219 -0.9745  0.2961
12760TIP3    H259696   1.887   2.183   5.602  0.4627 -0.0395 -0.3381
12761TIP3   OH259697   1.265   4.788   2.173  0.9576  0.3590 -0.5455
12761TIP3    H159698   1.266   4.857   2.107  0.9864  0.7873 -0.1038
12761TIP3    H259699   1.204   4.820   2.239 -0.9742 -1.1502 -1.5227
12762TIP3   OH259700   1.554   1.667  15.550 -0.2528  0.1724  0.0942
12762TIP3    H159701   1.509   1.657  15.635  0.0893 -1.9288  0.0329
12762TIP3    H259702   1.559   1.762  15.538 -1.2986  0.4905  1.9054
12763TIP3   OH259703   1.584   5.919   3.477 -0.2241  0.5610 -0.0585
12763TIP3    H159704   1.598   6.009   3.449 -1.1186  1.0470  0.9927
12763TIP3    H259705   1.620   5.915   3.566 -1.5443  0.3079  0.4807
12764TIP3   OH259706   0.058   2.137   5.497  0.7158  0.4236  0.0417
12764TIP3    H159707   0.104   2.070   5.548 -0.9625  0.3462  1.5061
12764TIP3    H259708   0.126   2.177   5.443  2.2971 -0.3896  1.3834
12765TIP3   OH259709   3.066   2.862  11.165  0.2644 -0.2643 -0.5123
12765TIP3    H159710   2.983   2.858  11.116  0.2549 -0.8889 -0.4511
12765TIP3    H259711   3.100   2.772  11.161  1.3881  0.1902 -1.2971
12766TIP3   OH259712   4.941   0.819   4.471 -0.0294  0.1102  0.3543
12766TIP3    H159713   5.005   0.823   4.400 -0.7942 -2.3679 -0.5292
12766TIP3    H259714   4.994   0.818   4.551  0.8695  1.8621 -0.1897
12767TIP3   OH259715   6.203   5.759  11.851  0.0218 -0.0509 -0.1996
12767TIP3    H159716   6.207   5.851  11.825  2.3816  0.4768  1.7721
12767TIP3    H259717   6.192   5.711  11.769  0.5208  1.8920 -1.4458
12768TIP3   OH259718   2.151   3.082   3.992 -0.2188  0.0841 -0.3811
12768TIP3    H159719   2.164   3.063   3.899  0.0812  0.5765 -0.4356
12768TIP3    H259720   2.219   3.031   4.037  0.0065  0.3135 -0.4667
12769TIP3   OH259721   1.463   3.734   2.453  0.0513  0.3857  0.0930
12769TIP3    H159722   1.394   3.681   2.492 -2.2271  1.6072 -2.1031
12769TIP3    H259723   1.539   3.676   2.450 -1.3811 -1.6012  0.9236
12770TIP3   OH259724   3.511   2.172  12.896 -0.3355  0.3196 -0.3492
12770TIP3    H159725   3.529   2.265  12.882 -0.9696  0.1966 -2.0996
12770TIP3    H259726   3.427   2.171  12.942  0.1650  0.6313  0.5932
12771TIP3   OH259727   3.655   0.488   0.028  0.0111 -0.1680  0.4958
12771TIP3    H159728   3.615   0.414   0.073 -1.0234 -0.1171 -0.3001
12771TIP3    H259729   3.646   0.561   0.089 -2.1741  0.1123 -0.0908
12772TIP3   OH259730   3.388   6.334   5.755  0.2048 -0.1803 -0.4066
12772TIP3    H159731   3.377   6.309   5.846 -0.7951  0.2803 -0.3896
12772TIP3    H259732   3.345   6.264   5.706 -1.3364  0.7459 -0.4168
12773TIP3   OH259733   1.377   5.254  13.393  0.3176  0.1403 -0.1878
12773TIP3    H159734   1.331   5.328  13.354  1.1395 -0.6358 -2.7279
12773TIP3    H259735   1.462   5.290  13.418 -0.3722  0.7465  1.3801
12774TIP3   OH259736   0.366   0.811  14.263  0.3867 -0.2194 -0.0012
12774TIP3    H159737   0.373   0.878  14.196 -2.3550 -1.4699 -1.6305
12774TIP3    H259738   0.450   0.765  14.260  1.1039  1.1365 -1.0256
12775TIP3   OH259739   4.000   4.498  11.186 -0.1667  0.3120  0.0513
12775TIP3    H159740   3.964   4.582  11.156 -0.0754 -0.0435 -1.0784
12775TIP3    H259741   4.047   4.463  11.110 -0.4840 -0.9162  0.4053
12776TIP3   OH259742   3.049   5.308   5.579 -0.1518  0.0098  0.6601
12776TIP3    H159743   3.013   5.309   5.668  0.7779  0.5534  1.0360
12776TIP3    H259744   3.056   5.215   5.557 -1.6325 -0.1047  0.6352
12777TIP3   OH259745   2.830   0.539   5.371  0.2768 -0.0311 -0.0702
12777TIP3    H159746   2.783   0.610   5.326  0.5736 -0.3019 -0.8136
12777TIP3    H259747   2.915   0.577   5.393 -0.9560  1.1060  3.0424
12778TIP3   OH259748   6.075   2.897  15.537  0.5516  0.0046  0.3834
12778TIP3    H159749   6.021   2.831  15.494  0.1728 -0.5813  1.7291
12778TIP3    H259750   6.070   2.974  15.479 -1.9679  0.0825  0.6473
12779TIP3   OH259751   0.385   1.088   0.156 -0.0010 -0.8335  0.0995
12779TIP3    H159752   0.301   1.113   0.195 -0.5600 -1.2324 -0.8442
12779TIP3    H259753   0.381   0.992   0.150  0.7863 -0.9086  0.6313
12780TIP3   OH259754   3.479   6.378  14.473  0.0691  0.7139 -0.2730
12780TIP3    H159755   3.511   6.442  14.536  2.5849 -0.3985 -0.3513
12780TIP3    H259756   3.526   6.297  14.496 -1.5647 -0.5914 -1.4152
12781TIP3   OH259757   4.231   1.552  13.526  0.5915  0.6957 -0.4374
12781TIP3    H159758   4.270   1.515  13.605  1.0772  1.1985 -0.4333
12781TIP3    H259759   4.148   1.506  13.516  1.2472 -0.4968 -0.5102
12782TIP3   OH259760   1.423   1.372   1.266  0.2923  0.2517  0.1211
12782TIP3    H159761   1.507   1.409   1.240  0.1525  1.6787  1.5761
12782TIP3    H259762   1.388   1.332   1.187  0.8830  2.4909 -1.3155
12783TIP3   OH259763   6.671   3.616  16.699 -0.1627 -0.0696  0.4687
12783TIP3    H159764   6.671   3.543  16.761  0.5039 -0.8363 -0.4016
12783TIP3    H259765   6.620   3.685  16.742 -1.7665 -1.4467  0.8345
12784TIP3   OH259766   2.493   1.848   1.221  0.3140 -0.1524 -0.5441
12784TIP3    H159767   2.408   1.808   1.239  0.4382 -0.5509 -0.8458
12784TIP3    H259768   2.476   1.942   1.225 -0.4445 -0.2067 -2.0006
12785TIP3   OH259769   4.278   5.369   1.874  0.1196  0.1833 -0.4698
12785TIP3    H159770   4.200   5.349   1.823  0.5389 -1.6487 -0.4119
12785TIP3    H259771   4.252   5.354   1.965  0.2088  0.6796 -0.3589
12786TIP3   OH259772   4.125   4.476  13.807 -0.3439  0.0931  0.0007
12786TIP3    H159773   4.110   4.540  13.876 -0.4634 -0.9201  0.9402
12786TIP3    H259774   4.056   4.492  13.743 -1.0823  0.1421  0.8043
12787TIP3   OH259775   2.651   4.048   1.356  0.1978 -0.0925  0.4644
12787TIP3    H159776   2.593   4.052   1.432 -1.2795  0.6316 -0.7001
12787TIP3    H259777   2.597   4.013   1.286  0.6636  2.2773 -1.1037
12788TIP3   OH259778   2.485   1.825  14.289 -0.1785  0.8465  0.4440
12788TIP3    H159779   2.425   1.880  14.339  0.6966  1.8956  0.3655
12788TIP3    H259780   2.562   1.815  14.346  1.5672  3.5362 -1.3722
12789TIP3   OH259781   4.108   3.107  13.081  0.3134 -0.7746 -0.3042
12789TIP3    H159782   4.193   3.073  13.110 -0.0813 -1.6959 -0.2331
12789TIP3    H259783   4.114   3.107  12.985  0.0774 -1.6535 -0.3219
12790TIP3   OH259784   5.417   6.151   2.380 -0.3421 -0.3643  0.5483
12790TIP3    H159785   5.452   6.234   2.348 -0.2036 -1.1751 -1.4762
12790TIP3    H259786   5.326   6.150   2.351 -0.3443 -0.9241  0.5620
12791TIP3   OH259787   2.360   6.405  12.514 -0.1330  1.0303  0.2824
12791TIP3    H159788   2.450   6.429  12.495 -0.4300  0.9765 -1.3344
12791TIP3    H259789   2.313   6.425  12.433 -0.9611 -2.0172 -0.0706
12792TIP3   OH259790   4.959   3.625  15.992 -0.9871 -0.1068 -0.2241
12792TIP3    H159791   5.023   3.651  16.058  0.8908 -1.6610 -1.3892
12792TIP3    H259792   4.875   3.654  16.028 -0.0528 -1.1012  2.9223
12793TIP3   OH259793   1.627   4.713   5.329  0.1896 -0.0951 -0.3321
12793TIP3    H159794   1.605   4.802   5.302  0.4134  0.0838  0.0496
12793TIP3    H259795   1.553   4.660   5.303 -0.6913  0.4879  0.9394
12794TIP3   OH259796   0.431   6.598  14.720  0.0150  0.1410 -0.2055
12794TIP3    H159797   0.472   6.643  14.646  0.5161 -1.3654 -0.8678
12794TIP3    H259798   0.338   6.611  14.707  0.1497  0.8656 -0.4691
12795TIP3   OH259799   1.730   0.865   2.296  0.1823  0.9404  0.0734
12795TIP3    H159800   1.700   0.817   2.372 -2.5212  1.5628 -0.5339
12795TIP3    H259801   1.695   0.817   2.221  1.7772  1.0116 -0.7506
12796TIP3   OH259802   0.784   2.236  16.901  0.2895 -0.3337  0.3620
12796TIP3    H159803   0.832   2.175  16.957 -1.2734 -0.4097  1.6463
12796TIP3    H259804   0.788   2.320  16.947  0.1971 -0.0615 -0.1180
12797TIP3   OH259805   4.123   6.111   3.533 -0.6430  0.1128  1.1856
12797TIP3    H159806   4.105   6.170   3.460  0.2267 -0.1636  0.7360
12797TIP3    H259807   4.070   6.033   3.515  0.5265 -0.4616  0.1826
12798TIP3   OH259808   6.465   0.935  12.374 -0.1717 -0.0705 -0.1571
12798TIP3    H159809   6.523   0.992  12.324  0.8002  0.7263  1.8379
12798TIP3    H259810   6.522   0.866  12.407 -1.0290 -1.2610 -1.1049
12799TIP3   OH259811   2.645   1.265  15.526  0.5514  0.3419 -0.8557
12799TIP3    H159812   2.581   1.199  15.555  0.2976  0.7003 -0.5925
12799TIP3    H259813   2.728   1.217  15.520  0.3228 -0.0514 -0.8781
12800TIP3   OH259814   5.754   0.708   1.473 -0.6900  0.2424 -0.0577
12800TIP3    H159815   5.738   0.799   1.497  0.2394  0.9836 -2.1621
12800TIP3    H259816   5.754   0.661   1.556 -1.5466  2.1031  1.0149
12801TIP3   OH259817   6.146   2.446   5.098  0.6621 -0.0239 -0.4828
12801TIP3    H159818   6.194   2.364   5.114  0.1120 -0.4039 -0.7751
12801TIP3    H259819   6.060   2.431   5.137  2.0909  2.1899  3.8828
12802TIP3   OH259820   2.345   0.710  12.535 -0.8063 -0.2080  0.1345
12802TIP3    H159821   2.439   0.701  12.519 -1.1682  0.8294 -2.9190
12802TIP3    H259822   2.332   0.804  12.548 -1.4777 -0.2860  0.0457
12803TIP3   OH259823   1.305   1.335   1.840 -0.0004  0.2577  0.4078
12803TIP3    H159824   1.394   1.336   1.805  0.1258 -0.9971  0.6708
12803TIP3    H259825   1.306   1.398   1.911  0.2293  1.4796 -0.6598
12804TIP3   OH259826   6.089   1.303  15.078 -0.0390 -0.1074 -0.0819
12804TIP3    H159827   6.090   1.333  14.987 -0.9821 -0.2971 -0.1586
12804TIP3    H259828   6.017   1.240  15.082 -0.1917  0.1225  0.8721
12805TIP3   OH259829   0.253   5.260   0.119 -0.2997  0.2104 -0.0163
12805TIP3    H159830   0.323   5.197   0.135 -2.1039 -2.0697 -0.7530
12805TIP3    H259831   0.276   5.301   0.035  0.3439 -0.2340 -0.0599
12806TIP3   OH259832   0.607   3.502  14.347 -0.2235 -0.3779 -0.4836
12806TIP3    H159833   0.595   3.527  14.255 -0.0066 -2.0739 -0.9998
12806TIP3    H259834   0.665   3.569  14.383  0.1644 -0.0209 -1.7430
12807TIP3   OH259835   5.949   1.690  15.572  0.1038 -0.1478  0.2028
12807TIP3    H159836   5.876   1.629  15.566  0.5344 -0.6606  0.1008
12807TIP3    H259837   6.009   1.663  15.503  0.6219 -0.0372  0.6008
12808TIP3   OH259838   3.564   6.511   0.916  0.4008  0.3874  0.5687
12808TIP3    H159839   3.634   6.508   0.851 -0.3564 -0.6637 -0.2047
12808TIP3    H259840   3.610   6.515   1.000  1.4043 -1.0766  0.1149
12809TIP3   OH259841   6.456   2.090   6.133 -0.0829  0.6354  0.3504
12809TIP3    H159842   6.430   2.140   6.210 -0.8786  1.0545 -0.1811
12809TIP3    H259843   6.485   2.005   6.167 -1.1002  0.5669  1.0440
12810TIP3   OH259844   6.173   6.706  11.930  0.1464  0.2585  0.0242
12810TIP3    H159845   6.237   6.748  11.873 -0.6143 -1.4488 -2.1670
12810TIP3    H259846   6.113   6.661  11.870 -0.3855 -2.0476  2.1901
12811TIP3   OH259847   0.118   2.631  11.429  0.1554  0.1824  0.1904
12811TIP3    H159848   0.207   2.661  11.410  0.4116 -0.0137  1.0513
12811TIP3    H259849   0.125   2.589  11.515 -0.8583  0.5732  0.4688
12812TIP3   OH259850   4.039   4.321   2.014  0.1883 -0.4845  0.4367
12812TIP3    H159851   4.124   4.290   1.981 -0.1134  0.3966 -1.1986
12812TIP3    H259852   4.052   4.414   2.030  0.2104 -0.8084  2.5135
12813TIP3   OH259853   2.560   6.764   0.705 -0.7062  0.0430 -0.3269
12813TIP3    H159854   2.615   6.818   0.649  0.0406 -0.0895  0.2755
12813TIP3    H259855   2.615   6.689   0.728 -1.0185  0.0719  0.5448
12814TIP3   OH259856   3.603   2.186   0.498 -0.0916  0.0468 -0.1089
12814TIP3    H159857   3.582   2.093   0.497 -0.8194  0.1924  0.4367
12814TIP3    H259858   3.517   2.230   0.498  0.2398  0.7040 -0.0095
12815TIP3   OH259859   4.759   1.710   2.579  0.0183 -0.0357 -0.0016
12815TIP3    H159860   4.847   1.748   2.578  0.2304 -0.3866  2.0256
12815TIP3    H259861   4.721   1.741   2.662 -0.1463 -3.4081  1.2746
12816TIP3   OH259862   3.328   3.054  12.667  0.3525 -0.4079 -0.2082
12816TIP3    H159863   3.424   3.050  12.667  0.3141 -1.4785 -0.5189
12816TIP3    H259864   3.300   2.964  12.683 -0.6032 -0.2249 -0.7924
12817TIP3   OH259865   5.459   0.459   3.534  0.0503  0.1261  0.2824
12817TIP3    H159866   5.365   0.471   3.518 -0.3000 -0.8450  1.5573
12817TIP3    H259867   5.473   0.365   3.525  1.0165  0.3277 -0.3994
12818TIP3   OH259868   5.975   6.385  10.999 -0.4379 -0.3453  0.0713
12818TIP3    H159869   5.950   6.293  11.003 -1.2458 -0.1261  0.2076
12818TIP3    H259870   6.025   6.400  11.079 -1.5980 -0.3015  0.7994
12819TIP3   OH259871   5.244   2.495   0.984  0.1158  0.1080  0.3882
12819TIP3    H159872   5.329   2.538   0.977 -0.4545  1.0971 -0.7420
12819TIP3    H259873   5.220   2.473   0.894 -1.4647  1.1597  0.5158
12820TIP3   OH259874   5.263   4.991  11.225  0.3425 -0.1597  0.3647
12820TIP3    H159875   5.338   4.961  11.174  0.0224 -2.2509  1.0786
12820TIP3    H259876   5.291   4.986  11.316 -0.7736 -1.3395  0.6563
12821TIP3   OH259877   3.043   3.039   1.586  0.1829  0.1092  0.0274
12821TIP3    H159878   3.101   2.964   1.598  0.8054  0.6043  0.1305
12821TIP3    H259879   2.994   3.045   1.668 -0.0768 -0.3610 -0.0926
12822TIP3   OH259880   1.885   1.570   5.476  0.4308  0.4399  0.5499
12822TIP3    H159881   1.961   1.603   5.524 -0.3175  2.7631  0.1912
12822TIP3    H259882   1.892   1.609   5.389 -0.8630  0.1970  0.3272
12823TIP3   OH259883   4.848   0.930   6.387  0.1772 -0.2955  0.1876
12823TIP3    H159884   4.766   0.897   6.350  0.5638 -0.4704 -0.5261
12823TIP3    H259885   4.855   0.889   6.473  0.4200 -1.7100 -0.5030
12824TIP3   OH259886   4.431   3.412  11.981  0.0940 -0.0580  0.5274
12824TIP3    H159887   4.477   3.390  11.900  0.3142 -1.4312  1.0093
12824TIP3    H259888   4.501   3.422  12.046 -0.2086 -1.1133  1.0263
12825TIP3   OH259889   5.516   5.638   2.713  0.5601  0.3040  0.0066
12825TIP3    H159890   5.572   5.561   2.703  0.2349  0.1467 -0.7291
12825TIP3    H259891   5.576   5.712   2.713  0.9840 -0.0111  2.0249
12826TIP3   OH259892   2.164   4.023   4.675 -0.3108  0.5198 -0.2489
12826TIP3    H159893   2.242   3.996   4.626 -0.6261 -1.8823  0.4613
12826TIP3    H259894   2.095   4.029   4.609 -0.1430 -0.1199 -0.4889
12827TIP3   OH259895   2.964   1.199   3.223 -0.1489 -0.0149 -0.2197
12827TIP3    H159896   2.937   1.249   3.300  0.2481  0.6723 -0.5246
12827TIP3    H259897   3.023   1.258   3.176 -1.0052 -0.1358 -1.4641
12828TIP3   OH259898   2.637   3.582  15.559 -0.0168  0.0580 -0.6041
12828TIP3    H159899   2.602   3.513  15.502  1.4633 -1.4214  0.2284
12828TIP3    H259900   2.719   3.608  15.519  0.5137 -0.2333  0.2763
12829TIP3   OH259901   2.471   4.778  13.050 -0.0336  0.6302 -0.0550
12829TIP3    H159902   2.515   4.720  13.112  0.2090  0.9411  0.0662
12829TIP3    H259903   2.542   4.830  13.012 -0.3950  1.7821  0.8160
12830TIP3   OH259904   0.719   1.220  12.954 -0.3874 -0.2356  0.8525
12830TIP3    H159905   0.657   1.156  12.917 -0.2366  0.2099 -0.1945
12830TIP3    H259906   0.717   1.293  12.892  0.9076 -0.0623  1.0040
12831TIP3   OH259907   1.604   4.604  16.920 -0.3926 -0.1168 -0.0954
12831TIP3    H159908   1.643   4.522  16.952 -1.3964 -1.1443 -1.4641
12831TIP3    H259909   1.565   4.644  16.998 -0.1933 -1.1061  0.5213
12832TIP3   OH259910   4.382   4.523   0.757  0.0038 -0.8178  0.0961
12832TIP3    H159911   4.421   4.591   0.702  0.6931 -0.3093  1.1908
12832TIP3    H259912   4.344   4.571   0.831  1.7616 -1.7063  1.6245
12833TIP3   OH259913   6.716   0.201   0.147 -0.1158  0.1026 -0.1540
12833TIP3    H159914   6.670   0.240   0.221 -1.4195 -1.4880 -0.0832
12833TIP3    H259915   6.646   0.182   0.083  0.7537 -0.1582 -1.0457
12834TIP3   OH259916   0.882   5.401   0.945  0.1636  0.0326 -0.1215
12834TIP3    H159917   0.832   5.395   1.027 -0.1047  2.9503 -0.0265
12834TIP3    H259918   0.816   5.402   0.876  0.1628  1.5555 -0.1213
12835TIP3   OH259919   2.908   3.340   1.688 -0.0686 -0.2138 -0.4998
12835TIP3    H159920   2.842   3.350   1.757  1.6859 -2.0025  1.4997
12835TIP3    H259921   2.871   3.388   1.613 -2.8992  0.1622  1.0457
12836TIP3   OH259922   2.339   5.820  14.254  0.2963  0.1991 -0.0264
12836TIP3    H159923   2.356   5.780  14.340 -0.5132  0.3403  0.1967
12836TIP3    H259924   2.325   5.913  14.272 -0.6388  0.1025 -0.2167
12837TIP3   OH259925   5.331   3.461  15.476 -0.5091 -0.0408 -0.1204
12837TIP3    H159926   5.417   3.418  15.476  0.4759  1.9006 -0.4437
12837TIP3    H259927   5.282   3.414  15.544  1.1612 -0.4658  0.8297
12838TIP3   OH259928   5.734   5.212   0.781 -0.9115 -0.1235 -0.4456
12838TIP3    H159929   5.639   5.212   0.795 -0.8889  1.7071 -0.2208
12838TIP3    H259930   5.770   5.240   0.865 -0.3357  2.1337 -1.4015
12839TIP3   OH259931   2.097   5.926   5.738  0.0113 -0.1959  0.1781
12839TIP3    H159932   2.063   5.862   5.676  1.7201 -0.0226 -0.9661
12839TIP3    H259933   2.087   5.885   5.823  1.0409 -1.9850 -0.5380
12840TIP3   OH259934   2.059   3.390  11.957  0.3942 -0.0534 -0.2449
12840TIP3    H159935   2.121   3.322  11.983  0.8222  0.2125 -0.5540
12840TIP3    H259936   2.092   3.469  11.999  1.3430  0.4702 -1.9106
12841TIP3   OH259937   4.327   6.130  17.004 -0.0738 -0.7971  0.0700
12841TIP3    H159938   4.286   6.077  16.935  0.4023 -0.1180 -0.7409
12841TIP3    H259939   4.381   6.193  16.957  1.6349 -1.4491  1.1172
12842TIP3   OH259940   1.794   3.162  15.245 -0.4299 -0.2795 -0.5893
12842TIP3    H159941   1.745   3.190  15.168 -0.3163  1.9588  0.0987
12842TIP3    H259942   1.742   3.194  15.319 -0.2327 -1.8667  0.2419
12843TIP3   OH259943   6.267   1.003  14.250 -0.0302 -0.3103 -0.5262
12843TIP3    H159944   6.234   0.970  14.167  0.9202 -0.7823 -0.7277
12843TIP3    H259945   6.195   1.053  14.287 -1.4442 -2.4584 -0.3159
12844TIP3   OH259946   6.146   1.453  16.293 -0.1004  0.0905  0.3207
12844TIP3    H159947   6.226   1.505  16.284 -0.7503  1.2050  0.8390
12844TIP3    H259948   6.095   1.500  16.360 -2.1800  0.6525 -1.5813
12845TIP3   OH259949   5.802   4.005   3.824  0.4291  0.3233  0.2608
12845TIP3    H159950   5.717   4.029   3.861  0.1593 -0.3607  0.0921
12845TIP3    H259951   5.861   3.998   3.900 -0.0988 -0.9898  0.5630
12846TIP3   OH259952   1.073   4.288   2.103  0.3562 -0.0047 -0.4884
12846TIP3    H159953   1.132   4.354   2.066  1.0505 -0.3510 -0.0110
12846TIP3    H259954   0.986   4.319   2.080  0.7159  0.5701 -1.1168
12847TIP3   OH259955   0.748   0.410  12.100  0.4377 -0.2814  0.2357
12847TIP3    H159956   0.687   0.347  12.062 -0.5613  0.1266  1.1471
12847TIP3    H259957   0.727   0.411  12.193  1.7220 -0.0033  0.5349
12848TIP3   OH259958   1.081   1.718   3.682 -0.0750 -0.5666 -0.4449
12848TIP3    H159959   1.058   1.655   3.614 -1.4744 -0.5297 -0.0309
12848TIP3    H259960   1.139   1.670   3.741 -0.9310 -1.3984 -0.2681
12849TIP3   OH259961   0.246   4.207   2.376  0.0109  0.7202  0.8812
12849TIP3    H159962   0.215   4.285   2.422 -1.0414  0.7765  0.1222
12849TIP3    H259963   0.168   4.153   2.366  0.5195  0.0574  0.4667
12850TIP3   OH259964   0.315   0.093   1.371  0.4048  0.0857 -0.3930
12850TIP3    H159965   0.274   0.076   1.286  0.8738 -0.4073 -0.5271
12850TIP3    H259966   0.371   0.169   1.357 -2.0369  2.0718  0.3146
12851TIP3   OH259967   3.447   6.587  13.694  0.8848  0.6380  0.2426
12851TIP3    H159968   3.485   6.502  13.713 -0.0055  0.2488  0.2775
12851TIP3    H259969   3.516   6.634  13.646  1.2665 -0.1944 -0.0209
12852TIP3   OH259970   3.663   1.280  12.355 -0.0929 -0.1189  0.0737
12852TIP3    H159971   3.679   1.360  12.304  0.7224 -0.5817 -0.4037
12852TIP3    H259972   3.577   1.251  12.327  0.3937 -0.4327 -1.1495
12853TIP3   OH259973   3.432   4.760  14.706  0.2108  0.0021 -0.2702
12853TIP3    H159974   3.480   4.775  14.624 -0.2770 -0.8030 -0.7126
12853TIP3    H259975   3.428   4.664  14.714  0.4708  0.0692  0.8276
12854TIP3   OH259976   1.354   4.976   0.506 -0.0190 -0.3140 -0.7201
12854TIP3    H159977   1.405   5.057   0.501 -1.8760  0.8422 -1.4873
12854TIP3    H259978   1.303   4.974   0.425 -2.6713 -0.3858  0.8731
12855TIP3   OH259979   3.498   5.077   4.200  0.1051 -0.6683  0.2590
12855TIP3    H159980   3.544   5.110   4.122  0.0458 -2.7246 -0.6920
12855TIP3    H259981   3.441   5.149   4.227 -0.0145  0.0185 -1.7374
12856TIP3   OH259982   2.215   6.644  15.504  0.3784  0.2036  0.3444
12856TIP3    H159983   2.165   6.621  15.582 -0.2899  0.9977  0.1540
12856TIP3    H259984   2.290   6.584  15.505 -1.1911 -1.8377 -0.0336
12857TIP3   OH259985   4.031   4.540   5.083 -0.1551 -0.1485  0.0040
12857TIP3    H159986   4.118   4.563   5.116 -1.8069  2.5196  2.7505
12857TIP3    H259987   3.997   4.621   5.046 -1.7710 -0.9605 -0.3282
12858TIP3   OH259988   4.065   2.583  16.406 -0.2470  0.0205  0.0917
12858TIP3    H159989   4.083   2.570  16.313 -0.4053  0.9172 -0.0685
12858TIP3    H259990   3.981   2.628  16.408  0.1257  0.6998  0.6443
12859TIP3   OH259991   1.579   3.964   5.097 -0.7367 -0.2569  0.5556
12859TIP3    H159992   1.501   3.995   5.051  0.3680  1.1972 -0.3854
12859TIP3    H259993   1.581   4.015   5.179 -0.6304 -0.0814  0.4455
12860TIP3   OH259994   0.722   5.198   5.663 -0.0134  0.0599 -0.1095
12860TIP3    H159995   0.797   5.182   5.720 -0.1722 -0.9089 -0.1700
12860TIP3    H259996   0.648   5.157   5.709 -0.1305 -0.7748 -1.0276
12861TIP3   OH259997   2.781   4.566   0.183 -0.1699  0.0529 -0.4561
12861TIP3    H159998   2.724   4.495   0.213  0.5341 -0.2732  0.1414
12861TIP3    H259999   2.856   4.563   0.244  1.3245 -0.6421 -2.2838
12862TIP3   OH260000   4.755   3.371  14.625  0.1594  0.3320  0.2025
12862TIP3    H160001   4.699   3.365  14.702  0.4906  0.0911  0.4242
12862TIP3    H260002   4.798   3.286  14.619 -0.3095  0.1401 -0.5911
12863TIP3   OH260003   5.430   4.382   4.071 -0.5295 -0.5593  0.4740
12863TIP3    H160004   5.354   4.387   4.012 -0.1030  0.7178  0.0121
12863TIP3    H260005   5.505   4.400   4.014 -0.0425 -0.1039  1.2455
12864TIP3   OH260006   5.099   5.711  13.529  0.4803 -0.1400  0.2005
12864TIP3    H160007   5.108   5.794  13.577  1.6420  0.4430 -0.9898
12864TIP3    H260008   5.017   5.721  13.481  0.8363  0.5000 -0.2758
12865TIP3   OH260009   5.599   0.338   4.186  0.1413 -0.3119  0.2965
12865TIP3    H160010   5.588   0.408   4.251 -0.8009 -0.4814  0.3184
12865TIP3    H260011   5.627   0.262   4.238  1.1571  0.0306  0.2752
12866TIP3   OH260012   5.267   0.399   2.291  0.1041  0.4009  0.3664
12866TIP3    H160013   5.259   0.376   2.383  1.9861  0.0720  0.4698
12866TIP3    H260014   5.361   0.413   2.278 -0.1126  0.2198 -1.5499
12867TIP3   OH260015   2.194   6.705   5.010 -0.5380 -0.2140  0.0773
12867TIP3    H160016   2.118   6.759   5.032 -0.8743 -0.9591  0.7859
12867TIP3    H260017   2.228   6.743   4.929 -1.6505  0.1492 -0.2327
12868TIP3   OH260018   4.329   4.513   5.902 -0.5373 -0.6498  0.4547
12868TIP3    H160019   4.376   4.431   5.894 -0.0084 -0.3458  0.4196
12868TIP3    H260020   4.252   4.492   5.955 -1.9587 -1.8098 -1.9746
12869TIP3   OH260021   0.341   4.818   0.701 -0.4389  0.6625  0.0581
12869TIP3    H160022   0.248   4.831   0.681 -0.8720  0.0372  1.5982
12869TIP3    H260023   0.346   4.825   0.796  0.6603 -1.9422  0.2115
12870TIP3   OH260024   6.028   3.159   0.224  0.6918  0.9176 -0.3727
12870TIP3    H160025   6.123   3.163   0.220  0.8320 -1.9640 -0.6909
12870TIP3    H260026   6.007   3.168   0.317  1.5215 -1.9611  0.1501
12871TIP3   OH260027   4.619   2.986   3.334  0.4087 -0.1543  0.0367
12871TIP3    H160028   4.570   2.962   3.255 -0.9381  1.9755  0.1606
12871TIP3    H260029   4.582   3.071   3.360  1.1259 -0.6011  2.7138
12872TIP3   OH260030   6.629   1.728   2.586 -0.4822 -0.0264  0.5680
12872TIP3    H160031   6.586   1.645   2.604 -1.7999  0.4753 -0.2073
12872TIP3    H260032   6.646   1.726   2.492 -0.5646  0.5992  0.5357
12873TIP3   OH260033   5.181   1.139   3.020 -0.0790 -0.1594  0.2491
12873TIP3    H160034   5.093   1.103   3.027 -0.5536  0.9088 -0.1903
12873TIP3    H260035   5.223   1.085   2.953 -0.2284 -0.9854  0.8126
12874TIP3   OH260036   4.619   0.020  12.550 -0.0391 -0.4327 -0.0224
12874TIP3    H160037   4.692  -0.037  12.529 -0.6595 -1.4370  0.5199
12874TIP3    H260038   4.545  -0.014  12.499 -0.4255 -0.1557  0.3458
12875TIP3   OH260039   4.009   1.378   4.568  0.3240  0.4623  0.5721
12875TIP3    H160040   3.977   1.448   4.625  2.5508  1.3943  0.7132
12875TIP3    H260041   4.103   1.393   4.562  1.1278 -3.4972  1.8973
12876TIP3   OH260042   0.681   0.023   4.180  0.1561 -0.1648  0.1267
12876TIP3    H160043   0.770   0.031   4.146  0.0928 -2.2997 -0.6106
12876TIP3    H260044   0.685   0.057   4.269  1.3385  1.2678 -0.4582
12877TIP3   OH260045   0.755   5.587  15.363 -0.2156 -0.3328  0.2013
12877TIP3    H160046   0.714   5.629  15.288 -1.6409  0.0789  1.2005
12877TIP3    H260047   0.830   5.643  15.385 -0.4618  0.1559 -0.2154
12878TIP3   OH260048   6.323   5.073  15.535  0.0962  0.2231  0.0299
12878TIP3    H160049   6.258   5.130  15.575  1.3586  1.5174  0.2753
12878TIP3    H260050   6.406   5.100  15.573  0.6785 -2.1615  0.5807
12879TIP3   OH260051   3.088   4.380   3.053  0.3813  0.1979  0.7671
12879TIP3    H160052   3.105   4.466   3.016  0.0048 -0.3083 -0.6091
12879TIP3    H260053   3.120   4.319   2.987 -1.7301 -0.7391  0.5649
12880TIP3   OH260054   3.222   0.914  15.514 -0.5019  0.5912 -0.1821
12880TIP3    H160055   3.244   0.891  15.424  0.0720 -1.3633  0.4127
12880TIP3    H260056   3.126   0.913  15.516 -0.5126 -1.4291 -0.3163
12881TIP3   OH260057   1.557   0.507  16.319 -0.1621  0.0029 -0.3487
12881TIP3    H160058   1.598   0.585  16.356  0.3558 -1.0380  1.3292
12881TIP3    H260059   1.522   0.460  16.394 -1.0706 -1.0554 -1.4012
12882TIP3   OH260060   5.456   5.789   2.167 -0.1802  0.7768 -0.3897
12882TIP3    H160061   5.480   5.697   2.161  1.5821  1.1706  0.3470
12882TIP3    H260062   5.462   5.809   2.260 -0.8934  1.5505 -0.5077
12883TIP3   OH260063   3.787   1.729   3.257  0.0991  0.6245 -0.8761
12883TIP3    H160064   3.790   1.642   3.297  0.7339  0.9637 -0.1790
12883TIP3    H260065   3.879   1.756   3.253 -0.2071  1.9178  0.3596
12884TIP3   OH260066   5.519   0.888  11.839  0.2448 -0.0044 -0.4532
12884TIP3    H160067   5.478   0.968  11.804  0.7853 -0.9955 -3.4919
12884TIP3    H260068   5.445   0.832  11.862 -0.1444 -0.0511 -1.7787
12885TIP3   OH260069   4.824   2.064   5.890  0.5197  0.1467 -0.3650
12885TIP3    H160070   4.868   2.077   5.974  1.4048  1.4964 -1.0350
12885TIP3    H260071   4.812   1.969   5.884 -0.0636  0.0763  1.5370
12886TIP3   OH260072   2.383   2.924   0.680 -0.0779 -0.0187  0.3634
12886TIP3    H160073   2.329   3.002   0.695 -0.5115  0.0991 -1.7687
12886TIP3    H260074   2.326   2.851   0.705 -0.7832  0.1713 -0.6733
12887TIP3   OH260075   1.659   6.750   6.044  0.2587  0.4198 -0.2834
12887TIP3    H160076   1.628   6.691   5.974  0.3513 -0.4755  0.4220
12887TIP3    H260077   1.594   6.740   6.113  0.3687  1.0315 -0.0949
12888TIP3   OH260078   2.453   1.240   1.558  0.1536 -0.0737 -0.4384
12888TIP3    H160079   2.540   1.201   1.554  0.4689  0.7180 -1.8657
12888TIP3    H260080   2.395   1.174   1.519  0.0448 -0.7824  0.9234
12889TIP3   OH260081   0.842   1.455  12.433  0.0388 -0.6846 -0.2329
12889TIP3    H160082   0.938   1.458  12.427  0.1497  2.4760  1.6699
12889TIP3    H260083   0.825   1.408  12.514  0.1342  1.2618  0.9632
12890TIP3   OH260084   5.917   5.925  15.999  0.6582  0.1445 -0.3295
12890TIP3    H160085   5.866   5.912  15.919 -0.0251  0.9540 -0.0286
12890TIP3    H260086   5.962   5.841  16.012 -1.4515 -0.9782 -0.0079
12891TIP3   OH260087   5.189   1.727   0.793 -0.3999  0.4812  0.1185
12891TIP3    H160088   5.138   1.802   0.762  1.3878  1.1164 -1.3647
12891TIP3    H260089   5.199   1.671   0.716 -1.0859 -0.9413  1.0365
12892TIP3   OH260090   3.187   1.717   5.320  0.3302 -0.5316 -0.3684
12892TIP3    H160091   3.273   1.682   5.341  0.4913  0.7287  1.1375
12892TIP3    H260092   3.171   1.783   5.387 -0.8350  0.8416 -1.9598
12893TIP3   OH260093   0.244   5.253   1.783 -0.3605 -0.2725  0.6178
12893TIP3    H160094   0.333   5.224   1.804 -0.7010 -1.6432  0.2617
12893TIP3    H260095   0.188   5.183   1.815 -1.2560  0.2335  0.1740
12894TIP3   OH260096   4.310   2.547   0.688 -0.2763  0.2542  0.4182
12894TIP3    H160097   4.293   2.472   0.630  1.3436  0.7109 -0.6804
12894TIP3    H260098   4.241   2.542   0.754  0.9498 -3.4146  1.5873
12895TIP3   OH260099   3.572   6.069  16.473  0.2638 -0.1259  0.4342
12895TIP3    H160100   3.668   6.073  16.471  0.3831 -2.3766 -0.7674
12895TIP3    H260101   3.544   6.140  16.416  1.2153  0.6871  0.9609
12896TIP3   OH260102   0.306   6.166  10.993 -0.0871  0.2033  0.0235
12896TIP3    H160103   0.399   6.187  11.008 -0.7969  2.4142  1.5227
12896TIP3    H260104   0.298   6.074  11.019  1.7539 -0.0917 -0.3883
12897TIP3   OH260105   3.459   0.347  15.010 -0.6197 -0.5679 -0.0359
12897TIP3    H160106   3.488   0.366  14.920 -0.7092 -0.2868 -0.0032
12897TIP3    H260107   3.538   0.360  15.063 -1.0837  1.3868  0.2169
12898TIP3   OH260108   6.709   3.612   4.720  0.5464 -0.1860  0.2758
12898TIP3    H160109   6.733   3.654   4.802 -2.4406 -1.4019  1.8364
12898TIP3    H260110   6.615   3.630   4.710  0.3751 -1.9829 -1.7031
12899TIP3   OH260111   4.989   2.178  15.640 -0.5654 -0.1676  0.2510
12899TIP3    H160112   4.930   2.241  15.598 -0.8115 -0.6172 -0.0843
12899TIP3    H260113   4.987   2.102  15.583  2.3470  0.7217 -1.1333
12900TIP3   OH260114   6.375   5.875  15.602  0.3357  0.4663 -0.1513
12900TIP3    H160115   6.438   5.828  15.547 -0.1367  1.5405 -1.6697
12900TIP3    H260116   6.356   5.816  15.674 -0.0097 -1.5502 -1.8538
12901TIP3   OH260117   5.026   4.060  12.319  0.2038  0.5484 -0.5137
12901TIP3    H160118   4.933   4.045  12.303 -0.2658  2.4412  0.2730
12901TIP3    H260119   5.043   4.021  12.405 -0.2170  1.4769 -0.0012
12902TIP3   OH260120   0.216   1.152   3.618 -0.1112  0.1446  0.0971
12902TIP3    H160121   0.268   1.120   3.692 -1.3430 -0.5374  0.6728
12902TIP3    H260122   0.277   1.207   3.569  0.7811  0.4407  1.5014
12903TIP3   OH260123   6.373   3.812  12.013  0.0374 -0.4742 -0.0898
12903TIP3    H160124   6.299   3.864  12.042 -0.7538 -2.1401  0.9420
12903TIP3    H260125   6.441   3.827  12.079 -0.7948 -2.0881  1.1526
12904TIP3   OH260126   1.960   5.748   0.731  0.1921  0.1700  0.5505
12904TIP3    H160127   2.034   5.735   0.790  0.2732  0.3424  0.4877
12904TIP3    H260128   1.959   5.670   0.676 -0.0168 -0.0907  0.9244
12905TIP3   OH260129   4.074   4.978   4.708  0.6040  0.6727 -0.5032
12905TIP3    H160130   4.026   5.053   4.673 -0.0597  0.7387  0.5033
12905TIP3    H260131   4.075   4.914   4.637 -1.6358  0.3865 -0.3228
12906TIP3   OH260132   3.497   6.706   1.483 -0.5831  0.2802 -0.0375
12906TIP3    H160133   3.435   6.771   1.516 -1.1329  1.3698 -3.0662
12906TIP3    H260134   3.567   6.758   1.444 -0.2338 -0.9597 -1.0772
12907TIP3   OH260135   5.766   1.106  16.835 -0.2497 -0.0552 -0.0862
12907TIP3    H160136   5.710   1.131  16.909  1.2629  1.0826  0.6973
12907TIP3    H260137   5.848   1.079  16.875 -0.2685 -1.9163 -1.2191
12908TIP3   OH260138   5.123   5.204   1.018  0.1346 -0.6296  0.0325
12908TIP3    H160139   5.041   5.162   0.991 -0.1781 -0.4139  0.6300
12908TIP3    H260140   5.187   5.133   1.019 -0.3443 -1.0648  0.8298
12909TIP3   OH260141   3.347   3.608  15.727 -0.7364  0.4220 -0.2943
12909TIP3    H160142   3.395   3.637  15.649  1.4787 -0.8108  0.5594
12909TIP3    H260143   3.273   3.558  15.692  0.2515 -0.1533 -1.6264
12910TIP3   OH260144   4.499   6.750   5.907  0.4443 -0.4529  0.0115
12910TIP3    H160145   4.457   6.702   5.836 -2.1225 -0.0155  1.1663
12910TIP3    H260146   4.433   6.815   5.934  2.4593  1.2995  0.8650
12911TIP3   OH260147   2.090   0.979  13.169  0.5554  0.0528  0.3670
12911TIP3    H160148   2.013   0.923  13.174 -0.5103  1.5082  0.5276
12911TIP3    H260149   2.157   0.925  13.126 -0.3080 -1.4717  0.9295
12912TIP3   OH260150   6.067   0.342  15.623 -0.3740  1.0252 -0.0621
12912TIP3    H160151   6.076   0.435  15.603  1.0201  0.8335 -0.3631
12912TIP3    H260152   5.984   0.336  15.670 -0.8564  2.3061 -0.7256
12913TIP3   OH260153   4.960   1.030   6.143 -0.2238 -0.2769  0.0372
12913TIP3    H160154   4.953   1.124   6.160  2.7537 -0.3025  1.7444
12913TIP3    H260155   4.912   0.988   6.214  0.8480 -0.0733  0.9010
12914TIP3   OH260156   4.702   3.607  15.735  0.2617  0.4146  0.7595
12914TIP3    H160157   4.715   3.572  15.647 -0.8061  0.7778  0.4462
12914TIP3    H260158   4.636   3.548  15.774  1.0112  0.0266  1.4523
12915TIP3   OH260159   3.227   5.492  14.847  0.4357 -0.1551 -0.1900
12915TIP3    H160160   3.176   5.515  14.926  2.5398  1.6502  0.7008
12915TIP3    H260161   3.194   5.552  14.780  1.5795  1.2632  0.4799
12916TIP3   OH260162   3.101   2.933  15.157 -0.1423  0.3785 -0.0386
12916TIP3    H160163   3.068   2.872  15.223 -1.1127  0.5403 -0.3679
12916TIP3    H260164   3.195   2.937  15.174 -0.2019 -0.4992  0.5751
12917TIP3   OH260165   2.500   2.275   2.763 -0.0959  0.4146  0.3071
12917TIP3    H160166   2.539   2.275   2.850  0.3602 -1.0974  0.1139
12917TIP3    H260167   2.541   2.201   2.718 -0.7917  0.7911 -0.9770
12918TIP3   OH260168   1.249   3.692  11.837 -0.4932 -0.4751 -0.8687
12918TIP3    H160169   1.274   3.624  11.900  0.3610 -1.2187 -1.9901
12918TIP3    H260170   1.208   3.760  11.890 -0.8486 -1.6155  0.3420
12919TIP3   OH260171   1.633   1.842  15.258  0.3101 -0.5945 -0.1223
12919TIP3    H160172   1.726   1.852  15.236  0.2590  1.0546  0.3818
12919TIP3    H260173   1.586   1.878  15.184  0.1084  1.0830  0.7947
12920TIP3   OH260174   3.431   1.291   2.685  0.0638 -0.2365  0.1935
12920TIP3    H160175   3.393   1.344   2.755  1.0324  1.3597 -0.4667
12920TIP3    H260176   3.432   1.202   2.720 -1.3421  0.2054  1.4204
12921TIP3   OH260177   1.906   3.815  13.199  0.0997  0.0327  0.0708
12921TIP3    H160178   1.887   3.745  13.137  0.4121  0.2151 -0.2322
12921TIP3    H260179   1.838   3.807  13.265 -0.5688  0.2067 -0.5985
12922TIP3   OH260180   3.684   3.652  12.038 -0.2134  0.3321  0.3328
12922TIP3    H160181   3.731   3.583  12.084  0.1361 -0.3223 -0.9886
12922TIP3    H260182   3.718   3.733  12.075  3.2116 -0.0696 -1.6984
12923TIP3   OH260183   2.463   5.713   0.361 -0.1430 -0.1525  0.0098
12923TIP3    H160184   2.518   5.658   0.417 -0.3590 -1.8232 -1.3785
12923TIP3    H260185   2.434   5.655   0.291 -0.7196  1.6284 -1.2790
12924TIP3   OH260186   2.892   2.049   2.518 -0.1762 -0.2143 -0.1550
12924TIP3    H160187   2.954   2.008   2.578 -0.0636  1.3301  0.8076
12924TIP3    H260188   2.909   2.143   2.527 -0.7428  0.0695 -1.9780
12925TIP3   OH260189   4.607   2.111  11.562  0.2314  0.1988 -0.5784
12925TIP3    H160190   4.571   2.192  11.528  1.6406  0.8651 -0.5080
12925TIP3    H260191   4.535   2.071  11.611 -0.0939  2.0441  0.4889
12926TIP3   OH260192   3.220   4.665  13.344  0.2320 -0.3812  0.2113
12926TIP3    H160193   3.167   4.672  13.423  0.9368  1.3923  0.5471
12926TIP3    H260194   3.287   4.600  13.365 -0.4645 -0.9978  0.5457
12927TIP3   OH260195   2.238   3.105  14.019 -0.1408  0.2656 -0.2676
12927TIP3    H160196   2.156   3.110  14.069 -0.2709 -0.1833 -0.4408
12927TIP3    H260197   2.258   3.012  14.014  0.2614  0.3597 -0.4246
12928TIP3   OH260198   4.685   4.106   2.860  0.6628 -0.1693 -0.0792
12928TIP3    H160199   4.621   4.035   2.869  0.7513 -0.3103 -0.5335
12928TIP3    H260200   4.634   4.186   2.863  0.6333 -0.2239  1.1352
12929TIP3   OH260201   1.218   3.387   5.590 -0.8831 -0.2477  0.4066
12929TIP3    H160202   1.230   3.309   5.644 -0.7616 -0.7644 -0.3696
12929TIP3    H260203   1.210   3.355   5.501 -1.3308  0.5931  0.1348
12930TIP3   OH260204   1.245   0.607   2.431 -0.8416 -0.2957  0.4781
12930TIP3    H160205   1.334   0.598   2.397 -0.6160 -0.1749  1.0365
12930TIP3    H260206   1.253   0.670   2.502 -1.2691 -0.7569  0.9337
12931TIP3   OH260207   4.589   2.741  15.980 -0.2654  0.2765 -0.2426
12931TIP3    H160208   4.660   2.805  15.971  0.7134 -0.7558 -0.0514
12931TIP3    H260209   4.554   2.755  16.068 -0.5824  1.0788 -0.4977
12932TIP3   OH260210   6.011   1.386  14.809 -0.3985 -0.4216  0.0626
12932TIP3    H160211   5.925   1.356  14.838  0.1080 -1.1717  0.8309
12932TIP3    H260212   6.000   1.405  14.716 -2.0139  1.7808  0.6452
12933TIP3   OH260213   1.884   0.427   6.326  0.5202  0.7033 -0.3365
12933TIP3    H160214   1.816   0.387   6.381  2.7033 -0.9126  1.2568
12933TIP3    H260215   1.896   0.515   6.362 -0.0537  0.6721 -0.0622
12934TIP3   OH260216   4.708   2.491  16.440 -0.1592  0.3058 -0.0525
12934TIP3    H160217   4.760   2.428  16.490 -2.9219 -1.2763  0.9597
12934TIP3    H260218   4.687   2.559  16.503  0.1987  0.6474 -0.3027
12935TIP3   OH260219   1.551   3.077  11.892 -0.6879 -0.1298 -0.1703
12935TIP3    H160220   1.463   3.104  11.918 -0.6853 -1.5365  1.3282
12935TIP3    H260221   1.570   3.131  11.815 -2.3358  1.1188  0.2656
12936TIP3   OH260222   2.850   6.135  15.746  0.2289 -0.2131  0.0621
12936TIP3    H160223   2.846   6.228  15.727 -0.0107 -0.3310 -0.4576
12936TIP3    H260224   2.942   6.119  15.768  0.2925  0.1192  0.0396
12937TIP3   OH260225   3.314   1.413   0.827 -0.0836 -0.1845  0.6017
12937TIP3    H160226   3.219   1.425   0.819  0.1932  1.6313 -0.1492
12937TIP3    H260227   3.343   1.387   0.740  0.3055  0.6204  0.4931
12938TIP3   OH260228   3.549   0.424  14.765  0.1702  0.0306 -0.4543
12938TIP3    H160229   3.585   0.506  14.732 -0.9766  1.1705  1.0603
12938TIP3    H260230   3.569   0.360  14.696  1.5513  1.4448 -1.4109
12939TIP3   OH260231   1.278   2.477   0.859  0.1917 -0.4876  0.2464
12939TIP3    H160232   1.291   2.548   0.796  1.5632 -0.3325  0.6839
12939TIP3    H260233   1.338   2.408   0.829 -1.5253 -1.7003 -0.4966
12940TIP3   OH260234   6.175   2.897  14.229  0.3518  0.1022  0.5351
12940TIP3    H160235   6.243   2.962  14.245 -0.3561  1.0515 -0.2410
12940TIP3    H260236   6.221   2.813  14.229  1.4388  0.6966  0.5303
12941TIP3   OH260237   4.558   1.806  13.707 -0.5870  0.3213  0.1423
12941TIP3    H160238   4.474   1.788  13.749 -0.2298  0.1685  0.8057
12941TIP3    H260239   4.536   1.823  13.615 -1.2540 -0.4548  0.1574
12942TIP3   OH260240   3.667   1.294   4.310 -0.0307  0.7802  0.4513
12942TIP3    H160241   3.585   1.306   4.263  0.5877 -0.3678 -0.9381
12942TIP3    H260242   3.646   1.319   4.400 -2.1642 -0.4255  0.3221
12943TIP3   OH260243   0.909   2.364   6.126 -0.0584 -0.7591  0.5347
12943TIP3    H160244   0.908   2.316   6.209  3.0794 -0.8172  0.5836
12943TIP3    H260245   0.931   2.299   6.060 -0.7340 -0.3418 -0.1234
12944TIP3   OH260246   5.325   3.297  12.796  0.2259 -0.0157 -0.4266
12944TIP3    H160247   5.240   3.263  12.822 -0.1876  0.7083 -0.8286
12944TIP3    H260248   5.310   3.341  12.713  1.2383 -0.9689 -1.1339
12945TIP3   OH260249   5.182   0.302   2.548 -0.1008 -0.3523 -0.0498
12945TIP3    H160250   5.256   0.323   2.605 -0.5464  0.9370  0.0657
12945TIP3    H260251   5.121   0.254   2.604  0.1024 -0.3510  0.1741
12946TIP3   OH260252   6.500   2.189   1.469  0.1280  0.4869  0.3925
12946TIP3    H160253   6.454   2.115   1.508  1.2360  0.0449  0.9010
12946TIP3    H260254   6.504   2.168   1.375 -0.4555  0.3987  0.3863
12947TIP3   OH260255   3.543   6.540  10.490  0.0345  0.1622  0.6454
12947TIP3    H160256   3.562   6.617  10.437 -2.0192  1.6395  1.9658
12947TIP3    H260257   3.620   6.531  10.547  1.1853 -0.0125 -0.8999
12948TIP3   OH260258   1.369   6.133  12.527 -0.4901  0.4051 -0.4931
12948TIP3    H160259   1.280   6.163  12.547 -0.4672  0.2142 -0.0914
12948TIP3    H260260   1.382   6.154  12.435 -1.8769 -1.8441 -1.2361
12949TIP3   OH260261   2.310   0.077   1.744 -0.2737 -0.0280 -0.0063
12949TIP3    H160262   2.307  -0.013   1.710 -0.6385 -0.3586  0.8844
12949TIP3    H260263   2.254   0.127   1.685 -0.5735 -0.5117 -0.1336
12950TIP3   OH260264   0.691   4.787  13.371 -0.4567  0.4694 -0.0738
12950TIP3    H160265   0.721   4.738  13.294  0.7096  1.0960 -0.0156
12950TIP3    H260266   0.614   4.738  13.401 -0.2656 -0.4071 -0.9758
12951TIP3   OH260267   1.160   6.208  12.855  0.0686  0.2454 -0.1920
12951TIP3    H160268   1.093   6.236  12.917  0.7437 -1.8475  1.5590
12951TIP3    H260269   1.116   6.145  12.798 -0.1180  0.8784 -0.7522
12952TIP3   OH260270   5.651   4.588   1.055 -0.6803 -0.3097 -0.7124
12952TIP3    H160271   5.737   4.630   1.058 -1.3683  1.1325 -0.2695
12952TIP3    H260272   5.593   4.655   1.018 -1.6183 -1.2406 -0.9570
12953TIP3   OH260273   0.611   6.673  12.578  0.0106 -0.2582 -0.0556
12953TIP3    H160274   0.686   6.710  12.531 -0.9302 -0.8503 -2.0719
12953TIP3    H260275   0.556   6.748  12.599 -0.6554 -0.1999 -1.9125
12954TIP3   OH260276   3.619   2.159   2.392  0.0516 -0.5275 -0.1083
12954TIP3    H160277   3.548   2.111   2.434 -1.0904  0.0648 -1.3198
12954TIP3    H260278   3.697   2.107   2.409 -0.6411 -1.1197  1.3590
12955TIP3   OH260279   1.272   1.775   1.169  0.0320 -0.1049 -0.1962
12955TIP3    H160280   1.187   1.737   1.193 -0.4895  1.6753  0.8618
12955TIP3    H260281   1.289   1.741   1.081 -0.7226 -2.2298  0.4560
12956TIP3   OH260282   2.206   4.815   3.932  0.3966 -0.3808  0.1779
12956TIP3    H160283   2.148   4.805   4.008 -0.6916  1.4425 -0.3807
12956TIP3    H260284   2.218   4.726   3.899  0.7488 -1.1726  2.3786
12957TIP3   OH260285   4.971   6.483  16.984  0.2553 -0.2130  0.4762
12957TIP3    H160286   4.882   6.482  16.949 -0.0096 -1.0906  1.1451
12957TIP3    H260287   5.023   6.528  16.917 -0.7434  0.5894  0.2290
12958TIP3   OH260288   0.217   1.724   0.098  0.3964 -0.0529 -0.3085
12958TIP3    H160289   0.222   1.629   0.109  0.2386  0.0042  0.3255
12958TIP3    H260290   0.269   1.743   0.020 -0.2154 -0.7440 -0.8871
12959TIP3   OH260291   4.808   0.719   2.248  0.0759  0.0125  0.0149
12959TIP3    H160292   4.810   0.627   2.224 -0.1835 -0.2583  1.0044
12959TIP3    H260293   4.837   0.765   2.169  0.7229 -0.9444 -0.3176
12960TIP3   OH260294   5.460   0.228  11.542  0.1462 -0.2715  0.3869
12960TIP3    H160295   5.548   0.189  11.547  0.3649  0.1312 -0.2644
12960TIP3    H260296   5.401   0.154  11.554  0.5532 -0.9451 -1.4882
12961TIP3   OH260297   6.601   2.393   0.999  0.2366 -0.2446  0.1763
12961TIP3    H160298   6.659   2.468   1.011 -0.1932  0.2593 -0.8450
12961TIP3    H260299   6.603   2.376   0.905 -0.6585 -0.7192  0.2385
12962TIP3   OH260300   5.321   1.885   3.394  0.1290  0.4721 -0.0853
12962TIP3    H160301   5.301   1.805   3.345 -0.7771 -0.3922  1.6610
12962TIP3    H260302   5.416   1.880   3.408  0.0320 -0.4627  0.2869
12963TIP3   OH260303   5.572   4.657  14.349  0.4650 -0.2367  0.3681
12963TIP3    H160304   5.655   4.630  14.312  0.7636  0.6324  0.4097
12963TIP3    H260305   5.594   4.698  14.432 -0.1616 -1.7492  1.3140
12964TIP3   OH260306   2.222   2.501   1.158 -0.0448 -0.0246  0.3139
12964TIP3    H160307   2.244   2.484   1.250  0.2755 -0.2004  0.2064
12964TIP3    H260308   2.130   2.479   1.151 -0.3480  1.0311  0.8509
12965TIP3   OH260309   6.081   4.733   1.813 -0.3775  0.3243 -0.6221
12965TIP3    H160310   6.066   4.816   1.858 -2.0571  0.0869 -0.7093
12965TIP3    H260311   6.054   4.666   1.876  2.7548 -0.2950  0.1764
12966TIP3   OH260312   2.257   1.528   2.840 -0.4590  0.2020  0.2409
12966TIP3    H160313   2.257   1.473   2.919 -1.1402 -0.3523 -0.1430
12966TIP3    H260314   2.346   1.565   2.837 -0.0227 -0.8043  0.5538
12967TIP3   OH260315   5.878   3.325  10.896  0.0337 -0.7180 -0.0157
12967TIP3    H160316   5.954   3.382  10.887 -2.5111  2.8926 -0.1364
12967TIP3    H260317   5.899   3.267  10.969  3.4812 -0.9148 -1.0874
12968TIP3   OH260318   0.937   0.116   4.162 -0.5992 -0.2816  0.6913
12968TIP3    H160319   0.992   0.108   4.240 -0.3686  0.7504  0.6368
12968TIP3    H260320   0.996   0.148   4.094 -0.4831 -2.4157 -0.2762
12969TIP3   OH260321   2.325   4.020  12.516  0.5026 -0.2379 -0.1384
12969TIP3    H160322   2.305   3.998  12.607 -2.1881 -1.7269 -1.0106
12969TIP3    H260323   2.253   4.078  12.490  1.3232  0.2701 -1.2852
12970TIP3   OH260324   5.263   4.350  15.951 -0.2486 -0.4610  0.4690
12970TIP3    H160325   5.323   4.276  15.962 -0.9371 -1.2911 -1.2448
12970TIP3    H260326   5.262   4.393  16.037  0.2473 -2.3718  1.4539
12971TIP3   OH260327   1.807   3.263   5.173 -1.0930  0.4794  0.1339
12971TIP3    H160328   1.884   3.291   5.222 -1.0872  0.1747  0.3003
12971TIP3    H260329   1.754   3.342   5.164 -0.4244  0.8437 -0.6024
12972TIP3   OH260330   3.867   5.799  11.043  0.1717  0.0430  0.0029
12972TIP3    H160331   3.884   5.814  11.136  0.3137  0.3817 -0.0793
12972TIP3    H260332   3.788   5.744  11.042 -0.2941  0.6998  0.2980
12973TIP3   OH260333   2.600   4.353   6.111 -0.2815  0.1382  0.3182
12973TIP3    H160334   2.674   4.365   6.171 -3.5438  4.6798  3.7797
12973TIP3    H260335   2.547   4.284   6.151 -0.2148  0.0895  0.3211
12974TIP3   OH260336   3.038   6.528  11.013  0.1676  0.1032  0.2175
12974TIP3    H160337   2.974   6.482  10.960  1.4524  0.3718 -1.6008
12974TIP3    H260338   3.120   6.479  11.001  0.7598  0.8831  0.9470
12975TIP3   OH260339   5.623   3.528  15.134  0.1054 -0.4448  0.0338
12975TIP3    H160340   5.717   3.530  15.116  0.4094  0.8726  1.6467
12975TIP3    H260341   5.588   3.606  15.092 -0.4137 -1.3687 -1.2676
12976TIP3   OH260342   0.808   2.917   1.695 -0.4758 -0.6767 -0.1275
12976TIP3    H160343   0.798   2.825   1.720  0.9087 -1.0241 -0.8141
12976TIP3    H260344   0.812   2.916   1.600 -1.7465  0.2379 -0.2031
12977TIP3   OH260345   0.654   1.890   0.422  0.4273  0.1066  0.1614
12977TIP3    H160346   0.691   1.809   0.457 -1.2386  0.2701  2.4795
12977TIP3    H260347   0.668   1.954   0.492 -2.8689  0.4987  0.5493
12978TIP3   OH260348   6.169   0.398  12.652  0.1277  0.4112 -0.2975
12978TIP3    H160349   6.087   0.351  12.667  0.8272 -0.5601  0.5387
12978TIP3    H260350   6.222   0.339  12.599  1.0425  0.1893  0.8357
12979TIP3   OH260351   4.910   1.024   5.099 -0.4989  0.2077  0.5914
12979TIP3    H160352   4.939   0.937   5.071 -0.9931  0.3834 -0.4888
12979TIP3    H260353   4.982   1.057   5.154  0.5984 -0.0520 -0.6660
12980TIP3   OH260354   5.085   6.584  11.149  0.1197 -0.0479  0.3177
12980TIP3    H160355   5.175   6.575  11.118 -0.8939 -3.2742 -1.8873
12980TIP3    H260356   5.064   6.677  11.136  2.0625  0.0687 -2.2173
12981TIP3   OH260357   1.671   1.440   1.189 -0.7318 -0.1176 -0.2206
12981TIP3    H160358   1.742   1.503   1.181 -0.5712 -0.0096  1.6701
12981TIP3    H260359   1.715   1.357   1.208 -1.0378 -0.4080 -0.7682
12982TIP3   OH260360   4.217   1.628   1.349  0.3578  0.4626 -0.1261
12982TIP3    H160361   4.169   1.615   1.431  0.3752 -0.6276 -0.2864
12982TIP3    H260362   4.271   1.549   1.340  2.1712  1.6526  0.0433
12983TIP3   OH260363   4.848   3.621  12.210  0.1912 -0.1414  0.1785
12983TIP3    H160364   4.869   3.638  12.301  0.8417  1.7996 -0.3083
12983TIP3    H260365   4.933   3.602  12.169  0.3025  1.8447 -0.5817
12984TIP3   OH260366   0.376   0.782   3.900 -0.4000  0.7240 -0.0431
12984TIP3    H160367   0.322   0.705   3.884  2.2064 -1.1178 -0.2635
12984TIP3    H260368   0.349   0.813   3.986 -2.0845  0.0895 -0.3307
12985TIP3   OH260369   2.649   2.748  11.679 -0.2717  0.4008  0.6298
12985TIP3    H160370   2.739   2.730  11.707  0.5732  0.1185 -2.1021
12985TIP3    H260371   2.630   2.835  11.713  1.3263  0.8052  0.5209
12986TIP3   OH260372   5.506   3.282  11.352 -0.2831  0.2478 -0.7797
12986TIP3    H160373   5.457   3.264  11.272 -0.3939 -0.2975 -0.5875
12986TIP3    H260374   5.447   3.258  11.423 -0.4817  1.4584 -0.5108
12987TIP3   OH260375   1.348   1.982  15.951  0.5826 -0.3059 -0.1238
12987TIP3    H160376   1.391   1.947  16.030 -1.4775 -0.0608  1.1396
12987TIP3    H260377   1.356   2.077  15.960 -2.8172 -0.0982  1.7114
12988TIP3   OH260378   2.193   3.806  13.218  0.0597 -0.3600  0.2119
12988TIP3    H160379   2.226   3.884  13.174 -1.2230  0.3544  0.4971
12988TIP3    H260380   2.098   3.808  13.203 -0.1439 -1.1642  1.3164
12989TIP3   OH260381   5.975   3.072  11.102  0.2749 -0.6315  0.7694
12989TIP3    H160382   6.038   3.011  11.065 -1.4093 -1.9096 -0.0402
12989TIP3    H260383   6.019   3.107  11.180  2.1559 -1.1293 -0.0428
12990TIP3   OH260384   1.790   2.249  14.693 -0.0902  0.1240  0.0126
12990TIP3    H160385   1.806   2.310  14.765 -0.9899  1.6873 -1.0740
12990TIP3    H260386   1.877   2.234  14.655  0.5596 -1.6322  2.1038
12991TIP3   OH260387   6.705   2.069   4.888 -0.0927 -0.3002  0.5325
12991TIP3    H160388   6.796   2.096   4.899 -0.7265  2.1595  0.0078
12991TIP3    H260389   6.658   2.115   4.957 -0.9292 -1.6710  0.8907
12992TIP3   OH260390   5.230   1.275  11.358 -0.3509 -0.5299 -0.1262
12992TIP3    H160391   5.306   1.320  11.396 -0.0193 -2.0596  1.0591
12992TIP3    H260392   5.154   1.319  11.398 -0.0379 -0.8218  0.7951
12993TIP3   OH260393   4.324   5.615  17.117 -0.0895  0.7697 -0.2981
12993TIP3    H160394   4.260   5.631  17.185 -1.1241  0.8657 -1.2815
12993TIP3    H260395   4.406   5.598  17.164 -0.5140  2.0301  0.9256
12994TIP3   OH260396   6.388   2.346   1.772 -0.2348 -0.4108  0.2246
12994TIP3    H160397   6.405   2.384   1.858  0.1761 -1.4566  0.6198
12994TIP3    H260398   6.438   2.264   1.772 -1.8920 -1.4653 -0.2019
12995TIP3   OH260399   0.451   6.610  14.999  0.4203 -0.0891  0.2261
12995TIP3    H160400   0.473   6.619  14.906  0.2121  0.4596  0.2243
12995TIP3    H260401   0.399   6.530  15.004  0.6079 -0.2326 -0.0968
12996TIP3   OH260402   0.235   5.711  13.860 -0.3220  0.8944  0.4314
12996TIP3    H160403   0.327   5.693  13.881 -1.3258 -1.9612  2.7204
12996TIP3    H260404   0.201   5.756  13.937 -1.6662 -1.1189  1.0473
12997TIP3   OH260405   6.114   0.931   2.500 -0.3727  0.5257  0.1142
12997TIP3    H160406   6.114   0.911   2.406  2.4142  1.5508 -0.1575
12997TIP3    H260407   6.095   1.024   2.504 -0.5316  0.4723  0.5711
12998TIP3   OH260408   6.524   6.231  15.610  0.7615 -0.1687  0.0196
12998TIP3    H160409   6.520   6.144  15.650  0.4760 -0.2579 -0.1997
12998TIP3    H260410   6.453   6.280  15.652  3.4499  1.2546  3.1726
12999TIP3   OH260411   1.774   3.335   4.446  0.5149 -0.0218  0.1148
12999TIP3    H160412   1.727   3.291   4.375  1.1232  0.8629 -0.8490
12999TIP3    H260413   1.726   3.418   4.459  0.0133 -0.4691  1.1931
13000TIP3   OH260414   1.079   4.475  15.201  0.4382  0.5159  0.3712
13000TIP3    H160415   1.144   4.504  15.137  1.8358  0.8193  1.9105
13000TIP3    H260416   1.130   4.439  15.273 -1.1694 -2.7209  0.0159
13001TIP3   OH260417   2.061   6.633  11.330 -0.1324 -0.0619 -0.0767
13001TIP3    H160418   1.976   6.665  11.361 -0.0011  1.8466 -1.5987
13001TIP3    H260419   2.072   6.549  11.374 -2.3582  0.1195  0.9097
13002TIP3   OH260420   1.502   2.127   4.750 -0.3634 -0.4378 -0.5498
13002TIP3    H160421   1.582   2.176   4.732  0.4927 -1.4255  0.4562
13002TIP3    H260422   1.488   2.139   4.844 -1.2310 -0.5142 -0.6702
13003TIP3   OH260423   2.124   1.988  14.841 -0.1738 -0.2478  0.1568
13003TIP3    H160424   2.042   1.944  14.818 -1.0305  0.9315  0.8511
13003TIP3    H260425   2.154   2.029  14.760 -0.3448 -0.5754 -0.0706
13004TIP3   OH260426   1.418   2.643  11.014 -0.9397 -0.0981 -0.5070
13004TIP3    H160427   1.509   2.655  10.989 -0.6867 -0.6525  0.1400
13004TIP3    H260428   1.382   2.732  11.015 -0.6050  0.0579 -1.4721
13005TIP3   OH260429   2.382   3.648  16.629  0.2198  0.3785 -0.3792
13005TIP3    H160430   2.475   3.670  16.623  0.2820  0.2868  0.2805
13005TIP3    H260431   2.344   3.681  16.547  0.9684 -0.2553 -0.9931
13006TIP3   OH260432   6.476   2.733   1.800  0.0578 -0.2243  0.3045
13006TIP3    H160433   6.506   2.642   1.794 -0.7918 -0.6169  1.5409
13006TIP3    H260434   6.404   2.729   1.863  0.3914  1.4019  0.8081
13007TIP3   OH260435   4.388   5.732  16.865 -0.2163 -0.4232  0.0715
13007TIP3    H160436   4.352   5.668  16.803 -0.3804 -0.2424 -0.0233
13007TIP3    H260437   4.362   5.699  16.951  1.3522 -1.5083  0.1388
13008TIP3   OH260438   6.614   1.078   2.888  0.0052 -0.2550 -0.5066
13008TIP3    H160439   6.586   1.076   2.979 -0.0755  1.4356 -0.4903
13008TIP3    H260440   6.690   1.137   2.887 -0.9580  0.9976 -1.7840
13009TIP3   OH260441   1.102   4.809   0.920 -0.9636 -0.2146 -0.1214
13009TIP3    H160442   1.163   4.871   0.958 -0.7733 -1.3271  1.4443
13009TIP3    H260443   1.023   4.817   0.973 -1.3703 -0.4173 -0.6893
13010TIP3   OH260444   3.937   5.526  11.667  0.5427  0.1187 -0.0387
13010TIP3    H160445   4.007   5.568  11.618 -0.6313 -0.0940 -1.9526
13010TIP3    H260446   3.859   5.536  11.611 -0.9366  0.2987  2.0089
13011TIP3   OH260447   0.890   1.215  16.232  0.2571  0.0723  0.5245
13011TIP3    H160448   0.878   1.288  16.292 -0.3869 -0.7282  1.3783
13011TIP3    H260449   0.836   1.145  16.268  1.4108 -1.0561  0.0893
13012TIP3   OH260450   5.043   5.505   2.401 -0.0875 -0.3088 -0.8082
13012TIP3    H160451   4.959   5.463   2.384 -1.3582  1.8497 -0.0786
13012TIP3    H260452   5.056   5.563   2.327 -0.6185  1.4334  0.4416
13013TIP3   OH260453   4.287   6.461   6.489  0.4814  0.6025 -0.3358
13013TIP3    H160454   4.269   6.526   6.557 -0.2221 -0.9080  0.9864
13013TIP3    H260455   4.380   6.439   6.501  0.1161 -0.3731  0.8106
13014TIP3   OH260456   1.831   5.459   5.183  0.0257 -0.3225  0.1312
13014TIP3    H160457   1.908   5.513   5.165 -0.6827  0.0024 -2.1418
13014TIP3    H260458   1.786   5.504   5.255 -0.3930  1.9766 -1.5151
13015TIP3   OH260459   1.362   4.796   0.791  0.4502 -0.7849 -0.0268
13015TIP3    H160460   1.411   4.845   0.726 -1.2140  0.8427 -0.1084
13015TIP3    H260461   1.340   4.861   0.858  0.9062 -2.1196  1.4462
13016TIP3   OH260462   1.695   3.788   3.807 -0.1293 -0.0570 -0.0955
13016TIP3    H160463   1.692   3.829   3.720 -0.9985 -0.6282 -0.3375
13016TIP3    H260464   1.610   3.747   3.817 -0.4507  0.9594  1.4983
13017TIP3   OH260465   3.611   1.093   4.079 -0.8772 -0.1407 -0.5789
13017TIP3    H160466   3.672   1.166   4.091 -0.9532  0.0289 -1.2030
13017TIP3    H260467   3.582   1.072   4.168  1.7135 -1.6532 -0.0520
13018TIP3   OH260468   3.930   3.493   0.350  0.3915  0.1982  0.0694
13018TIP3    H160469   3.935   3.419   0.411  1.5748 -0.8906 -1.3284
13018TIP3    H260470   4.011   3.542   0.366  0.6821 -0.0641 -0.5812
13019TIP3   OH260471   0.053   2.559   0.473 -0.0165 -0.5324  0.1802
13019TIP3    H160472  -0.036   2.576   0.503 -0.1562 -1.8461  0.5641
13019TIP3    H260473   0.097   2.643   0.479 -0.8687 -0.1512  1.2276
13020TIP3   OH260474   4.139   6.122  12.162  0.4568  0.3326 -0.7121
13020TIP3    H160475   4.182   6.086  12.239 -0.9973 -0.1587 -0.1215
13020TIP3    H260476   4.179   6.209  12.151  1.5401 -0.0844 -0.1412
13021TIP3   OH260477   5.987   5.103   0.373  0.2452 -0.5232  0.0101
13021TIP3    H160478   5.930   5.152   0.433  0.6694 -0.5565  0.4496
13021TIP3    H260479   5.947   5.114   0.287 -0.4747 -0.6189  0.3265
13022TIP3   OH260480   2.532   0.521   4.718 -0.4427  0.2210 -0.5134
13022TIP3    H160481   2.450   0.555   4.755  0.1919  1.0520  0.1368
13022TIP3    H260482   2.505   0.444   4.668 -1.7080  0.8214 -0.7908
13023TIP3   OH260483   1.315   6.387   1.447 -0.6570 -0.6290  0.2093
13023TIP3    H160484   1.390   6.330   1.429  0.2059  0.9234 -1.2206
13023TIP3    H260485   1.311   6.393   1.542  0.2213 -1.7765  0.3284
13024TIP3   OH260486   2.690   5.174  15.156 -0.2170  0.5797 -0.1003
13024TIP3    H160487   2.710   5.203  15.245 -0.8335  2.6948 -0.6291
13024TIP3    H260488   2.725   5.084  15.152  0.8088  0.8547  1.9031
13025TIP3   OH260489   0.463   6.715  11.649  0.0418 -0.4962 -0.1484
13025TIP3    H160490   0.555   6.695  11.669 -0.3721 -2.3395 -0.0194
13025TIP3    H260491   0.467   6.772  11.573  1.3206 -0.0249  0.2506
13026TIP3   OH260492   4.430   0.267  13.969  0.1957 -0.2612 -0.4567
13026TIP3    H160493   4.421   0.172  13.967  0.1827 -0.2374 -1.4599
13026TIP3    H260494   4.477   0.289  13.889  0.5340  0.5467 -0.0491
13027TIP3   OH260495   1.400   0.903  15.401 -0.0859  0.3309  0.0338
13027TIP3    H160496   1.372   0.881  15.312 -0.7997 -0.2176  0.3815
13027TIP3    H260497   1.408   0.998  15.401 -1.7004  0.4941 -0.1758
13028TIP3   OH260498   0.624   2.101  11.894 -0.6089 -0.4670  0.3631
13028TIP3    H160499   0.663   2.116  11.981 -1.7167  0.4693  0.7174
13028TIP3    H260500   0.647   2.180  11.844 -0.2424 -0.8633 -0.0919
13029TIP3   OH260501   1.941   6.550   4.649  0.2654 -0.4911  0.0545
13029TIP3    H160502   1.972   6.483   4.709 -0.9406 -0.6182  0.5516
13029TIP3    H260503   1.883   6.605   4.702 -0.6084 -0.4505 -0.9309
13030TIP3   OH260504   6.679   3.389   2.531  0.2855 -0.0124  0.7597
13030TIP3    H160505   6.595   3.404   2.575 -1.1437  0.1533 -1.9413
13030TIP3    H260506   6.686   3.294   2.526  0.1603 -0.0226  0.7756
13031TIP3   OH260507   0.177   0.811  12.995  0.0517  0.1779 -0.2249
13031TIP3    H160508   0.143   0.749  12.930 -2.5604  2.6605 -1.3244
13031TIP3    H260509   0.270   0.790  13.001 -0.6776 -3.6117 -0.7839
13032TIP3   OH260510   3.281   6.628  12.094 -0.5641 -0.1071  0.3199
13032TIP3    H160511   3.367   6.669  12.098 -1.7566  2.3944  1.4152
13032TIP3    H260512   3.291   6.557  12.030  2.3445 -0.0151  0.6037
13033TIP3   OH260513   5.617   1.291  14.603 -0.1227 -0.1849 -0.3441
13033TIP3    H160514   5.698   1.299  14.653 -0.6476  1.6315  0.2688
13033TIP3    H260515   5.575   1.376  14.612 -1.8740 -0.9451 -1.0554
13034TIP3   OH260516   2.526   4.163  13.689  0.4651  0.3304 -0.4198
13034TIP3    H160517   2.444   4.130  13.653  0.0026  0.2222  0.7033
13034TIP3    H260518   2.593   4.131  13.630 -0.4070  1.4781 -2.0711
13035TIP3   OH260519   1.056   5.678  13.419 -0.0375 -0.1541 -0.5898
13035TIP3    H160520   1.003   5.639  13.489  1.1844 -1.2121 -0.2353
13035TIP3    H260521   0.992   5.712  13.356 -1.1295 -1.7620 -0.3683
13036TIP3   OH260522   1.480   0.100  12.184  0.2018  0.7786  0.2946
13036TIP3    H160523   1.509   0.047  12.109 -0.6290  0.1704  0.4057
13036TIP3    H260524   1.557   0.152  12.207  0.9349 -0.1856  0.0208
13037TIP3   OH260525   1.685   4.055  10.884 -0.5850 -0.3506 -0.6032
13037TIP3    H160526   1.663   3.973  10.841 -1.9443  0.2029 -1.0035
13037TIP3    H260527   1.777   4.070  10.864  0.1002 -2.5387  0.7570
13038TIP3   OH260528   4.600   3.715   5.575 -0.6992 -0.5693  0.2281
13038TIP3    H160529   4.604   3.811   5.575  1.8202 -0.6208  0.8328
13038TIP3    H260530   4.570   3.692   5.488  0.1808  0.7500 -0.4473
13039TIP3   OH260531   5.234   0.615   0.787  0.0311  0.4153 -0.1766
13039TIP3    H160532   5.272   0.702   0.799  0.5418 -0.0049  1.3504
13039TIP3    H260533   5.141   0.631   0.772  0.0407  1.1957  0.5614
13040TIP3   OH260534   6.316   0.924   0.175  0.4045 -0.5447 -0.1777
13040TIP3    H160535   6.366   0.877   0.108  0.9075 -0.6316  0.2621
13040TIP3    H260536   6.382   0.963   0.232 -0.0294 -0.6406  0.3947
13041TIP3   OH260537   1.809   1.886  11.639 -0.0143  0.0198  0.1425
13041TIP3    H160538   1.801   1.912  11.548 -0.4886  0.0067  0.1749
13041TIP3    H260539   1.792   1.792  11.639  0.4023 -0.0561  0.1890
13042TIP3   OH260540   5.186   4.108   2.099 -0.4492 -0.3227 -0.4428
13042TIP3    H160541   5.215   4.136   2.186  0.6202  1.2406 -1.2809
13042TIP3    H260542   5.144   4.186   2.062  0.6452 -0.4532 -1.9820
13043TIP3   OH260543   5.525   1.111  14.345  0.2913  0.2346 -0.4534
13043TIP3    H160544   5.575   1.030  14.345 -0.1982 -0.0679 -1.2334
13043TIP3    H260545   5.577   1.171  14.398  1.1188 -0.3069 -0.6441
13044TIP3   OH260546   2.609   1.748  11.803  0.2184  0.5196 -0.0517
13044TIP3    H160547   2.563   1.665  11.790 -0.1357  0.6447  0.3857
13044TIP3    H260548   2.699   1.731  11.774  0.0174  0.1319 -0.4451
13045TIP3   OH260549   0.754   4.786   5.238 -0.6156 -0.1395 -0.0140
13045TIP3    H160550   0.809   4.715   5.206  0.0090  0.3280 -0.0038
13045TIP3    H260551   0.667   4.768   5.202 -0.3170 -0.5610 -0.5296
13046TIP3   OH260552   6.129   4.413   1.237  0.7332  0.3278 -0.0919
13046TIP3    H160553   6.105   4.342   1.178 -1.3422  1.2045 -0.3564
13046TIP3    H260554   6.158   4.370   1.317  1.6677 -0.8380 -1.0410
13047TIP3   OH260555   3.224   4.100   4.626  0.0772  0.8913 -0.6102
13047TIP3    H160556   3.195   4.092   4.716  0.4252 -0.7328 -0.6237
13047TIP3    H260557   3.273   4.182   4.623  0.6059  0.6372  0.8428
13048TIP3   OH260558   1.975   4.305  10.342  0.1690 -0.5003 -0.3024
13048TIP3    H160559   1.975   4.287  10.248 -1.7218  0.0012 -0.4072
13048TIP3    H260560   2.006   4.396  10.349 -2.9062  0.6269 -0.7087
13049TIP3   OH260561   1.197   2.583   4.448 -0.2694  0.2314 -0.1057
13049TIP3    H160562   1.251   2.633   4.508  1.0736 -2.8308  1.3365
13049TIP3    H260563   1.152   2.518   4.503 -2.1504 -0.0379 -1.8495
13050TIP3   OH260564   3.685   0.686   0.210  0.3212  0.2695 -0.4486
13050TIP3    H160565   3.721   0.739   0.139  1.6442 -0.0913 -0.0610
13050TIP3    H260566   3.742   0.703   0.285 -0.7166  0.1941  0.3777
13051TIP3   OH260567   6.154   4.063   4.533  0.1818  0.0407 -0.1258
13051TIP3    H160568   6.231   4.044   4.586  0.6812 -0.0818 -0.8948
13051TIP3    H260569   6.164   4.156   4.509  0.9646 -0.4107 -1.6317
13052TIP3   OH260570   1.676   0.381   4.556 -0.1464 -0.2560  0.5368
13052TIP3    H160571   1.759   0.393   4.601  0.0592 -1.2882  0.4496
13052TIP3    H260572   1.689   0.422   4.470  0.9332 -2.1112 -0.2025
13053TIP3   OH260573   1.471   1.392   5.751  0.3852 -0.2268  0.7223
13053TIP3    H160574   1.493   1.320   5.810  0.4949 -0.2912  0.6023
13053TIP3    H260575   1.555   1.428   5.724  0.3163  0.4170  1.3604
13054TIP3   OH260576   0.444   3.524  11.251  0.2953  0.1033  0.1522
13054TIP3    H160577   0.397   3.603  11.224 -0.0399  0.1047  0.7324
13054TIP3    H260578   0.391   3.452  11.218 -0.7314  0.0862  1.7957
13055TIP3   OH260579   1.570   5.398  11.491  1.1521  0.3343  0.3257
13055TIP3    H160580   1.537   5.348  11.567 -1.7294  2.3979  0.5029
13055TIP3    H260581   1.532   5.354  11.415 -1.3205  2.1014  0.4777
13056TIP3   OH260582   6.432   1.830   1.240  0.3774 -0.4282 -0.3956
13056TIP3    H160583   6.374   1.754   1.227 -1.5158  1.1012 -1.0960
13056TIP3    H260584   6.496   1.800   1.304  0.2647 -2.9473 -1.4110
13057TIP3   OH260585   0.164   1.078   6.572 -0.4233  0.1488 -0.0563
13057TIP3    H160586   0.101   1.096   6.501  1.7538  0.4568 -1.9812
13057TIP3    H260587   0.172   0.983   6.573 -0.0993  0.1700 -0.5514
13058TIP3   OH260588   6.103   4.335   0.772  0.3986 -0.1333 -0.2836
13058TIP3    H160589   6.125   4.419   0.813 -0.7144  0.0836 -0.1004
13058TIP3    H260590   6.113   4.350   0.678  1.3952 -0.1563 -0.1804
13059TIP3   OH260591   1.868   3.975  12.936  0.2779  0.4794 -0.3642
13059TIP3    H160592   1.781   3.986  12.898  0.3132  0.7532 -0.3604
13059TIP3    H260593   1.852   3.923  13.015 -0.1163  2.0944  0.6382
13060TIP3   OH260594   0.961   3.708   3.192 -0.0350 -0.7781  0.0681
13060TIP3    H160595   0.944   3.686   3.100 -1.0408 -0.3015  0.1342
13060TIP3    H260596   1.042   3.661   3.213  0.2915 -0.7584 -1.1089
13061TIP3   OH260597   2.778   0.174   5.716 -0.2985 -0.2857  0.3542
13061TIP3    H160598   2.757   0.196   5.625  0.0839  0.7155  0.5055
13061TIP3    H260599   2.872   0.161   5.717 -0.4317 -1.2462  0.4112
13062TIP3   OH260600   5.214   2.152   0.206  0.3913  0.0411 -0.0010
13062TIP3    H160601   5.143   2.121   0.262  2.7568 -2.3622  1.8211
13062TIP3    H260602   5.205   2.247   0.206 -2.0389 -0.1432  1.2120
13063TIP3   OH260603   2.761   3.923  16.751  1.1575  0.0444  0.0095
13063TIP3    H160604   2.694   3.879  16.804  1.3956 -0.6804 -0.2878
13063TIP3    H260605   2.817   3.966  16.815  0.2781  0.8558  0.2519
13064TIP3   OH260606   1.737   2.797  13.642 -0.7916  0.5167 -0.4593
13064TIP3    H160607   1.804   2.776  13.706 -2.4864 -0.7735  0.9156
13064TIP3    H260608   1.734   2.893  13.642 -0.3082  0.5431  0.8773
13065TIP3   OH260609   2.432   2.479  10.903  0.4603  0.1158 -0.5000
13065TIP3    H160610   2.497   2.490  10.973  0.8317 -0.7051 -0.7041
13065TIP3    H260611   2.473   2.518  10.826 -1.0542  3.4668  0.3365
13066TIP3   OH260612   1.148   0.944   4.170 -0.0553  0.0206  0.2898
13066TIP3    H160613   1.135   1.038   4.174 -2.5033 -0.2755 -0.2596
13066TIP3    H260614   1.105   0.910   4.248 -0.8766 -0.8123 -0.5161
13067TIP3   OH260615   0.057   4.850   0.963 -0.2921 -0.6943 -0.0992
13067TIP3    H160616  -0.007   4.906   1.007 -0.6585 -2.6830  1.9483
13067TIP3    H260617   0.029   4.849   0.871  0.9243  4.1115 -0.6578
13068TIP3   OH260618   0.714   0.133   4.555  0.0386  0.3127  0.5422
13068TIP3    H160619   0.719   0.162   4.646  0.4963 -1.9827  1.3002
13068TIP3    H260620   0.805   0.125   4.528 -0.0038 -2.1643  0.9901
13069TIP3   OH260621   3.756   5.869  10.625  0.6224  0.4448 -0.1156
13069TIP3    H160622   3.837   5.868  10.675  0.9701  1.7964 -0.6074
13069TIP3    H260623   3.707   5.793  10.655  1.4096  0.4904  1.2989
13070TIP3   OH260624   6.709   1.890  11.111 -0.0738 -0.2943  0.3451
13070TIP3    H160625   6.784   1.860  11.060  1.2081 -0.3296  2.2123
13070TIP3    H260626   6.686   1.975  11.072  0.3273 -0.7250 -0.8389
13071TIP3   OH260627   4.188   0.155   4.331  0.2203 -0.4069 -0.0175
13071TIP3    H160628   4.160   0.224   4.272  0.3094 -0.3299  0.0313
13071TIP3    H260629   4.131   0.164   4.408 -1.5657 -2.0409 -1.1003
13072TIP3   OH260630   6.145   4.310   0.220  0.0100 -0.0465 -0.5042
13072TIP3    H160631   6.181   4.381   0.167 -1.4167  1.5190  0.5542
13072TIP3    H260632   6.185   4.322   0.306 -0.1373 -0.6085 -0.3573
13073TIP3   OH260633   5.444   4.062   4.750 -0.0143  0.1980  0.0163
13073TIP3    H160634   5.469   4.146   4.789  0.3163 -0.0434  0.3187
13073TIP3    H260635   5.389   4.020   4.815  0.2805 -0.0674  0.0959
13074TIP3   OH260636   0.181   6.388   4.729 -0.0630 -0.2294 -0.0459
13074TIP3    H160637   0.165   6.452   4.798  0.0353 -0.0421 -0.1975
13074TIP3    H260638   0.211   6.440   4.654 -0.8206 -0.3666 -0.4514
13075TIP3   OH260639   2.545   5.926  15.338  0.1053 -0.0384  0.2763
13075TIP3    H160640   2.589   6.009  15.357  0.0567 -0.1621  0.9406
13075TIP3    H260641   2.596   5.888  15.266 -1.0970  1.5042 -1.4292
13076TIP3   OH260642   5.030   5.543   1.534  0.2496  0.5647  0.7648
13076TIP3    H160643   5.088   5.618   1.521 -0.9657  1.0460 -2.4135
13076TIP3    H260644   5.074   5.471   1.489 -0.4977  0.3725  0.3291
13077TIP3   OH260645   4.950   4.027  17.204 -0.3570 -0.2754  0.6582
13077TIP3    H160646   4.963   4.073  17.121  2.6306 -0.2810  1.0686
13077TIP3    H260647   4.920   4.095  17.265  1.5596  0.6222  0.6208
13078TIP3   OH260648   1.491   1.022  12.654 -0.3943 -0.3684 -0.0288
13078TIP3    H160649   1.580   1.008  12.621 -0.0349 -1.2352  1.2692
13078TIP3    H260650   1.452   1.084  12.592  0.3915 -1.6429 -1.8337
13079TIP3   OH260651   5.501   2.533  11.937 -0.1896 -0.2621 -0.5574
13079TIP3    H160652   5.413   2.547  11.973 -0.2471  1.3368 -1.2498
13079TIP3    H260653   5.509   2.599  11.868  0.9523 -1.4809 -1.6121
13080TIP3   OH260654   5.198   4.902  15.987  0.0684 -0.0138  0.2989
13080TIP3    H160655   5.155   4.828  15.942 -1.7006  1.6133 -0.7607
13080TIP3    H260656   5.238   4.862  16.064 -0.1601 -2.2336 -0.6770
13081TIP3   OH260657   3.138   0.475   2.973  0.3096  0.0319 -0.5415
13081TIP3    H160658   3.097   0.429   2.900  0.2604 -1.6850  0.5512
13081TIP3    H260659   3.190   0.545   2.931 -1.2308  0.2865 -2.0900
13082TIP3   OH260660   3.813   5.583   4.455 -0.6090 -0.3660 -0.0786
13082TIP3    H160661   3.721   5.557   4.442 -0.7370  0.1108 -0.1096
13082TIP3    H260662   3.822   5.666   4.409  0.1486 -0.9857 -1.0558
13083TIP3   OH260663   3.620   1.124  13.857  0.2347  0.4203 -0.1827
13083TIP3    H160664   3.573   1.164  13.930  2.9133 -0.1377  1.9190
13083TIP3    H260665   3.583   1.036  13.850  1.0863 -0.0943  1.6001
13084TIP3   OH260666   3.720   4.880   5.295 -0.4769  0.7357 -0.6638
13084TIP3    H160667   3.797   4.825   5.307 -1.0895 -0.1164 -0.5766
13084TIP3    H260668   3.755   4.968   5.278  0.5485 -0.0410 -2.7078
13085TIP3   OH260669   4.291   4.101  17.066 -0.3776  0.1893  0.0015
13085TIP3    H160670   4.325   4.107  17.155 -0.5624 -0.4528  0.1197
13085TIP3    H260671   4.368   4.090  17.011 -0.3915 -1.3884  0.2783
13086TIP3   OH260672   3.642   3.058  12.734 -0.2676 -0.1218  0.0029
13086TIP3    H160673   3.690   2.988  12.691  0.4148  0.3615 -0.0202
13086TIP3    H260674   3.708   3.124  12.755 -0.7978  0.2144  0.6369
13087TIP3   OH260675   1.684   0.395  14.858  0.1784  0.4143  0.3914
13087TIP3    H160676   1.700   0.392  14.764 -2.5356  1.3375 -0.1688
13087TIP3    H260677   1.588   0.398  14.865  0.3048 -1.0082  3.2328
13088TIP3   OH260678   6.673   0.395   2.115  0.4806 -0.4519  0.0496
13088TIP3    H160679   6.623   0.316   2.136  1.0421 -0.6386  0.6889
13088TIP3    H260680   6.649   0.456   2.185 -0.5432  0.2152 -0.8597
13089TIP3   OH260681   0.480   5.129   0.597  0.0707  0.2410 -0.4743
13089TIP3    H160682   0.505   5.037   0.587  0.6743  0.0943  2.0573
13089TIP3    H260683   0.517   5.173   0.520  0.3493 -1.5193 -1.3595
13090TIP3   OH260684   3.398   0.240   5.458 -0.2976 -0.1197 -0.1421
13090TIP3    H160685   3.312   0.199   5.449 -1.0160  1.1426  0.8630
13090TIP3    H260686   3.380   0.333   5.466  1.3240  0.3942 -2.1771
13091TIP3   OH260687   0.440   0.432  12.786 -0.1600 -0.5485  0.2232
13091TIP3    H160688   0.457   0.495  12.855  1.2440  0.1145 -0.7154
13091TIP3    H260689   0.360   0.386  12.814 -0.1939  0.4331  1.7461
13092TIP3   OH260690   0.378   2.811  15.694  0.6930 -0.0968 -0.2625
13092TIP3    H160691   0.365   2.855  15.778 -0.8848 -0.8168 -0.1230
13092TIP3    H260692   0.466   2.773  15.700 -0.6052 -2.8282  2.3028
13093TIP3   OH260693   3.179   4.436   3.684  0.0056  0.3258 -0.0705
13093TIP3    H160694   3.179   4.341   3.666  2.4345  0.1896  0.5313
13093TIP3    H260695   3.189   4.476   3.597 -0.1675  0.0146 -0.2364
13094TIP3   OH260696   6.312   4.734  12.355 -0.1072 -0.4873  0.2575
13094TIP3    H160697   6.351   4.714  12.270  2.1805 -1.0403  1.4012
13094TIP3    H260698   6.218   4.718  12.342  0.0541  0.4550 -2.4385
13095TIP3   OH260699   2.749   0.262   1.982 -0.1295 -0.4942 -0.3441
13095TIP3    H160700   2.699   0.337   1.949  0.9314 -0.0143 -0.8959
13095TIP3    H260701   2.747   0.271   2.077 -0.1092  0.1756 -0.4059
13096TIP3   OH260702   3.347   6.394  10.630 -0.4713 -0.0338 -0.4343
13096TIP3    H160703   3.289   6.466  10.654  0.6225  1.0301 -0.8881
13096TIP3    H260704   3.414   6.435  10.575  0.1789 -1.3958 -0.6810
13097TIP3   OH260705   3.901   2.015  16.742 -0.1032 -0.3085  0.1694
13097TIP3    H160706   3.940   1.932  16.767 -0.3387 -0.5689 -0.3261
13097TIP3    H260707   3.883   2.007  16.648  1.8388  1.0790 -0.3499
13098TIP3   OH260708   2.870   3.263  14.502  0.6856  0.0770  0.0742
13098TIP3    H160709   2.922   3.264  14.583  0.2148  0.2086  0.3758
13098TIP3    H260710   2.779   3.262  14.532  0.5198 -2.4351 -0.4256
13099TIP3   OH260711   2.037   3.898  14.357 -0.1035  0.7180 -0.3013
13099TIP3    H160712   2.024   3.821  14.301 -1.7963  1.2661 -0.7000
13099TIP3    H260713   2.115   3.941  14.322 -0.7657  0.6965 -1.8413
13100TIP3   OH260714   4.972   3.733   3.880 -0.0074  0.1127 -0.2701
13100TIP3    H160715   4.965   3.665   3.813 -1.9392 -0.1342  0.1497
13100TIP3    H260716   4.882   3.743   3.913  0.4829  1.9698  0.5525
13101TIP3   OH260717   0.209   6.352  12.695 -0.0271 -0.1422 -0.0307
13101TIP3    H160718   0.261   6.289  12.644  1.4456  0.0179  1.2431
13101TIP3    H260719   0.237   6.438  12.662 -0.1879 -0.0815 -0.0088
13102TIP3   OH260720   3.317   2.263  14.482  0.7085  0.2547 -0.4517
13102TIP3    H160721   3.242   2.209  14.457 -0.0474 -0.2810  2.7055
13102TIP3    H260722   3.278   2.348  14.505  0.9131 -0.2735  1.9766
13103TIP3   OH260723   6.073   0.162   5.703 -0.4402  0.9509 -0.1540
13103TIP3    H160724   6.067   0.209   5.620  0.1212 -1.0706 -1.3956
13103TIP3    H260725   6.004   0.095   5.697 -0.3869  0.7814  1.0180
13104TIP3   OH260726   3.782   4.179  14.724 -0.3625  0.5915 -0.2575
13104TIP3    H160727   3.782   4.189  14.819  0.2113  1.4112 -0.3341
13104TIP3    H260728   3.824   4.259  14.691  0.7500 -0.3121 -1.1174
13105TIP3   OH260729   2.873   5.650  17.004 -0.2137  0.3877  0.3210
13105TIP3    H160730   2.875   5.659  17.099 -0.5002 -0.4266  0.4118
13105TIP3    H260731   2.907   5.562  16.988  1.1841  1.0494 -0.4180
13106TIP3   OH260732   6.290   3.286   4.945 -0.4953  0.1666 -0.3158
13106TIP3    H160733   6.211   3.232   4.955 -0.4947  0.3086  0.4542
13106TIP3    H260734   6.359   3.224   4.922 -0.6578 -0.0657 -0.1736
13107TIP3   OH260735   6.258   3.657  14.454 -0.2353  0.5208 -0.2479
13107TIP3    H160736   6.278   3.637  14.362 -2.1574  0.3300 -0.6304
13107TIP3    H260737   6.195   3.590  14.480  1.2880 -0.2468  1.6436
13108TIP3   OH260738   6.314   6.529  15.970  1.3296  0.1536  0.2067
13108TIP3    H160739   6.276   6.518  15.883 -0.6673  1.6622  0.8492
13108TIP3    H260740   6.400   6.489  15.964  1.0299 -0.1684 -2.3356
13109TIP3   OH260741   6.611   5.464  14.710 -0.3863 -0.4845  0.0434
13109TIP3    H160742   6.574   5.471  14.798 -2.8126  2.4950 -1.1120
13109TIP3    H260743   6.544   5.419  14.659 -0.0608  0.0196 -0.8355
13110TIP3   OH260744   5.006   6.611  12.640 -0.0195  0.1281 -0.3898
13110TIP3    H160745   5.027   6.571  12.556  2.0899  1.2684 -0.4415
13110TIP3    H260746   5.015   6.705  12.625 -2.1612  0.4994  0.4534
13111TIP3   OH260747   0.811   4.927  12.598 -0.2810 -0.0319  0.4370
13111TIP3    H160748   0.806   5.011  12.551  1.8287 -0.2888 -0.2766
13111TIP3    H260749   0.751   4.870  12.549  2.5642 -0.5724 -2.6318
13112TIP3   OH260750   5.428   3.940   2.073  0.2403 -0.1894 -0.4791
13112TIP3    H160751   5.351   3.996   2.085 -0.5003 -0.8443 -1.9935
13112TIP3    H260752   5.405   3.858   2.115  0.0595 -0.4223 -1.0275
13113TIP3   OH260753   2.331   2.877   3.571 -0.0337 -0.1902  0.3930
13113TIP3    H160754   2.351   2.884   3.664 -1.4576  0.8831  0.6374
13113TIP3    H260755   2.383   2.945   3.529  0.4131 -0.5072  0.4279
13114TIP3   OH260756   1.185   0.744  14.703  0.1353 -0.3078 -0.5370
13114TIP3    H160757   1.124   0.721  14.633 -1.3977 -0.0174  0.6793
13114TIP3    H260758   1.204   0.837  14.690 -0.7790 -0.0585 -0.0923
13115TIP3   OH260759   2.835   0.209  10.641  0.6538 -0.0913 -0.2534
13115TIP3    H160760   2.786   0.131  10.613 -0.0569  0.1695  0.2654
13115TIP3    H260761   2.868   0.187  10.728 -1.1241  0.8836  0.6866
13116TIP3   OH260762   4.779   1.203   2.876 -0.7930 -0.0126 -0.0821
13116TIP3    H160763   4.723   1.136   2.915 -2.1541  0.2462 -1.5381
13116TIP3    H260764   4.798   1.170   2.788  0.5566  0.3674  0.0558
13117TIP3   OH260765   6.053   5.304  11.474 -0.3326 -0.3184  0.8447
13117TIP3    H160766   5.966   5.320  11.511 -1.3018 -2.0570 -0.5502
13117TIP3    H260767   6.080   5.220  11.513 -0.2721 -0.9006 -0.4218
13118TIP3   OH260768   3.020   0.918   2.628  0.3223 -0.8061 -0.1401
13118TIP3    H160769   3.079   0.921   2.704  0.0145 -1.5790  0.1295
13118TIP3    H260770   2.933   0.928   2.665  0.2784  0.5792 -0.5631
13119TIP3   OH260771   6.127   5.598   4.862 -0.0301 -0.0352 -0.1395
13119TIP3    H160772   6.173   5.650   4.927  0.6579  0.2289 -0.8420
13119TIP3    H260773   6.036   5.597   4.892  0.6180 -1.5501  1.9047
13120TIP3   OH260774   4.412   2.449  16.731  0.1878  0.7180 -0.1675
13120TIP3    H160775   4.503   2.477  16.742 -0.2483  1.9276  0.5487
13120TIP3    H260776   4.411   2.357  16.757  0.7484  1.3576  2.3380
13121TIP3   OH260777   2.418   0.720   2.282 -0.5205  0.3153  0.0397
13121TIP3    H160778   2.476   0.780   2.236 -1.2583  1.3201  0.4086
13121TIP3    H260779   2.472   0.643   2.299  0.6212  1.1245  0.1329
13122TIP3   OH260780   1.417   5.746   5.594  0.5061  0.3142 -0.3509
13122TIP3    H160781   1.497   5.777   5.636  1.2695 -0.4594 -1.2379
13122TIP3    H260782   1.446   5.704   5.514 -0.7122 -0.7781 -0.2418
13123TIP3   OH260783   4.358   1.367   1.356 -0.2957 -0.5005  0.6256
13123TIP3    H160784   4.426   1.431   1.334  1.8449 -2.4614  1.3832
13123TIP3    H260785   4.374   1.346   1.448 -3.0495  0.2735  1.3437
13124TIP3   OH260786   1.631   6.210   3.734  0.0520 -0.1570  0.1404
13124TIP3    H160787   1.712   6.256   3.710  0.2503  1.0790  2.9926
13124TIP3    H260788   1.655   6.118   3.733  1.0829  0.1084 -0.4855
13125TIP3   OH260789   1.282   1.087  15.664 -0.1150  0.0407  0.1516
13125TIP3    H160790   1.209   1.145  15.684 -0.9958 -0.4540 -1.5390
13125TIP3    H260791   1.336   1.136  15.603 -0.1045 -0.3805 -0.1785
13126TIP3   OH260792   5.518   6.389  14.766 -0.0389 -0.0108  0.5954
13126TIP3    H160793   5.549   6.473  14.733  0.6851 -0.5453 -0.0896
13126TIP3    H260794   5.426   6.385  14.739 -0.1141  0.6137  0.7531
13127TIP3   OH260795   5.540   6.412  13.137  0.2776 -0.2477 -0.1629
13127TIP3    H160796   5.550   6.429  13.231 -0.6537  0.5764 -0.2020
13127TIP3    H260797   5.623   6.440  13.099  1.3867 -2.3682  0.6381
13128TIP3   OH260798   1.503   4.737  13.306 -0.0065  0.0266  0.7546
13128TIP3    H160799   1.596   4.753  13.320 -0.1457 -1.1314  3.3307
13128TIP3    H260800   1.490   4.646  13.332 -1.7266 -0.0729 -0.3344
13129TIP3   OH260801   6.770   3.759   1.249 -0.0360 -0.1597  0.3335
13129TIP3    H160802   6.790   3.826   1.314  0.7585  0.1733 -0.2435
13129TIP3    H260803   6.856   3.727   1.221 -0.3719 -0.2701 -0.5791
13130TIP3   OH260804   2.039   0.718  12.845 -0.0598 -0.1403 -0.2052
13130TIP3    H160805   1.952   0.755  12.832  0.1525  0.5021  0.1829
13130TIP3    H260806   2.028   0.657  12.919 -0.0611  0.3603  0.2099
13131TIP3   OH260807   3.349   5.901  16.434 -0.1814 -0.2639 -0.3813
13131TIP3    H160808   3.435   5.942  16.429 -0.9419  1.2764 -1.0380
13131TIP3    H260809   3.288   5.969  16.405 -1.4328 -1.9983 -1.9198
13132TIP3   OH260810   0.247   3.154  14.779 -0.3357  0.1172 -0.0891
13132TIP3    H160811   0.297   3.119  14.705 -1.1222  1.8838 -1.5204
13132TIP3    H260812   0.278   3.105  14.855  1.3121 -0.9721 -1.4239
13133TIP3   OH260813   3.237   2.258  12.969  0.0133  0.4532 -0.2251
13133TIP3    H160814   3.149   2.226  12.990  0.2555  0.0870  0.2208
13133TIP3    H260815   3.252   2.330  13.029  0.7408 -0.6511  0.9438
13134TIP3   OH260816   2.282   1.755   0.558 -0.7295 -0.1963 -0.2183
13134TIP3    H160817   2.306   1.662   0.554 -0.8397 -0.2281 -0.1405
13134TIP3    H260818   2.271   1.773   0.652 -2.5469 -0.5743 -0.3584
13135TIP3   OH260819   3.544   3.618  11.046  0.1764 -0.8381 -0.2115
13135TIP3    H160820   3.451   3.613  11.023  0.2182 -1.8001 -0.1950
13135TIP3    H260821   3.555   3.706  11.083 -0.4644 -0.2702 -1.3413
13136TIP3   OH260822   2.555   0.109  11.951  0.0027 -0.3304  0.3928
13136TIP3    H160823   2.623   0.161  11.908  0.5790 -0.1000  1.5659
13136TIP3    H260824   2.524   0.165  12.023 -1.2551 -0.5343  0.0334
13137TIP3   OH260825   4.642   0.701  13.638 -0.2063  0.3183  0.3929
13137TIP3    H160826   4.604   0.710  13.550 -0.5862 -1.0738  0.4054
13137TIP3    H260827   4.579   0.746  13.695  0.0508  1.2445 -0.0406
13138TIP3   OH260828   3.081   0.975   3.312  0.3152 -0.6600 -0.2498
13138TIP3    H160829   3.051   1.065   3.301 -1.7405 -1.1569  0.9987
13138TIP3    H260830   3.051   0.929   3.234  0.3478 -0.5259 -0.3406
13139TIP3   OH260831   4.613   5.501  15.224  0.2841  0.0543 -0.4703
13139TIP3    H160832   4.567   5.582  15.204  0.4587  0.4046  0.5210
13139TIP3    H260833   4.704   5.527  15.239 -0.0483 -0.0418  1.8053
13140TIP3   OH260834   4.867   2.073  15.012  0.0754  0.2295  0.4336
13140TIP3    H160835   4.921   1.996  14.997 -1.1702 -0.6056  0.1312
13140TIP3    H260836   4.886   2.099  15.102 -1.8363 -2.3372  1.6177
13141TIP3   OH260837   2.365   0.265   2.143 -0.2071 -0.1616 -0.2576
13141TIP3    H160838   2.413   0.324   2.086 -0.8580 -0.6003 -1.2644
13141TIP3    H260839   2.299   0.320   2.185 -0.0277  0.0675 -0.2756
13142TIP3   OH260840   1.322   2.873  11.359 -0.0183 -0.3621 -0.6264
13142TIP3    H160841   1.234   2.863  11.394  0.4975  2.1124  1.5395
13142TIP3    H260842   1.309   2.898  11.267 -1.6038  0.8742 -0.0838
13143TIP3   OH260843   0.454   0.997  17.114  0.2291  0.1839 -0.5307
13143TIP3    H160844   0.363   0.968  17.107  0.4920 -0.8942  0.3507
13143TIP3    H260845   0.449   1.092  17.120 -1.0279 -0.0441  2.5634
13144TIP3   OH260846   2.681   4.815  16.238 -0.1210 -0.3419 -0.3266
13144TIP3    H160847   2.738   4.853  16.172  1.5716 -1.9638  0.1655
13144TIP3    H260848   2.645   4.737  16.197  0.5992 -1.1209  0.4930
13145TIP3   OH260849   4.274   0.721   1.921  0.4583 -0.1820 -0.2422
13145TIP3    H160850   4.207   0.684   1.863  1.4352 -3.4220  0.6111
13145TIP3    H260851   4.282   0.657   1.992  2.5850  1.4806  1.0643
13146TIP3   OH260852   6.480   1.510   3.396  0.4346 -0.5305 -0.2912
13146TIP3    H160853   6.511   1.443   3.335 -2.1776 -0.0878 -2.2348
13146TIP3    H260854   6.537   1.585   3.380  2.0151 -1.5608  0.3781
13147TIP3   OH260855   1.328   3.341   1.939  0.4745 -0.2454 -0.3235
13147TIP3    H160856   1.401   3.395   1.971  0.6432 -1.1090  0.8008
13147TIP3    H260857   1.368   3.257   1.920 -0.4369 -1.1355  1.5497
13148TIP3   OH260858   0.247   5.269  10.670  0.8075 -0.2218 -0.2546
13148TIP3    H160859   0.211   5.290  10.584  2.0532 -1.7854 -1.1665
13148TIP3    H260860   0.172   5.275  10.730 -0.0548  0.8787 -1.4261
13149TIP3   OH260861   4.326   3.544  12.813 -0.3483  0.3401  0.5205
13149TIP3    H160862   4.356   3.562  12.724  0.5963 -1.3573  0.4629
13149TIP3    H260863   4.341   3.626  12.861 -3.1218  2.0564 -1.4086
13150TIP3   OH260864   6.254   0.580  13.956 -1.0899 -0.1330  0.3896
13150TIP3    H160865   6.223   0.546  13.872 -1.9592  1.9873 -0.1728
13150TIP3    H260866   6.291   0.503  14.000  1.7617 -0.8456 -2.9532
13151TIP3   OH260867   0.643   6.066  11.326  0.1583 -0.7238  0.7779
13151TIP3    H160868   0.565   6.029  11.285 -0.2321  0.5892  0.3098
13151TIP3    H260869   0.714   6.046  11.265 -0.2461  0.3233 -0.0464
13152TIP3   OH260870   1.471   1.429  12.432 -0.4787  0.1783 -0.1514
13152TIP3    H160871   1.464   1.463  12.521  1.3069  0.0394  0.0519
13152TIP3    H260872   1.439   1.500  12.377 -3.3523 -0.3796  0.6620
13153TIP3   OH260873   6.287   2.132   0.189 -0.1868  0.1110 -0.2346
13153TIP3    H160874   6.193   2.124   0.204  0.2094 -2.2485  1.2560
13153TIP3    H260875   6.320   2.174   0.269  0.3471 -1.3923  0.3396
13154TIP3   OH260876   6.586   0.261   0.704  0.2502 -0.2217 -0.2795
13154TIP3    H160877   6.589   0.232   0.795  0.2432  1.3288  0.2275
13154TIP3    H260878   6.493   0.256   0.681  0.3137 -1.1152 -0.3834
13155TIP3   OH260879   3.191   0.287  15.999  0.4708  0.2094 -0.5134
13155TIP3    H160880   3.115   0.278  15.942 -0.4642  0.8131  0.6019
13155TIP3    H260881   3.232   0.201  15.999  0.2342  0.0934 -1.7468
13156TIP3   OH260882   5.662   1.518   0.726 -0.2615  0.0501 -0.2596
13156TIP3    H160883   5.641   1.573   0.650  0.8703  0.4530 -0.2817
13156TIP3    H260884   5.584   1.524   0.782 -0.8272  0.2987 -1.0578
13157TIP3   OH260885   2.376   5.267   4.303  0.1438 -0.1394  0.1430
13157TIP3    H160886   2.402   5.208   4.233  0.5898  0.7460 -0.4472
13157TIP3    H260887   2.305   5.320   4.266  0.2585  0.2100  0.4136
13158TIP3   OH260888   5.888   2.463   4.833  0.5839 -0.6058  0.1641
13158TIP3    H160889   5.882   2.530   4.901  0.8761 -0.5981  0.1853
13158TIP3    H260890   5.886   2.380   4.881 -1.8372 -0.6701 -0.0082
13159TIP3   OH260891   6.075   5.028  15.161  0.1137  0.1275  0.1435
13159TIP3    H160892   6.035   5.073  15.236  0.2765 -0.2566  0.4593
13159TIP3    H260893   6.049   4.937  15.171 -1.4656  0.3841 -1.3027
13160TIP3   OH260894   6.473   2.414   2.048  0.1905  0.2814 -0.3493
13160TIP3    H160895   6.448   2.336   2.097 -0.1525  1.8399  2.0411
13160TIP3    H260896   6.559   2.439   2.083  0.4487  0.7791 -1.3143
13161TIP3   OH260897   5.000   6.737   5.832  0.1533 -0.2347  0.2520
13161TIP3    H160898   5.067   6.677   5.799  0.2633 -0.3336  0.6529
13161TIP3    H260899   5.016   6.819   5.785  0.1189 -0.4651 -0.1598
13162TIP3   OH260900   4.055   1.957   4.630 -0.1725  0.1914 -0.1765
13162TIP3    H160901   4.046   1.940   4.724  1.0256  2.7449  0.4458
13162TIP3    H260902   4.139   1.918   4.606  0.6814  1.6519  0.3719
13163TIP3   OH260903   6.196   0.809  16.163  0.2194 -0.1449 -0.4200
13163TIP3    H160904   6.282   0.785  16.126  1.1803  1.0872  0.9629
13163TIP3    H260905   6.176   0.738  16.224  0.6253 -0.0374 -0.1608
13164TIP3   OH260906   1.168   1.004  14.630  0.4552 -0.1061 -0.1633
13164TIP3    H160907   1.213   1.070  14.578  0.2693  0.1911  0.0530
13164TIP3    H260908   1.086   1.045  14.656 -0.7041 -1.2201 -1.9217
13165TIP3   OH260909   0.512   2.538  12.322 -0.0454  0.0075  0.2416
13165TIP3    H160910   0.452   2.471  12.356 -0.9037  1.2244  1.1743
13165TIP3    H260911   0.592   2.527  12.373 -0.1929 -0.2864  0.4114
13166TIP3   OH260912   0.335   2.620   5.000  0.1346 -0.5002  0.0378
13166TIP3    H160913   0.319   2.547   4.940 -0.2613 -0.2310 -0.1844
13166TIP3    H260914   0.250   2.664   5.009  0.6492  0.7005 -0.8341
13167TIP3   OH260915   6.122   5.171   3.541  0.2667 -0.2896 -0.0512
13167TIP3    H160916   6.158   5.147   3.456  1.1013 -1.9806  0.7615
13167TIP3    H260917   6.146   5.263   3.552  0.4594 -0.1546 -1.4708
13168TIP3   OH260918   3.239   6.100   3.701  0.1291 -0.0070  0.8308
13168TIP3    H160919   3.158   6.047   3.701 -0.3123  0.5122 -3.0401
13168TIP3    H260920   3.224   6.166   3.768 -1.9192 -0.9831  1.3920
13169TIP3   OH260921   1.616   2.165  16.052  1.1803 -0.0032  0.2542
13169TIP3    H160922   1.578   2.251  16.034  2.0474  0.2420 -0.3985
13169TIP3    H260923   1.565   2.131  16.126  0.4079  0.7883  0.0795
13170TIP3   OH260924   3.642   3.471  13.093  0.2066 -0.1507 -0.2093
13170TIP3    H160925   3.583   3.491  13.020  1.0274  0.9385 -0.5886
13170TIP3    H260926   3.684   3.389  13.068 -1.7413 -1.3608  0.4374
13171TIP3   OH260927   1.408   5.477  16.282 -0.2011  0.1393  0.4972
13171TIP3    H160928   1.370   5.548  16.231  0.2490  0.7226  0.9599
13171TIP3    H260929   1.415   5.512  16.371  1.1659 -0.0328  0.4781
13172TIP3   OH260930   4.605   6.771   5.532  0.3262 -0.9998 -0.2281
13172TIP3    H160931   4.535   6.714   5.563  0.1465 -0.5871  0.1409
13172TIP3    H260932   4.575   6.800   5.446  0.3857 -1.4055 -0.3860
13173TIP3   OH260933   4.904   2.863  14.161 -0.6210  0.4399 -0.0133
13173TIP3    H160934   4.935   2.946  14.196 -1.4374  0.9849 -0.5764
13173TIP3    H260935   4.983   2.820  14.128 -0.0059  0.3835  1.5131
13174TIP3   OH260936   6.052   5.112  12.638 -0.1341 -0.6320 -0.2096
13174TIP3    H160937   6.122   5.166  12.676 -0.8892 -0.6612  1.2816
13174TIP3    H260938   6.046   5.141  12.547  0.8373  0.3793  0.0324
13175TIP3   OH260939   2.070   2.015  11.408  0.0237 -0.5293 -0.2121
13175TIP3    H160940   2.149   2.013  11.463 -0.9275 -1.6420  1.1451
13175TIP3    H260941   2.088   1.952  11.338  0.4268 -0.6193 -0.0302
13176TIP3   OH260942   0.501   1.310   0.583  0.2026 -0.1926  0.8709
13176TIP3    H160943   0.555   1.306   0.662  0.8544 -1.2048  0.3739
13176TIP3    H260944   0.411   1.312   0.616  0.4189 -1.9432  1.6188
13177TIP3   OH260945   2.335   2.879  11.847  0.1245 -0.2796 -0.2719
13177TIP3    H160946   2.265   2.887  11.782 -0.1160  0.2175  0.0424
13177TIP3    H260947   2.415   2.899  11.799  0.1312 -1.5573 -0.8010
13178TIP3   OH260948   2.854   3.871   1.056  0.1227 -0.3800 -0.1664
13178TIP3    H160949   2.896   3.800   1.007 -0.3638 -1.2721  0.6930
13178TIP3    H260950   2.923   3.904   1.114 -0.0577 -1.1271  0.4760
13179TIP3   OH260951   3.279   6.411   2.864  0.5524  0.2109  0.1289
13179TIP3    H160952   3.235   6.330   2.840  2.2871 -0.1584 -1.9926
13179TIP3    H260953   3.345   6.385   2.929  0.8268 -0.0286 -0.2422
13180TIP3   OH260954   1.001   3.990  16.170 -1.0961  0.1110 -0.5280
13180TIP3    H160955   0.987   3.931  16.244  1.1597  0.8629  0.5396
13180TIP3    H260956   1.058   4.058  16.204 -0.4760  0.7697 -2.8222
13181TIP3   OH260957   0.084   4.509  15.157 -0.0873  0.0237 -0.0060
13181TIP3    H160958   0.148   4.578  15.175 -0.8458  0.6859  0.1470
13181TIP3    H260959   0.001   4.544  15.189 -0.8833 -0.0492 -1.9746
13182TIP3   OH260960   5.515   0.528  12.301  0.0702 -0.7394 -0.1499
13182TIP3    H160961   5.472   0.452  12.262 -0.6420  0.0671 -0.9363
13182TIP3    H260962   5.529   0.502  12.393 -1.4422 -1.2871 -0.0559
13183TIP3   OH260963   0.908   5.287  12.862 -0.5508 -0.3880 -0.7084
13183TIP3    H160964   0.896   5.314  12.953  0.2617  3.1526 -1.5754
13183TIP3    H260965   0.825   5.307  12.819 -0.2541 -0.1302 -1.1689
13184TIP3   OH260966   0.689   2.881  13.837  0.4627 -0.5838  0.4570
13184TIP3    H160967   0.629   2.946  13.802  0.0350 -1.3433 -0.2574
13184TIP3    H260968   0.709   2.911  13.926 -3.0854 -1.6894  1.6985
13185TIP3   OH260969   5.708   2.738   3.935 -0.3268 -0.5754 -0.1399
13185TIP3    H160970   5.713   2.679   4.010  0.8202 -1.1214 -0.6391
13185TIP3    H260971   5.792   2.728   3.891 -0.1603  1.3702 -0.2940
13186TIP3   OH260972   4.449   2.306  11.738 -0.0746 -0.5989  0.0081
13186TIP3    H160973   4.459   2.341  11.649  0.4381 -1.4508 -0.2758
13186TIP3    H260974   4.414   2.218  11.725 -1.6747 -0.0768  0.7320
13187TIP3   OH260975   0.175   1.709  13.009  0.9039 -0.0644  0.4485
13187TIP3    H160976   0.190   1.614  13.008  0.3095 -0.1592  0.5034
13187TIP3    H260977   0.105   1.722  13.074 -3.3981 -0.2444 -3.8972
13188TIP3   OH260978   2.312   1.213   6.058 -0.2763 -0.3649 -0.0893
13188TIP3    H160979   2.382   1.258   6.104 -0.3606 -0.0409 -0.2766
13188TIP3    H260980   2.293   1.136   6.111 -1.6876  1.0038  1.4626
13189TIP3   OH260981   1.920   0.427  10.661 -0.1668 -0.6389  0.4457
13189TIP3    H160982   1.866   0.487  10.713  2.7317  0.4831  2.2839
13189TIP3    H260983   1.912   0.343  10.706 -1.2216 -0.7392  0.0829
13190TIP3   OH260984   5.707   3.666  16.794 -0.2124 -0.1317  0.0594
13190TIP3    H160985   5.616   3.687  16.773 -1.1848 -1.2847  2.8548
13190TIP3    H260986   5.708   3.571  16.803  0.7490  0.0553  2.2603
13191TIP3   OH260987   5.934   5.410  12.958  0.3680 -0.2794  0.6949
13191TIP3    H160988   5.985   5.410  13.039 -0.7593  0.6652  1.4125
13191TIP3    H260989   5.845   5.390  12.986  0.0904 -0.5695 -0.3886
13192TIP3   OH260990   0.813   6.476  12.423 -0.0731 -0.2084  0.2031
13192TIP3    H160991   0.857   6.392  12.407 -2.6089 -1.5614  0.0487
13192TIP3    H260992   0.833   6.496  12.515  1.7010 -0.2627 -0.1569
13193TIP3   OH260993   5.193   0.642   3.812 -0.1382  0.3017  0.3948
13193TIP3    H160994   5.119   0.690   3.847 -0.2903 -0.7426  1.5339
13193TIP3    H260995   5.225   0.589   3.885 -1.0852 -2.6703 -1.2193
13194TIP3   OH260996   1.063   5.680  11.513 -0.1324 -0.9980 -0.1521
13194TIP3    H160997   1.016   5.723  11.441  2.0929  0.2840 -0.8953
13194TIP3    H260998   1.081   5.592  11.481 -2.3318 -1.6465  0.3004
13195TIP3   OH260999   1.357   3.796   1.149  0.6731 -0.2417  0.1859
13195TIP3    H161000   1.437   3.782   1.097  0.3622 -2.9775  0.3530
13195TIP3    H261001   1.368   3.738   1.225 -1.2643 -0.2798  0.4484
13196TIP3   OH261002   3.869   4.616   5.372  0.2700 -0.4916 -0.4552
13196TIP3    H161003   3.888   4.547   5.435 -2.3886 -0.8971 -0.0605
13196TIP3    H261004   3.860   4.571   5.288  0.5605 -0.3676 -0.5521
13197TIP3   OH261005   6.537   2.846   3.754 -0.1098 -0.0485  0.2003
13197TIP3    H161006   6.486   2.858   3.834  0.9491 -0.6552  0.9674
13197TIP3    H261007   6.496   2.771   3.711  0.4428 -0.8504  1.0651
13198TIP3   OH261008   0.940   3.530  14.153 -0.3163  0.0220 -0.2882
13198TIP3    H161009   0.896   3.608  14.187  1.3579  0.0752  1.8621
13198TIP3    H261010   1.012   3.564  14.100 -0.4916 -0.0563 -0.5748
13199TIP3   OH261011   6.510   5.267   2.338 -0.1027  0.1412  0.6668
13199TIP3    H161012   6.525   5.292   2.246  0.0110  1.3447  1.0064
13199TIP3    H261013   6.415   5.256   2.345 -0.0218 -0.9390  0.1607
13200TIP3   OH261014   3.638   2.987  13.512  0.2735  0.0519  0.8165
13200TIP3    H161015   3.717   3.036  13.487 -0.5649  0.8381 -0.3694
13200TIP3    H261016   3.598   2.963  13.428 -0.7859 -0.2593  1.4126
13201TIP3   OH261017   6.481   4.088   2.149 -0.0188  0.1271  0.4657
13201TIP3    H161018   6.524   4.134   2.076  0.4966 -3.1026 -1.3634
13201TIP3    H261019   6.553   4.064   2.207 -0.0239 -0.3374  0.2780
13202TIP3   OH261020   3.791   1.051  16.600 -0.0271 -0.3152 -0.9333
13202TIP3    H161021   3.809   1.072  16.509  0.8272 -2.7047 -1.3368
13202TIP3    H261022   3.696   1.040  16.604 -0.3574  2.1725 -0.9781
13203TIP3   OH261023   6.413   4.876  14.677 -0.5109 -0.1609 -1.0101
13203TIP3    H161024   6.498   4.893  14.718 -0.6140  2.4732 -1.8298
13203TIP3    H261025   6.352   4.865  14.750  0.3134 -1.0037 -0.4341
13204TIP3   OH261026   2.270   5.619  11.595  0.0515 -0.3918 -0.0585
13204TIP3    H161027   2.220   5.692  11.630 -1.2040 -1.4902  0.4610
13204TIP3    H261028   2.211   5.575  11.534  0.2249 -1.9032  0.8155
13205TIP3   OH261029   0.749   2.742   3.437 -0.7749  0.3194 -0.0531
13205TIP3    H161030   0.831   2.784   3.413 -1.1406  0.6255 -0.8159
13205TIP3    H261031   0.711   2.716   3.353 -1.7004  0.6493  0.2611
13206TIP3   OH261032   4.088   3.802   3.287  0.0974  0.8530  0.8749
13206TIP3    H161033   4.069   3.884   3.241 -1.0477  0.8298  1.3089
13206TIP3    H261034   4.004   3.756   3.292  0.6906 -0.2694  0.8043
13207TIP3   OH261035   2.331   2.387  15.710 -0.0201 -0.2725  0.2554
13207TIP3    H161036   2.260   2.440  15.673 -0.3456 -1.2833 -0.5861
13207TIP3    H261037   2.376   2.350  15.634  2.6460  1.9002  0.6901
13208TIP3   OH261038   3.008   5.404  15.682 -0.3044  0.1328 -0.0085
13208TIP3    H161039   3.096   5.441  15.690  0.2050 -0.8648 -0.8660
13208TIP3    H261040   3.008   5.360  15.597 -2.0171  1.1036 -0.5338
13209TIP3   OH261041   3.399   5.130   1.124  0.6919 -0.0991  0.4160
13209TIP3    H161042   3.441   5.161   1.204  1.0485  0.7235 -0.0724
13209TIP3    H261043   3.357   5.048   1.148  2.6564 -0.9834  0.9077
13210TIP3   OH261044   4.585   4.133   0.260  0.1724  0.3196  0.0801
13210TIP3    H161045   4.614   4.155   0.348  2.3294  0.4079 -0.6203
13210TIP3    H261046   4.624   4.048   0.242 -1.7263 -0.5297 -0.1409
13211TIP3   OH261047   3.791   0.830   2.426  0.1202  0.8629  0.1054
13211TIP3    H161048   3.803   0.886   2.350 -1.4424 -1.6664 -2.0629
13211TIP3    H261049   3.879   0.824   2.465  1.2992  0.7869 -2.4605
13212TIP3   OH261050   1.910   2.022  11.899 -0.6387  0.0720 -0.1832
13212TIP3    H161051   1.973   2.057  11.835  0.5529 -1.7873 -0.0506
13212TIP3    H261052   1.861   1.955  11.851 -3.0169  1.9409 -0.4715
13213TIP3   OH261053   1.281   6.051  11.819 -0.7977  0.1403 -0.5157
13213TIP3    H161054   1.317   6.088  11.739  1.9512  0.7952  0.9592
13213TIP3    H261055   1.334   5.972  11.834  1.2269  1.9614  2.5318
13214TIP3   OH261056   1.334   5.489   5.053  0.0261  0.1298  0.4414
13214TIP3    H161057   1.408   5.448   5.097  0.1837 -0.6309 -0.5326
13214TIP3    H261058   1.316   5.433   4.978 -0.2478  1.4162 -0.4672
13215TIP3   OH261059   4.290   1.032   5.915  0.3399 -0.3607  0.4466
13215TIP3    H161060   4.245   1.037   5.831  2.4819 -0.4548 -0.7307
13215TIP3    H261061   4.306   0.938   5.928 -0.2100 -0.3699  1.0947
13216TIP3   OH261062   5.717   3.302   0.885  0.8626 -0.0972 -0.2741
13216TIP3    H161063   5.689   3.268   0.800  0.5724 -2.0133  0.5593
13216TIP3    H261064   5.775   3.234   0.920  1.1014  0.7410  0.9917
13217TIP3   OH261065   6.228   0.105  13.032  0.1907  0.0123 -0.4357
13217TIP3    H161066   6.316   0.072  13.050 -0.2178 -0.6941  0.3269
13217TIP3    H261067   6.220   0.102  12.936  1.0512  0.2474 -0.5141
13218TIP3   OH261068   3.213   4.945  14.714  0.6400 -0.2271  0.0034
13218TIP3    H161069   3.280   4.877  14.705  2.9041  1.8405  0.4062
13218TIP3    H261070   3.256   5.013  14.766 -1.6477  1.3850 -0.1437
13219TIP3   OH261071   4.630   6.255   1.739  0.1547 -0.2934 -0.7708
13219TIP3    H161072   4.588   6.330   1.697  1.1305  0.5331 -0.2933
13219TIP3    H261073   4.672   6.207   1.667  1.0785  0.6305 -0.8576
13220TIP3   OH261074   6.764   4.834   0.689  0.0515  0.7057 -0.0129
13220TIP3    H161075   6.674   4.810   0.670  0.6608 -1.1246 -0.6708
13220TIP3    H261076   6.815   4.797   0.617  1.5482  0.0103  1.3584
13221TIP3   OH261077   6.587   5.270  10.639  0.0223  0.3055 -0.1434
13221TIP3    H161078   6.532   5.345  10.616  0.0680  0.3196 -0.2060
13221TIP3    H261079   6.583   5.214  10.561 -0.7768 -0.2136  0.2594
13222TIP3   OH261080   3.246   3.308  16.531  0.4694  0.5807  0.2410
13222TIP3    H161081   3.297   3.236  16.495 -0.0018 -0.2741  1.2507
13222TIP3    H261082   3.220   3.360  16.455 -0.7590 -1.3417 -0.6859
13223TIP3   OH261083   1.129   1.825   4.814  0.5781  0.7863  0.2202
13223TIP3    H161084   1.054   1.852   4.761  0.1271  0.4950  0.7017
13223TIP3    H261085   1.205   1.843   4.759  0.1618  1.1897 -0.2287
13224TIP3   OH261086   4.520   0.242  15.087  0.1002  0.3772  0.3132
13224TIP3    H161087   4.553   0.160  15.049 -1.7050 -0.3209  0.2022
13224TIP3    H261088   4.508   0.222  15.179 -0.4048  0.5024  0.2725
13225TIP3   OH261089   5.858   1.270  16.504  0.0798  0.2085  0.6462
13225TIP3    H161090   5.799   1.215  16.555  0.4925  0.2439  1.1650
13225TIP3    H261091   5.938   1.218  16.495 -0.7224 -0.6933 -1.8051
13226TIP3   OH261092   1.056   0.434  15.438  0.5090 -0.4993 -0.5819
13226TIP3    H161093   1.047   0.405  15.529 -0.2044  0.8826 -0.1933
13226TIP3    H261094   1.072   0.528  15.445 -0.5195 -0.2150 -1.9378
13227TIP3   OH261095   1.119   2.224   5.292  0.2275  0.1157 -0.2649
13227TIP3    H161096   1.117   2.314   5.325 -0.6816 -0.2768  0.7829
13227TIP3    H261097   1.183   2.179   5.347 -3.6832 -1.3908  3.3333
13228TIP3   OH261098   2.251   5.127  12.592 -0.4268  0.7361  0.3815
13228TIP3    H161099   2.323   5.105  12.651 -1.4504  1.2154  1.8388
13228TIP3    H261100   2.282   5.201  12.541  0.7049 -0.0868 -0.1575
13229TIP3   OH261101   3.639   3.042   0.212  0.7332 -0.4687  0.0198
13229TIP3    H161102   3.662   3.133   0.191 -0.9027  0.0902  0.5707
13229TIP3    H261103   3.692   3.021   0.289  1.2613 -0.0474 -0.2206
13230TIP3   OH261104   1.830   0.431  11.113 -0.3851 -0.0876 -0.0801
13230TIP3    H161105   1.812   0.497  11.046 -1.5219  1.1317  1.3846
13230TIP3    H261106   1.879   0.363  11.067 -1.0192  0.7833 -2.1050
13231TIP3   OH261107   6.216   2.963   2.290  0.3746  0.5380  0.0716
13231TIP3    H161108   6.267   2.996   2.364 -1.2168  1.6022  0.7403
13231TIP3    H261109   6.125   2.964   2.321 -0.1952 -0.1585 -1.4844
13232TIP3   OH261110   4.129   3.284   0.472  0.4806  0.7079  0.1166
13232TIP3    H161111   4.093   3.195   0.469  0.2482  0.8493 -1.5063
13232TIP3    H261112   4.101   3.318   0.557  0.8470 -0.8805  0.8926
13233TIP3   OH261113   2.012   6.667  15.103 -0.0623  0.2230  0.4199
13233TIP3    H161114   2.050   6.693  15.187 -2.1414  0.3512  1.3466
13233TIP3    H261115   2.088   6.650  15.047  1.3808  2.9749  1.4319
13234TIP3   OH261116   4.048   4.078  11.644 -0.4436  0.3982 -0.1232
13234TIP3    H161117   4.037   4.154  11.701 -1.2547 -0.0558  0.3291
13234TIP3    H261118   3.965   4.071  11.597  0.9713  2.1504 -3.0956
13235TIP3   OH261119   4.799   0.625   5.581 -0.3916 -0.2954  0.5942
13235TIP3    H161120   4.774   0.556   5.643 -1.2182 -0.7212 -0.2097
13235TIP3    H261121   4.822   0.579   5.501 -2.1379  0.4037 -0.3440
13236TIP3   OH261122   0.156   3.453   0.075 -0.9330 -0.3002 -0.0109
13236TIP3    H161123   0.082   3.443   0.135 -0.4749 -1.6046  0.3575
13236TIP3    H261124   0.232   3.427   0.127 -0.3216  0.2417 -0.6377
13237TIP3   OH261125   3.105   5.016  15.633 -0.4923  0.1180  0.3119
13237TIP3    H161126   3.079   5.010  15.725 -0.7876 -0.5824  0.1872
13237TIP3    H261127   3.075   4.933  15.594 -0.9050  0.6604 -0.5435
13238TIP3   OH261128   5.065   3.237  10.692 -0.2391 -0.3665 -0.0099
13238TIP3    H161129   4.989   3.289  10.717 -0.5124 -0.7224 -0.0987
13238TIP3    H261130   5.115   3.294  10.633 -0.3276 -0.0573  0.2091
13239TIP3   OH261131   2.856   3.095  13.681 -0.4475 -0.3078 -0.1516
13239TIP3    H161132   2.894   3.177  13.649  0.6120 -0.4199  0.8031
13239TIP3    H261133   2.788   3.074  13.617  0.4598  0.3886 -1.3639
13240TIP3   OH261134   6.522   6.607   1.791  0.0179  0.4797  0.7591
13240TIP3    H161135   6.441   6.636   1.834 -0.5281 -0.6069  0.4894
13240TIP3    H261136   6.575   6.570   1.862  0.1287  0.8795  0.8834
13241TIP3   OH261137   4.826   4.661  15.557 -0.1717  0.1466 -0.1884
13241TIP3    H161138   4.895   4.612  15.514  0.3217  1.0162 -0.3906
13241TIP3    H261139   4.842   4.649  15.651  0.3821  0.5335 -0.2365
13242TIP3   OH261140   3.462   3.076   0.538 -0.9320 -0.0398 -0.1477
13242TIP3    H161141   3.394   3.141   0.523 -1.1142 -0.6793 -2.3008
13242TIP3    H261142   3.536   3.106   0.486 -0.6164 -0.9136 -0.2159
13243TIP3   OH261143   1.730   3.384   3.186 -0.3194  0.0865 -0.2170
13243TIP3    H161144   1.735   3.419   3.096  0.1174  1.4735  0.3303
13243TIP3    H261145   1.636   3.370   3.200 -0.3181 -0.9453 -1.1927
13244TIP3   OH261146   2.958   2.521  14.102  0.4836  0.0099  0.8203
13244TIP3    H161147   3.019   2.449  14.121  1.6386  1.2891  2.0285
13244TIP3    H261148   2.899   2.522  14.178 -0.7929 -0.9349 -0.1356
13245TIP3   OH261149   0.642   0.488   1.126  0.1580  0.6800  0.0778
13245TIP3    H161150   0.713   0.424   1.129 -0.1915  0.2732 -0.3687
13245TIP3    H261151   0.661   0.540   1.048 -0.5989 -0.0830 -0.6242
13246TIP3   OH261152   2.649   3.000   2.989 -0.0914  0.5415 -0.0847
13246TIP3    H161153   2.672   3.053   2.912  0.3104  2.0555  1.0525
13246TIP3    H261154   2.630   2.914   2.953 -1.6287  1.6677 -2.0882
13247TIP3   OH261155   6.481   6.638  15.298  0.4972  0.0688  0.2755
13247TIP3    H161156   6.521   6.697  15.234  1.8846  1.6425  2.5004
13247TIP3    H261157   6.470   6.692  15.376  3.1666 -2.9656  2.8749
13248TIP3   OH261158   4.335   0.738  12.221 -0.4114 -0.0124  0.0410
13248TIP3    H161159   4.261   0.681  12.204 -0.1746 -0.6151  0.9609
13248TIP3    H261160   4.388   0.690  12.285  0.4802  0.6506 -0.1863
13249TIP3   OH261161   3.106   5.616  12.353 -0.4916 -0.0433 -0.1506
13249TIP3    H161162   3.066   5.559  12.418 -0.4678  1.1029  0.8895
13249TIP3    H261163   3.077   5.581  12.269 -1.9062 -0.5175  0.5267
13250TIP3   OH261164   0.414   0.595   4.235  0.0206 -0.1175 -0.0098
13250TIP3    H161165   0.458   0.572   4.153 -0.4535  0.1760 -0.3456
13250TIP3    H261166   0.414   0.513   4.285  1.2762 -0.0402  0.1500
13251TIP3   OH261167   3.550   4.452  13.793 -0.3311  0.0672 -0.0443
13251TIP3    H161168   3.564   4.520  13.728  0.3734  0.2034  0.2490
13251TIP3    H261169   3.520   4.376  13.743  0.1580  0.1882 -0.5193
13252TIP3   OH261170   5.664   6.169  15.502  0.2167 -0.1990  0.1808
13252TIP3    H161171   5.697   6.093  15.455  2.5492  1.5085 -1.0544
13252TIP3    H261172   5.671   6.145  15.594 -0.0962 -1.8676 -0.2103
13253TIP3   OH261173   4.786   5.929   1.274 -0.0721 -0.6962  0.2038
13253TIP3    H161174   4.785   5.838   1.242 -3.4169 -0.6066 -0.0631
13253TIP3    H261175   4.748   5.980   1.203 -2.0099  0.3542  1.9546
13254TIP3   OH261176   0.789   2.800   2.507 -0.0503 -0.2502  0.6276
13254TIP3    H161177   0.813   2.792   2.415  0.0463  2.7889  0.3112
13254TIP3    H261178   0.870   2.786   2.555  0.8044  2.2774 -0.0124
13255TIP3   OH261179   1.231   3.041   4.242 -0.6258 -0.0695  0.0496
13255TIP3    H161180   1.175   3.116   4.226 -2.2927 -1.7028 -1.9822
13255TIP3    H261181   1.171   2.969   4.263  0.6567 -1.7729 -1.8301
13256TIP3   OH261182   3.994   1.969  13.896  0.0980  0.4827 -0.1666
13256TIP3    H161183   3.986   1.990  13.803 -2.1291  1.9310  0.2948
13256TIP3    H261184   3.917   1.916  13.915  0.3642  0.4751  0.9260
13257TIP3   OH261185   2.078   1.795  15.577  0.3210 -0.2750  0.0925
13257TIP3    H161186   2.019   1.755  15.514  1.1226 -1.5247  0.1125
13257TIP3    H261187   2.021   1.821  15.650 -0.1763 -1.7581  0.2514
13258TIP3   OH261188   4.843   5.815   3.594 -0.8055  0.7574 -0.4761
13258TIP3    H161189   4.932   5.825   3.561 -1.2777  2.3139 -1.3501
13258TIP3    H261190   4.852   5.820   3.689 -0.2216  3.5912 -0.6215
13259TIP3   OH261191   0.638   6.728  16.462 -0.1379  0.0060  0.0555
13259TIP3    H161192   0.553   6.754  16.426  1.1428  1.6098 -2.0017
13259TIP3    H261193   0.651   6.786  16.537  0.3783  1.7866 -1.3700
13260TIP3   OH261194   1.838   1.912   2.203  0.3471 -0.0705 -0.0668
13260TIP3    H161195   1.757   1.939   2.246 -0.0666 -2.7751  0.9151
13260TIP3    H261196   1.827   1.938   2.112 -1.7224 -0.6061  0.0133
13261TIP3   OH261197   0.730   4.584  15.614 -0.0940  0.2863 -0.0872
13261TIP3    H161198   0.735   4.626  15.699  2.0025 -0.0944  0.0132
13261TIP3    H261199   0.798   4.627  15.562  0.3911 -1.2290 -0.7534
13262TIP3   OH261200   5.270   1.091  13.809  0.7464 -0.0946  0.4011
13262TIP3    H161201   5.349   1.143  13.815  0.6886  0.0207  0.1414
13262TIP3    H261202   5.274   1.049  13.723 -1.2486  2.7798 -1.1960
13263TIP3   OH261203   2.052   4.158   1.951  0.9367  0.2305  0.4897
13263TIP3    H161204   1.973   4.107   1.935  1.1018 -0.5884  2.1812
13263TIP3    H261205   2.026   4.249   1.935  0.1364 -0.1962 -0.6816
13264TIP3   OH261206   5.719   5.400   3.817 -0.2233  0.4146 -0.0161
13264TIP3    H161207   5.718   5.438   3.729  1.0866 -0.3772 -0.3878
13264TIP3    H261208   5.811   5.387   3.837 -0.6137 -2.0905  0.2993
13265TIP3   OH261209   6.252   1.299   3.295  0.1309 -0.6174  0.6322
13265TIP3    H161210   6.287   1.214   3.320 -0.1432 -0.6293  0.9845
13265TIP3    H261211   6.306   1.327   3.221  0.4489 -0.9356  0.7442
13266TIP3   OH261212   0.754   2.283   3.024 -0.0129 -0.5828 -0.3620
13266TIP3    H161213   0.770   2.301   3.117  0.5450 -1.3327 -0.3084
13266TIP3    H261214   0.685   2.345   2.999 -0.5942 -0.7934  0.7030
13267TIP3   OH261215   1.727   5.225   2.354 -0.3644 -0.0195 -0.1863
13267TIP3    H161216   1.655   5.162   2.355 -1.2150  0.9114  2.5963
13267TIP3    H261217   1.685   5.310   2.366  0.9990  0.7986 -1.0931
13268TIP3   OH261218   4.779   4.231  13.685 -0.6474 -0.0871 -0.5256
13268TIP3    H161219   4.686   4.251  13.678 -0.9295 -0.6649  1.2072
13268TIP3    H261220   4.823   4.316  13.678 -1.5189  0.6041  1.8251
13269TIP3   OH261221   4.635   6.335  12.618 -0.1608 -0.1062  0.0562
13269TIP3    H161222   4.585   6.380  12.551  0.6216  0.1634 -0.3553
13269TIP3    H261223   4.681   6.406  12.665 -0.4310 -0.3193  0.6458
13270TIP3   OH261224   0.509   5.652   2.971 -0.1939  0.1801  0.0516
13270TIP3    H161225   0.599   5.617   2.969 -0.3200 -0.1145 -2.7037
13270TIP3    H261226   0.516   5.731   3.024  1.7303  0.2089 -0.1899
13271TIP3   OH261227   1.117   0.363   1.928  0.5162  0.5860  0.2726
13271TIP3    H161228   1.099   0.272   1.906 -0.6947  0.6837  0.8430
13271TIP3    H261229   1.177   0.394   1.859  0.0097 -0.2908 -0.5564
13272TIP3   OH261230   6.290   1.699  15.726 -0.2943 -0.9413  0.3647
13272TIP3    H161231   6.261   1.783  15.761  2.7376  0.5062 -0.4881
13272TIP3    H261232   6.259   1.698  15.635  0.7384 -0.1791 -0.0028
13273TIP3   OH261233   6.149   1.999  14.354 -0.5273 -0.5874  0.2349
13273TIP3    H161234   6.107   2.062  14.297  0.8287  1.1192  1.0617
13273TIP3    H261235   6.084   1.979  14.421 -1.2007 -0.5890 -0.4269
13274TIP3   OH261236   0.792   2.734   0.770 -0.1706  0.0419  0.5411
13274TIP3    H161237   0.794   2.786   0.690 -0.2057  0.0535  0.5476
13274TIP3    H261238   0.813   2.645   0.741  1.0647  0.2760  0.7044
13275TIP3   OH261239   3.669   1.394   5.138 -0.0061  0.2953  0.7293
13275TIP3    H161240   3.660   1.405   5.043  1.0733 -0.9294  0.4741
13275TIP3    H261241   3.661   1.483   5.173 -0.7769  0.7152 -0.4770
13276TIP3   OH261242   3.713   4.474  16.211 -0.2457  0.6770  0.1668
13276TIP3    H161243   3.753   4.387  16.212 -0.9153  0.3265 -1.7151
13276TIP3    H261244   3.786   4.534  16.196  0.2899  0.5176  1.9411
13277TIP3   OH261245   6.644   1.353  11.273  0.0371  0.4856  0.2912
13277TIP3    H161246   6.637   1.330  11.180  2.8295  0.2987  0.1061
13277TIP3    H261247   6.611   1.442  11.278  2.0164  1.3312 -1.2884
13278TIP3   OH261248   6.363   6.506   1.588  0.5138  0.2275 -0.3916
13278TIP3    H161249   6.402   6.547   1.666  0.8538 -1.3320  0.2864
13278TIP3    H261250   6.423   6.528   1.517  0.8267  0.7034  0.0197
13279TIP3   OH261251   6.717   3.358  11.692 -0.2956 -0.2766  0.3699
13279TIP3    H161252   6.777   3.407  11.749 -0.5825 -0.6626  1.0062
13279TIP3    H261253   6.662   3.308  11.752  0.2624 -1.7063 -0.2806
13280TIP3   OH261254   4.862   0.554   2.973  0.1363 -0.0160 -0.4946
13280TIP3    H161255   4.904   0.550   2.886 -0.4731 -0.2554 -0.7782
13280TIP3    H261256   4.796   0.485   2.971 -2.0274  2.0108 -0.9476
13281TIP3   OH261257   2.678   3.685   1.809 -0.2213  0.0777  0.6426
13281TIP3    H161258   2.625   3.629   1.866 -1.2819  1.2502  0.8448
13281TIP3    H261259   2.766   3.679   1.845 -0.4929 -0.7922  1.1757
13282TIP3   OH261260   0.505   4.408   5.466 -0.5354 -0.7959  0.3700
13282TIP3    H161261   0.511   4.502   5.484 -1.0134 -0.5409 -0.7538
13282TIP3    H261262   0.594   4.375   5.483 -0.5872 -0.3066  1.6377
13283TIP3   OH261263   1.152   6.237  12.028 -0.3930  0.3276 -0.2005
13283TIP3    H161264   1.229   6.218  11.975 -1.4073  0.4407 -1.7532
13283TIP3    H261265   1.124   6.151  12.061  0.7743  0.3674  0.9291
13284TIP3   OH261266   1.257   2.370  14.935  0.4895  0.4900  0.3864
13284TIP3    H161267   1.278   2.277  14.944  0.4349  0.4021 -0.3423
13284TIP3    H261268   1.281   2.408  15.019 -2.0925 -0.6737  1.7081
13285TIP3   OH261269   1.084   1.210  15.809  0.0937 -0.4692 -0.6421
13285TIP3    H161270   1.005   1.253  15.776 -0.4607 -0.7686  0.2666
13285TIP3    H261271   1.051   1.134  15.858  0.9279 -0.4394 -0.0193
13286TIP3   OH261272   3.742   5.193  13.304 -0.2468 -0.2336  0.1860
13286TIP3    H161273   3.659   5.241  13.304  0.5533  1.2073  0.1742
13286TIP3    H261274   3.798   5.242  13.243  0.5255 -1.3345 -0.0023
13287TIP3   OH261275   4.759   0.562   6.582 -0.1164 -0.1154 -0.0648
13287TIP3    H161276   4.715   0.619   6.645  1.2656  2.1840 -1.1059
13287TIP3    H261277   4.843   0.541   6.623 -0.6053 -1.3840  0.2975
13288TIP3   OH261278   4.601   5.023  15.361 -0.5333 -0.6127 -0.6696
13288TIP3    H161279   4.655   5.062  15.292  0.6338 -0.8869  0.0767
13288TIP3    H261280   4.632   4.932  15.366  0.2012 -0.2923  0.9947
13289TIP3   OH261281   6.618   1.596   3.043 -0.2094 -0.1332 -0.4646
13289TIP3    H161282   6.583   1.666   2.989  1.4916  0.2974 -1.0314
13289TIP3    H261283   6.694   1.564   2.995  1.0648 -0.0488  1.4488
13290TIP3   OH261284   4.189   6.302   3.742 -0.1372  0.1073 -0.0716
13290TIP3    H161285   4.133   6.233   3.706 -0.0343  0.5235 -1.0358
13290TIP3    H261286   4.154   6.383   3.705  0.7925  0.4181 -0.2841
13291TIP3   OH261287   5.839   2.948  13.075  0.1317  0.3322  0.0491
13291TIP3    H161288   5.850   2.866  13.122  0.6405  0.7488  0.6588
13291TIP3    H261289   5.745   2.955  13.060  0.0054  0.0193  0.6818
13292TIP3   OH261290   3.070   3.914   1.230 -0.4960 -0.0433 -0.1775
13292TIP3    H161291   3.025   3.948   1.307 -1.5761 -0.5495 -0.5811
13292TIP3    H261292   3.115   3.835   1.261 -0.9169 -0.2378 -0.0642
13293TIP3   OH261293   4.675   3.790   1.656  0.5821 -0.0450  0.3557
13293TIP3    H161294   4.652   3.727   1.724  1.5779 -0.0981  0.6459
13293TIP3    H261295   4.770   3.795   1.659  0.4715  2.2142  1.0112
13294TIP3   OH261296   2.768   1.250  16.393 -0.1660  0.3350 -0.4210
13294TIP3    H161297   2.801   1.207  16.472 -0.8677  2.0065  0.8249
13294TIP3    H261298   2.677   1.221  16.386 -0.2360  0.5323 -0.3478
13295TIP3   OH261299   3.918   4.990  11.709 -0.0816  0.3893 -0.1003
13295TIP3    H161300   3.874   4.954  11.632  0.9619 -0.0849 -0.4855
13295TIP3    H261301   3.978   4.920  11.737 -1.5887 -0.0648  2.0919
13296TIP3   OH261302   2.686   6.454  17.022  0.2487 -0.5528  0.1540
13296TIP3    H161303   2.635   6.374  17.008 -0.4175 -0.0504 -0.3057
13296TIP3    H261304   2.687   6.466  17.117 -3.0111  1.0498  0.0402
13297TIP3   OH261305   3.122   2.820  13.519 -0.3259 -0.2360  0.0199
13297TIP3    H161306   3.170   2.897  13.489 -1.1572  0.2050 -0.2076
13297TIP3    H261307   3.031   2.838  13.496 -0.4258 -1.6597 -0.8345
13298TIP3   OH261308   4.383   6.120  14.276 -0.2357 -0.0632  0.3079
13298TIP3    H161309   4.381   6.037  14.228  1.0520 -1.0109  1.8244
13298TIP3    H261310   4.386   6.187  14.208  0.9477 -1.3463 -0.9538
13299TIP3   OH261311   6.293   3.152   4.591  0.4243  0.8457  0.2734
13299TIP3    H161312   6.266   3.193   4.509 -1.8338  0.3593  0.7384
13299TIP3    H261313   6.213   3.113   4.626  1.1891  1.6480  3.0732
13300TIP3   OH261314   0.349   3.395   2.989 -0.3123 -0.5110  0.8986
13300TIP3    H161315   0.411   3.437   3.048  3.0342  0.5614 -3.1637
13300TIP3    H261316   0.287   3.465   2.965 -0.4812 -0.4341  1.5612
13301TIP3   OH261317   3.150   1.416  15.902  0.3646  0.4000 -0.0496
13301TIP3    H161318   3.138   1.337  15.955 -0.3809  1.3663  1.2683
13301TIP3    H261319   3.237   1.447  15.926  0.3612  0.3873 -0.0211
13302TIP3   OH261320   6.771   6.089   5.351 -0.0391 -0.3302  0.3786
13302TIP3    H161321   6.824   6.164   5.377  0.6937 -0.8752  0.4499
13302TIP3    H261322   6.680   6.118   5.364  0.1928  1.0662 -1.0237
13303TIP3   OH261323   4.612   1.146   0.551 -0.1458 -0.2626  0.3846
13303TIP3    H161324   4.702   1.154   0.582 -0.5978 -0.4829  1.7856
13303TIP3    H261325   4.583   1.061   0.584 -0.7458 -0.3553 -0.3816
13304TIP3   OH261326   2.189   2.903  15.638 -0.8522 -0.0933 -0.1303
13304TIP3    H161327   2.127   2.974  15.655 -0.2916  0.3270  0.1931
13304TIP3    H261328   2.242   2.898  15.718  0.7581  0.8195 -1.1224
13305TIP3   OH261329   0.524   1.542   1.492 -0.4614  0.0404  0.6725
13305TIP3    H161330   0.466   1.549   1.416  1.9442  1.7227 -1.0766
13305TIP3    H261331   0.555   1.631   1.507  2.1623 -0.8993  1.1453
13306TIP3   OH261332   6.125   3.200  11.332  0.0912 -0.3375  0.3942
13306TIP3    H161333   6.193   3.218  11.267 -0.1076 -1.4487 -0.1416
13306TIP3    H261334   6.155   3.120  11.376 -0.2905 -0.1761  0.9443
13307TIP3   OH261335   3.429   1.130  12.236 -0.2720  0.0278  0.0488
13307TIP3    H161336   3.391   1.158  12.152  0.7412  0.0028 -0.4251
13307TIP3    H261337   3.390   1.045  12.253 -0.4125 -0.0067 -0.4425
13308TIP3   OH261338   5.581   3.962   2.897  0.0756  0.5458 -0.4435
13308TIP3    H161339   5.565   3.947   2.991  0.5397  0.1087 -0.4291
13308TIP3    H261340   5.650   4.028   2.895  2.0877 -1.4866 -0.4248
13309TIP3   OH261341   5.661   5.080  13.468 -0.1203 -0.0314 -0.2649
13309TIP3    H161342   5.669   5.005  13.527 -0.2574  1.4050  1.6095
13309TIP3    H261343   5.648   5.041  13.381  1.3275 -2.1887  0.4452
13310TIP3   OH261344   1.236   5.164   2.813 -0.0154 -0.1308  0.1610
13310TIP3    H161345   1.161   5.148   2.871 -0.5924  0.3232 -0.4421
13310TIP3    H261346   1.196   5.174   2.726  0.4515  2.8835  0.2447
13311TIP3   OH261347   4.575   0.933  11.746  0.0731  0.7916 -0.6597
13311TIP3    H161348   4.603   0.991  11.675 -0.7355  0.2327 -1.4357
13311TIP3    H261349   4.599   0.846  11.716  1.0964  0.6791  0.4194
13312TIP3   OH261350   4.508   6.090  12.690  0.1802 -0.7680  0.0894
13312TIP3    H161351   4.539   6.181  12.693 -0.2547 -0.6438  0.8560
13312TIP3    H261352   4.428   6.090  12.743  1.0138 -1.9343  1.3855
13313TIP3   OH261353   2.123   5.255   1.216  0.1434 -0.0653  0.9497
13313TIP3    H161354   2.057   5.219   1.157  0.8600 -0.2135  0.2341
13313TIP3    H261355   2.105   5.212   1.300 -2.4918  2.0398  1.5396
13314TIP3   OH261356   3.887   3.997   6.085 -0.1633  0.0544  0.2300
13314TIP3    H161357   3.979   4.006   6.108 -0.6217 -1.2552  2.7328
13314TIP3    H261358   3.841   3.995   6.169 -2.0742 -3.4495 -0.7808
13315TIP3   OH261359   4.676   5.472   1.367 -0.1363 -0.1226  0.0942
13315TIP3    H161360   4.595   5.423   1.358 -0.5727  0.5742  0.1879
13315TIP3    H261361   4.668   5.518   1.450  0.4430 -0.2203  0.2041
13316TIP3   OH261362   4.434   2.683   3.910 -0.3581  0.4844  0.0853
13316TIP3    H161363   4.360   2.743   3.906 -1.6635 -1.0623  0.2173
13316TIP3    H261364   4.395   2.596   3.900  1.6410 -0.2632 -1.5799
13317TIP3   OH261365   6.333   3.012  10.630 -0.1017  0.5615  0.2001
13317TIP3    H161366   6.340   3.108  10.634  1.6355  0.4085  1.2133
13317TIP3    H261367   6.408   2.984  10.578 -0.9803 -0.2347 -0.6790
13318TIP3   OH261368   0.236   3.431  15.559  0.4145  0.0985  0.5244
13318TIP3    H161369   0.151   3.469  15.581 -0.6171 -1.6677 -0.2998
13318TIP3    H261370   0.258   3.471  15.475  0.5003  0.7182  0.8393
13319TIP3   OH261371   0.225   1.599   5.791  0.4547 -0.3721  0.2455
13319TIP3    H161372   0.264   1.683   5.769  0.7115 -0.7494 -0.7668
13319TIP3    H261373   0.300   1.540   5.804  0.2587 -0.6827 -0.0217
13320TIP3   OH261374   1.774   0.186  13.050  0.7346 -0.0442 -0.5460
13320TIP3    H161375   1.715   0.253  13.015  0.6796  1.0270  1.5688
13320TIP3    H261376   1.730   0.152  13.128  1.2417 -1.8336 -1.0102
13321TIP3   OH261377   2.215   5.072  13.922 -0.1503  0.1288  0.1063
13321TIP3    H161378   2.281   5.141  13.923  0.3904 -0.3167 -2.0684
13321TIP3    H261379   2.207   5.044  14.013  0.7936  1.9482  0.7549
13322TIP3   OH261380   4.214   2.163  17.137 -0.2956 -0.3922  0.1397
13322TIP3    H161381   4.219   2.202  17.224  0.2872 -0.0200 -0.0617
13322TIP3    H261382   4.200   2.070  17.153 -1.9090 -0.0849  0.6245
13323TIP3   OH261383   0.789   5.690   5.901 -0.1045 -0.5356 -0.0064
13323TIP3    H161384   0.693   5.696   5.903 -0.4302 -4.3776  0.2911
13323TIP3    H261385   0.808   5.638   5.823  1.6536 -0.8121  0.5966
13324TIP3   OH261386   2.785   5.999   3.441  0.4851 -0.4723 -0.2214
13324TIP3    H161387   2.715   6.021   3.502  0.3199 -0.2772 -0.4771
13324TIP3    H261388   2.804   6.082   3.396  1.6498 -0.2738  0.6272
13325TIP3   OH261389   0.070   3.458  12.026  0.5021  0.7366 -0.0066
13325TIP3    H161390   0.129   3.383  12.028 -2.4318 -1.6879 -1.0678
13325TIP3    H261391   0.003   3.439  12.092 -0.8722  1.8595 -1.0307
13326TIP3   OH261392   2.262   6.549   1.350  0.2284 -0.1714  0.2850
13326TIP3    H161393   2.323   6.525   1.280 -0.9227 -1.1179 -0.4161
13326TIP3    H261394   2.268   6.644   1.355  1.7177 -0.2490  0.1916
13327TIP3   OH261395   3.032   0.494   1.836  0.4003  0.2112  0.0665
13327TIP3    H161396   3.014   0.577   1.792 -1.3850 -0.9140 -1.3732
13327TIP3    H261397   2.961   0.436   1.809  1.6984 -1.8451  0.9314
13328TIP3   OH261398   6.168   4.059   2.764 -0.5724 -0.3849 -0.3287
13328TIP3    H161399   6.095   4.067   2.702 -0.3698 -0.8437 -0.6241
13328TIP3    H261400   6.246   4.071   2.710 -0.4766  2.7967  0.3962
13329TIP3   OH261401   2.735   4.809   3.552  0.0880  0.4951 -0.1850
13329TIP3    H161402   2.765   4.738   3.496  1.8856  1.3547 -0.3376
13329TIP3    H261403   2.746   4.776   3.641  1.0645  0.6413 -0.2531
13330TIP3   OH261404   6.219   0.137   3.333 -0.1084  0.0131 -0.6793
13330TIP3    H161405   6.274   0.152   3.409 -1.9825  0.6547  0.5845
13330TIP3    H261406   6.254   0.057   3.293  0.9417 -0.2837  0.7990
13331TIP3   OH261407   3.008   0.397  14.862 -0.5231 -0.7599 -0.4640
13331TIP3    H161408   2.956   0.347  14.925  1.4509 -2.8878 -0.4536
13331TIP3    H261409   3.064   0.453  14.915 -1.8025  0.5072 -0.4417
13332TIP3   OH261410   1.860   2.893   6.435 -0.6587 -0.1053 -0.2994
13332TIP3    H161411   1.868   2.877   6.529 -0.2537 -0.3427 -0.3734
13332TIP3    H261412   1.834   2.808   6.398 -1.9087  0.2608 -0.2657
13333TIP3   OH261413   0.894   0.397  17.219  0.1248  0.3812 -0.1839
13333TIP3    H161414   0.960   0.438  17.163 -0.2998 -0.0625 -1.0181
13333TIP3    H261415   0.866   0.467  17.278 -0.9191  1.4250 -1.8934
13334TIP3   OH261416   1.722   5.199  16.444  0.3691  0.0194 -0.0541
13334TIP3    H161417   1.733   5.106  16.460  1.4756 -0.2013 -1.9623
13334TIP3    H261418   1.808   5.230  16.417 -0.2551  1.3673 -0.5864
13335TIP3   OH261419   1.584   0.683   5.495 -0.5992 -0.5330  0.0998
13335TIP3    H161420   1.502   0.634   5.485 -0.7090 -0.2637 -0.2856
13335TIP3    H261421   1.595   0.690   5.590 -0.5550 -1.3579  0.1637
13336TIP3   OH261422   5.444   5.872   2.414  0.4700  0.0506  0.5075
13336TIP3    H161423   5.366   5.836   2.456  0.7074 -0.9679  0.0832
13336TIP3    H261424   5.438   5.967   2.430 -0.7460 -0.0415  0.6301
13337TIP3   OH261425   4.667   6.656   1.783 -0.1379  0.0830 -0.4009
13337TIP3    H161426   4.707   6.571   1.801 -0.2645  0.1170  0.0384
13337TIP3    H261427   4.699   6.679   1.695  2.8670  1.2875  0.9234
13338TIP3   OH261428   2.520   4.980   2.473 -0.1895 -0.3751  0.7246
13338TIP3    H161429   2.532   5.049   2.407 -1.2195 -2.7980 -2.0870
13338TIP3    H261430   2.606   4.970   2.513  0.6596  0.5877 -0.7962
13339TIP3   OH261431   3.669   6.739   3.191  0.2872 -0.3415 -0.1449
13339TIP3    H161432   3.669   6.644   3.203 -1.6052  0.0617  3.8665
13339TIP3    H261433   3.608   6.754   3.120 -2.8529 -1.9329  2.0725
13340TIP3   OH261434   0.171   1.357   1.545 -0.4527 -0.3904  0.5402
13340TIP3    H161435   0.187   1.362   1.451 -0.1868  0.5856  0.6381
13340TIP3    H261436   0.209   1.273   1.571 -0.8170 -0.8170 -0.2741
13341TIP3   OH261437   1.788   6.346  13.946 -0.2099  0.3549 -0.2612
13341TIP3    H161438   1.804   6.403  13.871  1.0160  0.6031  0.1696
13341TIP3    H261439   1.835   6.266  13.927 -1.0411 -0.1131 -0.3750
13342TIP3   OH261440   5.845   0.491  16.654  0.1343 -0.6833  0.0962
13342TIP3    H161441   5.841   0.412  16.706 -0.0905 -1.0242 -0.4323
13342TIP3    H261442   5.790   0.473  16.578  2.2761 -1.0519 -1.4195
13343TIP3   OH261443   2.216   6.114  14.891 -0.0711  0.1199  0.3870
13343TIP3    H161444   2.209   6.030  14.936 -2.0574 -0.6998 -1.3234
13343TIP3    H261445   2.126   6.131  14.861  0.9161  1.3369 -1.9384
13344TIP3   OH261446   3.148   5.795   0.562 -0.1647 -0.2436 -0.0346
13344TIP3    H161447   3.177   5.799   0.471  0.6668 -0.1058  0.2278
13344TIP3    H261448   3.101   5.712   0.570 -2.2258  0.7985 -1.1605
13345TIP3   OH261449   4.564   2.864  16.418 -0.1198 -0.5351  0.2578
13345TIP3    H161450   4.556   2.951  16.379  2.1973 -1.2844 -2.0303
13345TIP3    H261451   4.503   2.810  16.367 -1.6272 -0.2583  1.7388
13346TIP3   OH261452   3.837   4.004  12.800 -0.0486  0.3696  0.6642
13346TIP3    H161453   3.819   3.941  12.730  1.9780 -0.1179  0.5550
13346TIP3    H261454   3.899   3.959  12.858 -1.6783  0.7917  2.7626
13347TIP3   OH261455   3.364   5.673  12.474 -0.0919  0.7266 -0.1761
13347TIP3    H161456   3.290   5.639  12.424 -0.4899 -0.2922  1.0698
13347TIP3    H261457   3.424   5.599  12.483 -0.4731  0.6104  1.6550
13348TIP3   OH261458   1.759   5.415  14.109 -0.3073  0.5983 -0.0019
13348TIP3    H161459   1.697   5.459  14.051  0.0108 -1.4185 -1.9031
13348TIP3    H261460   1.729   5.438  14.197 -1.9790  2.0514 -0.9142
13349TIP3   OH261461   2.887   1.991  13.988 -0.1803 -0.1886  0.3075
13349TIP3    H161462   2.939   1.934  13.931 -0.0720  0.9520 -0.7560
13349TIP3    H261463   2.842   1.931  14.047  0.4364 -1.3379 -0.3674
13350TIP3   OH261464   4.959   4.925   2.060 -0.0525 -0.2022  0.4610
13350TIP3    H161465   4.967   4.987   1.988  1.1540 -0.4513  0.3829
13350TIP3    H261466   4.921   4.976   2.131  0.7401  0.5787  0.3316
13351TIP3   OH261467   1.084   2.516  14.089 -0.7218 -0.0017  0.3366
13351TIP3    H161468   0.998   2.488  14.061 -0.9201  0.9438 -0.0357
13351TIP3    H261469   1.109   2.455  14.158 -0.4547 -2.0106 -1.5095
13352TIP3   OH261470   4.627   6.415   4.879  0.0319 -0.3407  0.4498
13352TIP3    H161471   4.634   6.357   4.955 -0.1642 -1.8210 -0.6300
13352TIP3    H261472   4.715   6.450   4.866  0.3997 -1.2634  0.4521
13353TIP3   OH261473   1.120   6.604  16.552 -0.9066  0.2185  0.2549
13353TIP3    H161474   1.105   6.531  16.492  1.5069 -0.7146  0.7465
13353TIP3    H261475   1.095   6.682  16.502  2.1451 -0.4341 -2.4342
13354TIP3   OH261476   3.406   3.219  14.921  0.6257 -0.2568 -0.3333
13354TIP3    H161477   3.373   3.135  14.890  2.0451 -0.4729 -1.2670
13354TIP3    H261478   3.373   3.283  14.858 -0.5017 -0.0918  0.4078
13355TIP3   OH261479   4.103   6.243  10.379  0.1179  0.1891  0.7923
13355TIP3    H161480   4.095   6.235  10.474  1.4821  0.2434  0.9241
13355TIP3    H261481   4.104   6.152  10.347 -0.7299  0.1786  0.7917
13356TIP3   OH261482   1.986   0.833  16.071  0.1750  0.2605  0.2109
13356TIP3    H161483   2.060   0.849  16.129 -0.0985 -1.1506  0.9825
13356TIP3    H261484   1.916   0.804  16.129  0.2236 -2.2680 -0.9038
13357TIP3   OH261485   4.734   3.526  12.653  0.4023 -0.0808  0.2863
13357TIP3    H161486   4.660   3.549  12.597  0.4765 -3.0579 -1.1045
13357TIP3    H261487   4.695   3.512  12.739 -0.6126 -1.2118 -0.3403
13358TIP3   OH261488   0.965   2.797   2.728  0.0346  0.4377 -0.3948
13358TIP3    H161489   0.971   2.874   2.785 -1.4146 -0.9095  1.6495
13358TIP3    H261490   1.014   2.729   2.775 -0.4058 -0.4415 -1.2069
13359TIP3   OH261491   5.929   2.458   1.144 -0.1710  0.2540  0.3993
13359TIP3    H161492   5.941   2.363   1.153 -0.8075  0.2120  0.8550
13359TIP3    H261493   5.835   2.469   1.127  0.1115  0.7223 -0.9141
13360TIP3   OH261494   2.814   3.357   3.693 -0.6688 -0.7109  0.3847
13360TIP3    H161495   2.816   3.331   3.601 -2.5277 -0.3633  0.2172
13360TIP3    H261496   2.894   3.408   3.706 -0.4767 -0.6273 -1.0764
13361TIP3   OH261497   6.697   6.152  16.823  0.1621  0.3534  0.3627
13361TIP3    H161498   6.789   6.165  16.798 -0.0336  1.1306  0.0196
13361TIP3    H261499   6.701   6.114  16.910  0.7947  1.9210  1.0301
13362TIP3   OH261500   0.546   1.017   4.975  0.3045 -0.2947 -0.2529
13362TIP3    H161501   0.588   1.011   4.890  0.6318 -2.0250  0.0146
13362TIP3    H261502   0.538   1.111   4.991  1.2189  0.0476 -1.6979
13363TIP3   OH261503   2.732   0.460  15.671  0.4669 -0.2118  0.5987
13363TIP3    H161504   2.687   0.539  15.641  2.2255  0.2758 -0.8344
13363TIP3    H261505   2.821   0.469  15.638  1.0157 -2.2288  1.4550
13364TIP3   OH261506   2.775   4.942  11.448 -0.2415 -0.1932 -0.2607
13364TIP3    H161507   2.762   4.996  11.370 -0.6037 -0.1130 -0.1488
13364TIP3    H261508   2.849   4.885  11.427 -0.2307 -0.0539 -0.5961
13365TIP3   OH261509   4.524   3.547   0.943  0.5147  0.0826 -0.2228
13365TIP3    H161510   4.483   3.586   1.020 -0.6127 -0.3280 -0.6012
13365TIP3    H261511   4.515   3.453   0.956  0.8110 -0.0009 -0.6004
13366TIP3   OH261512   1.195   3.656  16.352  0.4288 -0.1627 -0.5969
13366TIP3    H161513   1.143   3.663  16.433  1.9375  0.9491  0.3080
13366TIP3    H261514   1.130   3.645  16.283 -1.1468  2.6995  0.3386
13367TIP3   OH261515   1.369   1.202   4.413  1.1393  0.4044 -0.2482
13367TIP3    H161516   1.407   1.231   4.496  0.6964 -0.7631  0.3669
13367TIP3    H261517   1.278   1.233   4.415  0.0865 -2.6037  1.2582
13368TIP3   OH261518   1.735   5.384   1.941 -0.3969  0.1765 -0.0812
13368TIP3    H161519   1.806   5.339   1.894 -0.4762  1.8022 -1.8339
13368TIP3    H261520   1.763   5.386   2.032 -0.3709 -3.3638  0.0640
13369TIP3   OH261521   4.239   6.610   1.111 -0.5505 -0.3831 -0.0828
13369TIP3    H161522   4.203   6.690   1.073  0.5303  0.5459  0.8009
13369TIP3    H261523   4.163   6.553   1.122 -1.3217  0.4801 -0.8142
13370TIP3   OH261524   1.701   4.417  14.680  0.3097  0.0879 -0.3159
13370TIP3    H161525   1.717   4.476  14.606 -0.0650 -1.4375 -1.6449
13370TIP3    H261526   1.684   4.332  14.639 -0.9140 -0.5604  1.4985
13371TIP3   OH261527   6.161   5.573   3.222 -0.1812  0.1137 -0.4042
13371TIP3    H161528   6.197   5.627   3.291 -0.3446 -0.8174  0.4180
13371TIP3    H261529   6.223   5.581   3.149  0.5395  0.2430  0.2272
13372TIP3   OH261530   2.371   3.736  12.463 -0.2333  0.1060  1.0743
13372TIP3    H161531   2.316   3.798  12.510  0.9720  1.9146  0.1518
13372TIP3    H261532   2.322   3.714  12.384  0.0625  1.1575  0.6006
13373TIP3   OH261533   3.824   3.126   0.884  0.1291 -0.5711 -0.3755
13373TIP3    H161534   3.818   3.046   0.935 -1.4706 -0.6765 -0.7268
13373TIP3    H261535   3.862   3.190   0.945  0.2999 -1.2623  0.2576
13374TIP3   OH261536   6.725   0.108  13.228 -0.4676  0.0803  0.5740
13374TIP3    H161537   6.773   0.060  13.295  2.9108  0.6516 -1.3291
13374TIP3    H261538   6.735   0.200  13.253 -2.5026  0.1233  1.3514
13375TIP3   OH261539   4.805   4.331  15.458 -0.4182  0.0515 -0.2026
13375TIP3    H161540   4.885   4.374  15.427  0.7214 -1.4875  0.5104
13375TIP3    H261541   4.762   4.396  15.514  0.3974  0.8448 -0.4879
13376TIP3   OH261542   1.193   3.833   1.847 -0.2355 -0.0692  0.6600
13376TIP3    H161543   1.259   3.897   1.872 -2.3538  2.1163  0.8274
13376TIP3    H261544   1.130   3.835   1.919 -0.4448 -2.2168  0.5673
13377TIP3   OH261545   6.474   4.353   0.553 -0.2550 -0.6841 -0.2574
13377TIP3    H161546   6.548   4.411   0.533  1.6769 -2.8888  0.1678
13377TIP3    H261547   6.460   4.364   0.647 -1.2620  0.6223 -0.5587
13378TIP3   OH261548   1.710   1.940   4.858  0.7925 -0.1164 -0.0404
13378TIP3    H161549   1.779   1.873   4.855 -1.1230 -2.1130 -0.4206
13378TIP3    H261550   1.713   1.981   4.771 -0.4243 -2.2259 -1.1182
13379TIP3   OH261551   3.500   2.206   1.352 -0.6084 -0.3327  0.1092
13379TIP3    H161552   3.569   2.243   1.298  0.1513 -2.3608 -0.3512
13379TIP3    H261553   3.506   2.253   1.435  1.2070 -0.3691  0.0099
13380TIP3   OH261554   5.527   4.885  17.147 -0.6634  0.1484 -0.4409
13380TIP3    H161555   5.593   4.902  17.079 -1.5968  0.4744 -1.2724
13380TIP3    H261556   5.548   4.798  17.180  1.8083  1.2632  1.1467
13381TIP3   OH261557   0.435   1.678   3.761  0.3386 -0.6633 -0.4285
13381TIP3    H161558   0.463   1.767   3.740 -2.6451  0.2625 -0.7797
13381TIP3    H261559   0.409   1.641   3.676 -0.3893 -1.1524  0.0068
13382TIP3   OH261560   4.647   6.216   0.573  0.2276  0.2027  0.0530
13382TIP3    H161561   4.642   6.301   0.529  0.2277  1.0235  1.5952
13382TIP3    H261562   4.721   6.171   0.531  0.5326  1.1566 -0.4437
13383TIP3   OH261563   5.285   6.729   6.993 -0.8059 -0.1919 -0.1040
13383TIP3    H161564   5.240   6.663   6.940  0.0320 -0.2862 -0.7128
13383TIP3    H261565   5.229   6.806   6.989 -0.7482 -0.1961 -1.1406
13384TIP3   OH261566   0.408   6.360  14.063  0.7456  0.4269 -0.0752
13384TIP3    H161567   0.336   6.299  14.044  0.2418  1.5532 -1.9091
13384TIP3    H261568   0.387   6.396  14.150 -0.5256  0.2022 -0.2812
13385TIP3   OH261569   1.376   2.558  16.078  0.6519 -0.1475 -0.1196
13385TIP3    H161570   1.443   2.527  16.139  0.2172  0.2118  0.5478
13385TIP3    H261571   1.419   2.627  16.028  0.7720  0.0976  0.3217
13386TIP3   OH261572   1.417   4.670  11.058  0.0869  0.2355  0.5504
13386TIP3    H161573   1.484   4.737  11.045  1.2447 -1.1528 -0.7894
13386TIP3    H261574   1.409   4.664  11.153  1.8370  0.4500  0.7336
13387TIP3   OH261575   2.412   2.377  15.417  0.4774  0.1527 -0.4589
13387TIP3    H161576   2.321   2.401  15.398  0.6083  1.3482  0.3886
13387TIP3    H261577   2.427   2.298  15.364 -1.1295 -0.2079 -0.4087
13388TIP3   OH261578   6.133   3.637   5.577 -0.0780  0.4567  0.2828
13388TIP3    H161579   6.093   3.564   5.530  1.0294  0.3941 -0.5764
13388TIP3    H261580   6.099   3.629   5.666 -0.3984 -0.7748  0.0654
13389TIP3   OH261581   1.378   2.341  11.157 -0.0175  0.1895  0.7445
13389TIP3    H161582   1.385   2.264  11.213  0.1634 -1.2771 -1.2179
13389TIP3    H261583   1.307   2.393  11.195  1.2294  0.0967  3.2813
13390TIP3   OH261584   2.793   0.810   4.818  0.3619 -0.0003 -0.3183
13390TIP3    H161585   2.728   0.868   4.778  1.7726  0.6892 -1.6572
13390TIP3    H261586   2.785   0.728   4.770 -0.3948 -0.3385  0.3768
13391TIP3   OH261587   4.658   3.266   4.899  0.6774  0.2583  0.7116
13391TIP3    H161588   4.686   3.317   4.975 -1.5738 -0.4995  2.0801
13391TIP3    H261589   4.568   3.241   4.918 -0.2351  0.7894 -2.6097
13392TIP3   OH261590   2.318   2.828  15.928  0.2661 -0.5951 -0.2799
13392TIP3    H161591   2.358   2.751  15.966  0.4222 -1.1749 -1.5762
13392TIP3    H261592   2.314   2.892  15.999  0.6407 -1.6055  0.6495
13393TIP3   OH261593   3.264   2.390  15.629  0.3016  0.8238 -0.1832
13393TIP3    H161594   3.306   2.476  15.634  0.9077  0.5715 -0.8980
13393TIP3    H261595   3.333   2.331  15.598  0.0316 -0.0245  0.8041
13394TIP3   OH261596   0.509   2.520   0.488 -0.4463  0.0428  0.2309
13394TIP3    H161597   0.428   2.479   0.459 -0.4973  0.4352 -0.1907
13394TIP3    H261598   0.572   2.501   0.419 -0.7784  1.6441 -0.5377
13395TIP3   OH261599   4.103   5.274  16.718 -0.1843 -0.1345  0.1981
13395TIP3    H161600   4.132   5.360  16.748 -0.4603 -1.1444  3.5724
13395TIP3    H261601   4.183   5.230  16.690  0.2128  0.5656  0.2290
13396TIP3   OH261602   1.568   4.406  14.952  0.4545  0.1744  0.3060
13396TIP3    H161603   1.618   4.441  14.878  0.5906  1.4439  0.9867
13396TIP3    H261604   1.585   4.466  15.024 -2.1163  0.7103  0.5333
13397TIP3   OH261605   2.831   1.530   4.147  0.1133  0.2261  0.2196
13397TIP3    H161606   2.874   1.561   4.226 -2.5054  2.1698  0.9432
13397TIP3    H261607   2.812   1.609   4.097  1.2980 -0.9332 -2.1809
13398TIP3   OH261608   5.155   3.490   3.810  0.3145  0.1663 -0.2990
13398TIP3    H161609   5.088   3.487   3.742  0.6585  0.5575 -0.6559
13398TIP3    H261610   5.237   3.477   3.764  0.5269  0.1415  0.0791
13399TIP3   OH261611   2.584   4.169  14.370  0.5717 -0.1747  0.3075
13399TIP3    H161612   2.560   4.259  14.352 -1.6971 -0.5541  1.2871
13399TIP3    H261613   2.587   4.163  14.466 -0.6495 -1.4609  0.2814
13400TIP3   OH261614   6.647   2.204   1.701  0.0587 -0.0804 -0.3855
13400TIP3    H161615   6.617   2.208   1.610 -1.1122 -1.9796 -0.1108
13400TIP3    H261616   6.732   2.160   1.696 -0.6342 -1.4541 -0.4585
13401TIP3   OH261617   4.529   5.564  13.260 -0.0747  0.1580 -0.0615
13401TIP3    H161618   4.612   5.599  13.225 -0.0048 -0.8116 -0.9239
13401TIP3    H261619   4.554   5.481  13.301 -0.4936  0.2805  0.4463
13402TIP3   OH261620   1.699   3.036  14.491  0.0766  0.3930 -0.0582
13402TIP3    H161621   1.657   3.112  14.449 -3.2621 -1.1525  0.3118
13402TIP3    H261622   1.667   2.961  14.441  2.4896 -0.8704  0.2620
13403TIP3   OH261623   4.983   5.304   2.909  0.1505  0.5459  0.2125
13403TIP3    H161624   5.033   5.353   2.845 -2.0953  1.8042 -0.6422
13403TIP3    H261625   5.035   5.308   2.989  0.7816  2.9561 -0.2786
13404TIP3   OH261626   5.920   0.860  14.383 -0.1676 -0.4249  0.1998
13404TIP3    H161627   5.994   0.916  14.361 -0.3676 -0.2825 -0.1183
13404TIP3    H261628   5.847   0.897  14.334 -0.3073 -0.9456  0.0160
13405TIP3   OH261629   6.617   1.886   1.030  0.2068 -0.1316 -0.0487
13405TIP3    H161630   6.676   1.952   1.066 -0.5176  1.0473 -0.9877
13405TIP3    H261631   6.565   1.857   1.105  0.4931  0.4120  0.3643
13406TIP3   OH261632   0.961   5.353   3.184  0.0699 -0.1683 -0.3488
13406TIP3    H161633   0.954   5.325   3.275 -0.8226 -0.4432 -0.4957
13406TIP3    H261634   0.924   5.442   3.184  1.0186  0.2383 -0.2605
13407TIP3   OH261635   1.789   1.265   0.069  0.2698  0.0035 -0.1382
13407TIP3    H161636   1.873   1.226   0.095 -0.9391 -2.4694  0.1744
13407TIP3    H261637   1.731   1.249   0.143 -0.7474  0.8960 -0.7245
13408TIP3   OH261638   0.391   3.247   3.752  0.3012 -0.3898  0.5344
13408TIP3    H161639   0.410   3.267   3.843  0.9804 -0.0866  0.3283
13408TIP3    H261640   0.347   3.325   3.718 -0.0710 -0.5539  0.6372
13409TIP3   OH261641   3.810   0.109  11.468  0.3187  0.6966 -0.3321
13409TIP3    H161642   3.762   0.191  11.460 -0.0088  0.4611 -0.7798
13409TIP3    H261643   3.850   0.096  11.382 -0.7322 -0.2894 -0.6861
13410TIP3   OH261644   3.722   6.182  12.550  0.3819  0.1886  0.1808
13410TIP3    H161645   3.704   6.276  12.550 -4.1771 -0.5591  1.2522
13410TIP3    H261646   3.744   6.162  12.459 -2.5292  1.6649 -0.9143
13411TIP3   OH261647   3.944   4.723   4.842  0.7044  0.3305 -0.5360
13411TIP3    H161648   3.890   4.797   4.868  2.0241  1.0734  0.1716
13411TIP3    H261649   3.888   4.646   4.852 -0.9528  1.2962 -2.0990
13412TIP3   OH261650   6.615   2.917   4.556 -0.0892  0.2131 -0.3108
13412TIP3    H161651   6.662   2.900   4.474 -1.9303 -1.8333 -0.9914
13412TIP3    H261652   6.663   2.867   4.622  0.4879  0.6235 -0.4111
13413TIP3   OH261653   6.763   5.214   2.058 -0.0774  0.2644 -0.0993
13413TIP3    H161654   6.717   5.131   2.042  0.9357 -0.6512  1.5415
13413TIP3    H261655   6.768   5.256   1.972 -0.7043 -1.3308 -0.9393
13414TIP3   OH261656   1.105   0.896  16.068  0.0125  0.1266 -0.2837
13414TIP3    H161657   1.186   0.852  16.044  0.4960 -0.5289  2.3162
13414TIP3    H261658   1.130   0.986  16.085 -0.0670  0.2514 -0.8200
13415TIP3   OH261659   6.184   6.765   4.827  0.3179 -0.0902  0.0563
13415TIP3    H161660   6.197   6.703   4.898 -1.1385 -0.0212  0.4092
13415TIP3    H261661   6.135   6.716   4.761 -0.3651  0.5110  0.1049
13416TIP3   OH261662   2.475   0.115  15.073  0.0573 -0.3434  0.0224
13416TIP3    H161663   2.390   0.154  15.052  0.6999  0.7376 -0.5748
13416TIP3    H261664   2.536   0.188  15.071  0.4953 -0.5282  3.6763
13417TIP3   OH261665   5.085   4.197  12.645 -0.2133  0.1262  0.5075
13417TIP3    H161666   4.992   4.205  12.624 -0.4802  1.6902  2.2562
13417TIP3    H261667   5.096   4.105  12.671 -0.9587 -0.4243 -1.0352
13418TIP3   OH261668   5.798   5.922   2.682 -0.6275 -0.3564 -0.0702
13418TIP3    H161669   5.728   5.986   2.681 -0.0360  0.2886 -1.2481
13418TIP3    H261670   5.801   5.888   2.592 -0.9691 -2.0810  0.5416
13419TIP3   OH261671   5.043   1.091   4.854  0.2632  0.6845  0.3170
13419TIP3    H161672   5.012   1.067   4.941 -0.1475 -0.0704 -0.0258
13419TIP3    H261673   4.963   1.112   4.805  0.4169  0.3300 -0.0952
13420TIP3   OH261674   2.239   1.802  13.858 -0.4171 -0.2204  0.4970
13420TIP3    H161675   2.294   1.853  13.918 -1.5497  1.1785  0.3935
13420TIP3    H261676   2.168   1.769  13.912 -0.2851 -0.7510  0.3445
13421TIP3   OH261677   1.100   1.036  17.057  0.0352 -0.5401  0.8201
13421TIP3    H161678   1.190   1.028  17.088  0.0980 -0.1256  0.7520
13421TIP3    H261679   1.095   0.977  16.982  0.5825  0.3071  0.1028
13422TIP3   OH261680   5.178   2.250   4.708 -0.3384  0.0496 -0.1894
13422TIP3    H161681   5.136   2.281   4.788  0.9434  1.8179 -0.1704
13422TIP3    H261682   5.139   2.303   4.639 -0.1903 -0.2848 -0.5328
13423TIP3   OH261683   1.424   3.063  12.878  0.0285  0.6585  0.3160
13423TIP3    H161684   1.394   3.096  12.794 -0.3090  0.0202  0.1809
13423TIP3    H261685   1.346   3.064  12.934 -0.6198 -2.3050 -0.4323
13424TIP3   OH261686   2.928   5.208  11.298  0.9054 -0.3718 -0.0438
13424TIP3    H161687   2.897   5.227  11.209  1.1224 -1.4008 -0.3527
13424TIP3    H261688   2.859   5.243  11.355 -0.8695 -2.6095 -0.7252
13425TIP3   OH261689   4.810   4.478   1.117  0.3810 -0.1194 -0.2156
13425TIP3    H161690   4.740   4.416   1.097 -0.7543  0.4114  1.8698
13425TIP3    H261691   4.776   4.562   1.085 -0.0675  0.1820  1.0264
13426TIP3   OH261692   4.575   4.377  12.261 -1.1963 -0.3283  0.1992
13426TIP3    H161693   4.629   4.324  12.202 -1.5890 -1.2691  0.6791
13426TIP3    H261694   4.627   4.456  12.276  0.2256 -1.3815  0.9537
13427TIP3   OH261695   0.517   3.049   0.188 -0.0142 -0.4058 -0.6868
13427TIP3    H161696   0.611   3.064   0.183 -0.3912  2.0793 -0.9640
13427TIP3    H261697   0.479   3.110   0.124 -1.9219 -0.2304  0.5769
13428TIP3   OH261698   4.604   3.074   2.501  0.1495  0.4280  0.7685
13428TIP3    H161699   4.583   3.165   2.524 -1.7250  0.3284 -0.3833
13428TIP3    H261700   4.670   3.047   2.565 -0.1836  2.1962  1.8986
13429TIP3   OH261701   2.743   5.962   3.818  0.3418 -1.1311 -0.3806
13429TIP3    H161702   2.661   5.959   3.769  0.1786 -0.3997 -0.1572
13429TIP3    H261703   2.717   5.986   3.907  0.6096 -2.6490  0.1399
13430TIP3   OH261704   5.692   6.099   5.877 -0.7936 -0.0032  1.0654
13430TIP3    H161705   5.687   6.004   5.886 -1.1422 -0.2381 -1.3702
13430TIP3    H261706   5.608   6.125   5.839 -1.2600  1.4835  2.9677
13431TIP3   OH261707   2.628   3.994   3.247  0.1949 -0.0793 -0.2414
13431TIP3    H161708   2.715   4.017   3.280  0.4381  0.2712 -1.1161
13431TIP3    H261709   2.643   3.969   3.155 -0.9139  1.9572 -1.0004
13432TIP3   OH261710   3.691   6.353   1.885 -0.2247 -0.0260 -0.2859
13432TIP3    H161711   3.631   6.281   1.865  0.4194 -0.6608  0.0053
13432TIP3    H261712   3.635   6.429   1.896 -0.7950 -0.2048 -1.9199
13433TIP3   OH261713   6.461   3.101  15.506 -0.0498 -0.2070  0.3521
13433TIP3    H161714   6.422   3.184  15.533  2.6748  1.0572  0.5847
13433TIP3    H261715   6.415   3.035  15.558 -1.5273  1.2508  0.9297
13434TIP3   OH261716   6.092   2.063   5.228 -0.2389  0.3841 -0.2252
13434TIP3    H161717   6.042   2.123   5.283  3.3750  1.3841  2.1532
13434TIP3    H261718   6.095   1.981   5.277  1.7329  0.8224  0.4405
13435TIP3   OH261719   2.238   1.229   5.383 -0.3939  0.3354  0.1322
13435TIP3    H161720   2.245   1.307   5.329  1.1271 -0.5422 -0.9799
13435TIP3    H261721   2.291   1.248   5.461 -1.3914  1.0398  0.6447
13436TIP3   OH261722   0.349   6.181  12.558 -0.0281 -0.3606  0.1430
13436TIP3    H161723   0.331   6.176  12.464 -3.1905  1.0468  0.5909
13436TIP3    H261724   0.354   6.089  12.586  2.2568 -0.8056 -1.5698
13437TIP3   OH261725   0.856   3.582  15.928 -0.3166  0.1682 -0.2116
13437TIP3    H161726   0.868   3.531  15.848  0.9583 -0.9955  0.7081
13437TIP3    H261727   0.761   3.588  15.938 -0.4924 -1.5876 -0.6215
13438TIP3   OH261728   2.668   1.768   1.536  0.2320  0.2716  0.1691
13438TIP3    H161729   2.696   1.762   1.445 -0.0480 -0.5705  0.1293
13438TIP3    H261730   2.574   1.751   1.533  0.2262  0.2159  0.6167
13439TIP3   OH261731   6.537   1.786   4.322  0.3835 -0.4699  0.2616
13439TIP3    H161732   6.444   1.808   4.316  0.1089 -1.2832  1.3730
13439TIP3    H261733   6.570   1.797   4.232 -0.7424 -0.0030 -0.1007
13440TIP3   OH261734   6.027   5.032   4.719 -0.0135 -0.4027  0.1947
13440TIP3    H161735   5.945   5.082   4.717  0.5805  0.5587 -0.4208
13440TIP3    H261736   6.091   5.089   4.677  0.9189 -1.2592  0.4332
13441TIP3   OH261737   3.851   0.399   3.503 -0.6305  0.4515 -0.0677
13441TIP3    H161738   3.812   0.323   3.547 -1.5412  1.0620  0.1933
13441TIP3    H261739   3.821   0.474   3.554  0.5281  0.9708 -0.1337
13442TIP3   OH261740   5.933   2.991   2.334 -0.4971 -0.1297  0.5304
13442TIP3    H161741   5.934   2.924   2.403  1.6452 -0.9575 -0.2549
13442TIP3    H261742   5.850   2.977   2.289 -0.4452 -1.7497  0.8914
13443TIP3   OH261743   3.614   5.877   2.206 -0.3759 -0.5116  0.0713
13443TIP3    H161744   3.703   5.905   2.186  0.1134 -2.3805 -0.5310
13443TIP3    H261745   3.571   5.955   2.241  1.4987  0.4088  0.3917
13444TIP3   OH261746   5.611   2.537   1.880 -0.2377 -0.3204  0.4450
13444TIP3    H161747   5.590   2.618   1.926  0.4814 -0.3888  0.8981
13444TIP3    H261748   5.581   2.552   1.790  1.5592  1.1617  0.0668
13445TIP3   OH261749   5.541   4.844   3.028  0.7686  0.2025 -0.0777
13445TIP3    H161750   5.615   4.850   3.088  0.7898  3.0713 -0.3154
13445TIP3    H261751   5.490   4.769   3.059  3.5438 -1.5847  0.3153
13446TIP3   OH261752   0.835   2.683   3.722 -0.7339  0.1839  0.0946
13446TIP3    H161753   0.903   2.751   3.728  1.1520 -1.4987 -1.7272
13446TIP3    H261754   0.793   2.699   3.638 -1.0008 -0.2776  0.1420
13447TIP3   OH261755   3.796   5.920  15.914  0.5926  0.0539 -0.0022
13447TIP3    H161756   3.825   5.873  15.836 -0.0516  0.8777 -0.7450
13447TIP3    H261757   3.717   5.966  15.887  0.3525  0.3359  1.1418
13448TIP3   OH261758   4.780   1.877  15.685 -0.6936 -0.4844  1.0036
13448TIP3    H161759   4.724   1.828  15.625  0.1093 -0.2074  0.0001
13448TIP3    H261760   4.844   1.920  15.627 -0.1392  0.0892  2.0336
13449TIP3   OH261761   1.281   4.176   4.620  1.0298  0.4651 -0.1744
13449TIP3    H161762   1.358   4.204   4.670  0.1708 -0.6239  1.8239
13449TIP3    H261763   1.268   4.246   4.556  2.0246  2.0608  1.2942
13450TIP3   OH261764   4.151   4.354  13.386  0.1240 -0.7138 -0.0194
13450TIP3    H161765   4.082   4.419  13.375  0.2636 -0.4856  0.4734
13450TIP3    H261766   4.107   4.270  13.369 -0.4234 -0.6228  0.9219
13451TIP3   OH261767   4.926   1.812  17.040  0.1852  0.2819 -0.0782
13451TIP3    H161768   4.901   1.816  17.132 -1.9457  1.0045 -0.6494
13451TIP3    H261769   5.021   1.809  17.040  0.1519 -2.6960  2.2433
13452TIP3   OH261770   2.522   1.790   3.573 -0.7265  0.1154 -0.1596
13452TIP3    H161771   2.490   1.749   3.493 -1.1887 -0.6156  0.3919
13452TIP3    H261772   2.443   1.817   3.619 -0.4753  0.0915  0.2839
13453TIP3   OH261773   2.442   0.472   1.968 -0.5734 -0.2089  0.0402
13453TIP3    H161774   2.394   0.550   1.995  0.4163  1.1530 -1.9731
13453TIP3    H261775   2.532   0.503   1.953 -0.4971 -1.3881 -2.2423
13454TIP3   OH261776   1.008   6.052   4.678 -0.0674 -0.1950 -0.1877
13454TIP3    H161777   0.966   6.045   4.764  1.8619 -0.5666  0.7355
13454TIP3    H261778   0.961   5.989   4.623 -0.9804 -0.3136  0.7129
13455TIP3   OH261779   2.045   2.229  15.800 -0.1597  0.0403  0.1184
13455TIP3    H161780   2.055   2.321  15.823  2.9234 -0.1579 -0.2324
13455TIP3    H261781   2.035   2.229  15.704  3.8728 -0.1554 -0.4006
13456TIP3   OH261782   5.735   4.091  16.179 -1.0498 -0.1177  0.1131
13456TIP3    H161783   5.764   4.182  16.173 -0.6711 -0.2406  0.1003
13456TIP3    H261784   5.708   4.080  16.270 -0.0396 -0.3179  0.3853
13457TIP3   OH261785   5.526   0.071  11.831 -0.0553  0.6510 -0.1827
13457TIP3    H161786   5.617   0.064  11.804 -0.0987  0.1969 -0.2182
13457TIP3    H261787   5.515   0.002  11.897 -0.1512  1.2446  0.4371
13458TIP3   OH261788   0.902   4.094   4.796 -0.0497 -0.0654  0.3387
13458TIP3    H161789   0.822   4.074   4.844  1.1709 -1.5673  1.7842
13458TIP3    H261790   0.920   4.015   4.745  0.1201  0.5386 -0.5532
13459TIP3   OH261791   4.486   5.709   1.233  0.5892  0.0093 -0.0871
13459TIP3    H161792   4.487   5.723   1.328 -0.7209  1.4888 -0.2676
13459TIP3    H261793   4.415   5.765   1.201 -1.6928 -3.5095 -1.4870
13460TIP3   OH261794   3.614   3.618   0.077  0.0132  0.0694 -0.7482
13460TIP3    H161795   3.629   3.656   0.164 -0.4727 -0.1717 -0.5566
13460TIP3    H261796   3.524   3.587   0.080  0.4638 -1.2680 -0.8305
13461TIP3   OH261797   1.774   2.032  11.415  0.1039 -0.0388  0.8604
13461TIP3    H161798   1.743   2.121  11.395  1.0128 -0.2837 -1.8025
13461TIP3    H261799   1.867   2.034  11.391 -0.1426 -2.0306 -0.2906
13462TIP3   OH261800   3.684   2.099  12.695  0.0812 -0.1079  0.0948
13462TIP3    H161801   3.774   2.105  12.726 -0.2872 -0.1073  1.1886
13462TIP3    H261802   3.631   2.131  12.768 -0.8255 -0.4890 -0.3845
13463TIP3   OH261803   1.903   3.842   4.425 -0.6304 -0.0662 -0.3274
13463TIP3    H161804   1.948   3.782   4.485  1.4835 -0.1491 -1.9573
13463TIP3    H261805   1.815   3.805   4.415  0.1955 -2.1059 -0.1886
13464TIP3   OH261806   2.955   5.147  16.953 -0.6829  0.0397 -0.2929
13464TIP3    H161807   2.904   5.102  17.020 -0.7514  0.8111  0.1783
13464TIP3    H261808   2.982   5.077  16.892  0.1254 -0.7988  1.0044
13465TIP3   OH261809   3.340   1.585   3.403 -0.1613 -0.5034  0.3583
13465TIP3    H161810   3.327   1.680   3.414  0.5065 -0.4815  1.0067
13465TIP3    H261811   3.290   1.546   3.474 -2.0914 -0.7428 -1.1141
13466TIP3   OH261812   1.636   2.610  13.125 -0.1040 -0.3329 -0.3063
13466TIP3    H161813   1.595   2.696  13.136 -2.2423 -1.2265 -1.0242
13466TIP3    H261814   1.686   2.597  13.206 -0.6471  1.1067  0.2687
13467TIP3   OH261815   3.515   2.310   1.603  0.3231  0.3608 -0.4183
13467TIP3    H161816   3.512   2.369   1.678 -0.0056  1.3169 -1.1664
13467TIP3    H261817   3.532   2.224   1.640  0.2288  0.8375  0.7414
13468TIP3   OH261818   4.515   5.215   4.009 -0.5671  0.4213 -0.3027
13468TIP3    H161819   4.498   5.241   3.919 -0.0263  0.6304 -0.3458
13468TIP3    H261820   4.609   5.224   4.020 -0.5828  0.0670  0.1810
13469TIP3   OH261821   1.324   1.047  17.202 -0.8023  0.0422 -0.4664
13469TIP3    H161822   1.416   1.066  17.184 -0.6074  0.4214  0.8729
13469TIP3    H261823   1.317   1.053  17.297 -2.2278  0.0708 -0.5700
13470TIP3   OH261824   2.412   5.436   1.555  0.0367  0.0174 -0.1785
13470TIP3    H161825   2.356   5.404   1.626  0.7518  0.5691  0.6473
13470TIP3    H261826   2.498   5.447   1.596 -0.2425  3.2639 -0.3427
13471TIP3   OH261827   5.755   5.574  15.992 -0.4515 -0.3350 -0.2050
13471TIP3    H161828   5.717   5.488  16.007 -1.5725  0.4653  1.8198
13471TIP3    H261829   5.828   5.580  16.054 -0.4254  0.1956 -0.2807
13472TIP3   OH261830   4.541   5.880  12.880 -0.1269 -0.3274 -0.1795
13472TIP3    H161831   4.536   5.951  12.944  1.2674 -0.0784 -0.3329
13472TIP3    H261832   4.586   5.919  12.805 -1.0363 -0.8425 -1.0036
13473TIP3   OH261833   4.757   1.291  15.119 -0.2604 -0.3994  0.1333
13473TIP3    H161834   4.716   1.316  15.201 -1.3863 -1.8415  0.0425
13473TIP3    H261835   4.779   1.374  15.076  2.2885  0.3874  2.7971
13474TIP3   OH261836   4.419   5.710  12.101 -0.3639 -0.1589 -0.3457
13474TIP3    H161837   4.388   5.620  12.090 -2.5299  0.4338  0.5214
13474TIP3    H261838   4.344   5.756  12.139  0.9358  1.8634 -0.1618
13475TIP3   OH261839   2.312   5.384   1.860 -0.1261 -0.0109 -0.4779
13475TIP3    H161840   2.269   5.469   1.851 -1.0149 -0.4190 -0.1805
13475TIP3    H261841   2.381   5.399   1.925 -0.2820  0.4837 -0.4219
13476TIP3   OH261842   3.581   3.821  17.097 -0.2491 -0.1150  0.0854
13476TIP3    H161843   3.589   3.764  17.173 -1.6306  0.1556  0.4515
13476TIP3    H261844   3.533   3.769  17.033 -2.7893  1.0863  0.9400
13477TIP3   OH261845   1.798   6.174  14.244  0.0866 -0.0884 -0.3666
13477TIP3    H161846   1.724   6.204  14.191  0.9861 -0.4118 -1.8475
13477TIP3    H261847   1.785   6.216  14.329  0.0130  2.6001 -1.6261
13478TIP3   OH261848   1.704   0.106  11.652  0.2525 -0.5151 -0.1757
13478TIP3    H161849   1.697   0.186  11.600  0.1053 -0.4758 -0.0946
13478TIP3    H261850   1.715   0.137  11.742  0.2804 -0.5847 -0.1552
13479TIP3   OH261851   4.319   1.186   4.606 -0.1995  0.1688 -0.0655
13479TIP3    H161852   4.342   1.252   4.671  0.7551  0.1235 -0.3388
13479TIP3    H261853   4.346   1.224   4.522  0.6089 -0.6678 -0.1941
13480TIP3   OH261854   5.439   2.990  16.782  0.0798 -0.1190  0.0370
13480TIP3    H161855   5.452   3.058  16.715  1.3482 -2.4177 -2.1354
13480TIP3    H261856   5.520   2.990  16.833  0.6910 -1.0093 -0.9242
13481TIP3   OH261857   6.526   3.986  11.847 -0.5307  0.0769 -0.2312
13481TIP3    H161858   6.470   3.935  11.906 -0.7915  1.6041  0.8887
13481TIP3    H261859   6.472   4.062  11.824  1.2804  1.8800  1.3431
13482TIP3   OH261860   5.417   0.346   1.895  0.1336 -0.3843  0.1917
13482TIP3    H161861   5.334   0.387   1.921  0.9569 -0.1688  2.6260
13482TIP3    H261862   5.472   0.419   1.867  0.1733 -0.2923  0.5038
13483TIP3   OH261863   0.996   1.176  14.351 -0.1826 -0.0427 -0.1587
13483TIP3    H161864   1.062   1.207  14.414 -2.1632  0.3874  1.7955
13483TIP3    H261865   0.982   1.084  14.375 -0.4873 -0.0555 -0.3938
13484TIP3   OH261866   3.421   6.092  16.695  0.1495 -0.5125  0.2558
13484TIP3    H161867   3.332   6.057  16.690  0.0406 -0.0929 -0.7777
13484TIP3    H261868   3.470   6.043  16.629  0.3071  0.3704 -0.2898
13485TIP3   OH261869   4.763   2.232   6.438  0.2707  0.3742  0.6717
13485TIP3    H161870   4.842   2.269   6.478  0.9852 -0.6652  0.2422
13485TIP3    H261871   4.716   2.192   6.511 -0.0266  1.2741  0.9810
13486TIP3   OH261872   5.970   6.303  14.385 -0.1051 -0.4135 -0.5052
13486TIP3    H161873   5.972   6.260  14.470  0.1667 -0.5737 -0.5932
13486TIP3    H261874   5.921   6.384  14.401  0.5627 -0.0937 -0.0346
13487TIP3   OH261875   2.829   2.045  14.427 -0.1894  0.3389 -0.3685
13487TIP3    H161876   2.763   1.982  14.455  1.4598 -2.0331 -1.5986
13487TIP3    H261877   2.784   2.099  14.361 -1.5255  0.2390  0.4450
13488TIP3   OH261878   1.780   1.604  14.468 -0.2678 -0.0755  0.1504
13488TIP3    H161879   1.706   1.619  14.526  0.1430 -0.8786  0.8941
13488TIP3    H261880   1.802   1.512  14.480  0.1586 -0.1198 -0.8850
13489TIP3   OH261881   3.706   1.429  13.737 -0.1400 -0.0175 -0.0696
13489TIP3    H161882   3.652   1.473  13.803 -2.0969  1.2937 -2.4723
13489TIP3    H261883   3.775   1.491  13.717 -1.3781  0.9183 -1.5313
13490TIP3   OH261884   0.852   6.179   5.200 -0.0809  0.1487  0.4173
13490TIP3    H161885   0.853   6.233   5.280 -0.2728 -0.2844  0.7171
13490TIP3    H261886   0.918   6.219   5.144  1.6855 -0.8673  1.7003
13491TIP3   OH261887   3.179   4.184   3.932  0.3581  0.0371 -0.5127
13491TIP3    H161888   3.137   4.266   3.957  0.1896  0.2087 -1.3450
13491TIP3    H261889   3.106   4.124   3.916  0.4890 -0.7767  1.6790
13492TIP3   OH261890   1.326   1.225   6.012 -0.3861 -0.6526  0.3858
13492TIP3    H161891   1.388   1.287   6.050  0.5452 -1.0601 -0.4541
13492TIP3    H261892   1.378   1.148   5.990 -1.3032 -1.2566  0.2719
13493TIP3   OH261893   1.232   1.133  14.000  0.0144 -0.1229  0.9768
13493TIP3    H161894   1.203   1.047  13.969 -1.9656  0.7773  0.2685
13493TIP3    H261895   1.257   1.118  14.092  0.6111 -1.6289  0.5888
13494TIP3   OH261896   4.247   2.482   3.921 -0.2974  0.6374  0.1183
13494TIP3    H161897   4.176   2.463   3.859 -0.3671  0.5797  0.2143
13494TIP3    H261898   4.203   2.522   3.996 -0.4511 -0.8065  0.8372
13495TIP3   OH261899   2.609   1.006   5.415  0.7710  0.3159 -0.0703
13495TIP3    H161900   2.624   0.970   5.502  1.7436 -0.6544 -0.6276
13495TIP3    H261901   2.623   1.100   5.425 -0.2180  0.3566  1.0509
13496TIP3   OH261902   3.733   6.250  10.656  0.0647 -0.2228 -0.0676
13496TIP3    H161903   3.726   6.189  10.583  0.4975 -0.6470  0.2383
13496TIP3    H261904   3.776   6.200  10.725 -2.1408 -0.4582  1.1762
13497TIP3   OH261905   2.777   5.767   2.766  0.3708  0.4906 -0.1547
13497TIP3    H161906   2.816   5.682   2.743  0.3801  0.4664 -0.0510
13497TIP3    H261907   2.788   5.774   2.860 -2.8006 -0.9940  0.3832
13498TIP3   OH261908   3.899   2.075  14.882  0.2262 -0.1737  0.2793
13498TIP3    H161909   3.886   2.132  14.806 -2.0004 -0.1450  0.6598
13498TIP3    H261910   3.821   2.020  14.885  0.6960 -0.7759  2.0531
13499TIP3   OH261911   6.591   3.922   0.430 -0.0914 -0.3904  0.4482
13499TIP3    H161912   6.563   3.979   0.501 -0.9043  0.6791 -0.6988
13499TIP3    H261913   6.645   3.978   0.374  2.0217 -1.6749  1.1325
13500TIP3   OH261914   4.699   1.088  15.780  0.4515  0.4901  0.2232
13500TIP3    H161915   4.767   1.046  15.728  1.0284 -1.3251  2.4073
13500TIP3    H261916   4.619   1.041  15.757  0.6192  0.0251  0.5765
13501TIP3   OH261917   5.398   4.174   2.578  0.2733 -0.1254 -0.0949
13501TIP3    H161918   5.382   4.266   2.602  0.6459 -0.3590  1.0495
13501TIP3    H261919   5.360   4.166   2.490 -1.8640  0.5200  0.7343
13502TIP3   OH261920   1.780   4.764   3.396  0.3211  0.3889  0.0421
13502TIP3    H161921   1.788   4.851   3.434 -1.8310  1.6663 -2.2937
13502TIP3    H261922   1.686   4.746   3.396  0.8210 -2.5662  1.7935
13503TIP3   OH261923   6.185   5.429  16.102  0.0145 -0.0872  0.0744
13503TIP3    H161924   6.248   5.445  16.173  1.1206 -0.4579 -0.8064
13503TIP3    H261925   6.225   5.359  16.050 -1.2829 -0.5495 -0.3271
13504TIP3   OH261926   0.043   0.720   2.680  0.8686  0.1136 -0.2811
13504TIP3    H161927   0.106   0.674   2.625  1.3354  0.6536 -0.2028
13504TIP3    H261928   0.035   0.665   2.758 -0.0044 -0.7966 -0.9904
13505TIP3   OH261929   0.903   2.195  12.545 -0.5914 -0.6347 -0.3770
13505TIP3    H161930   0.958   2.214  12.469  1.5171  1.8001  1.6407
13505TIP3    H261931   0.916   2.102  12.563  1.6112 -0.4429 -0.9321
13506TIP3   OH261932   1.731   1.149   4.580 -0.0045 -0.1381  0.0062
13506TIP3    H161933   1.800   1.154   4.514 -0.7118  0.0834 -0.7338
13506TIP3    H261934   1.763   1.086   4.644  1.0556  0.2660 -0.1214
13507TIP3   OH261935   2.265   3.612   3.902 -0.2522  0.4448  0.1522
13507TIP3    H161936   2.262   3.575   3.990 -1.0023 -2.2475 -0.9368
13507TIP3    H261937   2.185   3.664   3.895 -1.7274 -1.7367  0.1182
13508TIP3   OH261938   2.051   1.520  13.156 -0.1867  0.0264  0.1496
13508TIP3    H161939   2.111   1.593  13.172  0.2189 -0.3469  0.2985
13508TIP3    H261940   1.998   1.514  13.235  0.4695 -0.5112  0.5450
13509TIP3   OH261941   1.438   6.191  13.306  0.2037  0.2373 -0.1345
13509TIP3    H161942   1.469   6.259  13.365 -1.0191 -0.0243  0.8324
13509TIP3    H261943   1.349   6.218  13.283  0.5375  0.1384 -1.5613
13510TIP3   OH261944   0.749   1.739   1.992 -0.0812  0.3535 -0.0303
13510TIP3    H161945   0.684   1.696   2.047 -1.3695  0.8095 -1.1843
13510TIP3    H261946   0.775   1.817   2.041 -0.8003  0.4556  0.1797
13511TIP3   OH261947   1.574   0.450   5.964 -0.3768 -0.4342  0.0133
13511TIP3    H161948   1.650   0.433   6.020 -1.1705  1.3209  1.6734
13511TIP3    H261949   1.504   0.473   6.025 -1.9220 -0.8583 -1.5714
13512TIP3   OH261950   1.127   4.727  16.397  0.5262 -0.4175  0.2577
13512TIP3    H161951   1.172   4.781  16.332 -0.2946  0.8158  0.6944
13512TIP3    H261952   1.187   4.723  16.471 -0.0578  1.2138  0.8357
13513TIP3   OH261953   2.536   2.708   1.790 -0.4810 -0.4839 -0.0460
13513TIP3    H161954   2.567   2.752   1.869  1.7711  4.1918 -3.2970
13513TIP3    H261955   2.607   2.647   1.768 -0.0093 -0.0036  0.1461
13514TIP3   OH261956   2.611   0.587  12.072  0.3915 -0.2242 -0.3423
13514TIP3    H161957   2.603   0.672  12.028 -1.2691 -1.0536 -1.6634
13514TIP3    H261958   2.702   0.585  12.101  0.7528  1.5558 -1.2447
13515TIP3   OH261959   2.784   2.434   6.449 -0.2595  0.4823 -0.1567
13515TIP3    H161960   2.849   2.367   6.469  0.1441  0.4625 -1.5005
13515TIP3    H261961   2.819   2.479   6.372 -1.8709  0.4297 -0.9248
13516TIP3   OH261962   5.674   4.920   4.753 -0.2201  0.3214 -0.1718
13516TIP3    H161963   5.642   5.010   4.760 -0.9616 -0.0942  2.3944
13516TIP3    H261964   5.696   4.909   4.661  0.2347  3.2411 -0.4377
13517TIP3   OH261965   3.301   5.663   2.493  0.0686  0.3376 -0.0943
13517TIP3    H161966   3.256   5.584   2.523 -1.1563  0.3393 -1.8042
13517TIP3    H261967   3.394   5.646   2.509 -0.4230 -0.2138  2.2739
13518TIP3   OH261968   0.216   6.412   0.766 -0.7040 -0.1052  0.1616
13518TIP3    H161969   0.299   6.416   0.813  0.1535 -0.1374 -1.3130
13518TIP3    H261970   0.183   6.502   0.769  0.2298  0.2734 -0.7257
13519TIP3   OH261971   5.873   3.869   5.245 -0.5785  0.4323 -0.0669
13519TIP3    H161972   5.937   3.816   5.197 -0.3811  0.2705  0.3742
13519TIP3    H261973   5.874   3.954   5.202  0.2225  0.5551  0.1893
13520TIP3   OH261974   0.755   5.276   5.408 -0.1369  0.0489 -0.0897
13520TIP3    H161975   0.724   5.185   5.398 -0.6243  0.1645  0.3687
13520TIP3    H261976   0.730   5.301   5.497 -0.4352  0.7942 -0.3756
13521TIP3   OH261977   2.578   1.755  16.301  0.1624  0.3806  0.3808
13521TIP3    H161978   2.589   1.808  16.222  0.2252  0.6133  0.5475
13521TIP3    H261979   2.503   1.699  16.283  1.1109 -0.6451 -0.4450
13522TIP3   OH261980   4.252   2.162   4.259  0.4847 -0.3552  0.3058
13522TIP3    H161981   4.339   2.201   4.267  0.6144 -1.0112  2.3384
13522TIP3    H261982   4.191   2.236   4.266  0.8612  0.1208 -1.2613
13523TIP3   OH261983   1.190   0.160   1.466 -0.2609 -0.4513  0.0011
13523TIP3    H161984   1.148   0.075   1.452  1.4299 -1.3670  0.3789
13523TIP3    H261985   1.123   0.213   1.510 -1.2396 -1.6604 -0.0165
13524TIP3   OH261986   3.617   5.358   4.060  0.5597 -0.4076 -0.6883
13524TIP3    H161987   3.562   5.393   3.991 -1.1093  0.6324  1.1096
13524TIP3    H261988   3.657   5.435   4.101 -0.0128 -0.8598  0.7527
13525TIP3   OH261989   1.526   1.313   4.612  0.2810 -0.2091  0.2100
13525TIP3    H161990   1.599   1.251   4.617 -0.2617 -0.8195  0.6809
13525TIP3    H261991   1.544   1.376   4.681  1.1761  0.5447 -0.6944
13526TIP3   OH261992   3.871   1.609   2.181  0.5603 -0.0485 -0.1087
13526TIP3    H161993   3.943   1.546   2.186  0.8035  0.0714 -1.6417
13526TIP3    H261994   3.820   1.595   2.260  2.1492 -0.2892  0.8968
13527TIP3   OH261995   1.838   3.524  11.295 -0.0641 -0.1237  0.3077
13527TIP3    H161996   1.849   3.613  11.329  1.7464 -0.7235  1.3461
13527TIP3    H261997   1.750   3.524  11.256 -0.4221  1.8676  1.0545
13528TIP3   OH261998   1.596   4.825   0.575  0.0438 -0.0291 -0.1794
13528TIP3    H161999   1.516   4.860   0.537  0.1531 -0.4397 -0.8066
13528TIP3    H262000   1.646   4.793   0.499  0.9461  0.5256  0.1738
13529TIP3   OH262001   0.303   5.534  14.776 -0.0789 -0.1726  0.5655
13529TIP3    H162002   0.376   5.499  14.827 -0.3817  0.8698  1.7542
13529TIP3    H262003   0.239   5.462  14.774 -0.0748 -0.2258  1.7081
13530TIP3   OH262004   2.876   6.226   3.314 -0.6406 -0.0693 -0.5464
13530TIP3    H162005   2.822   6.305   3.320  0.4506  0.5437  1.6276
13530TIP3    H262006   2.948   6.241   3.375  1.4488 -1.3243 -2.6192
13531TIP3   OH262007   1.121   1.473  12.076 -0.4426 -0.1579 -0.5461
13531TIP3    H162008   1.125   1.507  11.986 -0.4688 -0.3235 -0.6107
13531TIP3    H262009   1.075   1.390  12.068 -0.0137 -0.4071 -0.4489
13532TIP3   OH262010   4.421   6.716   6.797  0.8002  0.3686  0.4678
13532TIP3    H162011   4.464   6.686   6.716  1.3294 -0.0510  0.8963
13532TIP3    H262012   4.493   6.727   6.859  0.1083 -2.2931  1.8182
13533TIP3   OH262013   4.562   1.431  16.694 -0.2877  0.3054 -0.2174
13533TIP3    H162014   4.542   1.357  16.751 -0.5877 -0.0591 -0.7947
13533TIP3    H262015   4.487   1.436  16.635  2.4373 -2.7529 -4.2007
13534TIP3   OH262016   0.624   6.295   5.473  0.8098  0.3392 -0.0934
13534TIP3    H162017   0.576   6.269   5.395 -3.6273  1.1455  2.1846
13534TIP3    H262018   0.639   6.214   5.521  0.1367  0.2540 -0.0160
13535TIP3   OH262019   4.035   3.910   1.819 -0.2539 -1.0573  0.0186
13535TIP3    H162020   4.114   3.953   1.788  0.8155 -0.7300  3.0381
13535TIP3    H262021   4.035   3.825   1.774  0.9284 -0.4346 -1.2014
13536TIP3   OH262022   0.735   1.897  12.734 -0.0175 -0.7965  0.5516
13536TIP3    H162023   0.815   1.921  12.688 -1.6510  3.1353 -0.4587
13536TIP3    H262024   0.666   1.901  12.667 -1.2367 -3.3176  1.5675
13537TIP3   OH262025   0.049   2.250   4.578  0.0971  0.3410  0.1682
13537TIP3    H162026  -0.008   2.196   4.523  0.9984  1.9335 -2.4342
13537TIP3    H262027   0.099   2.187   4.630 -1.0841 -1.2011 -0.5478
13538TIP3   OH262028   4.564   6.366  13.608  0.1762  0.4877 -0.0206
13538TIP3    H162029   4.567   6.299  13.677 -2.5067 -1.4173 -1.6839
13538TIP3    H262030   4.527   6.443  13.652 -1.4206 -0.6724  0.7501
13539TIP3   OH262031   1.085   0.584   5.322 -0.2689  0.4643 -0.0800
13539TIP3    H162032   1.019   0.516   5.317 -0.8528  1.0981 -1.2376
13539TIP3    H262033   1.159   0.543   5.368 -1.5165 -0.1879  1.3901
13540TIP3   OH262034   2.391   2.402  12.867 -0.3277  0.1093  0.0174
13540TIP3    H162035   2.418   2.328  12.921  2.3307  1.3348  0.4710
13540TIP3    H262036   2.355   2.465  12.930 -1.5308 -0.3118 -0.2327
13541TIP3   OH262037   3.532   2.692   1.039  0.1069  0.3861  0.3632
13541TIP3    H162038   3.576   2.634   0.976 -0.9827  0.9322 -0.9315
13541TIP3    H262039   3.542   2.648   1.123  0.1708 -1.1863 -0.4490
13542TIP3   OH262040   2.903   6.748  13.721 -0.2032 -0.2233 -0.3232
13542TIP3    H162041   2.969   6.716  13.782 -0.8147 -1.0388 -0.0644
13542TIP3    H262042   2.857   6.816  13.769  0.6741  0.5890 -0.6319
13543TIP3   OH262043   0.221   2.661   0.096  0.5880  0.7517 -0.3123
13543TIP3    H162044   0.234   2.574   0.132  1.3185  2.4474  3.7537
13543TIP3    H262045   0.309   2.696   0.085  0.2547  1.7178  0.0439
13544TIP3   OH262046   0.520   2.658   4.712  0.1841 -0.3761 -0.1923
13544TIP3    H162047   0.434   2.699   4.718  0.4609  0.3877 -1.3930
13544TIP3    H262048   0.564   2.683   4.793 -0.1288  0.6085 -0.3233
13545TIP3   OH262049   5.891   2.261   5.676  0.2231 -0.4009 -0.1913
13545TIP3    H162050   5.820   2.322   5.693  0.6589  0.1929 -0.4867
13545TIP3    H262051   5.924   2.238   5.763  0.5637  0.3907 -0.1075
13546TIP3   OH262052   2.764   1.420   4.444  0.7214 -0.8061  0.1829
13546TIP3    H162053   2.841   1.457   4.486  0.6485 -0.7944  0.3044
13546TIP3    H262054   2.707   1.392   4.516 -0.3857  1.2185  0.1365
13547TIP3   OH262055   1.601   1.006  14.048  0.4622 -0.2630 -0.1487
13547TIP3    H162056   1.637   1.026  14.135 -1.2351 -0.9273  0.7378
13547TIP3    H262057   1.669   1.034  13.987  0.7018  2.5209  1.2783
13548TIP3   OH262058   0.151   0.253   0.282 -0.1867 -0.8622  0.1002
13548TIP3    H162059   0.082   0.221   0.224 -0.8669  2.0379 -0.7659
13548TIP3    H262060   0.105   0.278   0.363 -0.1352  0.7177 -0.3387
13549TIP3   OH262061   0.196   1.211  13.652  0.8229  0.6820 -0.2274
13549TIP3    H162062   0.118   1.249  13.613  0.1750  0.8835  1.2089
13549TIP3    H262063   0.217   1.269  13.725  0.8332 -0.7550  0.9457
13550TIP3   OH262064   6.285   5.193  14.145 -0.0896  0.4306 -0.1954
13550TIP3    H162065   6.307   5.112  14.099 -0.9354  0.2371 -0.2704
13550TIP3    H262066   6.202   5.221  14.106  0.7106  1.8861 -0.8846
13551TIP3   OH262067   0.644   5.942  11.549 -0.5262 -0.1882 -0.1914
13551TIP3    H162068   0.555   5.968  11.574 -0.6568 -0.1693 -0.6695
13551TIP3    H262069   0.660   5.989  11.467 -0.2219 -0.4964 -0.3074
13552TIP3   OH262070   4.579   1.114   0.968  0.6507 -0.0980 -0.0859
13552TIP3    H162071   4.508   1.094   1.029 -0.9928  1.5265 -1.4062
13552TIP3    H262072   4.617   1.195   1.003  0.0083  0.5797 -0.9610
13553TIP3   OH262073   6.087   4.123  14.763 -0.0919 -0.3568  0.2126
13553TIP3    H162074   6.110   4.206  14.721  1.9163 -1.0002 -0.0164
13553TIP3    H262075   6.074   4.146  14.855  1.8069 -0.0005  0.4080
13554TIP3   OH262076   6.176   2.674  12.603  0.0163 -0.3710  0.4797
13554TIP3    H162077   6.082   2.656  12.598 -0.0456  0.1400 -0.3132
13554TIP3    H262078   6.203   2.685  12.512  0.5087  1.1616  0.7842
13555TIP3   OH262079   2.044   3.812  16.605  0.0864 -0.7704 -0.2762
13555TIP3    H162080   2.059   3.746  16.672  0.1687 -0.3831  0.0878
13555TIP3    H262081   2.084   3.892  16.640 -0.0810 -0.5083 -0.6764
13556TIP3   OH262082   1.170   0.147  12.051  0.8004 -0.1585 -0.0291
13556TIP3    H162083   1.147   0.135  12.143  0.4595 -2.2076 -0.3562
13556TIP3    H262084   1.089   0.177  12.010  0.4855 -0.8774  0.0485
13557TIP3   OH262085   6.506   4.359   4.891 -0.7252  0.0450  0.6438
13557TIP3    H162086   6.518   4.401   4.976  1.1005 -0.2394  0.5429
13557TIP3    H262087   6.511   4.432   4.828  3.9314 -0.3539  0.3480
13558TIP3   OH262088   5.736   5.190  14.304  0.3061  0.1044 -0.4349
13558TIP3    H162089   5.715   5.283  14.308  0.9102  0.2971 -1.5962
13558TIP3    H262090   5.827   5.187  14.276 -0.1989 -0.8666 -2.0038
13559TIP3   OH262091   3.967   4.432  14.172 -0.1718  0.8016 -0.3897
13559TIP3    H162092   3.952   4.373  14.098  2.1148  1.0639 -1.0753
13559TIP3    H262093   4.006   4.510  14.134 -0.8177  1.7432  0.8464
13560TIP3   OH262094   5.980   3.396   4.071 -0.1246 -0.0827 -0.3839
13560TIP3    H162095   6.051   3.456   4.048 -0.5488  0.6671  0.2233
13560TIP3    H262096   6.016   3.344   4.143 -0.4421  0.8248  0.4482
13561TIP3   OH262097   5.585   2.321  17.127  0.1792 -0.3645  0.1090
13561TIP3    H162098   5.662   2.264  17.130  0.6166  0.2281  0.2730
13561TIP3    H262099   5.600   2.378  17.051 -0.0889 -0.2403  0.1498
13562TIP3   OH262100   2.368   5.674  12.799  0.2237 -0.3529 -0.2945
13562TIP3    H162101   2.404   5.691  12.712  0.1338  1.0944 -0.0660
13562TIP3    H262102   2.319   5.754  12.820 -3.2526 -2.2848 -0.6691
13563TIP3   OH262103   5.486   6.269  12.868 -0.4992  0.0182 -0.4816
13563TIP3    H162104   5.411   6.288  12.811  0.6035  0.2658 -1.8776
13563TIP3    H262105   5.457   6.297  12.955 -2.7936 -1.8440 -0.5926
13564TIP3   OH262106   0.718   4.678   3.432  0.2725  0.3794 -0.2051
13564TIP3    H162107   0.639   4.704   3.385 -0.6532 -1.2029  0.4452
13564TIP3    H262108   0.729   4.745   3.500 -0.8306  0.3007  0.0576
13565TIP3   OH262109   6.296   5.138   3.331 -0.7441 -0.2196 -0.5590
13565TIP3    H162110   6.362   5.097   3.274 -0.9800  1.0251 -1.7668
13565TIP3    H262111   6.230   5.171   3.270 -2.5236 -1.5050  0.6560
13566TIP3   OH262112   2.271   3.394  12.179  0.3550 -0.4240  0.2419
13566TIP3    H162113   2.352   3.434  12.212  0.8533 -0.0420 -1.3940
13566TIP3    H262114   2.300   3.319  12.127 -0.4098 -0.9702  0.5917
13567TIP3   OH262115   6.222   2.956   3.536 -0.1753  0.1826  0.1789
13567TIP3    H162116   6.183   2.987   3.618 -1.1177 -1.2986  0.3196
13567TIP3    H262117   6.234   3.035   3.483 -0.5765  1.0154  1.3222
13568TIP3   OH262118   5.931   0.026   4.296  0.1844 -0.1060 -0.5671
13568TIP3    H162119   6.025   0.044   4.307  0.3414 -0.2430 -1.6140
13568TIP3    H262120   5.913   0.047   4.204 -0.8900  0.2350 -0.2842
13569TIP3   OH262121   5.928   6.220   2.597 -0.1866  0.0486  0.0978
13569TIP3    H162122   5.975   6.146   2.635  1.2232  0.3878 -0.9489
13569TIP3    H262123   5.836   6.196   2.605  0.1839 -0.9450  1.5348
13570TIP3   OH262124   4.781   3.978   1.977 -0.0949  0.1894  0.2895
13570TIP3    H162125   4.863   3.992   1.930  0.9390  0.6053  2.1274
13570TIP3    H262126   4.804   3.997   2.069 -1.9765 -0.7610  0.9687
13571TIP3   OH262127   3.310   3.949   3.022  0.5561  0.4213  0.0162
13571TIP3    H162128   3.285   3.890   3.093 -2.0973  0.4146 -0.8413
13571TIP3    H262129   3.361   4.018   3.064  1.5121 -1.1145  1.4383
13572TIP3   OH262130   3.485   1.345  13.439 -0.1249 -0.0242  0.5610
13572TIP3    H162131   3.501   1.312  13.351 -0.0709  1.6545 -0.0640
13572TIP3    H262132   3.551   1.302  13.493  0.8832  0.1740 -0.4952
13573TIP3   OH262133   2.817   5.237  12.719  0.7648  0.7651  0.1860
13573TIP3    H162134   2.831   5.227  12.813 -1.1220 -3.0267  0.1878
13573TIP3    H262135   2.734   5.283  12.711  0.9666  1.1606  0.3688
13574TIP3   OH262136   2.923   2.461  12.380  0.2853  0.0683  0.3127
13574TIP3    H162137   2.831   2.437  12.366  0.1744  0.2757  0.6804
13574TIP3    H262138   2.961   2.462  12.292 -0.3019  0.9460  0.0697
13575TIP3   OH262139   6.012   3.253   4.902 -0.5498 -0.0300  0.1878
13575TIP3    H162140   5.931   3.240   4.951  0.4257 -0.1822  1.8062
13575TIP3    H262141   6.031   3.346   4.912 -0.2869 -0.0824  0.1712
13576TIP3   OH262142   5.358   3.164   5.022 -0.2337 -1.5453  0.4195
13576TIP3    H162143   5.291   3.095   5.019 -0.4046 -1.3890  0.6052
13576TIP3    H262144   5.412   3.148   4.945 -0.8351 -1.3227 -0.0533
13577TIP3   OH262145   6.619   5.744  14.649  0.2089  0.1068  0.5289
13577TIP3    H162146   6.617   5.657  14.688  0.4451  0.1284  0.5906
13577TIP3    H262147   6.701   5.747  14.600  0.6841  0.6246  1.3230
13578TIP3   OH262148   6.354   6.719   0.396  0.0991  0.0866  0.1653
13578TIP3    H162149   6.349   6.785   0.327  1.4307 -0.0735 -0.0986
13578TIP3    H262150   6.433   6.741   0.445 -0.3598 -0.3254  1.1059
13579TIP3   OH262151   4.972   4.681  13.299  0.0617 -0.0134 -0.4245
13579TIP3    H162152   4.999   4.664  13.390  0.2674  2.2219 -0.0220
13579TIP3    H262153   5.016   4.763  13.277 -0.7804 -0.0307 -2.2174
13580TIP3   OH262154   0.519   0.280  13.047  0.5783 -0.5379  0.2870
13580TIP3    H162155   0.481   0.290  12.959  2.6815  1.0641 -0.4814
13580TIP3    H262156   0.531   0.370  13.078  0.4988 -1.0941  1.9451
13581TIP3   OH262157   3.523   0.980  15.577  0.3491 -0.2043  0.2706
13581TIP3    H162158   3.439   0.943  15.549  0.2474 -0.5968  1.0785
13581TIP3    H262159   3.567   0.908  15.622  0.8702  0.1716  0.3683
13582TIP3   OH262160   3.416   4.411   3.510 -0.6138  0.0097  0.2881
13582TIP3    H162161   3.412   4.344   3.578 -2.6587  0.2901  0.4608
13582TIP3    H262162   3.455   4.367   3.435 -0.4806 -0.9336  0.9056
13583TIP3   OH262163   1.445   0.455  12.567 -0.6271  0.0298  0.3721
13583TIP3    H162164   1.357   0.464  12.530 -0.8380 -1.5114  0.4695
13583TIP3    H262165   1.496   0.415  12.496 -0.2329  0.0682  0.6348
13584TIP3   OH262166   2.097   3.195   6.243  0.1562 -0.4456 -0.9941
13584TIP3    H162167   2.118   3.220   6.153  1.4981  3.1465  0.2486
13584TIP3    H262168   2.177   3.211   6.292 -0.5720 -2.3122  0.9117
13585TIP3   OH262169   4.368   4.224  12.260 -0.0749  0.2537  0.7063
13585TIP3    H162170   4.428   4.298  12.270 -0.3492  0.5854 -0.0966
13585TIP3    H262171   4.364   4.209  12.166 -0.1146 -0.7118  0.8532
13586TIP3   OH262172   4.390   1.185  14.050 -0.3064 -0.5988  0.0820
13586TIP3    H162173   4.341   1.236  13.985 -1.9380  0.1832  1.8635
13586TIP3    H262174   4.407   1.247  14.121 -0.4542 -1.9660  1.3330
13587TIP3   OH262175   4.608   0.554   3.178 -0.0929 -0.3852 -0.1572
13587TIP3    H162176   4.595   0.640   3.139  0.7300  0.2228  0.8550
13587TIP3    H262177   4.544   0.549   3.248  0.7209 -0.0490  0.6259
13588TIP3   OH262178   3.849   5.151   1.946  0.7113 -0.7611 -0.5946
13588TIP3    H162179   3.864   5.088   2.017  0.4519 -2.4577 -2.0136
13588TIP3    H262180   3.760   5.182   1.960  0.6810 -1.0455 -0.1489
13589TIP3   OH262181   1.666   3.774   5.292  0.1654 -0.6008 -0.2426
13589TIP3    H162182   1.618   3.832   5.233 -0.3070 -1.3066 -0.5741
13589TIP3    H262183   1.730   3.830   5.335 -1.2869  0.4698  0.5702
13590TIP3   OH262184   5.135   2.014  13.336  0.0431 -0.9533 -0.2081
13590TIP3    H162185   5.138   2.006  13.432 -0.4742 -1.0900 -0.2029
13590TIP3    H262186   5.050   2.054  13.318  0.8647  0.7043 -0.5027
13591TIP3   OH262187   5.530   2.264   3.673  0.3472 -0.3792  0.6130
13591TIP3    H162188   5.437   2.251   3.695 -1.1920  3.8999 -2.5232
13591TIP3    H262189   5.541   2.221   3.589  0.7304  0.5730  0.1700
13592TIP3   OH262190   1.980   1.954   3.516  0.3436 -0.1836  0.1366
13592TIP3    H162191   1.959   1.963   3.423  1.5818 -2.2057 -0.3763
13592TIP3    H262192   2.010   1.863   3.525  2.8724  0.7739  1.9537
13593TIP3   OH262193   3.483   0.102  16.343 -0.3718  0.3503 -0.1198
13593TIP3    H162194   3.438   0.045  16.280 -2.3582 -0.8829  2.3364
13593TIP3    H262195   3.412   0.153  16.383  0.9284  1.5045  0.7242
13594TIP3   OH262196   3.115   6.009  15.475 -0.3171 -0.2549  0.2618
13594TIP3    H162197   3.147   5.922  15.497  0.6536  0.5857  2.3703
13594TIP3    H262198   3.162   6.068  15.536 -0.2603  1.8225 -1.7186
13595TIP3   OH262199   5.098   5.842  12.560 -0.4708 -0.4887 -0.5719
13595TIP3    H162200   5.186   5.803  12.557 -0.4051 -0.4836  1.0023
13595TIP3    H262201   5.057   5.813  12.479  0.7167 -1.1431 -0.9596
13596TIP3   OH262202   0.882   4.937   4.643 -0.2841 -0.1886 -0.1102
13596TIP3    H162203   0.920   4.907   4.561  0.1996 -0.0175  0.0474
13596TIP3    H262204   0.792   4.904   4.642 -0.1518 -0.5358 -0.5171
13597TIP3   OH262205   4.326   6.469   5.416 -0.8108  0.8997 -0.0505
13597TIP3    H162206   4.316   6.524   5.494 -0.9654  0.5438  0.1812
13597TIP3    H262207   4.421   6.464   5.403 -0.7263 -0.0140  0.8186
13598TIP3   OH262208   1.969   1.286  15.464 -0.0785 -0.1837  0.4220
13598TIP3    H162209   1.943   1.294  15.372 -0.1209  0.7564  0.5099
13598TIP3    H262210   2.060   1.259  15.461 -0.9341 -3.1428  0.1122
13599TIP3   OH262211   1.695   1.895  10.775  0.1782  0.0751  0.3602
13599TIP3    H162212   1.608   1.858  10.768  0.1577  0.4112 -1.2455
13599TIP3    H262213   1.741   1.865  10.697  1.6699 -0.5185  1.4360
13600TIP3   OH262214   1.820   6.521   1.965 -0.7740  1.0704 -0.4012
13600TIP3    H162215   1.886   6.458   1.996 -0.9648  0.0817 -1.9623
13600TIP3    H262216   1.825   6.593   2.028 -0.6610 -0.5641  1.5214
13601TIP3   OH262217   6.156   2.977   0.638  0.2593 -0.6655 -0.3766
13601TIP3    H162218   6.116   3.049   0.589 -1.0470 -0.5278  0.8559
13601TIP3    H262219   6.250   2.990   0.627  0.0392  1.0724 -0.4076
13602TIP3   OH262220   4.691   0.593   6.315 -0.1642 -0.2097  0.5122
13602TIP3    H162221   4.731   0.589   6.402 -0.0564  0.1712  0.4824
13602TIP3    H262222   4.614   0.647   6.326  0.6852  1.1254  0.0608
13603TIP3   OH262223   4.252   3.045  11.460 -0.3546  0.2463  0.3121
13603TIP3    H162224   4.301   3.120  11.425  0.2537  0.1043  0.8433
13603TIP3    H262225   4.262   2.977  11.394 -2.5524  1.2478 -1.0985
13604TIP3   OH262226   4.800   5.902  15.045 -0.4086  0.1743 -0.1946
13604TIP3    H162227   4.888   5.868  15.058 -0.7996 -1.1794 -1.0804
13604TIP3    H262228   4.805   5.993  15.076  1.1410 -0.0596  0.2796
13605TIP3   OH262229   6.201   4.594  14.973 -0.0971 -0.3910  0.3184
13605TIP3    H162230   6.257   4.601  15.051  0.6768 -0.0159 -0.2743
13605TIP3    H262231   6.227   4.511  14.932 -0.3253 -0.4588  0.3069
13606TIP3   OH262232   6.588   5.985   2.861  0.0321  0.3956  0.0558
13606TIP3    H162233   6.653   6.052   2.838 -0.4709  0.9779  0.3344
13606TIP3    H262234   6.596   5.919   2.791  1.3033  0.1977  0.3842
13607TIP3   OH262235   2.661   1.262  10.998  0.1628  0.2568 -0.0777
13607TIP3    H162236   2.702   1.256  10.912 -0.2862 -1.9730 -0.1527
13607TIP3    H262237   2.639   1.355  11.007 -0.5011  0.4030 -2.7009
13608TIP3   OH262238   3.777   3.610  14.532  0.1855 -0.2029  0.0012
13608TIP3    H162239   3.797   3.690  14.484  0.3523 -0.8690 -1.0588
13608TIP3    H262240   3.732   3.640  14.610 -1.9317  0.8114 -1.5393
13609TIP3   OH262241   1.352   6.160   4.748  0.2065  0.3087 -0.5615
13609TIP3    H162242   1.430   6.106   4.737  0.1322 -0.2637  1.5720
13609TIP3    H262243   1.296   6.110   4.807 -0.1760  2.3585  0.8615
13610TIP3   OH262244   5.014   3.838   4.237 -0.2680 -0.0773 -0.2149
13610TIP3    H162245   4.932   3.853   4.191  0.1882  1.0486 -0.6858
13610TIP3    H262246   5.078   3.822   4.167 -0.0997 -1.1036  0.1513
13611TIP3   OH262247   2.011   0.075  13.223 -0.1384  0.0151  0.0497
13611TIP3    H162248   1.968   0.144  13.273 -0.7629  0.8345 -1.5627
13611TIP3    H262249   1.957   0.067  13.144 -0.9953 -3.3880  0.8926
13612TIP3   OH262250   5.423   1.131   6.398 -0.5851  0.5958 -0.3399
13612TIP3    H162251   5.428   1.082   6.481 -1.2341 -0.5540 -0.9704
13612TIP3    H262252   5.330   1.130   6.375 -0.5761  1.9601 -0.4745
13613TIP3   OH262253   6.708   2.009  14.017  0.0188 -0.1130  0.1383
13613TIP3    H162254   6.670   1.928  13.983 -0.1508 -0.2654  0.6751
13613TIP3    H262255   6.754   2.047  13.943  0.2183 -0.7709 -0.0846
13614TIP3   OH262256   4.647   0.478  10.829  0.1220  0.3704  0.4061
13614TIP3    H162257   4.584   0.423  10.783  0.7698 -0.4821  0.5236
13614TIP3    H262258   4.685   0.534  10.761 -0.4156  0.5582  0.2575
13615TIP3   OH262259   0.614   0.568   3.740 -0.2051 -0.3798 -0.6407
13615TIP3    H162260   0.673   0.533   3.673  0.3075 -0.7648  0.0025
13615TIP3    H262261   0.608   0.662   3.721 -0.6474 -0.6111 -1.6641
13616TIP3   OH262262   2.918   3.771  15.695 -0.3022  0.0429  0.6364
13616TIP3    H162263   2.900   3.702  15.631  0.5733  0.4627 -0.0883
13616TIP3    H262264   2.966   3.727  15.765 -1.1108 -0.3864  0.9286
13617TIP3   OH262265   5.027   2.717   0.259 -0.0447  0.0267  0.1045
13617TIP3    H162266   5.083   2.794   0.268  0.0518 -0.0461  0.1251
13617TIP3    H262267   4.999   2.719   0.168  0.1164 -0.0239  0.0540
13618TIP3   OH262268   5.926   2.864  11.816 -0.0609 -0.2368  0.3781
13618TIP3    H162269   5.968   2.807  11.881  2.5375  0.4760 -0.5890
13618TIP3    H262270   5.921   2.949  11.859  0.8656  0.0252 -0.0104
13619TIP3   OH262271   1.749   6.468   5.301 -0.1177 -0.2491  0.3061
13619TIP3    H162272   1.667   6.516   5.312 -0.9991 -1.4187 -0.9750
13619TIP3    H262273   1.804   6.497   5.374 -1.7076  0.4751  1.2383
13620TIP3   OH262274   3.978   1.315  10.647  0.7218 -0.0164 -0.0857
13620TIP3    H162275   3.906   1.377  10.661  0.4111 -0.5349  0.6857
13620TIP3    H262276   3.936   1.237  10.611  0.7172 -0.7425  1.4567
13621TIP3   OH262277   4.032   0.339  10.978 -0.0324 -0.2979  0.9118
13621TIP3    H162278   3.968   0.314  10.912 -0.3037  0.0044  1.0598
13621TIP3    H262279   3.980   0.378  11.049  0.2497 -0.6611  1.3264
13622TIP3   OH262280   6.055   0.984   1.703 -0.2141 -0.2213  0.1256
13622TIP3    H162281   6.120   0.918   1.728 -1.5893 -1.3030  0.9230
13622TIP3    H262282   6.078   1.061   1.756  1.5758  0.0739 -1.0291
13623TIP3   OH262283   1.556   2.707   2.023  0.9095 -0.2448 -0.1691
13623TIP3    H162284   1.592   2.779   1.972  1.3205  0.6514  1.3521
13623TIP3    H262285   1.626   2.641   2.025  1.3088  0.1811  0.1431
13624TIP3   OH262286   2.552   1.506  15.386  0.4953 -0.0598 -0.6247
13624TIP3    H162287   2.610   1.448  15.436 -0.3534 -1.3916 -1.1391
13624TIP3    H262288   2.464   1.472  15.403  0.0740  0.4461 -1.7543
13625TIP3   OH262289   1.003   4.138   1.877 -0.4292  0.7611  0.0613
13625TIP3    H162290   1.000   4.075   1.949 -1.7659 -0.5892 -1.1706
13625TIP3    H262291   1.049   4.214   1.914 -1.0749  0.0771  2.3247
13626TIP3   OH262292   6.329   2.388   3.489 -0.2015  0.0284  0.0568
13626TIP3    H162293   6.299   2.322   3.427  0.1975 -0.3926  0.3077
13626TIP3    H262294   6.348   2.339   3.569  0.3467  0.4097  0.1638
13627TIP3   OH262295   4.869   5.308   2.337  0.0393 -0.0467  0.4565
13627TIP3    H162296   4.817   5.286   2.259  1.4601  0.8762 -0.7680
13627TIP3    H262297   4.821   5.267   2.409 -2.2426  0.5275 -0.6683
13628TIP3   OH262298   3.144   4.816   4.545 -0.5590  0.0109  0.0529
13628TIP3    H162299   3.107   4.879   4.484 -0.7812  0.3568  0.5354
13628TIP3    H262300   3.227   4.855   4.573 -0.6926  0.0843  0.3463
13629TIP3   OH262301   1.548   2.368   1.663 -0.1588 -0.0452 -0.2431
13629TIP3    H162302   1.480   2.362   1.595 -0.1511 -0.8332 -0.1845
13629TIP3    H262303   1.603   2.291   1.649  0.7441  0.5945 -0.3019
13630TIP3   OH262304   2.339   0.735  17.088 -0.6562  0.4143  0.0456
13630TIP3    H162305   2.358   0.823  17.055 -1.2181  0.6451  0.3395
13630TIP3    H262306   2.412   0.716  17.148 -0.8580  0.9187  0.4455
13631TIP3   OH262307   5.770   4.613  14.153  0.2633  0.1025 -0.5267
13631TIP3    H162308   5.751   4.702  14.122 -1.0656  0.1471  0.3724
13631TIP3    H262309   5.865   4.607  14.151  0.3280  1.1521 -1.6857
13632TIP3   OH262310   4.549   5.331   5.296  0.1480  0.4597 -0.2759
13632TIP3    H162311   4.465   5.295   5.326  1.0335 -1.4054  0.0071
13632TIP3    H262312   4.592   5.360   5.377 -0.7488  2.6818 -0.5361
13633TIP3   OH262313   5.994   3.913   3.621  0.4593  0.0981  0.0475
13633TIP3    H162314   5.994   3.976   3.549  1.9832  0.6515  0.5153
13633TIP3    H262315   5.938   3.954   3.688  0.9721  0.6833  0.1200
13634TIP3   OH262316   0.511   4.660  12.865  0.0665 -0.2063  0.2018
13634TIP3    H162317   0.487   4.669  12.773 -1.3439 -2.6744  0.2905
13634TIP3    H262318   0.490   4.744  12.905  0.8381  0.9305 -1.7582
13635TIP3   OH262319   5.992   3.443  11.325  0.4639  0.3025  0.6119
13635TIP3    H162320   5.932   3.432  11.399  0.4031 -1.2584  0.3614
13635TIP3    H262321   6.038   3.359  11.320  3.0241  1.6258  1.0969
13636TIP3   OH262322   6.605   5.020  16.172  0.0893  0.3192  0.9241
13636TIP3    H162323   6.555   4.940  16.187 -0.2235  0.0931 -1.1066
13636TIP3    H262324   6.596   5.070  16.253 -1.8264 -0.5629  1.2899
13637TIP3   OH262325   3.597   6.167  12.910  0.5582 -0.2430  0.7401
13637TIP3    H162326   3.684   6.126  12.915  0.2149 -1.1196 -0.1858
13637TIP3    H262327   3.586   6.186  12.817  0.3875  1.2767  1.0643
13638TIP3   OH262328   1.376   6.439   3.581 -0.0218 -0.7231  0.0170
13638TIP3    H162329   1.422   6.367   3.623  0.6642  1.1286  2.5456
13638TIP3    H262330   1.287   6.435   3.618 -0.4159 -1.1546 -0.9588
13639TIP3   OH262331   4.689   3.488   2.989 -0.3414 -0.0141 -0.0462
13639TIP3    H162332   4.605   3.533   2.981 -1.1915 -1.5332  0.0304
13639TIP3    H262333   4.751   3.556   3.015 -1.4964  1.1765 -0.3745
13640TIP3   OH262334   4.140   3.801   2.305  0.1405  0.6106  0.0842
13640TIP3    H162335   4.070   3.751   2.346  0.5041  0.5270  0.6018
13640TIP3    H262336   4.220   3.757   2.332  0.4488  1.3331  0.3565
13641TIP3   OH262337   1.392   4.049   4.144 -0.0714 -0.1205 -0.6064
13641TIP3    H162338   1.397   3.992   4.221 -0.7724  1.2501  0.4796
13641TIP3    H262339   1.479   4.086   4.135 -0.2171  0.3697  0.0281
13642TIP3   OH262340   4.240   4.660  15.452  0.2457 -0.3631  0.2619
13642TIP3    H162341   4.201   4.600  15.516  0.8706  1.3264  2.3093
13642TIP3    H262342   4.332   4.666  15.478  0.8521 -0.7434 -1.7028
13643TIP3   OH262343   4.271   4.852   1.893  0.1867 -0.1902  0.2515
13643TIP3    H162344   4.219   4.818   1.966 -0.1112 -0.4558 -0.0826
13643TIP3    H262345   4.361   4.826   1.915 -0.1930 -2.4771 -0.6724
13644TIP3   OH262346   6.767   4.844  11.484 -0.3683 -0.0061 -0.0769
13644TIP3    H162347   6.800   4.827  11.572  0.5379 -1.5521 -0.7032
13644TIP3    H262348   6.764   4.940  11.478  0.1532  0.1133  1.4202
13645TIP3   OH262349   1.249   1.468  14.342  0.3660 -0.2310 -0.2596
13645TIP3    H162350   1.273   1.559  14.326 -0.1499  0.0058  0.2877
13645TIP3    H262351   1.239   1.431  14.254  0.6721  0.2136 -0.4863
13646TIP3   OH262352   2.467   2.697   3.062  0.1277  0.2547  0.7289
13646TIP3    H162353   2.415   2.671   2.986  0.2265  0.4402  0.5997
13646TIP3    H262354   2.491   2.788   3.045  1.5675 -0.2179  0.1967
13647TIP3   OH262355   0.347   1.605  16.449  0.7671 -0.1037  0.1383
13647TIP3    H162356   0.434   1.635  16.476  0.4601 -0.0606  1.0860
13647TIP3    H262357   0.352   1.510  16.455  1.5292 -0.2398 -2.2294
13648TIP3   OH262358   3.456   6.230  13.266  0.4517 -0.2661  0.3230
13648TIP3    H162359   3.480   6.319  13.290  0.9487 -0.5075  0.7379
13648TIP3    H262360   3.539   6.188  13.241 -0.2734  0.5049 -3.6125
13649TIP3   OH262361   6.381   1.175   0.030  0.4057 -0.1371 -0.0271
13649TIP3    H162362   6.414   1.119   0.100  0.4716 -0.2169 -0.1219
13649TIP3    H262363   6.330   1.242   0.075 -0.1247 -0.5857  0.0425
13650TIP3   OH262364   0.967   0.388  11.531  0.6150 -0.0424  0.2753
13650TIP3    H162365   0.876   0.418  11.535  0.8195  0.5344  0.8039
13650TIP3    H262366   1.015   0.461  11.491  0.5086 -1.1891 -2.0105
13651TIP3   OH262367   5.734   3.140   0.439 -0.1201  0.1731 -0.2984
13651TIP3    H162368   5.642   3.148   0.464 -0.3024  1.0943 -1.2607
13651TIP3    H262369   5.763   3.229   0.420  0.8125 -0.1739 -0.5682
13652TIP3   OH262370   5.305   1.970  14.789  0.2430  0.1069  0.2382
13652TIP3    H162371   5.221   1.974  14.833 -0.1010  0.1284 -0.4221
13652TIP3    H262372   5.364   2.020  14.846  0.3258 -1.7676  1.8319
13653TIP3   OH262373   0.932   3.606  11.418  0.1279 -0.3924  0.1427
13653TIP3    H162374   0.999   3.579  11.482 -0.2016 -1.1964  0.1617
13653TIP3    H262375   0.882   3.674  11.463  1.1022  0.3969  0.0295
13654TIP3   OH262376   4.040   5.641  15.093 -0.6410 -0.1783  0.0666
13654TIP3    H162377   3.957   5.620  15.050 -1.6006  0.0967  1.7327
13654TIP3    H262378   4.076   5.712  15.041 -2.1050  0.6059  0.0908
13655TIP3   OH262379   1.702   4.832  14.504 -0.3690  0.4559 -0.2066
13655TIP3    H162380   1.756   4.898  14.460 -0.6622  1.7605  1.3443
13655TIP3    H262381   1.614   4.869  14.502 -0.6565 -0.2102  0.0745
13656TIP3   OH262382   3.758   2.437   4.954 -0.2943  0.2211 -0.5957
13656TIP3    H162383   3.810   2.478   5.023 -0.5803 -0.3410 -0.0464
13656TIP3    H262384   3.733   2.510   4.897 -0.6277  0.7869  0.2677
13657TIP3   OH262385   1.593   0.118   4.526  0.0831 -0.2962 -0.2503
13657TIP3    H162386   1.617   0.211   4.526  0.1054 -0.2961 -0.8450
13657TIP3    H262387   1.541   0.107   4.446  1.1798 -1.0699 -0.8692
13658TIP3   OH262388   4.190   5.215  16.401 -0.1965 -0.3825 -0.8787
13658TIP3    H162389   4.251   5.170  16.459 -1.5570 -0.0824  0.8158
13658TIP3    H262390   4.215   5.187  16.313  1.7527 -1.0127 -0.1443
13659TIP3   OH262391   0.507   2.847   5.891  0.0862 -0.0772  0.2809
13659TIP3    H162392   0.486   2.809   5.977  1.8543 -2.7405 -0.4211
13659TIP3    H262393   0.460   2.792   5.828 -2.8602  3.0729 -0.4449
13660TIP3   OH262394   5.284   3.637  10.599 -0.2293 -0.7221  0.6542
13660TIP3    H162395   5.373   3.638  10.634 -0.6043 -0.7198  1.6221
13660TIP3    H262396   5.261   3.729  10.588  0.4237 -0.7463 -0.9964
13661TIP3   OH262397   5.270   2.334   2.874  1.0685 -0.2037 -0.2309
13661TIP3    H162398   5.260   2.382   2.792 -1.9942  3.2674  1.9768
13661TIP3    H262399   5.217   2.255   2.862 -0.3420  0.8609 -1.2291
13662TIP3   OH262400   6.008   5.376   0.648 -0.1396 -0.1127  0.0541
13662TIP3    H162401   5.926   5.353   0.691 -0.2641 -0.8504 -0.5698
13662TIP3    H262402   6.044   5.447   0.701 -1.7818  1.0749 -0.4092
13663TIP3   OH262403   0.210   2.691   2.507  0.1270  0.1565 -0.6168
13663TIP3    H162404   0.156   2.662   2.433  1.0937 -0.1857 -1.2000
13663TIP3    H262405   0.297   2.702   2.470  0.3233  1.3198  0.1822
13664TIP3   OH262406   3.610   1.003   4.373 -0.0377  0.0333 -0.0070
13664TIP3    H162407   3.631   0.910   4.363  0.7838  0.1296  0.7274
13664TIP3    H262408   3.676   1.035   4.434 -1.0291  0.8473  0.6427
13665TIP3   OH262409   5.947   6.105  15.241 -0.4677 -0.7833 -0.1424
13665TIP3    H162410   5.933   6.185  15.191 -2.6808 -1.0219  0.0227
13665TIP3    H262411   5.983   6.135  15.325  0.0726 -0.1011 -0.6099
13666TIP3   OH262412   0.634   4.867  12.369 -0.0515  0.1849  0.1434
13666TIP3    H162413   0.543   4.880  12.398 -0.1765  0.8170 -0.4997
13666TIP3    H262414   0.633   4.781  12.326 -1.0800  1.4968 -2.5898
13667TIP3   OH262415   1.894   5.249   0.256  0.1651 -0.2670  0.4163
13667TIP3    H162416   1.838   5.214   0.186  0.7272 -1.9011  0.7568
13667TIP3    H262417   1.928   5.331   0.221 -1.9845  0.4575 -0.0217
13668TIP3   OH262418   0.309   5.840  12.983 -0.2154 -0.1746 -0.7118
13668TIP3    H162419   0.304   5.867  13.075  1.5097 -0.0444 -0.6440
13668TIP3    H262420   0.234   5.781  12.972 -1.1814  0.8007  0.4249
13669TIP3   OH262421   2.812   4.708  14.960 -0.5256  0.2979 -0.0216
13669TIP3    H162422   2.834   4.671  15.046 -1.2439  0.2805  0.1558
13669TIP3    H262423   2.891   4.756  14.935 -0.9040  1.7335  1.4285
13670TIP3   OH262424   1.882   6.422  16.558 -0.2181  0.5557 -0.2501
13670TIP3    H162425   1.966   6.468  16.569  0.0451  0.4429 -1.7190
13670TIP3    H262426   1.868   6.379  16.643  2.0281 -0.7831 -0.4965
13671TIP3   OH262427   2.589   6.487  16.048  0.4817 -0.0019 -0.0645
13671TIP3    H162428   2.533   6.461  16.122  1.3977  0.9056  0.9720
13671TIP3    H262429   2.629   6.405  16.018  0.5262 -0.3064  0.8117
13672TIP3   OH262430   2.851   1.577   2.434  0.0045 -0.1195 -0.2818
13672TIP3    H162431   2.830   1.484   2.425  0.1545 -0.0750 -1.1163
13672TIP3    H262432   2.819   1.617   2.353  0.2898  0.4963 -0.0938
13673TIP3   OH262433   5.858   0.050  11.964 -0.4016  0.6002 -0.3872
13673TIP3    H162434   5.934   0.108  11.962 -1.5168  2.0772 -0.6934
13673TIP3    H262435   5.818   0.066  12.050  0.1280 -0.8388  0.1405
13674TIP3   OH262436   3.629   0.075   4.172 -0.1473  0.1347  0.4365
13674TIP3    H162437   3.643   0.163   4.137  1.7973 -0.3705 -0.1616
13674TIP3    H262438   3.668   0.078   4.259 -2.3802  0.5638  1.4558
13675TIP3   OH262439   2.334   2.936   4.141  0.3130  0.4173  0.3473
13675TIP3    H162440   2.396   3.010   4.139  1.6975 -0.7493 -1.3471
13675TIP3    H262441   2.380   2.867   4.189 -0.7366  0.4079  1.3773
13676TIP3   OH262442   0.285   2.888  16.019  0.1778  0.6444  0.0179
13676TIP3    H162443   0.216   2.822  16.035 -1.6788  2.1866 -1.3946
13676TIP3    H262444   0.332   2.893  16.103 -1.5829 -0.2914  1.1075
13677TIP3   OH262445   4.127   6.385   3.155  0.1073  1.0176  0.6313
13677TIP3    H162446   4.064   6.316   3.173 -0.0162  1.1597  0.7481
13677TIP3    H262447   4.208   6.356   3.199  0.9908 -0.5669 -1.9218
13678TIP3   OH262448   6.495   5.366   1.398 -0.4722 -0.0286  0.1710
13678TIP3    H162449   6.528   5.283   1.363  0.7174  0.8169 -0.7351
13678TIP3    H262450   6.506   5.358   1.493  1.1423 -0.2856 -0.0208
13679TIP3   OH262451   4.471   3.103   1.874  0.1832 -0.0152 -0.2867
13679TIP3    H162452   4.514   3.017   1.874  0.2433  0.0151  0.0147
13679TIP3    H262453   4.377   3.082   1.866  0.1737 -0.1209  0.1016
13680TIP3   OH262454   3.979   0.605   2.222  0.1203 -0.1809  0.8331
13680TIP3    H162455   3.952   0.561   2.302  0.0460 -2.7429 -0.5690
13680TIP3    H262456   3.900   0.611   2.169  0.8689 -1.7710 -0.5288
13681TIP3   OH262457   0.196   5.863  10.969 -0.4590  0.8486 -0.2618
13681TIP3    H162458   0.207   5.768  10.979  0.7304  1.1358  1.5041
13681TIP3    H262459   0.205   5.879  10.876  0.0937 -0.6921 -0.4909
13682TIP3   OH262460   0.575   6.114   4.668  0.1706 -0.2643 -0.0884
13682TIP3    H162461   0.658   6.116   4.716 -0.1302 -0.4671  0.4449
13682TIP3    H262462   0.520   6.053   4.717 -1.5960  2.6526  1.6895
13683TIP3   OH262463   0.584   1.982  14.599 -0.1321  0.4688 -0.2354
13683TIP3    H162464   0.587   1.896  14.641  3.7982  0.3705 -0.5917
13683TIP3    H262465   0.499   1.983  14.555 -0.2246 -3.2833 -0.3287
13684TIP3   OH262466   0.869   3.294   0.632  0.0464 -0.7695  0.0440
13684TIP3    H162467   0.792   3.346   0.656  0.3810 -1.4731  2.7737
13684TIP3    H262468   0.937   3.323   0.692  0.9347 -2.5871 -0.0553
13685TIP3   OH262469   6.468   0.380   5.184  0.6493 -0.7012 -1.0557
13685TIP3    H162470   6.513   0.462   5.205 -0.7841  0.6188 -2.8822
13685TIP3    H262471   6.537   0.320   5.156  1.7615 -0.2594  0.7037
13686TIP3   OH262472   2.583   1.097  14.612  0.1713  0.0353  0.3884
13686TIP3    H162473   2.559   1.018  14.661  2.0982  1.4083  3.7639
13686TIP3    H262474   2.665   1.075  14.569 -0.7201 -0.6774 -0.9651
13687TIP3   OH262475   0.134   3.941   2.340  0.3062  0.4889  0.4409
13687TIP3    H162476   0.122   3.847   2.350  0.1071  0.6116  1.3703
13687TIP3    H262477   0.214   3.950   2.288 -0.2027 -0.2093 -0.4734
13688TIP3   OH262478   5.832   0.703   7.039  0.0780  0.1820  0.4393
13688TIP3    H162479   5.896   0.634   7.022  0.0413  0.1207  0.5493
13688TIP3    H262480   5.788   0.717   6.955  0.8765  0.8697  0.1301
13689TIP3   OH262481   6.118   6.614  14.436  0.5314 -0.0710  0.3199
13689TIP3    H162482   6.161   6.551  14.493 -1.3150 -2.2282 -0.5907
13689TIP3    H262483   6.142   6.586  14.347 -1.9385 -0.7824 -0.1667
13690TIP3   OH262484   6.704   2.209  15.859  0.1885  0.1657  0.4133
13690TIP3    H162485   6.716   2.272  15.930  1.3375  0.2955  0.1061
13690TIP3    H262486   6.786   2.160  15.855 -0.0105 -0.1049 -0.5732
13691TIP3   OH262487   0.852   3.773   4.779  0.0083  0.8383  0.0296
13691TIP3    H162488   0.923   3.768   4.843 -0.4586  1.0909  0.5707
13691TIP3    H262489   0.889   3.735   4.699  0.1835 -0.6434  0.7984
13692TIP3   OH262490   4.955   4.895   4.894  0.7375  0.0741  0.3252
13692TIP3    H162491   5.037   4.854   4.867  0.7930  0.8371 -0.6831
13692TIP3    H262492   4.967   4.915   4.987  1.1540 -1.1000  0.5278
13693TIP3   OH262493   4.447   1.385   4.760 -0.4529 -0.1253  0.0835
13693TIP3    H162494   4.434   1.344   4.845 -1.8697  0.1988  0.0435
13693TIP3    H262495   4.534   1.425   4.765 -0.7765  0.4350  1.6172
13694TIP3   OH262496   5.332   5.644   1.055  0.4609  0.9288  0.2185
13694TIP3    H162497   5.271   5.608   0.991  0.6074  1.0982 -0.0145
13694TIP3    H262498   5.304   5.736   1.065  0.9863  1.1415 -0.2546
13695TIP3   OH262499   4.315   2.748   5.149  0.0409 -0.0664 -0.3827
13695TIP3    H162500   4.384   2.730   5.085 -0.0235  1.4360 -0.8900
13695TIP3    H262501   4.278   2.662   5.170  2.8342 -1.0538  0.7726
13696TIP3   OH262502   3.280   2.530   1.625 -0.2821 -0.0052  0.2227
13696TIP3    H162503   3.233   2.613   1.627  1.3599  0.9442 -0.6805
13696TIP3    H262504   3.222   2.472   1.575 -1.2173  0.6916  0.4684
13697TIP3   OH262505   6.244   4.177  13.869  0.1397 -0.9732  0.1101
13697TIP3    H162506   6.320   4.204  13.919 -1.1100 -0.2442  1.6716
13697TIP3    H262507   6.193   4.123  13.929 -1.2185 -0.3557 -0.4422
13698TIP3   OH262508   1.846   1.623  11.558  0.2924 -0.1683 -0.0673
13698TIP3    H162509   1.883   1.537  11.579  0.7404  0.0728  0.1374
13698TIP3    H262510   1.916   1.667  11.509  0.5586  0.5702  0.9598
13699TIP3   OH262511   2.038   4.094  12.586  0.2379  0.2537  0.7904
13699TIP3    H162512   2.014   4.008  12.621 -0.2699  1.2147  2.8671
13699TIP3    H262513   2.077   4.141  12.660  0.9069  1.6691 -0.4266
13700TIP3   OH262514   3.819   2.004   1.722  0.3152  0.2826 -0.2764
13700TIP3    H162515   3.826   2.098   1.706  2.2501  0.4876  1.5892
13700TIP3    H262516   3.735   1.994   1.768  1.0233  1.3603  1.2769
13701TIP3   OH262517   0.770   2.464   0.710  0.2281 -0.4378 -0.2333
13701TIP3    H162518   0.818   2.388   0.677 -0.3926 -1.2648  0.7466
13701TIP3    H262519   0.680   2.433   0.720  0.3754 -0.1757  2.0986
13702TIP3   OH262520   0.429   0.623  16.967 -0.0976  0.6182  0.4451
13702TIP3    H162521   0.372   0.659  17.036 -0.2289  0.2373  0.5346
13702TIP3    H262522   0.373   0.621  16.889 -0.1577  0.3978  0.4960
13703TIP3   OH262523   4.345   2.967   0.198 -0.0743  0.8051  0.3182
13703TIP3    H162524   4.425   2.941   0.243 -1.4782 -2.0430  1.3332
13703TIP3    H262525   4.295   3.016   0.263 -0.2197  0.4125  0.5072
13704TIP3   OH262526   4.184   3.439   1.443  0.3719  0.6732  0.2270
13704TIP3    H162527   4.184   3.345   1.422  0.8445  1.1980 -2.1576
13704TIP3    H262528   4.151   3.482   1.364  0.6419  2.5778  1.1257
13705TIP3   OH262529   2.012   0.571   5.544 -0.5425 -0.2435  0.8896
13705TIP3    H162530   1.980   0.597   5.630 -1.2369 -0.8771  0.8211
13705TIP3    H262531   1.944   0.600   5.483  0.6381  1.5701  0.3907
13706TIP3   OH262532   5.972   5.572  11.752  0.5270 -0.3399 -0.0500
13706TIP3    H162533   6.039   5.609  11.694  0.5709 -0.9016 -0.3597
13706TIP3    H262534   5.915   5.646  11.774  0.2679 -0.2093 -1.1472
13707TIP3   OH262535   6.562   2.946  10.453  0.0613  0.2227  0.1624
13707TIP3    H162536   6.576   2.902  10.369 -0.3868 -0.1703  0.2876
13707TIP3    H262537   6.585   3.037  10.437 -0.5804  0.2660 -0.5447
13708TIP3   OH262538   2.661   5.227  10.785  0.4505 -0.1275  0.7422
13708TIP3    H162539   2.672   5.302  10.844 -1.8912  2.3148 -1.7706
13708TIP3    H262540   2.567   5.220  10.772  0.8251 -1.5724 -1.4949
13709TIP3   OH262541   5.280   5.071  15.377  0.4697 -0.3263  0.0001
13709TIP3    H162542   5.234   5.154  15.388 -1.3360 -1.3119 -0.0170
13709TIP3    H262543   5.313   5.050  15.465 -0.3527 -0.3330  0.3074
13710TIP3   OH262544   0.511   2.837  17.024  0.5518  0.5834 -0.4164
13710TIP3    H162545   0.550   2.916  17.061 -1.5509  1.8024 -0.7485
13710TIP3    H262546   0.513   2.851  16.930  3.3932 -1.3271 -0.6909
13711TIP3   OH262547   4.050   3.959  11.921 -0.5953  0.5831 -0.0425
13711TIP3    H162548   4.010   3.979  11.837  1.1888 -1.5862 -1.4904
13711TIP3    H262549   3.984   3.908  11.968 -1.3213  1.1692 -0.4207
13712TIP3   OH262550   1.028   1.577   3.424 -0.6736 -0.0843 -0.5471
13712TIP3    H162551   0.980   1.646   3.379  0.5651  0.5898 -0.8564
13712TIP3    H262552   1.057   1.519   3.354 -0.1168  0.0965 -0.4694
13713TIP3   OH262553   3.194   2.813   0.949 -0.0784  0.3186 -0.5253
13713TIP3    H162554   3.235   2.823   1.035  0.6501  0.8022 -0.9222
13713TIP3    H262555   3.193   2.902   0.913  0.2434  0.0177 -1.2883
13714TIP3   OH262556   1.328   0.055  14.125 -0.2466 -0.2860 -0.2424
13714TIP3    H162557   1.236   0.073  14.105 -0.0929 -0.8646 -1.5047
13714TIP3    H262558   1.365   0.024  14.043  1.0489 -0.2045  0.2954
13715TIP3   OH262559   0.276   4.212  15.944  0.3265 -0.1488 -0.0481
13715TIP3    H162560   0.367   4.194  15.921 -0.4588 -1.9226 -1.9618
13715TIP3    H262561   0.225   4.170  15.875 -1.9097  2.8512 -0.3293
13716TIP3   OH262562   0.466   5.629  11.903 -0.0946  0.0937 -0.2287
13716TIP3    H162563   0.438   5.672  11.822  0.5420 -2.0057 -1.5759
13716TIP3    H262564   0.555   5.599  11.886  0.1716 -0.0787  1.3733
13717TIP3   OH262565   4.153   3.432  11.834 -0.7480  0.0934 -0.2510
13717TIP3    H162566   4.171   3.373  11.761  0.8518 -0.9127  0.9088
13717TIP3    H262567   4.197   3.514  11.811 -0.0243 -0.3069 -0.3230
13718TIP3   OH262568   0.582   1.521  16.787  0.4244 -0.0111 -0.0931
13718TIP3    H162569   0.488   1.514  16.774 -0.1595  1.0213  3.0791
13718TIP3    H262570   0.594   1.608  16.826  2.7506  0.1098 -0.9929
13719TIP3   OH262571   1.603   4.659  13.635 -0.4203 -0.0201 -0.4197
13719TIP3    H162572   1.631   4.750  13.621 -1.0675  0.1487 -0.5937
13719TIP3    H262573   1.673   4.622  13.690 -0.0823  0.5404 -0.4613
13720TIP3   OH262574   5.995   5.025  10.978  0.7344  0.4680  0.1557
13720TIP3    H162575   5.986   5.011  10.884  1.0371 -0.0088  0.1973
13720TIP3    H262576   5.984   5.120  10.989 -1.0070  0.3196 -0.1568
13721TIP3   OH262577   4.996   0.143   5.221  0.3121 -0.2725 -0.4934
13721TIP3    H162578   4.961   0.077   5.280 -2.7175  1.2462 -0.4663
13721TIP3    H262579   4.944   0.135   5.141  1.1771  0.8101 -1.1938
13722TIP3   OH262580   4.390   5.409   3.089  0.2167  0.7309 -0.2809
13722TIP3    H162581   4.408   5.320   3.117  2.4032  0.7420 -1.5158
13722TIP3    H262582   4.325   5.441   3.151 -0.7632 -1.7757  0.0380
13723TIP3   OH262583   2.336   6.250  15.288  0.4523 -0.0271 -0.4062
13723TIP3    H162584   2.359   6.272  15.198  0.3822  0.1355 -0.3825
13723TIP3    H262585   2.286   6.168  15.280 -0.2092  0.3931 -0.5804
13724TIP3   OH262586   1.216   0.219   3.621  0.4093 -0.0280  0.4828
13724TIP3    H162587   1.279   0.255   3.684  1.0846  0.9736 -0.7368
13724TIP3    H262588   1.180   0.296   3.576  0.0912 -0.7317 -0.4881
13725TIP3   OH262589   2.433   6.362  13.217  0.4509  0.3653  0.0745
13725TIP3    H162590   2.442   6.315  13.135 -1.8492 -0.5877  0.3127
13725TIP3    H262591   2.497   6.321  13.276  0.9632 -0.0413 -0.7605
13726TIP3   OH262592   4.875   2.755  15.964  0.2381 -0.1737 -0.3194
13726TIP3    H162593   4.939   2.779  16.032 -1.0472  2.2032  0.1233
13726TIP3    H262594   4.929   2.738  15.886  1.6201 -1.4488  0.8759
13727TIP3   OH262595   0.043   3.425  13.507  0.1866 -0.5073 -0.0628
13727TIP3    H162596   0.006   3.351  13.459 -1.6104  0.4707 -0.2609
13727TIP3    H262597  -0.033   3.478  13.530  1.2857  0.3956  1.5720
13728TIP3   OH262598   6.043   5.389   1.568 -1.0331 -0.1783 -0.4304
13728TIP3    H162599   6.007   5.346   1.645 -1.8652 -0.4225 -0.9484
13728TIP3    H262600   5.968   5.401   1.509 -0.5065  0.4580 -0.9942
13729TIP3   OH262601   5.592   1.755  16.396  0.1111  0.1806  0.6799
13729TIP3    H162602   5.582   1.668  16.359  0.5485  0.6387 -0.5405
13729TIP3    H262603   5.523   1.807  16.356 -0.0748  0.4369  1.3132
13730TIP3   OH262604   4.154   2.547  14.734  0.5424  0.5701  0.2590
13730TIP3    H162605   4.173   2.473  14.793 -0.2198 -0.0101 -0.2164
13730TIP3    H262606   4.090   2.512  14.672  1.7933  0.9869 -1.3075
13731TIP3   OH262607   1.348   5.789   2.783  0.0500  0.5266 -0.1800
13731TIP3    H162608   1.253   5.773   2.786  0.2889 -0.7612  1.2487
13731TIP3    H262609   1.369   5.793   2.690 -1.1652 -0.8302 -0.5372
13732TIP3   OH262610   0.097   4.983   1.423 -0.0165 -0.1199 -0.6830
13732TIP3    H162611   0.070   4.893   1.406 -1.7303  0.7692 -3.0620
13732TIP3    H262612   0.162   5.002   1.355 -0.6174  0.8440 -0.9977
13733TIP3   OH262613   1.924   0.588  14.722  0.4428 -0.4195  0.0099
13733TIP3    H162614   1.964   0.672  14.700  1.4482 -0.6232  0.9424
13733TIP3    H262615   1.959   0.527  14.657 -1.2380  0.0974 -1.4115
13734TIP3   OH262616   4.478   0.834   2.242 -0.1442 -0.1205  0.1086
13734TIP3    H162617   4.478   0.885   2.323  0.8522 -0.8294  0.5640
13734TIP3    H262618   4.545   0.875   2.187  3.4749 -3.1709  1.9580
13735TIP3   OH262619   0.779   3.724  15.675  0.8646 -0.5299  0.1343
13735TIP3    H162620   0.726   3.670  15.734 -0.6313  0.3928 -0.3290
13735TIP3    H262621   0.716   3.782  15.633  2.2171  0.3660 -0.6973
13736TIP3   OH262622   4.793   0.938  13.426 -0.4600  0.0554 -0.4800
13736TIP3    H162623   4.853   0.975  13.491 -0.0755  1.5915 -1.6535
13736TIP3    H262624   4.844   0.871  13.381 -0.1687  0.1930 -0.3540
13737TIP3   OH262625   5.075   6.629  16.739 -0.1409 -0.2616 -0.2133
13737TIP3    H162626   5.151   6.585  16.703 -0.9924 -1.0813 -1.0509
13737TIP3    H262627   5.041   6.681  16.666 -1.3668 -1.2421 -0.3540
13738TIP3   OH262628   3.097   1.949  10.595  0.4169  0.1949  0.6657
13738TIP3    H162629   3.181   1.906  10.578  0.0162 -0.3177 -0.0332
13738TIP3    H262630   3.031   1.883  10.571 -0.2060  1.3057 -0.7057
13739TIP3   OH262631   0.429   2.590  17.095  0.1856 -0.2893  0.1593
13739TIP3    H162632   0.468   2.566  17.011  2.2036 -0.2880  1.0807
13739TIP3    H262633   0.462   2.678  17.113 -0.4715 -0.1736  0.8246
13740TIP3   OH262634   1.432   5.110   3.713 -0.7707  0.0237 -0.2355
13740TIP3    H162635   1.410   5.191   3.668 -0.7665  0.6045  0.7801
13740TIP3    H262636   1.452   5.138   3.803 -1.8739 -1.2259  0.4157
13741TIP3   OH262637   3.887   0.225   2.284  0.2370  0.2979  0.1434
13741TIP3    H162638   3.964   0.204   2.338  0.9306  2.4513  0.0225
13741TIP3    H262639   3.904   0.182   2.200  1.6482  1.3414 -0.1169
13742TIP3   OH262640   3.477   5.618  15.607 -0.6838  0.2033  0.1664
13742TIP3    H162641   3.493   5.590  15.517 -0.3569  0.3805  0.1682
13742TIP3    H262642   3.560   5.656  15.636 -1.5535  2.6661 -0.3934
13743TIP3   OH262643   0.591   5.792   5.552 -0.6927  0.3232 -0.0614
13743TIP3    H162644   0.597   5.762   5.461 -1.1412  1.4725 -0.4699
13743TIP3    H262645   0.680   5.820   5.574  0.0889 -2.6173  0.8017
13744TIP3   OH262646   5.136   3.844   0.084 -0.1891 -0.1739 -0.2645
13744TIP3    H162647   5.157   3.887   0.167  0.0987  0.7031 -0.7833
13744TIP3    H262648   5.098   3.913   0.030 -0.2236 -0.7016 -0.9233
13745TIP3   OH262649   2.979   0.712  15.190 -0.1519 -0.1878 -0.8577
13745TIP3    H162650   2.895   0.674  15.166 -0.8798 -0.4848  2.0285
13745TIP3    H262651   2.962   0.806  15.194 -0.9257 -0.4198  1.8350
13746TIP3   OH262652   2.593   4.127   0.006  0.0120  0.5317  0.3874
13746TIP3    H162653   2.586   4.182   0.084 -1.6482 -0.9054  1.2746
13746TIP3    H262654   2.549   4.046   0.030  2.2455 -1.1388 -0.9683
13747TIP3   OH262655   2.273   6.221   2.493 -1.2093  0.3701  0.4130
13747TIP3    H162656   2.340   6.188   2.552  1.0725  2.6748 -0.7753
13747TIP3    H262657   2.317   6.231   2.409 -3.5881  0.0530 -0.9203
13748TIP3   OH262658   3.712   3.392   6.644  0.0819  0.1839 -0.0269
13748TIP3    H162659   3.619   3.383   6.624  0.0944 -0.4608  0.1918
13748TIP3    H262660   3.726   3.334   6.719  0.8211 -0.2967 -0.5320
13749TIP3   OH262661   1.811   5.191   5.272 -0.4450  0.2479 -0.5730
13749TIP3    H162662   1.814   5.190   5.368 -1.5967  0.5045 -0.5236
13749TIP3    H262663   1.838   5.280   5.248  1.5672 -0.3430 -0.5731
13750TIP3   OH262664   3.067   0.828   1.620  0.6270 -0.4352  0.3106
13750TIP3    H162665   3.073   0.919   1.593  0.1143 -1.1251 -2.2761
13750TIP3    H262666   3.157   0.803   1.643  1.1479  0.1290 -1.0659
13751TIP3   OH262667   4.147   6.601  14.772  0.5629  0.8049 -0.1070
13751TIP3    H162668   4.200   6.528  14.802 -0.1512  0.9617  1.5826
13751TIP3    H262669   4.210   6.665  14.739  1.4123  0.8071  1.4864
13752TIP3   OH262670   2.544   2.968  15.733  0.8601  1.1681  0.4707
13752TIP3    H162671   2.491   2.901  15.691  2.2604  1.5144 -1.9090
13752TIP3    H262672   2.634   2.938  15.722  1.4083  2.6459  0.7695
13753TIP3   OH262673   3.753   3.391  12.104  0.5464 -0.7618 -0.0657
13753TIP3    H162674   3.702   3.325  12.150  0.3121 -0.0411  0.7361
13753TIP3    H262675   3.834   3.398  12.154 -0.3886  1.2003  1.2272
13754TIP3   OH262676   4.862   5.895   6.108 -0.4372 -0.2609 -0.0192
13754TIP3    H162677   4.951   5.898   6.073 -1.0030  0.7122 -1.4518
13754TIP3    H262678   4.865   5.949   6.187  0.3905 -0.7660  0.2964
13755TIP3   OH262679   1.959   2.895  14.150 -0.3641  0.3284  0.0366
13755TIP3    H162680   1.979   2.949  14.227 -0.0815  1.0036 -0.5043
13755TIP3    H262681   2.038   2.902  14.095  0.5027 -2.2729  0.8882
13756TIP3   OH262682   4.093   1.924   6.718  0.4146 -0.5049 -0.2407
13756TIP3    H162683   4.068   1.921   6.625  3.0441 -0.0317 -1.0042
13756TIP3    H262684   4.103   1.832   6.742  1.4836 -0.5957 -0.9630
13757TIP3   OH262685   3.433   3.568  11.992 -0.8198 -0.0757  0.7266
13757TIP3    H162686   3.415   3.479  12.020 -2.8321  0.8275  2.4314
13757TIP3    H262687   3.520   3.587  12.028 -0.4024 -1.3326  0.3916
13758TIP3   OH262688   3.287   3.735  13.445 -0.0663  0.7327  0.3650
13758TIP3    H162689   3.314   3.717  13.355  1.2478 -0.1089  0.9101
13758TIP3    H262690   3.232   3.661  13.470  1.4611 -0.2048  1.0153
13759TIP3   OH262691   5.570   4.450  14.164  0.1387 -0.5038 -0.2335
13759TIP3    H162692   5.533   4.504  14.233  1.2663 -0.1183  0.0806
13759TIP3    H262693   5.661   4.477  14.158  0.6125 -2.0399 -0.3785
13760TIP3   OH262694   4.828   2.316  11.874 -0.0378  0.0646 -0.3237
13760TIP3    H162695   4.844   2.234  11.827  0.7530  0.9263 -1.5964
13760TIP3    H262696   4.833   2.384  11.806 -0.7975  1.1578  0.6924
13761TIP3   OH262697   5.395   1.966  16.674  0.0068 -0.2779  0.0952
13761TIP3    H162698   5.337   2.039  16.697 -1.5231 -0.9874 -1.4338
13761TIP3    H262699   5.463   1.968  16.742 -0.1208  2.4107  0.2328
13762TIP3   OH262700   6.366   2.875  14.650 -0.9245  0.6224  0.0761
13762TIP3    H162701   6.383   2.967  14.632  0.4607  0.5446  0.9156
13762TIP3    H262702   6.420   2.827  14.588 -1.5274  0.3731 -0.2598
13763TIP3   OH262703   0.861   5.910   4.902  0.1621 -0.2563  0.3084
13763TIP3    H162704   0.811   5.877   4.827  0.4119  0.4535 -0.1763
13763TIP3    H262705   0.805   5.977   4.941  0.4418  0.0515  0.1812
13764TIP3   OH262706   2.623   0.208   2.990 -0.6024 -0.2059  0.0401
13764TIP3    H162707   2.617   0.293   2.946 -0.5092  0.2492  0.8875
13764TIP3    H262708   2.711   0.207   3.028 -1.1321 -0.0148  1.3310
13765TIP3   OH262709   6.382   5.410  14.263 -0.1317 -0.0800  0.2328
13765TIP3    H162710   6.396   5.459  14.182 -0.7133  0.8975  0.7171
13765TIP3    H262711   6.347   5.326  14.234  0.4199 -0.0433 -0.5708
13766TIP3   OH262712   0.142   2.064  10.965  0.0277  0.4316  0.6076
13766TIP3    H162713   0.157   2.075  11.059 -0.2702  2.6764  0.4377
13766TIP3    H262714   0.065   2.117  10.947 -1.0968 -1.5582 -0.5912
13767TIP3   OH262715   6.330   0.529  13.562 -0.2923 -0.0417  0.1266
13767TIP3    H162716   6.238   0.505  13.566 -0.6614  1.4998  1.1581
13767TIP3    H262717   6.376   0.446  13.549 -1.9371 -0.6409 -2.2713
13768TIP3   OH262718   5.809   6.144  12.969 -0.2395 -0.3745 -0.0179
13768TIP3    H162719   5.873   6.127  13.037  0.2242 -0.1719 -0.4019
13768TIP3    H262720   5.730   6.170  13.017  0.8451  2.3733  0.3977
13769TIP3   OH262721   5.997   4.231   1.024 -0.1432  0.3607 -0.4567
13769TIP3    H162722   6.012   4.258   0.934  0.3435 -1.1488 -0.8442
13769TIP3    H262723   5.903   4.241   1.037 -0.6916 -2.3216 -2.1243
13770TIP3   OH262724   0.021   5.644  14.481 -0.0404 -0.0991 -0.1377
13770TIP3    H162725  -0.056   5.610  14.437 -1.2338 -0.3749  2.0575
13770TIP3    H262726   0.092   5.584  14.457 -1.6179 -2.8827  1.8119
13771TIP3   OH262727   5.586   0.130   2.782  0.0376 -0.4946 -0.0442
13771TIP3    H162728   5.633   0.115   2.864  0.6911  0.8641 -0.1665
13771TIP3    H262729   5.496   0.104   2.801 -0.4022  2.2863  1.9092
13772TIP3   OH262730   1.526   5.407  13.131  0.1480 -0.1176  0.1563
13772TIP3    H162731   1.538   5.489  13.083 -1.2148  1.2991  2.1419
13772TIP3    H262732   1.575   5.420  13.212 -0.3367 -1.1607  0.6177
13773TIP3   OH262733   4.254   4.084   0.852  0.1133 -0.0370  0.1778
13773TIP3    H162734   4.242   4.048   0.940 -0.1261 -1.0035 -0.2418
13773TIP3    H262735   4.171   4.126   0.831 -0.5398 -1.5651 -0.3747
13774TIP3   OH262736   0.609   3.092   3.398 -0.2051  0.2273  0.6720
13774TIP3    H162737   0.590   3.060   3.309  0.5143  0.9240  0.2674
13774TIP3    H262738   0.528   3.076   3.446 -0.6977  0.0977 -0.1834
13775TIP3   OH262739   4.537   6.077   2.015  0.0312 -0.0343  0.5522
13775TIP3    H162740   4.475   6.099   1.946 -1.5546 -0.2516  1.8553
13775TIP3    H262741   4.519   5.984   2.033  2.2469 -0.6941 -0.5403
13776TIP3   OH262742   3.172   5.145   6.173  0.4930  0.1141  0.1277
13776TIP3    H162743   3.162   5.208   6.244  1.3875  0.4371 -0.0246
13776TIP3    H262744   3.202   5.065   6.215  0.6189  0.1809  0.1657
13777TIP3   OH262745   5.236   1.216  12.810  0.1105  0.3433  0.6014
13777TIP3    H162746   5.292   1.164  12.868  1.0048 -1.0155 -1.3907
13777TIP3    H262747   5.193   1.151  12.754 -1.1625  1.5694  0.1169
13778TIP3   OH262748   2.898   0.231   0.411  0.2122 -0.2992 -0.1274
13778TIP3    H162749   2.990   0.257   0.414 -0.2559  1.3025  1.4069
13778TIP3    H262750   2.875   0.237   0.319  1.2466  0.8207 -0.3324
13779TIP3   OH262751   3.759   4.071  12.257  0.0026  0.3936  0.2593
13779TIP3    H162752   3.679   4.107  12.219 -0.0852  1.9138  1.8305
13779TIP3    H262753   3.744   4.074  12.352  1.2242 -0.9567  0.5207
13780TIP3   OH262754   4.769   4.069   1.500  0.2410  0.1939 -0.5195
13780TIP3    H162755   4.799   3.988   1.541  0.7936 -0.2053 -1.6803
13780TIP3    H262756   4.775   4.135   1.570  0.4226 -0.6258  0.2477
13781TIP3   OH262757   5.427   6.123   0.853 -0.2293 -0.0712  0.5275
13781TIP3    H162758   5.505   6.068   0.845  0.1408  0.7920 -2.2720
13781TIP3    H262759   5.411   6.127   0.947  2.6116 -0.9347  1.1120
13782TIP3   OH262760   2.805   1.016  13.569 -0.2090  0.2421 -0.0509
13782TIP3    H162761   2.851   0.932  13.561 -1.2620 -0.4392  0.8201
13782TIP3    H262762   2.868   1.073  13.615  0.4319 -0.1322 -0.4579
13783TIP3   OH262763   3.916   4.357   1.254  0.1232 -0.3118 -0.7807
13783TIP3    H162764   3.894   4.392   1.340  1.7495 -0.3436 -0.3202
13783TIP3    H262765   3.980   4.419   1.219  0.4403 -0.9949 -1.4140
13784TIP3   OH262766   6.374   3.980   4.691  0.0526  0.1670 -0.6062
13784TIP3    H162767   6.370   4.057   4.748 -0.6157  0.1144 -0.5739
13784TIP3    H262768   6.327   3.912   4.740 -0.5002  0.1155 -1.2001
13785TIP3   OH262769   1.125   0.937   1.222  0.3463 -0.1065  0.3237
13785TIP3    H162770   1.152   1.016   1.268  1.0098  1.2430 -2.2932
13785TIP3    H262771   1.148   0.953   1.130 -2.0367 -2.1967 -0.7042
13786TIP3   OH262772   5.472   4.936  15.065 -0.0414 -0.5593 -0.6084
13786TIP3    H162773   5.451   4.843  15.061 -0.0933 -0.6110  0.7139
13786TIP3    H262774   5.542   4.943  15.129 -1.1543  0.4887  0.5409
13787TIP3   OH262775   3.697   6.541   1.629 -0.3392 -0.8849  0.2481
13787TIP3    H162776   3.609   6.579   1.630 -0.4717 -1.1937  0.3159
13787TIP3    H262777   3.742   6.580   1.704  0.2856  0.9396 -1.0428
13788TIP3   OH262778   4.659   6.207  13.839 -0.0703  0.8508 -0.5648
13788TIP3    H162779   4.740   6.158  13.825  0.1966  1.3813 -0.8776
13788TIP3    H262780   4.667   6.242  13.928  0.3591  1.4921 -0.8521
13789TIP3   OH262781   1.324   2.448  11.507  0.1212  0.2946  0.5042
13789TIP3    H162782   1.327   2.415  11.417 -0.8874 -1.0290  0.9399
13789TIP3    H262783   1.402   2.412  11.549 -0.4172 -0.6850  0.6817
13790TIP3   OH262784   2.542   4.696  11.764  0.4294  0.1783  0.0416
13790TIP3    H162785   2.524   4.710  11.857 -0.6491 -1.4681  0.0987
13790TIP3    H262786   2.586   4.611  11.761 -1.4587 -0.7945 -1.1407
13791TIP3   OH262787   5.390   3.118  17.233  0.4177  0.1211  0.1677
13791TIP3    H162788   5.477   3.081  17.218 -0.0738 -0.5704 -1.0067
13791TIP3    H262789   5.343   3.104  17.151 -0.8828  0.2591  0.8714
13792TIP3   OH262790   0.603   5.448   0.375  0.2588  0.4284  0.4916
13792TIP3    H162791   0.508   5.436   0.368  0.0622  2.8141 -1.5891
13792TIP3    H262792   0.615   5.543   0.376  2.5975  0.1645  1.4814
13793TIP3   OH262793   2.635   4.023  15.505  0.8118 -0.4382  0.3192
13793TIP3    H162794   2.588   4.080  15.444 -0.4683 -2.0139 -0.2408
13793TIP3    H262795   2.663   4.080  15.576 -0.6147  0.8372 -0.1235
13794TIP3   OH262796   2.738   0.604  10.923 -0.0933 -0.5217  0.0494
13794TIP3    H162797   2.764   0.681  10.872  3.4598 -2.0694 -0.6770
13794TIP3    H262798   2.792   0.608  11.002 -2.1878 -0.6070  1.5087
13795TIP3   OH262799   6.059   1.141  13.294 -0.0899  0.5772 -0.2191
13795TIP3    H162800   6.104   1.142  13.209 -0.5426  1.1034 -0.4570
13795TIP3    H262801   6.119   1.188  13.353  0.1095  0.4368 -0.3094
13796TIP3   OH262802   2.354   4.476  14.128 -0.0944 -0.0004  0.2388
13796TIP3    H162803   2.329   4.524  14.207 -1.1688 -1.2268  0.6533
13796TIP3    H262804   2.272   4.444  14.092  0.3817  0.5971 -1.4286
13797TIP3   OH262805   2.349   1.733   4.657 -0.3464  0.2679  0.2327
13797TIP3    H162806   2.312   1.675   4.590  2.1180 -1.0431 -0.0184
13797TIP3    H262807   2.307   1.818   4.640  0.8853  0.2212 -3.6299
13798TIP3   OH262808   2.912   6.383  12.507  0.1170 -0.6165 -0.5389
13798TIP3    H162809   3.006   6.380  12.491  0.6020 -0.8609  2.0355
13798TIP3    H262810   2.901   6.454  12.571 -1.5992  0.1914 -1.6787
13799TIP3   OH262811   0.675   1.707  13.660 -0.5618 -0.1535 -0.0970
13799TIP3    H162812   0.763   1.734  13.633 -0.5991  0.0054 -0.0592
13799TIP3    H262813   0.624   1.788  13.662 -0.4577 -0.0981  0.8116
13800TIP3   OH262814   5.255   4.166  13.761  0.1713 -0.4379  0.8497
13800TIP3    H162815   5.271   4.074  13.782  0.6109 -0.4953  0.2988
13800TIP3    H262816   5.161   4.177  13.774 -0.2417 -1.4939 -1.0070
13801TIP3   OH262817   2.111   4.216  15.369 -0.1135 -0.1855 -0.4890
13801TIP3    H162818   2.038   4.154  15.371 -0.6254  0.3643 -1.7969
13801TIP3    H262819   2.069   4.302  15.375  0.5110  0.0938 -0.1119
13802TIP3   OH262820   1.837   4.738   1.730 -0.1302 -0.5709  0.6087
13802TIP3    H162821   1.905   4.673   1.746 -1.3726 -1.4769  2.3666
13802TIP3    H262822   1.784   4.700   1.660  1.6119  0.5161 -1.3582
13803TIP3   OH262823   5.488   0.998   5.503 -0.2007 -0.0367 -0.0563
13803TIP3    H162824   5.407   0.993   5.554  0.2362  0.4849  0.7168
13803TIP3    H262825   5.486   0.921   5.447 -1.2610  0.0016 -0.0910
13804TIP3   OH262826   6.500   5.422   5.144  0.1867 -0.3556 -0.3613
13804TIP3    H162827   6.504   5.509   5.183 -0.0747 -1.4897  2.3483
13804TIP3    H262828   6.575   5.417   5.085  0.0806  1.7409 -0.6887
13805TIP3   OH262829   4.582   6.691   6.532  0.5600 -0.6968 -0.1479
13805TIP3    H162830   4.550   6.684   6.442  0.3507 -0.4883 -0.0897
13805TIP3    H262831   4.676   6.706   6.523  0.2487  1.2806 -0.3889
13806TIP3   OH262832   4.521   5.711  12.532  0.1094  0.1988  0.6043
13806TIP3    H162833   4.582   5.674  12.469  0.7711 -1.1681  2.0117
13806TIP3    H262834   4.436   5.675  12.508  0.0245  1.1848 -0.6407
13807TIP3   OH262835   5.777   1.702  12.724 -0.6846 -0.0733  0.0970
13807TIP3    H162836   5.824   1.619  12.715 -0.3416  0.1522 -0.1909
13807TIP3    H262837   5.830   1.753  12.786 -1.0303 -0.1639  0.4709
13808TIP3   OH262838   3.587   1.415   4.533  0.1419 -0.0757  0.2942
13808TIP3    H162839   3.601   1.499   4.578 -0.1652 -0.1644  0.5603
13808TIP3    H262840   3.503   1.385   4.566 -0.2852  0.0556 -0.6675
13809TIP3   OH262841   1.967   0.811   4.256  0.2320  0.2069  0.3470
13809TIP3    H162842   1.873   0.819   4.272  0.4982  1.5304  1.3632
13809TIP3    H262843   1.989   0.721   4.281 -0.5088  0.3392  1.4825
13810TIP3   OH262844   5.190   3.515   4.302  0.0496  0.0314 -0.5558
13810TIP3    H162845   5.119   3.552   4.249 -0.5034  0.0199  0.1745
13810TIP3    H262846   5.267   3.521   4.245  0.1109  2.8693 -0.2383
13811TIP3   OH262847   1.838   0.458   6.037 -0.2583 -0.2476 -0.6799
13811TIP3    H162848   1.836   0.444   6.131 -0.4830 -1.5780 -0.8834
13811TIP3    H262849   1.926   0.429   6.010 -0.0734  0.4388 -0.8379
13812TIP3   OH262850   2.941   0.508  14.605  0.1420  0.0248  0.3305
13812TIP3    H162851   2.853   0.491  14.572  0.6694 -1.9425 -0.1529
13812TIP3    H262852   2.953   0.443  14.674  1.5981 -0.4438 -0.3361
13813TIP3   OH262853   1.929   4.258  12.950  0.4125 -0.1557 -0.5326
13813TIP3    H162854   1.864   4.288  13.014 -0.0913 -0.4790 -0.8846
13813TIP3    H262855   1.914   4.163  12.943  1.3824 -0.3517 -0.1083
13814TIP3   OH262856   3.086   0.267   2.258 -0.1011  0.5048  0.1489
13814TIP3    H162857   3.049   0.255   2.170 -3.1550 -1.3829  1.5949
13814TIP3    H262858   3.115   0.358   2.259 -1.8116  1.1510 -2.1821
13815TIP3   OH262859   3.707   6.289   6.426  0.2358 -0.1733  0.0155
13815TIP3    H162860   3.712   6.354   6.356 -1.8116 -0.0654 -0.0670
13815TIP3    H262861   3.773   6.316   6.489  0.6667  0.9204 -0.8908
13816TIP3   OH262862   5.861   0.918   5.298 -0.3299  0.1532  0.4031
13816TIP3    H162863   5.783   0.872   5.265 -1.6148  1.6408  1.2970
13816TIP3    H262864   5.900   0.857   5.360 -0.4666 -0.8185 -0.4351
13817TIP3   OH262865   1.768   4.373   3.884  0.1076 -0.3939 -0.1850
13817TIP3    H162866   1.722   4.339   3.960 -1.1085 -0.4298 -0.9258
13817TIP3    H262867   1.711   4.352   3.810  1.5942 -0.9495 -1.1822
13818TIP3   OH262868   3.228   0.960  16.870  0.2388  0.3310  0.0112
13818TIP3    H162869   3.315   0.999  16.867  0.7325 -0.7409  0.2733
13818TIP3    H262870   3.243   0.868  16.892 -0.9604  0.1533  0.1382
13819TIP3   OH262871   2.123   4.168   4.926 -0.0136 -0.3818  0.4471
13819TIP3    H162872   2.130   4.250   4.876 -0.2238 -0.4325  0.3343
13819TIP3    H262873   2.118   4.100   4.860  0.1600 -0.4874  0.5422
13820TIP3   OH262874   2.989   2.895  11.466 -0.3173 -0.6692 -0.3790
13820TIP3    H162875   2.908   2.935  11.434 -0.5564  0.9889  2.1458
13820TIP3    H262876   3.056   2.960  11.446 -0.0641 -0.7735  0.1561
13821TIP3   OH262877   0.003   1.377   6.700 -0.2388 -0.0977  0.0375
13821TIP3    H162878  -0.038   1.304   6.746 -0.0113  0.1018  0.5587
13821TIP3    H262879   0.091   1.382   6.736 -1.4161  2.8166  2.7621
13822TIP3   OH262880   4.853   6.516  15.864  0.6560  0.6129 -0.1606
13822TIP3    H162881   4.903   6.442  15.829  0.7737  0.3989  0.4582
13822TIP3    H262882   4.834   6.492  15.954 -0.7185  0.6233 -0.4308
13823TIP3   OH262883   6.076   1.788   5.306  0.0086  0.1159  0.0086
13823TIP3    H162884   6.063   1.716   5.245  1.9525 -0.5631  0.3433
13823TIP3    H262885   6.161   1.770   5.347  1.8226  3.9234 -1.7696
13824TIP3   OH262886   5.925   1.435  11.847  0.8979 -0.0145  0.2083
13824TIP3    H162887   5.954   1.427  11.938  2.9974  2.2281 -0.1820
13824TIP3    H262888   5.896   1.526  11.839  1.0519 -0.0902 -1.4467
13825TIP3   OH262889   5.358   3.907  14.947  0.1487 -0.2218  0.1683
13825TIP3    H162890   5.280   3.871  14.905  0.0339  0.7704 -0.4978
13825TIP3    H262891   5.418   3.833  14.955 -1.2524 -1.2272  1.6505
13826TIP3   OH262892   1.500   2.831  16.037 -0.2893  0.3317 -0.6386
13826TIP3    H162893   1.543   2.876  15.965  0.5540  1.4958  0.5825
13826TIP3    H262894   1.414   2.871  16.043 -0.0404  0.8344 -0.4379
13827TIP3   OH262895   4.218   1.172  11.354  0.6018  0.0956 -0.6673
13827TIP3    H162896   4.279   1.105  11.384  0.8772  0.4110 -0.5097
13827TIP3    H262897   4.236   1.182  11.261  0.1248 -0.4976 -0.8203
13828TIP3   OH262898   0.358   4.605  13.260  0.0744 -0.1299 -0.3734
13828TIP3    H162899   0.393   4.589  13.172 -0.0755 -0.5517 -0.3571
13828TIP3    H262900   0.299   4.531  13.276 -0.6473  0.4584 -0.3080
13829TIP3   OH262901   4.970   6.585   3.323 -0.3958  0.2762 -0.3347
13829TIP3    H162902   4.981   6.579   3.228 -1.5220  2.7183 -0.6433
13829TIP3    H262903   4.894   6.641   3.335 -0.4068 -0.1984  2.0330
13830TIP3   OH262904   1.912   5.352  13.879 -0.3269  0.5075 -0.1726
13830TIP3    H162905   1.888   5.367  13.971 -1.0873  1.2884 -0.5021
13830TIP3    H262906   1.988   5.409  13.865  0.5639 -0.5317  0.3164
13831TIP3   OH262907   5.087   4.585  11.178  0.9624  0.8310 -0.4860
13831TIP3    H162908   4.995   4.563  11.162  0.9296 -0.5747  1.4931
13831TIP3    H262909   5.135   4.508  11.147  1.3209  0.7077  0.3701
13832TIP3   OH262910   5.960   2.484   4.011  0.2653  0.3379  0.1419
13832TIP3    H162911   6.032   2.456   4.067 -0.5150  1.2608  1.6366
13832TIP3    H262912   5.931   2.404   3.968 -0.0080 -0.6357  2.0860
13833TIP3   OH262913   1.428   5.265  11.706  0.1076 -0.1676 -0.2285
13833TIP3    H162914   1.484   5.199  11.748  0.8369  0.7363  0.2477
13833TIP3    H262915   1.350   5.270  11.761 -0.6864 -1.7930 -1.1660
13834TIP3   OH262916   1.105   4.143   3.687 -0.2280 -0.4622  0.0661
13834TIP3    H162917   1.194   4.138   3.722  1.0027  0.2445 -2.8208
13834TIP3    H262918   1.049   4.140   3.764  2.2922 -0.7522  1.9577
13835TIP3   OH262919   2.995   1.000  14.783  0.2364  0.0086  0.3205
13835TIP3    H162920   2.963   0.912  14.800  0.5428 -0.2503 -0.4606
13835TIP3    H262921   2.947   1.029  14.706 -0.5838  0.9018  1.1490
13836TIP3   OH262922   2.054   1.720  14.418  0.2170 -0.6111  0.8731
13836TIP3    H162923   2.006   1.678  14.490 -0.4633  0.5948  1.1252
13836TIP3    H262924   1.987   1.768  14.369  1.1086  0.8278  1.0441
13837TIP3   OH262925   1.164   5.566   6.633 -0.0583 -0.2954 -0.2020
13837TIP3    H162926   1.151   5.479   6.595 -0.7728 -0.3603  0.1809
13837TIP3    H262927   1.112   5.624   6.577  1.5181  0.1015 -1.2917
13838TIP3   OH262928   6.074   5.274   5.613  0.4959 -0.3148  0.5326
13838TIP3    H162929   6.010   5.213   5.575 -0.6632  0.3692  1.3789
13838TIP3    H262930   6.022   5.334   5.666  1.8127  0.4379  0.9910
13839TIP3   OH262931   2.841   4.896  12.810  0.0692 -0.4575  0.0662
13839TIP3    H162932   2.877   4.808  12.823 -0.6722 -0.8628 -0.6132
13839TIP3    H262933   2.855   4.914  12.717  1.5457  0.7417  0.4925
13840TIP3   OH262934   2.689   4.983  13.020 -0.1268  0.1853  0.3200
13840TIP3    H162935   2.745   4.967  13.096  1.1126  2.5309 -0.0497
13840TIP3    H262936   2.742   4.957  12.945 -1.1877 -1.7227  0.2194
13841TIP3   OH262937   2.145   0.538   0.786 -0.0856  0.0139  0.2579
13841TIP3    H162938   2.179   0.612   0.735 -0.3073 -0.5097 -0.6639
13841TIP3    H262939   2.224   0.496   0.821  0.0346  0.7398  0.8555
13842TIP3   OH262940   4.718   5.956  12.524 -0.9840  0.0955  0.8246
13842TIP3    H162941   4.666   5.900  12.466 -0.9187  0.2624  0.6084
13842TIP3    H262942   4.657   5.981  12.593 -0.9426 -0.4747  1.0762
13843TIP3   OH262943   0.933   6.607   5.622  0.4123  0.1787  0.0936
13843TIP3    H162944   0.854   6.600   5.568  1.7724  1.8539 -2.1989
13843TIP3    H262945   0.908   6.567   5.706 -2.9378  0.9155 -0.4751
13844TIP3   OH262946   4.633   5.977  16.298 -0.2421 -0.0967 -0.3916
13844TIP3    H162947   4.687   6.056  16.293  1.3335 -1.2134 -1.1848
13844TIP3    H262948   4.569   5.987  16.227  0.3890  0.1385 -0.9259
13845TIP3   OH262949   6.743   6.052  10.861  0.4107 -0.1135  0.4670
13845TIP3    H162950   6.741   6.112  10.786 -0.0150 -2.5164 -1.5236
13845TIP3    H262951   6.836   6.043  10.883  0.5387  0.5749  0.1965
13846TIP3   OH262952   3.029   3.316   4.516 -0.0565 -0.4760 -0.1587
13846TIP3    H162953   3.090   3.243   4.507  0.3653 -0.2183  0.5253
13846TIP3    H262954   3.032   3.338   4.609 -1.3127 -0.5552 -0.0844
13847TIP3   OH262955   0.768   4.879   3.608 -0.0585 -0.3141  0.4626
13847TIP3    H162956   0.831   4.945   3.577 -1.3816  0.5714 -0.3815
13847TIP3    H262957   0.777   4.882   3.704  0.3587  0.6272  0.4060
13848TIP3   OH262958   5.611   5.744   6.408 -0.0650 -0.8401 -0.0917
13848TIP3    H162959   5.613   5.827   6.361  1.4177 -1.1060 -0.5259
13848TIP3    H262960   5.683   5.750   6.471 -1.1664 -1.0400  1.1981
13849TIP3   OH262961   3.980   5.022   5.201 -0.4970  0.2166  0.7054
13849TIP3    H162962   3.910   5.028   5.136 -1.2677  1.5585  1.6458
13849TIP3    H262963   4.045   4.964   5.161 -2.1893 -1.1582 -0.1259
13850TIP3   OH262964   3.606   1.662   1.370 -0.0753 -0.6313  0.1471
13850TIP3    H162965   3.552   1.693   1.298 -0.9556  1.2424  1.5438
13850TIP3    H262966   3.655   1.739   1.399  0.9492 -1.5557  0.9627
13851TIP3   OH262967   3.410   4.987   4.469 -0.6736  0.3354 -0.4570
13851TIP3    H162968   3.332   5.041   4.483 -0.3451  0.4784  0.9468
13851TIP3    H262969   3.479   5.050   4.447 -0.1606  0.5718  1.7285
13852TIP3   OH262970   5.629   0.350  16.195 -0.0093  0.5259 -0.0084
13852TIP3    H162971   5.538   0.328  16.212  0.4978  0.3507  2.7832
13852TIP3    H262972   5.634   0.445  16.205 -0.1249  0.6884 -1.4340
13853TIP3   OH262973   4.757   1.887   3.667  0.3418 -0.1685 -0.4229
13853TIP3    H162974   4.672   1.859   3.635 -0.8902  0.3101  2.3049
13853TIP3    H262975   4.820   1.846   3.608 -1.7633 -0.8039 -2.2660
13854TIP3   OH262976   6.691   2.885  14.910  0.0344  0.8238  0.1155
13854TIP3    H162977   6.640   2.828  14.967 -0.5332  0.8661 -0.3473
13854TIP3    H262978   6.770   2.905  14.960 -0.0665  0.1639  0.5392
13855TIP3   OH262979   3.976   0.062  11.937  0.2816  0.2592  0.0562
13855TIP3    H162980   3.986   0.099  11.849  0.8756 -1.5472 -0.6554
13855TIP3    H262981   3.924  -0.017  11.925 -0.4014  0.4762  1.4657
13856TIP3   OH262982   2.559   1.252  14.264 -0.4299 -0.8667  0.5614
13856TIP3    H162983   2.561   1.167  14.307 -0.3152 -0.9039  0.4843
13856TIP3    H262984   2.650   1.282  14.265 -0.5037 -0.6478  0.7792
13857TIP3   OH262985   5.782   6.416   2.417 -0.2439 -0.3004 -0.1393
13857TIP3    H162986   5.848   6.372   2.470  0.8283  0.0682 -1.1607
13857TIP3    H262987   5.751   6.348   2.356 -0.4369 -0.3322 -0.0070
13858TIP3   OH262988   5.429   3.365  12.534  0.3426 -0.3036 -0.3044
13858TIP3    H162989   5.492   3.417  12.485  0.2310 -1.9922 -2.2721
13858TIP3    H262990   5.344   3.386  12.495 -0.0298  0.0573  0.6756
13859TIP3   OH262991   2.261   2.362   4.796  0.0390  0.1272  0.0114
13859TIP3    H162992   2.218   2.426   4.853  1.2610  1.2579 -0.3236
13859TIP3    H262993   2.204   2.357   4.719 -1.3851 -1.0866  1.1190
13860TIP3   OH262994   6.004   0.983  16.577 -0.3006 -0.1693 -0.1805
13860TIP3    H162995   6.013   0.999  16.671  0.6694 -1.4528 -0.0450
13860TIP3    H262996   5.928   0.926  16.570 -0.5096  0.1092 -0.2008
13861TIP3   OH262997   2.527   4.913  11.599  0.3087 -0.0908  0.2714
13861TIP3    H162998   2.534   4.838  11.658 -0.8545 -0.5055 -0.0936
13861TIP3    H262999   2.613   4.919  11.558  0.1095 -1.9010 -0.4802
13862TIP3   OH263000   5.308   0.251   1.372 -0.6314  0.0814  1.0668
13862TIP3    H163001   5.285   0.244   1.279  0.6434 -1.2927  0.8464
13862TIP3    H263002   5.381   0.312   1.374  0.4789 -1.2357  0.9730
13863TIP3   OH263003   4.293   3.476  12.238  0.1158  0.2092  0.3782
13863TIP3    H163004   4.367   3.426  12.205  0.4052  1.7548 -1.3999
13863TIP3    H263005   4.218   3.442  12.189  0.0492  0.3507  0.3836
13864TIP3   OH263006   5.562   5.789   1.489 -0.1369 -0.3662 -0.9533
13864TIP3    H163007   5.611   5.711   1.463 -0.1501 -1.0502  0.9669
13864TIP3    H263008   5.505   5.759   1.560 -1.3167  1.0463 -1.2758
13865TIP3   OH263009   3.689   5.308   2.293 -0.0320 -0.0710  0.0029
13865TIP3    H163010   3.610   5.254   2.285  0.1711 -0.5968  1.4914
13865TIP3    H263011   3.659   5.388   2.336  0.0694  0.1264 -0.2936
13866TIP3   OH263012   0.350   3.717   3.726  0.2521  0.3848  0.2279
13866TIP3    H163013   0.437   3.693   3.692  0.4365 -1.2718  1.8152
13866TIP3    H263014   0.365   3.734   3.819 -1.2269 -0.4552  0.6293
13867TIP3   OH263015   3.181   6.439   2.215  0.3362 -0.5463 -0.8775
13867TIP3    H163016   3.226   6.464   2.296 -1.3281 -1.3853  0.3357
13867TIP3    H263017   3.112   6.503   2.204 -0.7533 -1.6359 -0.4941
13868TIP3   OH263018   6.572   5.292  11.039  0.6307 -0.2263  0.3259
13868TIP3    H163019   6.636   5.359  11.016  1.8098 -1.7766 -0.9203
13868TIP3    H263020   6.526   5.329  11.116  1.5501  1.7952 -0.0621
13869TIP3   OH263021   1.007   5.589   4.913 -0.7641 -0.3674 -0.0112
13869TIP3    H163022   0.963   5.671   4.934  0.4415 -0.1657  1.9046
13869TIP3    H263023   1.061   5.609   4.837  0.2350  0.8945  1.0069
13870TIP3   OH263024   0.913   3.067   2.547 -0.3209  0.4993 -0.0293
13870TIP3    H163025   0.827   3.067   2.506  0.2005  1.2229 -1.1400
13870TIP3    H263026   0.898   3.033   2.635 -1.5196 -0.6661 -0.6695
13871TIP3   OH263027   0.353   5.714   0.987  0.4723 -0.0330  0.2171
13871TIP3    H163028   0.304   5.719   1.069  0.1699  0.1919  0.0249
13871TIP3    H263029   0.298   5.759   0.923  0.1751 -1.2252 -0.3740
13872TIP3   OH263030   5.536   1.710   3.230  0.0877  0.8512 -1.0911
13872TIP3    H163031   5.611   1.741   3.281  0.1338 -0.0094 -0.6230
13872TIP3    H263032   5.516   1.624   3.266 -1.7787  1.4988 -0.5255
13873TIP3   OH263033   1.788   6.526   3.307 -0.5361  0.7059  1.0293
13873TIP3    H163034   1.848   6.457   3.280 -1.5848  0.3199 -0.3855
13873TIP3    H263035   1.813   6.546   3.397 -0.0936 -1.3905  1.3978
13874TIP3   OH263036   0.227   5.822   5.035  0.2874 -0.3551  0.3299
13874TIP3    H163037   0.237   5.730   5.060 -1.1844 -0.7116 -0.3253
13874TIP3    H263038   0.266   5.871   5.107  0.0248 -1.4690  1.2487
13875TIP3   OH263039   2.021   3.784   1.846 -0.2106  0.0104  0.4461
13875TIP3    H163040   2.021   3.813   1.755  0.9262  1.3022  0.8416
13875TIP3    H263041   1.936   3.813   1.881  0.3163  1.6258  0.4383
13876TIP3   OH263042   6.671   3.217  10.840  0.3766 -0.8981 -0.2195
13876TIP3    H163043   6.743   3.205  10.902  1.3942  1.3593 -0.9098
13876TIP3    H263044   6.669   3.136  10.789  2.4311 -0.9800 -0.1849
13877TIP3   OH263045   3.109   5.841   4.992  0.2528  0.2661  0.3092
13877TIP3    H163046   3.021   5.851   5.029  0.7439  0.7689  1.3709
13877TIP3    H263047   3.166   5.888   5.053  1.1006  1.0890 -1.0881
13878TIP3   OH263048   3.786   2.427  16.401  0.3739 -0.0647 -0.1552
13878TIP3    H163049   3.859   2.366  16.406 -0.8607 -1.4930  1.0395
13878TIP3    H263050   3.745   2.408  16.316 -0.2724 -1.2449  0.4041
13879TIP3   OH263051   0.387   3.681  14.631 -0.1045 -0.6305 -0.2186
13879TIP3    H163052   0.363   3.738  14.703 -1.7782 -0.8145 -0.6208
13879TIP3    H263053   0.459   3.628  14.665 -0.3459 -0.1585  1.0376
13880TIP3   OH263054   1.401   3.546   5.694 -0.1116 -0.7453 -0.3302
13880TIP3    H163055   1.415   3.615   5.629  0.7996  0.4097  1.0595
13880TIP3    H263056   1.339   3.485   5.652 -1.5709  1.3355 -1.2691
13881TIP3   OH263057   5.186   1.902   1.913  0.2923  0.1724 -0.6968
13881TIP3    H163058   5.211   1.837   1.848  0.0445 -1.3332  0.6852
13881TIP3    H263059   5.151   1.975   1.862  0.8012 -0.6662 -2.2750
13882TIP3   OH263060   3.482   6.459  12.869 -0.0401  0.0382 -0.7031
13882TIP3    H163061   3.388   6.438  12.870  0.1333 -0.7364 -0.4094
13882TIP3    H263062   3.492   6.522  12.941 -0.1068 -0.9240  0.1622
13883TIP3   OH263063   6.439   6.483   2.408  0.4386 -0.1008 -0.1130
13883TIP3    H163064   6.509   6.424   2.435 -0.5065 -2.0822 -1.8390
13883TIP3    H263065   6.358   6.433   2.421 -0.4149  0.8875 -1.3828
13884TIP3   OH263066   6.542   4.178  15.869  1.1115 -0.0529  0.2897
13884TIP3    H163067   6.542   4.190  15.964 -2.7894  0.4472  0.3128
13884TIP3    H263068   6.597   4.249  15.836 -0.4002  1.9925  1.9957
13885TIP3   OH263069   5.535   4.065   1.838 -0.0582 -0.5643  0.0376
13885TIP3    H163070   5.504   4.010   1.911  1.7004 -1.3240  0.2205
13885TIP3    H263071   5.514   4.154   1.865  1.1397 -0.7892  1.7722
13886TIP3   OH263072   5.136   6.036   4.210 -0.6282 -0.5134 -0.0456
13886TIP3    H163073   5.211   6.096   4.206 -0.3965 -0.8315 -0.6281
13886TIP3    H263074   5.068   6.079   4.160 -1.0149  0.0189  0.9303
13887TIP3   OH263075   4.333   0.430  12.057 -0.4194 -0.0112 -0.3020
13887TIP3    H163076   4.352   0.506  12.003 -2.8112  1.9121  1.4153
13887TIP3    H263077   4.280   0.373  12.001 -1.4338  1.1717 -0.5615
13888TIP3   OH263078   2.291   5.261  14.458  0.6716  0.0566 -0.1969
13888TIP3    H163079   2.283   5.316  14.380  0.0133 -0.4507 -0.5012
13888TIP3    H263080   2.385   5.245  14.467  0.7760  0.3780 -0.7109
13889TIP3   OH263081   1.269   4.009   1.300  0.0239  0.2220 -0.7886
13889TIP3    H163082   1.307   4.085   1.258  0.2460 -0.6643 -2.2139
13889TIP3    H263083   1.322   3.935   1.271 -0.6656 -0.5884 -0.0503
13890TIP3   OH263084   0.710   1.347  16.038  0.2478  0.3770 -0.4883
13890TIP3    H163085   0.621   1.361  16.071  0.3136  0.9347 -0.5409
13890TIP3    H263086   0.756   1.306  16.111 -0.3023 -0.7895 -0.7826
13891TIP3   OH263087   5.170   6.325  16.102 -0.5177 -0.2800 -0.0082
13891TIP3    H163088   5.082   6.346  16.135 -0.4416 -2.6077  1.8938
13891TIP3    H263089   5.157   6.306  16.009 -1.4472  2.6648 -0.5088
13892TIP3   OH263090   4.064   4.534   0.882 -0.2726 -0.0302  0.3555
13892TIP3    H163091   4.036   4.499   0.797 -2.6174 -0.0438  1.0900
13892TIP3    H263092   4.087   4.625   0.864  0.6459 -0.4303 -0.5550
13893TIP3   OH263093   0.904   4.638  12.358 -0.2142 -0.6370  0.3095
13893TIP3    H163094   0.842   4.565  12.349 -0.4900 -0.4843  0.9789
13893TIP3    H263095   0.968   4.623  12.288 -1.9995  0.2139 -1.5403
13894TIP3   OH263096   1.284   0.729  16.394  0.6047  0.0537  0.0419
13894TIP3    H163097   1.371   0.754  16.424  0.4702  0.3093  0.2222
13894TIP3    H263098   1.282   0.634  16.402  1.2327 -0.0556 -0.9582
13895TIP3   OH263099   1.265   3.921   2.160  0.0599  0.1018  0.2020
13895TIP3    H163100   1.231   3.920   2.249 -0.0798  1.2013  0.1632
13895TIP3    H263101   1.291   3.830   2.143 -0.5868 -0.2533  1.0961
13896TIP3   OH263102   2.616   4.208  11.525  0.0289  0.0024 -0.2485
13896TIP3    H163103   2.700   4.243  11.495  0.5167 -2.5216 -1.9824
13896TIP3    H263104   2.551   4.268  11.487  0.9927  2.3389  1.6167
13897TIP3   OH263105   5.008   0.548  10.961  0.0310  0.2425  0.3201
13897TIP3    H163106   5.103   0.559  10.968  0.2279 -1.5566  0.7461
13897TIP3    H263107   4.989   0.473  11.018 -1.5108 -0.0224 -0.5318
13898TIP3   OH263108   1.017   2.127   3.448  0.1092  0.7131  0.3127
13898TIP3    H163109   1.074   2.204   3.457 -0.6411  1.3850 -0.6124
13898TIP3    H263110   1.078   2.053   3.442  0.8527  1.2800  0.7118
13899TIP3   OH263111   2.641   2.589  11.315 -0.5189  0.3243 -0.2891
13899TIP3    H163112   2.726   2.634  11.316  0.2348 -1.0518  1.2227
13899TIP3    H263113   2.642   2.537  11.235  0.4063 -0.2710  0.0966
13900TIP3   OH263114   3.239   2.161   3.719 -0.0687 -0.2703  0.5280
13900TIP3    H163115   3.157   2.155   3.670  0.3680  0.1440 -0.2746
13900TIP3    H263116   3.235   2.089   3.782 -0.3395 -1.2442 -0.5794
13901TIP3   OH263117   5.222   2.023  10.809 -0.0619 -0.2387 -0.2430
13901TIP3    H163118   5.129   2.028  10.827  0.0758  0.6828  0.2071
13901TIP3    H263119   5.227   2.002  10.715 -0.6988  1.1885 -0.6034
13902TIP3   OH263120   2.400   1.033  17.214  0.2739 -0.2839 -0.1446
13902TIP3    H163121   2.382   1.125  17.234 -0.7239 -0.6859  0.8677
13902TIP3    H263122   2.401   1.029  17.118  1.8200  1.0547 -0.2067
13903TIP3   OH263123   1.245   4.879  16.205 -0.2127 -0.1858  0.4647
13903TIP3    H163124   1.205   4.889  16.118 -0.5547  2.7786  0.9083
13903TIP3    H263125   1.338   4.898  16.190  0.0031 -1.1713  0.5035
13904TIP3   OH263126   4.494   0.432   3.906 -0.3696 -0.2448 -0.2658
13904TIP3    H163127   4.421   0.417   3.846 -0.9709  1.8417 -0.0819
13904TIP3    H263128   4.525   0.520   3.885  1.7984 -0.9286 -0.0123
13905TIP3   OH263129   2.787   3.142  13.933 -0.2117  0.2942 -0.4758
13905TIP3    H163130   2.862   3.106  13.979  0.5975 -0.5455 -2.4306
13905TIP3    H263131   2.813   3.145  13.841 -1.7690  2.0284 -0.9005
13906TIP3   OH263132   5.870   0.715   2.162 -0.3544  0.2629  0.5811
13906TIP3    H163133   5.923   0.788   2.194 -0.6987  0.2044  1.2787
13906TIP3    H263134   5.842   0.668   2.240 -1.9742  0.6649  0.2677
13907TIP3   OH263135   5.947   3.106   4.205  0.4503  0.0451  0.4338
13907TIP3    H163136   5.898   3.084   4.285  0.7499  0.4842  0.7417
13907TIP3    H263137   5.881   3.143   4.146  0.5161  1.2148  1.0773
13908TIP3   OH263138   6.416   4.409  15.470 -0.7864 -0.0711 -0.1661
13908TIP3    H163139   6.391   4.478  15.531 -0.7500 -0.5657  0.4113
13908TIP3    H263140   6.337   4.357  15.457 -0.8930  0.2499 -0.8318
13909TIP3   OH263141   5.461   4.646   0.768 -0.3068 -0.1716 -0.3037
13909TIP3    H163142   5.399   4.672   0.700 -1.4777 -2.3632 -0.1211
13909TIP3    H263143   5.436   4.556   0.791  1.3386 -0.1940  1.5883
13910TIP3   OH263144   3.042   4.686   3.203 -0.7328  0.2991 -0.7895
13910TIP3    H163145   3.098   4.756   3.236 -1.4899  1.3376 -1.6703
13910TIP3    H263146   3.082   4.660   3.120 -0.6171 -0.1177 -0.6063
13911TIP3   OH263147   6.154   5.690   2.094 -0.7030 -0.4774 -0.6114
13911TIP3    H163148   6.107   5.752   2.039 -0.2582  1.3359  1.0219
13911TIP3    H263149   6.230   5.664   2.042 -0.2621  1.2580 -0.8541
13912TIP3   OH263150   5.652   3.367  14.874 -0.1300 -0.4348  0.0447
13912TIP3    H163151   5.591   3.296  14.855  0.7967 -1.3078  0.2854
13912TIP3    H263152   5.613   3.413  14.948 -0.8277 -0.5763 -0.2280
13913TIP3   OH263153   0.181   1.968   0.957 -0.2010  0.1175  0.2239
13913TIP3    H163154   0.254   2.010   0.913  1.4557 -1.9468  0.9100
13913TIP3    H263155   0.151   1.901   0.895 -0.8334  0.2639  0.3678
13914TIP3   OH263156   2.507   4.311   2.617  0.2832  0.2820 -0.1608
13914TIP3    H163157   2.563   4.368   2.564  0.2315  0.5124  0.0305
13914TIP3    H263158   2.563   4.282   2.688  0.1406  0.5778  0.0754
13915TIP3   OH263159   2.772   3.534  13.521 -0.1895  0.7055  0.1070
13915TIP3    H163160   2.790   3.628  13.514  2.3731  0.1753 -0.9425
13915TIP3    H263161   2.769   3.516  13.615  2.5377  1.2782  0.3350
13916TIP3   OH263162   4.161   0.034   0.933 -0.0727  0.0955 -0.6508
13916TIP3    H163163   4.236   0.007   0.880 -1.3923 -1.9418 -1.5614
13916TIP3    H263164   4.098   0.069   0.871 -0.4079  0.5939 -0.0411
13917TIP3   OH263165   0.642   0.927   0.745 -0.1016  0.8199  0.2591
13917TIP3    H163166   0.641   0.873   0.824  0.3111  2.0179  1.1027
13917TIP3    H263167   0.554   0.918   0.709  0.2456 -1.1577 -0.1484
13918TIP3   OH263168   5.053   5.052   0.266 -0.8854 -0.5641  0.3394
13918TIP3    H163169   5.075   5.141   0.236 -0.9566 -0.8632 -0.6427
13918TIP3    H263170   4.960   5.043   0.247 -1.1395 -0.4472  1.5040
13919TIP3   OH263171   0.411   2.944   3.823 -0.0565 -0.1872 -0.3793
13919TIP3    H163172   0.374   2.884   3.888  1.3360 -1.2362 -0.5267
13919TIP3    H263173   0.414   3.029   3.867 -0.5725 -0.5641  0.3882
13920TIP3   OH263174   4.970   3.542   4.132 -0.4520 -0.2157  0.1497
13920TIP3    H163175   4.905   3.473   4.122  0.3950 -1.5368  3.3028
13920TIP3    H263176   4.923   3.613   4.176 -0.5073 -0.0205 -0.2223
13921TIP3   OH263177   3.171   5.692  14.426  0.1382 -0.3168 -0.4431
13921TIP3    H163178   3.256   5.650  14.435  0.5992  0.6721 -0.1162
13921TIP3    H263179   3.130   5.647  14.352  0.6379 -1.2992 -0.1316
13922TIP3   OH263180   0.925   4.145  13.264  0.4276 -0.1335  0.2753
13922TIP3    H163181   0.888   4.060  13.290 -0.1777  0.1902  0.4927
13922TIP3    H263182   0.965   4.179  13.344 -0.3354  0.2970  0.4821
13923TIP3   OH263183   3.655   5.702   5.282  0.2503 -0.3312 -0.2585
13923TIP3    H163184   3.601   5.651   5.342 -0.4479 -0.7501 -1.2323
13923TIP3    H263185   3.600   5.715   5.205  0.8355  0.9237 -0.4724
13924TIP3   OH263186   6.482   1.728  13.640 -0.0924 -0.2459 -0.1101
13924TIP3    H163187   6.507   1.708  13.550 -0.2347 -0.7647 -0.0356
13924TIP3    H263188   6.435   1.811  13.634  0.0636 -0.1861 -0.4901
13925TIP3   OH263189   5.765   1.880  11.341 -0.0151  0.3182  0.0167
13925TIP3    H163190   5.817   1.800  11.342 -1.4249 -0.6236  0.5180
13925TIP3    H263191   5.725   1.882  11.254 -0.2041  0.3249  0.1025
13926TIP3   OH263192   1.007   4.230  11.159 -0.0153  0.0713  0.9932
13926TIP3    H163193   0.942   4.173  11.118  0.7686 -0.5012  0.5211
13926TIP3    H263194   0.963   4.314  11.168 -0.4426  0.0210 -0.4019
13927TIP3   OH263195   0.035   3.866   1.951  0.2230 -0.0236  0.3893
13927TIP3    H163196  -0.036   3.845   2.012  0.3873 -1.7508  0.0019
13927TIP3    H263197   0.103   3.802   1.971  1.2818  0.9919  0.0707
13928TIP3   OH263198   1.039   0.765   5.518 -0.5227  0.1151 -0.2712
13928TIP3    H163199   1.075   0.728   5.438  1.3087  0.0328  0.5710
13928TIP3    H263200   1.051   0.859   5.510  0.8018  0.0132  0.4411
13929TIP3   OH263201   5.829   6.153  17.204  0.1397 -0.0889 -0.0657
13929TIP3    H163202   5.834   6.218  17.274 -1.6136  0.7486 -0.6948
13929TIP3    H263203   5.762   6.091  17.233 -2.5254  1.7079 -2.1237
13930TIP3   OH263204   2.279   4.892   5.118 -0.5099 -0.0257 -0.4437
13930TIP3    H163205   2.186   4.909   5.102 -0.1176 -0.2687 -3.2577
13930TIP3    H263206   2.311   4.855   5.036  2.4942  1.7967 -0.1621
13931TIP3   OH263207   5.053   2.234   3.374  0.1874 -0.2481  0.3639
13931TIP3    H163208   4.958   2.241   3.387  0.0717 -1.9062  0.4618
13931TIP3    H263209   5.078   2.155   3.422  1.4644 -0.3697 -0.4968
13932TIP3   OH263210   6.655   6.502   2.865 -0.0330 -0.1137 -0.1492
13932TIP3    H163211   6.725   6.539   2.811  0.3832 -1.3546 -0.4708
13932TIP3    H263212   6.578   6.556   2.845  0.4749  0.3391 -0.8966
13933TIP3   OH263213   2.667   4.298   1.574 -0.2778 -0.0496 -0.0151
13933TIP3    H163214   2.745   4.288   1.520  0.2963 -1.5845  1.0540
13933TIP3    H263215   2.601   4.245   1.531 -0.4380  0.4222 -0.3549
13934TIP3   OH263216   5.701   6.284   0.690 -0.1907 -0.1942 -0.3414
13934TIP3    H163217   5.630   6.309   0.748  1.5650  1.8868  1.0290
13934TIP3    H263218   5.675   6.317   0.604 -0.7587  0.7966  0.2062
13935TIP3   OH263219   3.446   1.334   0.280 -0.5016  0.1993  0.2228
13935TIP3    H163220   3.396   1.253   0.287 -0.1442 -0.2089 -1.6536
13935TIP3    H263221   3.402   1.383   0.210 -0.5456  1.5023  1.1464
13936TIP3   OH263222   4.352   0.872  14.305  0.3379 -0.0411  0.4442
13936TIP3    H163223   4.381   0.787  14.272  0.3080 -0.8882  2.4840
13936TIP3    H263224   4.432   0.916  14.331  0.4107  0.8560 -1.2584
13937TIP3   OH263225   4.239   2.254   3.151 -0.2034 -0.3493  0.3028
13937TIP3    H163226   4.226   2.267   3.245  0.9435 -0.7244  0.5158
13937TIP3    H263227   4.167   2.303   3.111  0.2931  1.2698  1.3156
13938TIP3   OH263228   0.240   6.083   3.122 -0.5214 -0.1129 -0.2530
13938TIP3    H163229   0.147   6.060   3.117 -0.4182 -0.5140 -0.2731
13938TIP3    H263230   0.248   6.160   3.065 -1.5842  2.2091  2.5348
13939TIP3   OH263231   2.045   2.102   5.911  0.2873  0.2081 -0.9648
13939TIP3    H163232   2.014   2.082   5.823  0.5687  1.4387 -1.3441
13939TIP3    H263233   2.101   2.179   5.901  3.2616 -1.8057 -0.2339
13940TIP3   OH263234   2.267   5.120   1.761  0.2177  0.1436 -0.0749
13940TIP3    H163235   2.194   5.062   1.781 -1.0639  2.3364  1.9303
13940TIP3    H263236   2.247   5.201   1.808  3.0943  1.4101 -0.8844
13941TIP3   OH263237   1.637   4.304  12.885 -0.1315 -0.1217  0.1797
13941TIP3    H163238   1.665   4.213  12.871 -0.4474 -0.1450 -0.3172
13941TIP3    H263239   1.697   4.356  12.831  1.1388  0.1079  1.7940
13942TIP3   OH263240   0.006   3.100  16.900  0.4096 -0.1686 -0.1381
13942TIP3    H163241  -0.031   3.129  16.817 -0.1789  1.5465  0.6987
13942TIP3    H263242   0.084   3.050  16.875  0.8922  1.3150 -1.6900
13943TIP3   OH263243   0.492   6.759  15.223 -0.1688 -0.0032  0.3193
13943TIP3    H163244   0.480   6.704  15.145 -1.9253  0.4934  0.2058
13943TIP3    H263245   0.465   6.846  15.195 -1.5134  0.0377  1.6819
13944TIP3   OH263246   6.443   0.057  12.191 -0.3212  0.4033 -0.3154
13944TIP3    H163247   6.428   0.137  12.141  1.6121  0.9073 -0.0939
13944TIP3    H263248   6.476  -0.006  12.126 -0.5978  0.1647 -0.2287
13945TIP3   OH263249   0.783   0.478  14.933 -0.2559  0.4043  0.7014
13945TIP3    H163250   0.717   0.409  14.935  0.0827  0.0547  0.1096
13945TIP3    H263251   0.746   0.545  14.875 -0.7460  0.8900  1.5726
13946TIP3   OH263252   1.200   6.465  15.426  0.1205 -0.1278  0.3582
13946TIP3    H163253   1.120   6.469  15.480 -1.0350 -1.5730 -1.1943
13946TIP3    H263254   1.170   6.485  15.338  1.6513  0.2263 -0.0854
13947TIP3   OH263255   6.050   0.774  12.716 -0.3226  0.1762  0.0903
13947TIP3    H163256   6.037   0.681  12.739 -1.7378  0.0467 -1.2025
13947TIP3    H263257   5.966   0.815  12.735 -1.0816  0.3585 -3.3527
13948TIP3   OH263258   6.777   4.264  13.988  0.2264  0.0944  0.9769
13948TIP3    H163259   6.829   4.279  14.067 -0.0506  2.1704  0.7754
13948TIP3    H263260   6.686   4.260  14.019  0.3236 -1.8160  1.0975
13949TIP3   OH263261   1.576   1.817   1.163 -0.1345 -0.4212  0.0986
13949TIP3    H163262   1.499   1.765   1.185 -0.5117 -0.6825 -1.7552
13949TIP3    H263263   1.648   1.772   1.206 -0.6986 -1.4886 -0.0437
13950TIP3   OH263264   3.427   2.570  15.410 -0.6534 -1.1238  0.3880
13950TIP3    H163265   3.418   2.587  15.503 -1.1296 -1.1837  0.3546
13950TIP3    H263266   3.340   2.541  15.382 -0.5618 -0.9413 -0.1051
13951TIP3   OH263267   5.274   4.590  16.332 -0.0264  0.0298 -0.3624
13951TIP3    H163268   5.303   4.673  16.294 -1.3335  0.0955 -1.2222
13951TIP3    H263269   5.180   4.602  16.347  0.0833 -0.7367  0.9721
13952TIP3   OH263270   3.585   6.368  11.918 -0.3541  0.3446 -0.2343
13952TIP3    H163271   3.525   6.346  11.847 -0.7080 -2.7217  0.9467
13952TIP3    H263272   3.656   6.303  11.910 -0.1569  0.2791  1.8945
13953TIP3   OH263273   4.829   5.876   0.140 -0.1240  0.2518 -0.4473
13953TIP3    H163274   4.806   5.857   0.049 -0.8230  0.4064 -0.3049
13953TIP3    H263275   4.752   5.921   0.175 -0.0483 -0.2471  0.3664
13954TIP3   OH263276   2.346   4.174   1.156  0.3928  0.2560 -0.4562
13954TIP3    H163277   2.315   4.116   1.087  1.9444 -1.7508  0.4719
13954TIP3    H263278   2.436   4.196   1.131 -0.9555  4.3499 -2.0727
13955TIP3   OH263279   0.850   5.410   2.795  0.0758 -0.0242  0.2755
13955TIP3    H163280   0.762   5.390   2.763  0.3510  0.3572 -0.7245
13955TIP3    H263281   0.895   5.326   2.795  0.6041  0.2370 -1.9980
13956TIP3   OH263282   5.719   6.143   4.608 -0.8141  0.0471 -0.2459
13956TIP3    H163283   5.740   6.229   4.645 -1.9477 -0.2365  1.0816
13956TIP3    H263284   5.639   6.158   4.558 -1.1028 -0.2788  0.1241
13957TIP3   OH263285   2.655   1.967   1.764 -0.2157  0.1943 -0.2450
13957TIP3    H163286   2.709   1.938   1.691 -1.8858  2.1234 -2.2983
13957TIP3    H263287   2.699   2.046   1.796 -0.3193  0.2035 -0.1242
13958TIP3   OH263288   2.811   5.178  14.900  0.1928 -0.4943 -0.2124
13958TIP3    H163289   2.814   5.265  14.860  0.5167 -1.1738 -1.6942
13958TIP3    H263290   2.762   5.190  14.981  1.6711  1.4001  0.4319
13959TIP3   OH263291   3.761   2.924   3.940  0.4022 -0.1176 -1.0737
13959TIP3    H163292   3.697   2.958   3.878 -1.6586 -2.3335 -0.2160
13959TIP3    H263293   3.716   2.926   4.025  1.8434 -0.6814 -0.2686
13960TIP3   OH263294   2.232   0.221   0.978  0.0514 -0.6971 -0.2268
13960TIP3    H163295   2.285   0.271   0.916 -1.8610 -0.3317 -1.6489
13960TIP3    H263296   2.291   0.157   1.016  1.7223  0.3607 -1.0077
13961TIP3   OH263297   1.981   1.859   2.454 -0.3277 -0.3362 -0.3572
13961TIP3    H163298   2.074   1.839   2.439  0.1058 -0.2213  1.9916
13961TIP3    H263299   1.952   1.900   2.373  1.6880 -0.3279 -1.1088
13962TIP3   OH263300   6.454   5.853   5.430 -0.2230 -0.3973 -0.0453
13962TIP3    H163301   6.447   5.886   5.520 -2.8613  1.5647 -0.8802
13962TIP3    H263302   6.546   5.832   5.419  0.1645 -0.6239  3.1010
13963TIP3   OH263303   3.986   5.846  16.682  0.5389  0.6942  0.1505
13963TIP3    H163304   4.067   5.876  16.723  0.5850  0.2168  0.4170
13963TIP3    H263305   4.013   5.816  16.595  0.3253  2.3883 -0.5157
13964TIP3   OH263306   3.775   6.406  12.375  0.0864  0.1339 -0.8523
13964TIP3    H163307   3.830   6.443  12.305  0.8929  0.8758  0.1533
13964TIP3    H263308   3.696   6.460  12.374 -0.0818 -0.1179 -1.4598
13965TIP3   OH263309   6.038   5.725   6.318  0.5238 -0.1316  0.1505
13965TIP3    H163310   6.102   5.673   6.268 -0.4375 -1.9368  0.7525
13965TIP3    H263311   5.954   5.682   6.300 -0.0967  0.3819  1.7738
13966TIP3   OH263312   1.329   1.094   1.627  0.1002 -0.2420 -0.1549
13966TIP3    H163313   1.396   1.119   1.690 -0.5336  2.4775 -0.4894
13966TIP3    H263314   1.250   1.082   1.679 -0.3817  1.8377 -0.3254
13967TIP3   OH263315   4.486   5.796   5.241 -0.1042  0.5023 -0.0126
13967TIP3    H163316   4.496   5.820   5.149 -1.5435 -0.4903 -0.4477
13967TIP3    H263317   4.441   5.712   5.239  2.3833 -0.9171  1.5530
13968TIP3   OH263318   3.208   5.165  11.859  0.1200  0.4137  0.3881
13968TIP3    H163319   3.163   5.084  11.881 -2.1508  1.0217 -1.7996
13968TIP3    H263320   3.293   5.137  11.825 -0.8300 -1.1055 -0.8026
13969TIP3   OH263321   5.164   0.934  16.055  0.2437 -0.1166 -0.5223
13969TIP3    H163322   5.110   1.002  16.016 -1.6019  0.2040  2.3725
13969TIP3    H263323   5.235   0.981  16.100  1.0599 -0.3403 -1.5635
13970TIP3   OH263324   0.436   4.563   1.752  0.1827  0.1644  0.5692
13970TIP3    H163325   0.526   4.596   1.757  0.0139  0.6069  0.6743
13970TIP3    H263326   0.382   4.637   1.779 -0.0814 -0.9085  3.1322
13971TIP3   OH263327   1.571   5.780   6.189 -0.4479 -0.5951 -0.4108
13971TIP3    H163328   1.638   5.826   6.138 -1.0175  2.1493  1.1787
13971TIP3    H263329   1.609   5.773   6.277 -2.8432  2.5973  0.9784
13972TIP3   OH263330   2.201   4.254   3.055  0.1227 -0.3141  0.5588
13972TIP3    H163331   2.206   4.166   3.093 -1.3051 -1.3072 -1.4551
13972TIP3    H263332   2.162   4.241   2.968 -0.6290  2.3714  0.4336
13973TIP3   OH263333   5.165   0.665  11.632  0.2277 -0.2699  0.5137
13973TIP3    H163334   5.104   0.699  11.698 -0.0434 -0.4794  0.3702
13973TIP3    H263335   5.239   0.632  11.683  0.4501  0.4546  0.6586
13974TIP3   OH263336   3.802   6.567  11.973 -0.1231 -0.0422  0.0641
13974TIP3    H163337   3.756   6.496  11.929 -0.7602 -0.1824  0.9337
13974TIP3    H263338   3.740   6.640  11.972  0.6731  0.6254 -1.1601
13975TIP3   OH263339   3.618   3.865  11.163 -0.2159 -0.2250 -0.6928
13975TIP3    H163340   3.602   3.958  11.145 -1.1180 -0.0457  0.9409
13975TIP3    H263341   3.708   3.862  11.194 -0.7766  0.3937  1.0648
13976TIP3   OH263342   6.683   6.657  16.311 -0.4323 -0.1427  0.3130
13976TIP3    H163343   6.599   6.629  16.276 -0.4623 -0.9706  1.0484
13976TIP3    H263344   6.745   6.590  16.282  0.2244  1.1028 -1.2925
13977TIP3   OH263345   3.947   1.945  11.607 -0.4464  0.7299 -0.1422
13977TIP3    H163346   3.903   1.879  11.661  0.9347 -1.3254 -1.4681
13977TIP3    H263347   3.997   1.998  11.669 -0.2115 -0.5455  0.7611
13978TIP3   OH263348   6.052   5.803   2.449  0.8690 -0.4429  0.2632
13978TIP3    H163349   5.979   5.806   2.387  1.0293  0.6208  0.1323
13978TIP3    H263350   6.093   5.718   2.433  0.6124 -0.3824 -0.7471
13979TIP3   OH263351   2.000   0.085  12.806 -0.3504 -0.1450 -0.2381
13979TIP3    H163352   2.088   0.053  12.827 -0.3962  0.1901  0.4719
13979TIP3    H263353   1.998   0.175  12.839 -1.2071 -0.4016  0.4246
13980TIP3   OH263354   5.982   0.279  16.348 -0.1818  0.1160 -0.1948
13980TIP3    H163355   5.913   0.214  16.360  0.6541 -0.9086 -0.8672
13980TIP3    H263356   5.946   0.341  16.285 -0.4621 -0.4719 -0.6176
13981TIP3   OH263357   4.048   0.403   2.954 -0.4079 -0.1334 -0.2739
13981TIP3    H163358   3.956   0.380   2.965 -0.3333 -0.0756  0.5090
13981TIP3    H263359   4.096   0.328   2.990 -0.1569  0.4500  0.6175
13982TIP3   OH263360   0.663   4.210  14.908 -0.5576  0.2847 -0.2006
13982TIP3    H163361   0.641   4.303  14.920  1.3007  1.1000 -2.7785
13982TIP3    H263362   0.725   4.209  14.835 -0.2646 -2.9721  0.0276
13983TIP3   OH263363   0.570   2.290   1.701 -0.0583 -0.5677 -0.1337
13983TIP3    H163364   0.531   2.378   1.702 -0.5224 -0.7735  1.2589
13983TIP3    H263365   0.538   2.249   1.782  4.0990 -0.2725  1.7729
13984TIP3   OH263366   1.523   2.604  16.540 -0.4682 -0.4747  0.2579
13984TIP3    H163367   1.486   2.665  16.476  0.7835 -1.8344 -1.8226
13984TIP3    H263368   1.549   2.659  16.614 -1.1139  1.2633 -0.7861
13985TIP3   OH263369   2.091   4.662   2.079  0.1852  0.2062 -0.4510
13985TIP3    H163370   2.089   4.606   2.001  0.1997 -1.3161  0.6200
13985TIP3    H263371   2.000   4.665   2.108  0.3543 -0.2350  0.1526
13986TIP3   OH263372   6.374   0.765  16.592 -0.1626 -0.8433  0.1442
13986TIP3    H163373   6.362   0.840  16.650 -3.9064 -1.8269  0.7447
13986TIP3    H263374   6.434   0.797  16.524  1.3515  1.4648  2.4614
13987TIP3   OH263375   4.897   1.162   3.483 -0.3779 -0.5395 -0.2443
13987TIP3    H163376   4.846   1.212   3.419 -0.8053 -1.0878 -0.3386
13987TIP3    H263377   4.857   1.182   3.567 -0.9378 -1.1885 -0.3491
13988TIP3   OH263378   6.172   3.234   2.688 -0.0171  0.3749  0.0042
13988TIP3    H163379   6.166   3.326   2.714  0.5112 -0.2260  2.4309
13988TIP3    H263380   6.120   3.188   2.754  0.8174 -1.1754 -0.4015
13989TIP3   OH263381   1.774   0.155  13.362  0.8318 -0.2248  0.3321
13989TIP3    H163382   1.764   0.063  13.389 -2.4556  0.2639  1.0193
13989TIP3    H263383   1.798   0.201  13.443  0.0277 -0.1155  0.5097
13990TIP3   OH263384   5.403   2.986  14.344  0.5277  0.1988  0.2423
13990TIP3    H163385   5.369   3.036  14.270  0.9809  1.3585  0.7952
13990TIP3    H263386   5.405   3.049  14.416  0.3678 -0.8431  1.1624
13991TIP3   OH263387   1.118   4.101  15.462  0.0865  0.4118 -0.1128
13991TIP3    H163388   1.141   4.071  15.550 -0.5151 -0.7360 -0.3460
13991TIP3    H263389   1.033   4.145  15.472 -0.0143  0.2217 -0.1294
13992TIP3   OH263390   0.781   5.522  13.439  0.1901  0.0466  1.1532
13992TIP3    H163391   0.782   5.470  13.519  0.6273 -2.6763 -0.5782
13992TIP3    H263392   0.695   5.505  13.400  0.5691  0.1546  0.2605
13993TIP3   OH263393   4.913   5.616  11.585 -0.0342 -0.3827  0.3289
13993TIP3    H163394   4.976   5.657  11.645 -2.2060  1.1905  1.6285
13993TIP3    H263395   4.866   5.553  11.640  1.3075 -2.5840 -0.9751
13994TIP3   OH263396   0.540   1.347  17.017  0.4728 -0.6988 -0.1440
13994TIP3    H163397   0.446   1.338  17.029  0.3879  0.9356  0.6229
13994TIP3    H263398   0.549   1.406  16.943  0.8523  0.3026  0.6772
13995TIP3   OH263399   6.711   4.007   4.844  0.7371 -0.1353 -0.1281
13995TIP3    H163400   6.730   3.924   4.888  0.8213  0.7143  1.5125
13995TIP3    H263401   6.737   3.994   4.753  0.3326 -2.0425  0.0215
13996TIP3   OH263402   4.021   5.455   2.615 -0.2814 -0.4422 -0.6254
13996TIP3    H163403   3.970   5.378   2.589  0.0941 -1.0550  0.4004
13996TIP3    H263404   4.064   5.428   2.696 -0.1513  0.8584 -0.2563
13997TIP3   OH263405   4.014   4.293  15.118 -0.2635  0.8988 -0.1840
13997TIP3    H163406   4.008   4.346  15.198  0.5274 -0.6142  0.9080
13997TIP3    H263407   4.103   4.307  15.086 -0.1748  0.5325 -0.1027
13998TIP3   OH263408   2.498   1.446  11.379  0.7051 -0.8531  0.1795
13998TIP3    H163409   2.449   1.471  11.457  0.5224 -0.3103 -0.1052
13998TIP3    H263410   2.448   1.373  11.342  0.8978 -1.2355  0.6733
13999TIP3   OH263411   1.997   3.278  16.739 -0.7633 -0.4914 -0.2114
13999TIP3    H163412   1.936   3.323  16.681 -2.0402 -1.0951  0.6453
13999TIP3    H263413   1.998   3.188  16.707 -1.6497 -0.8795  0.8215
14000TIP3   OH263414   3.265   5.945  13.624 -0.0899  0.5441 -0.4274
14000TIP3    H163415   3.320   5.994  13.685  0.3368 -0.6661  0.1904
14000TIP3    H263416   3.283   5.984  13.539  0.3228  1.3771  0.0329
14001TIP3   OH263417   1.328   2.668  11.694  0.0913  0.4278 -0.2099
14001TIP3    H163418   1.376   2.746  11.666  0.1612  0.1288 -0.9243
14001TIP3    H263419   1.345   2.603  11.626 -0.5595  0.0208  0.0085
14002TIP3   OH263420   5.377   2.938  13.333  0.5491  0.2853 -0.1502
14002TIP3    H163421   5.399   2.955  13.424  2.3594  2.2102 -0.9064
14002TIP3    H263422   5.290   2.898  13.336  0.6472  0.2067  2.4097
14003TIP3   OH263423   3.753   5.002  15.119 -0.0318  0.0367  0.3461
14003TIP3    H163424   3.814   5.075  15.134 -1.1644  1.6195 -2.4123
14003TIP3    H263425   3.781   4.963  15.036  0.1763 -2.3247  1.4788
14004TIP3   OH263426   2.997   3.559   1.222  0.5678 -0.2679  0.0323
14004TIP3    H163427   3.074   3.503   1.222  1.5718  1.0647 -0.6182
14004TIP3    H263428   3.013   3.622   1.293 -1.1291 -1.5648  1.5942
14005TIP3   OH263429   4.102   3.429  13.683  0.0152  0.6933  0.2176
14005TIP3    H163430   4.132   3.515  13.712 -0.3387  1.2338 -1.0103
14005TIP3    H263431   4.007   3.433  13.692  0.0218  0.3058  0.4785
14006TIP3   OH263432   0.459   3.005   1.355  0.2408 -0.3857  0.2194
14006TIP3    H163433   0.398   2.984   1.284 -0.2517 -2.4333  1.2134
14006TIP3    H263434   0.544   3.015   1.311 -0.1834 -0.9296 -0.7461
14007TIP3   OH263435   4.036   4.895  14.214 -0.4817  0.1081  0.3057
14007TIP3    H163436   3.951   4.870  14.251 -0.7712  1.3098  0.4598
14007TIP3    H263437   4.065   4.968  14.268  0.3082  0.1783 -0.2166
14008TIP3   OH263438   5.231   1.106   5.105 -0.5669 -0.0371 -0.6180
14008TIP3    H163439   5.326   1.115   5.101 -0.5624  0.6309  0.6089
14008TIP3    H263440   5.209   1.042   5.037  0.9771 -1.8614  0.5547
14009TIP3   OH263441   0.851   2.899  15.062  0.5035 -0.3728 -0.4040
14009TIP3    H163442   0.777   2.868  15.116  0.2671 -0.7245 -0.9274
14009TIP3    H263443   0.923   2.906  15.124  0.1186 -0.3588  0.0520
14010TIP3   OH263444   1.533   6.048   4.074 -0.2758  0.2816 -0.5103
14010TIP3    H163445   1.556   5.959   4.047  1.4903  0.3928  0.5050
14010TIP3    H263446   1.613   6.099   4.058 -0.7830  1.3649  0.3364
14011TIP3   OH263447   0.780   6.459   2.693 -0.0540 -0.5962  0.3479
14011TIP3    H163448   0.786   6.417   2.607  0.6421 -0.6947  0.4445
14011TIP3    H263449   0.851   6.420   2.744  0.0923  0.1090  0.6909
14012TIP3   OH263450   4.980   5.992  12.312  0.0282 -0.5608 -0.3425
14012TIP3    H163451   4.922   6.067  12.319  1.0772  0.0635  2.8944
14012TIP3    H263452   4.929   5.925  12.267 -2.2311  0.8838  0.0314
14013TIP3   OH263453   2.546   2.421   3.809 -0.2761 -0.0198 -0.5291
14013TIP3    H163454   2.522   2.346   3.862 -1.0321 -0.0026 -0.8387
14013TIP3    H263455   2.464   2.448   3.767 -0.0014  0.9459 -0.4518
14014TIP3   OH263456   2.435   6.429   3.335  0.0227  0.5440 -0.1463
14014TIP3    H163457   2.444   6.414   3.241 -2.0616 -1.2650 -0.1041
14014TIP3    H263458   2.359   6.487   3.343 -0.3172  0.0326  0.4425
14015TIP3   OH263459   4.116   2.139   0.655 -0.1911  0.4662  0.0358
14015TIP3    H163460   4.023   2.161   0.647  0.1252  1.9917  0.2917
14015TIP3    H263461   4.143   2.183   0.736  0.8599  0.4408 -0.3052
14016TIP3   OH263462   4.394   0.432  17.111 -0.7091  0.0698  0.2193
14016TIP3    H163463   4.429   0.394  17.191 -0.4517  0.0363  0.0925
14016TIP3    H263464   4.300   0.415  17.115 -0.2296 -3.2687 -1.2916
14017TIP3   OH263465   4.724   2.296   2.280  0.1339 -0.4294  0.5532
14017TIP3    H163466   4.695   2.277   2.369 -3.4416 -1.7280 -0.7761
14017TIP3    H263467   4.797   2.236   2.265 -0.1181 -1.1601  2.1583
14018TIP3   OH263468   4.636   3.844  12.751 -0.1682 -0.2618  0.1870
14018TIP3    H163469   4.564   3.860  12.690  0.0468  1.0579  0.2793
14018TIP3    H263470   4.656   3.930  12.788  0.5108 -0.8588  1.2186
14019TIP3   OH263471   2.669   1.409   0.464 -0.0446  0.5191  0.1254
14019TIP3    H163472   2.624   1.410   0.380 -0.3589  0.4919  0.2914
14019TIP3    H263473   2.759   1.434   0.444  0.5846 -2.1966 -0.6163
14020TIP3   OH263474   4.149   2.812   4.652 -0.6233  0.4595  0.2046
14020TIP3    H163475   4.212   2.746   4.625 -0.4643  0.1962  1.1760
14020TIP3    H263476   4.203   2.883   4.688 -0.9105 -0.3588  2.3227
14021TIP3   OH263477   3.705   6.763  15.824  0.5241 -0.5512  0.5367
14021TIP3    H163478   3.660   6.847  15.813  0.7672 -0.1520  2.3735
14021TIP3    H263479   3.649   6.714  15.885  0.2695 -1.8225 -0.6923
14022TIP3   OH263480   6.070   0.499  13.696 -0.5414 -0.2526 -0.1599
14022TIP3    H163481   6.014   0.566  13.657 -1.6836 -0.6513  0.7556
14022TIP3    H263482   6.026   0.417  13.676 -0.7283 -0.5119  1.2607
14023TIP3   OH263483   6.686   6.133  15.286  0.5213  0.6483  0.3266
14023TIP3    H163484   6.697   6.193  15.360 -1.1468 -2.2068  3.0126
14023TIP3    H263485   6.746   6.060  15.305  1.9984  1.0653 -2.5019
14024TIP3   OH263486   0.594   5.141   1.345 -0.4063  0.2771  0.1979
14024TIP3    H163487   0.537   5.169   1.274 -0.3545  0.4865  0.2382
14024TIP3    H263488   0.535   5.126   1.419 -0.6337 -1.4134 -0.3240
14025TIP3   OH263489   4.987   3.820   5.985 -0.2178  0.2330 -0.1202
14025TIP3    H163490   5.020   3.765   5.914  0.6496  0.8040 -0.1649
14025TIP3    H263491   4.992   3.764   6.063 -1.6481 -0.5631 -0.5856
14026TIP3   OH263492   5.405   2.178  12.780 -0.3282 -0.0173  0.4026
14026TIP3    H163493   5.418   2.106  12.843  3.1798  0.4198  0.3086
14026TIP3    H263494   5.444   2.146  12.699 -0.1738  1.3640 -0.0832
14027TIP3   OH263495   3.377   0.146  13.162  0.0677 -0.6721  0.1876
14027TIP3    H163496   3.434   0.184  13.095  0.4967 -1.2306  0.2289
14027TIP3    H263497   3.289   0.177  13.140  0.4626  0.6724  0.4614
14028TIP3   OH263498   5.929   5.530   4.618  0.2792  0.7610  0.0152
14028TIP3    H163499   5.913   5.579   4.699  0.6850  2.2360 -0.7757
14028TIP3    H263500   5.846   5.535   4.570  0.0129 -0.1823  0.3534
14029TIP3   OH263501   6.681   0.326   6.396 -0.6685  0.0887  0.0494
14029TIP3    H163502   6.701   0.386   6.324  0.9330 -0.8708 -0.3270
14029TIP3    H263503   6.601   0.282   6.369 -0.0166 -0.3449 -1.2183
14030TIP3   OH263504   4.978   4.063  11.543  0.2593  0.6778  0.5035
14030TIP3    H163505   4.904   4.118  11.568  0.5978  0.9033  1.0019
14030TIP3    H263506   5.054   4.121  11.549  0.2728  0.9240 -1.6430
14031TIP3   OH263507   3.385   2.940  15.070  0.8800  0.2234  0.2977
14031TIP3    H163508   3.447   2.951  15.141  0.4659  0.2561  0.6548
14031TIP3    H263509   3.437   2.904  14.998  0.9485 -1.5186  1.1843
14032TIP3   OH263510   6.181   1.425  13.174 -0.2860  0.4147  0.3056
14032TIP3    H163511   6.203   1.347  13.122 -0.5126  1.2710 -1.0978
14032TIP3    H263512   6.086   1.420  13.185 -0.5856  1.5874 -1.6014
14033TIP3   OH263513   4.090   3.072  16.743  0.0847  0.6068  1.0187
14033TIP3    H163514   4.177   3.040  16.764  0.5420 -0.7072 -2.5472
14033TIP3    H263515   4.054   3.007  16.683 -2.5024  2.2308  0.7214
14034TIP3   OH263516   1.868   3.470   0.809  0.2899  0.1409 -0.2555
14034TIP3    H163517   1.922   3.547   0.794 -0.2858  0.8214  1.0952
14034TIP3    H263518   1.787   3.504   0.845  0.4136 -1.1793  1.3132
14035TIP3   OH263519   2.386   5.352   4.783  0.3448  0.3737  0.1415
14035TIP3    H163520   2.394   5.340   4.688  3.4092  0.4740  0.3108
14035TIP3    H263521   2.466   5.314   4.818 -1.7263 -1.5736  2.9295
14036TIP3   OH263522   3.599   5.683   1.507 -0.1990 -0.1732  0.3359
14036TIP3    H163523   3.653   5.623   1.558 -1.1582 -1.5674 -0.2449
14036TIP3    H263524   3.517   5.636   1.494 -1.1421  1.4442  0.2272
14037TIP3   OH263525   1.159   4.753   3.380 -0.3813 -0.5604 -0.3408
14037TIP3    H163526   1.063   4.762   3.374 -0.5137  0.1086  2.2544
14037TIP3    H263527   1.191   4.843   3.383  0.1440 -0.7882  1.1697
14038TIP3   OH263528   4.120   2.614   5.924  0.5128 -0.5594 -0.8901
14038TIP3    H163529   4.091   2.557   5.995 -0.1690 -0.0043 -0.7188
14038TIP3    H263530   4.199   2.572   5.890  0.7270 -0.9292  0.0587
14039TIP3   OH263531   6.509   2.673   5.771  0.1105  0.0250 -0.0952
14039TIP3    H163532   6.445   2.734   5.808 -0.9642 -1.3629  0.3555
14039TIP3    H263533   6.586   2.728   5.752 -2.2425  2.3341 -3.4878
14040TIP3   OH263534   1.542   6.242   1.340  0.1451 -0.1174 -0.1591
14040TIP3    H163535   1.489   6.213   1.265 -0.7003  0.9149  0.0309
14040TIP3    H263536   1.565   6.332   1.319 -0.0754  0.1676  0.8142
14041TIP3   OH263537   6.233   2.121  16.970  0.1539 -0.2841 -0.3594
14041TIP3    H163538   6.289   2.057  17.013 -0.8594 -0.9421  0.0095
14041TIP3    H263539   6.241   2.200  17.023 -1.8720 -1.3868  1.6917
14042TIP3   OH263540   2.325   0.875  16.656 -0.3471 -0.1972 -1.0019
14042TIP3    H163541   2.299   0.797  16.605  0.3057 -0.6185 -0.6903
14042TIP3    H263542   2.401   0.847  16.705 -0.3168  0.5487 -0.6202
14043TIP3   OH263543   5.782   1.355  16.231  0.1127 -0.4789  0.4163
14043TIP3    H163544   5.787   1.285  16.295  4.3876 -0.5079  0.2177
14043TIP3    H263545   5.818   1.432  16.276 -0.5733  0.5112 -0.6673
14044TIP3   OH263546   2.170   5.977   2.747  0.5385 -0.1092  0.3042
14044TIP3    H163547   2.173   5.912   2.676  2.1213 -0.3163  0.5291
14044TIP3    H263548   2.231   6.045   2.720 -1.4932  1.5393 -0.1500
14045TIP3   OH263549   1.746   1.002  12.585  0.1856 -0.0645 -0.2386
14045TIP3    H163550   1.763   0.909  12.572  0.4293 -0.3820  2.1755
14045TIP3    H263551   1.832   1.041  12.598 -0.0529  0.1845  0.6359
14046TIP3   OH263552   5.583   6.785   5.203 -0.2405 -0.2098  0.2188
14046TIP3    H163553   5.519   6.856   5.196 -0.7829 -0.6902  0.2944
14046TIP3    H263554   5.634   6.791   5.123 -0.6170 -0.0574 -0.0091
14047TIP3   OH263555   0.785   4.530   5.722 -0.8107  0.3434  0.3453
14047TIP3    H163556   0.732   4.609   5.736  0.4684  1.5317 -1.2465
14047TIP3    H263557   0.872   4.563   5.701  0.8240 -1.6119  3.6857
14048TIP3   OH263558   2.248   6.384  17.153 -0.2667 -0.1662 -0.3058
14048TIP3    H163559   2.254   6.316  17.086  2.0406 -0.5729  0.2714
14048TIP3    H263560   2.320   6.444  17.133 -0.4582  0.4935  0.9368
14049TIP3   OH263561   0.242   3.645  15.800  0.5044  0.0504  0.1867
14049TIP3    H163562   0.157   3.685  15.782  0.0063 -2.2219 -2.8626
14049TIP3    H263563   0.303   3.690  15.742  0.5578 -1.2943 -0.8184
14050TIP3   OH263564   3.077   3.420   4.007 -0.0143 -0.6988 -0.4580
14050TIP3    H163565   3.047   3.461   3.926 -0.7403 -2.0346 -0.8856
14050TIP3    H263566   3.011   3.353   4.025  0.2294 -0.5167  1.1545
14051TIP3   OH263567   6.756   4.260  14.876  0.1351  0.6339  0.2342
14051TIP3    H163568   6.706   4.198  14.823  1.5507  0.0698 -0.4507
14051TIP3    H263569   6.824   4.206  14.918  0.4859  1.4835  0.7672
14052TIP3   OH263570   0.154   5.543  17.078 -0.2129 -0.2698 -0.1092
14052TIP3    H163571   0.170   5.625  17.031 -0.5848 -0.2068 -0.1289
14052TIP3    H263572   0.067   5.554  17.116 -0.5283 -0.9104 -0.6440
14053TIP3   OH263573   3.662   1.217  13.589 -0.0899  0.1213 -0.1657
14053TIP3    H163574   3.636   1.167  13.666 -0.5506  0.8243  0.1461
14053TIP3    H263575   3.709   1.293  13.625  0.7921 -0.1888 -0.6386
14054TIP3   OH263576   4.279   6.383  14.379  0.5617 -0.9133 -0.1948
14054TIP3    H163577   4.213   6.342  14.324  1.4844 -0.3448 -1.7416
14054TIP3    H263578   4.274   6.476  14.359  1.2527 -0.7622  0.3017
14055TIP3   OH263579   3.218   1.306  16.803  0.6938 -0.6048 -0.0068
14055TIP3    H163580   3.268   1.349  16.733  1.1817  1.1079  1.3517
14055TIP3    H263581   3.275   1.235  16.833  0.9646 -0.6354 -0.5977
14056TIP3   OH263582   0.212   1.701   3.914  0.3261  0.0690  0.2812
14056TIP3    H163583   0.293   1.684   3.866 -0.0131 -0.0528 -0.2575
14056TIP3    H263584   0.240   1.726   4.002  0.8906 -1.4677  0.5431
14057TIP3   OH263585   3.916   3.640   6.034  0.6462  0.0270 -0.1427
14057TIP3    H163586   3.966   3.706   5.985  0.5593 -0.7099 -1.2480
14057TIP3    H263587   3.832   3.682   6.052  0.2668 -0.0614 -1.5919
14058TIP3   OH263588   0.631   4.497  12.531 -0.0728 -0.4631  0.0661
14058TIP3    H163589   0.652   4.404  12.540 -3.8075 -1.3925 -0.3506
14058TIP3    H263590   0.632   4.513  12.437 -0.5531 -0.3537  0.0788
14059TIP3   OH263591   6.166   4.205  12.550  0.0750 -0.0465 -0.1807
14059TIP3    H163592   6.122   4.272  12.497  1.1172  0.1965 -0.7518
14059TIP3    H263593   6.095   4.159  12.594 -0.5680  3.0411  2.1809
14060TIP3   OH263594   6.094   6.679  12.455  0.3480  0.3178  0.0541
14060TIP3    H163595   6.095   6.730  12.374 -1.8660 -1.7865 -1.3806
14060TIP3    H263596   6.005   6.687  12.488  1.1011  0.7661  2.0732
14061TIP3   OH263597   2.362   1.092   3.964 -0.2716  0.4349  0.3102
14061TIP3    H163598   2.372   1.091   3.869  0.1535  0.0798  0.3588
14061TIP3    H263599   2.390   1.005   3.993 -1.3726  0.1893  0.6640
14062TIP3   OH263600   5.493   5.548  15.312 -0.6504  0.1464  0.1835
14062TIP3    H163601   5.472   5.520  15.222 -0.6167 -1.3583  0.6274
14062TIP3    H263602   5.409   5.581  15.346 -0.9325 -0.3647 -0.0085
14063TIP3   OH263603   1.651   6.379  12.486 -0.1309  0.3432  0.7578
14063TIP3    H163604   1.645   6.466  12.446  0.3481  0.3626  0.7214
14063TIP3    H263605   1.629   6.394  12.578 -0.5319  0.4185  0.6527
14064TIP3   OH263606   4.458   2.173   6.767  0.6436  0.0352 -0.2287
14064TIP3    H163607   4.366   2.154   6.785  0.8896 -0.3947  0.5831
14064TIP3    H263608   4.463   2.268   6.762  0.3282  0.0957  0.6491
14065TIP3   OH263609   3.838   3.931   2.114 -0.0382 -0.6142 -0.2291
14065TIP3    H163610   3.893   3.856   2.090 -0.3056 -0.1278 -2.5079
14065TIP3    H263611   3.856   3.996   2.045 -0.9362  0.8315  0.8834
14066TIP3   OH263612   4.887   4.363  13.225  0.0071 -0.1745  0.1723
14066TIP3    H163613   4.820   4.330  13.285  1.1070 -2.7239  0.0721
14066TIP3    H263614   4.924   4.439  13.270 -1.6869  0.1770  1.0346
14067TIP3   OH263615   5.200   2.330  16.972  0.5929  0.4213 -0.2642
14067TIP3    H163616   5.159   2.417  16.969  0.2162  0.3062  1.2355
14067TIP3    H263617   5.236   2.323  17.060  1.0865 -0.7391 -0.5485
14068TIP3   OH263618   4.062   4.516  16.268 -0.7875 -0.1901 -0.3408
14068TIP3    H163619   4.109   4.597  16.288  0.9487 -0.8896 -1.4498
14068TIP3    H263620   4.033   4.483  16.353 -1.9477  1.8238  0.0828
14069TIP3   OH263621   1.546   1.166  16.373  0.1760 -0.1291  0.5742
14069TIP3    H163622   1.478   1.206  16.318  0.3570 -0.2947  0.2305
14069TIP3    H263623   1.588   1.240  16.416  0.9563  0.1178 -0.5752
14070TIP3   OH263624   1.441   3.473   3.252  0.1595 -0.4332 -0.1780
14070TIP3    H163625   1.362   3.510   3.212  1.1876  1.4649 -0.5388
14070TIP3    H263626   1.445   3.383   3.221 -0.4977  0.2238 -2.2402
14071TIP3   OH263627   0.755   6.613  13.058 -0.2955  0.1643  0.0361
14071TIP3    H163628   0.803   6.643  13.135  1.5297  1.2874 -1.4789
14071TIP3    H263629   0.727   6.525  13.080  1.1382  0.0676  1.5865
14072TIP3   OH263630   3.153   1.152  14.581 -0.5238 -0.5713 -0.0996
14072TIP3    H163631   3.226   1.091  14.568 -0.3527 -0.4999  0.5199
14072TIP3    H263632   3.162   1.182  14.671  0.1794  1.4078 -0.8030
14073TIP3   OH263633   1.053   0.834   0.793 -0.1981 -1.2756  0.0648
14073TIP3    H163634   0.993   0.803   0.726  0.3294 -0.1611 -0.9275
14073TIP3    H263635   1.140   0.813   0.759  0.0918 -0.2617  0.1621
14074TIP3   OH263636   0.506   5.479   6.691  0.3088 -0.0784  0.0118
14074TIP3    H163637   0.566   5.434   6.750 -0.8788 -0.1615  1.1889
14074TIP3    H263638   0.505   5.426   6.611 -0.3198 -1.6262  1.0167
14075TIP3   OH263639   1.327   5.645  14.937  0.1361 -0.1428  0.3371
14075TIP3    H163640   1.350   5.735  14.914 -1.7925  0.0284 -1.0200
14075TIP3    H263641   1.256   5.622  14.878  0.2062 -2.3766  1.0607
14076TIP3   OH263642   1.441   3.319  16.863  0.4051  0.2415  0.1711
14076TIP3    H163643   1.527   3.286  16.888 -0.4811 -1.2752  1.2723
14076TIP3    H263644   1.389   3.241  16.843 -0.2026  1.2187 -2.2903
14077TIP3   OH263645   1.278   5.401  13.736 -0.4133 -0.0845 -0.5324
14077TIP3    H163646   1.250   5.340  13.668 -0.3134 -0.9566  0.2065
14077TIP3    H263647   1.313   5.346  13.806 -2.9962  0.6203  1.3971
14078TIP3   OH263648   0.935   3.216   4.116  0.1209 -0.9868 -0.3052
14078TIP3    H163649   0.912   3.206   4.208  0.6876 -3.3648 -0.4039
14078TIP3    H263650   1.027   3.243   4.117 -0.8525  2.5949 -0.1085
14079TIP3   OH263651   4.304   5.639   2.803  0.5310 -0.0852  0.3459
14079TIP3    H163652   4.390   5.662   2.839 -0.0917  0.9950  1.1592
14079TIP3    H263653   4.250   5.717   2.817 -0.3350 -0.4300 -0.9694
14080TIP3   OH263654   5.769   1.426  10.923  0.3608  0.1077  0.7526
14080TIP3    H163655   5.712   1.349  10.925 -0.1041  0.3601 -1.6063
14080TIP3    H263656   5.733   1.483  10.991  0.2478 -1.4231  2.0070
14081TIP3   OH263657   4.799   4.946  13.214  0.2242 -0.0589  0.2672
14081TIP3    H163658   4.755   4.863  13.233  0.1015  0.4401  2.3116
14081TIP3    H263659   4.889   4.931  13.241  0.7098 -0.2115 -1.4016
14082TIP3   OH263660   3.031   1.288  15.666 -0.5642  0.0469 -0.7488
14082TIP3    H163661   3.101   1.317  15.725 -0.3148 -2.2493  0.1372
14082TIP3    H263662   3.076   1.270  15.583  0.0023 -1.7641 -0.0812
14083TIP3   OH263663   5.275   0.316   0.706 -0.2374  0.4875  0.2322
14083TIP3    H163664   5.356   0.290   0.750 -0.5476  2.1999  1.8999
14083TIP3    H263665   5.272   0.411   0.717 -2.3456  0.4652 -0.0327
14084TIP3   OH263666   4.441   0.509  11.508  0.2217  0.0555 -0.5747
14084TIP3    H163667   4.396   0.447  11.564  0.5246 -2.8716 -3.4504
14084TIP3    H263668   4.372   0.568  11.477 -0.1116  1.0532  1.8827
14085TIP3   OH263669   4.058   2.475  13.599  0.3426  1.0984 -0.1983
14085TIP3    H163670   4.007   2.495  13.678 -0.4376 -0.6806 -0.2299
14085TIP3    H263671   4.015   2.398  13.561  1.8087  0.8231 -1.3641
14086TIP3   OH263672   6.238   4.052   0.505 -0.2751 -0.7265 -0.1786
14086TIP3    H163673   6.206   4.112   0.573 -0.2794 -0.5307 -0.3529
14086TIP3    H263674   6.206   3.966   0.532  1.9958 -1.0806  1.5079
14087TIP3   OH263675   1.289   6.037  13.778 -0.2329  0.0695 -0.3519
14087TIP3    H163676   1.344   6.005  13.850 -0.0650 -1.8647 -1.3282
14087TIP3    H263677   1.266   5.959  13.728 -1.6697  1.2003 -1.4991
14088TIP3   OH263678   1.038   5.415   1.298 -0.3591  0.3130 -0.3420
14088TIP3    H163679   0.975   5.357   1.341 -0.5710  0.9299  0.1766
14088TIP3    H263680   0.998   5.501   1.301 -0.9781  0.1614 -2.9385
14089TIP3   OH263681   3.736   2.761  16.341  0.4530 -0.1267 -0.3119
14089TIP3    H163682   3.818   2.766  16.291 -0.3415  2.0386 -1.4485
14089TIP3    H263683   3.668   2.755  16.275 -0.4723  0.4349  0.5770
14090TIP3   OH263684   5.804   1.500   4.226 -0.1685 -0.6367  0.8430
14090TIP3    H163685   5.822   1.505   4.132 -3.4402  0.8483  0.2207
14090TIP3    H263686   5.890   1.492   4.267  1.4367  0.6839 -2.1414
14091TIP3   OH263687   5.464   6.122  16.028 -0.0888 -0.4487  0.0203
14091TIP3    H163688   5.454   6.204  16.076 -1.4789 -0.9139  0.5375
14091TIP3    H263689   5.436   6.054  16.089  0.3642 -1.2611 -0.6561
14092TIP3   OH263690   5.459   6.134  13.140 -0.1487 -0.1103  0.3392
14092TIP3    H163691   5.381   6.146  13.194 -0.4623 -0.3847 -0.0525
14092TIP3    H263692   5.504   6.218  13.144 -0.2396 -0.0861  0.9190
14093TIP3   OH263693   3.939   1.113  16.107 -0.4279 -0.0039 -0.1367
14093TIP3    H163694   3.930   1.039  16.166 -2.0859  0.7286  0.5597
14093TIP3    H263695   4.027   1.147  16.123 -0.4721 -0.4785  1.1318
14094TIP3   OH263696   0.477   5.739  15.784  0.2397  0.1070  0.4356
14094TIP3    H163697   0.499   5.693  15.704  0.3115  0.3228  0.3321
14094TIP3    H263698   0.485   5.673  15.853  1.6541  0.3000  0.4601
14095TIP3   OH263699   0.555   1.560   2.142 -0.2625  0.6622  0.1461
14095TIP3    H163700   0.487   1.628   2.138  0.3097  1.2625  0.5210
14095TIP3    H263701   0.572   1.550   2.236  0.9861  1.3345 -0.0025
14096TIP3   OH263702   5.631   0.618   1.791 -0.7156 -0.0837  0.2529
14096TIP3    H163703   5.663   0.597   1.879  1.5262  3.3350  0.3473
14096TIP3    H263704   5.667   0.705   1.772 -2.0003 -0.2864 -3.6463
14097TIP3   OH263705   3.438   5.461   2.221  0.0325 -0.4161 -0.1163
14097TIP3    H163706   3.355   5.489   2.182 -0.9545 -0.0512  2.1751
14097TIP3    H263707   3.439   5.366   2.208 -0.4603 -0.3524 -0.6593
14098TIP3   OH263708   0.258   5.129  16.610  0.9278  0.4838 -0.6032
14098TIP3    H163709   0.303   5.084  16.539  1.1957 -3.0958  1.7131
14098TIP3    H263710   0.166   5.126  16.585  1.0511 -0.5578 -0.9826
14099TIP3   OH263711   0.482   1.213  11.799 -0.0924  0.6505  0.8674
14099TIP3    H163712   0.400   1.263  11.797 -0.3410  0.2098 -1.6592
14099TIP3    H263713   0.456   1.124  11.777  0.9144  0.2395  1.3299
14100TIP3   OH263714   5.524   3.198   3.417 -0.3354  0.0403 -0.0097
14100TIP3    H163715   5.586   3.125   3.421  1.9774  1.8187 -2.1258
14100TIP3    H263716   5.553   3.258   3.486  0.0418  0.6737 -0.7151
14101TIP3   OH263717   5.725   1.942   2.552 -0.0918  0.2055 -0.2766
14101TIP3    H163718   5.754   1.964   2.640 -1.3622  1.5331 -0.1656
14101TIP3    H263719   5.636   1.977   2.547 -0.9160 -1.9272 -1.2842
14102TIP3   OH263720   0.021   1.057   6.343  0.2296 -0.3248  0.1915
14102TIP3    H163721   0.062   1.111   6.275  0.7887 -2.0197 -0.8346
14102TIP3    H263722   0.081   0.984   6.356 -0.5247 -0.7173  1.5597
14103TIP3   OH263723   6.467   2.426  14.935  1.0002  0.1382 -0.4988
14103TIP3    H163724   6.534   2.471  14.884  0.7437 -0.0817 -1.0379
14103TIP3    H263725   6.472   2.465  15.022  0.1619  1.8717 -1.2040
14104TIP3   OH263726   0.132   1.414  14.404 -0.2547 -0.2652  0.3170
14104TIP3    H163727   0.153   1.441  14.494 -1.0041 -0.5308  0.5738
14104TIP3    H263728   0.056   1.467  14.380  0.9011  0.9542 -0.7492
14105TIP3   OH263729   2.043   4.610  16.777 -0.1700 -0.1624 -0.3863
14105TIP3    H163730   2.133   4.600  16.746  0.5483  0.3171  1.4175
14105TIP3    H263731   2.010   4.521  16.784  0.2148 -0.3524 -0.9219
14106TIP3   OH263732   4.322   6.398   0.934 -0.1940  0.2364  0.0763
14106TIP3    H163733   4.373   6.455   0.876 -2.3006  2.0090 -0.1262
14106TIP3    H263734   4.299   6.454   1.008 -3.8520  0.2675 -0.9832
14107TIP3   OH263735   5.208   1.107   5.894 -0.0320  0.3105 -0.0029
14107TIP3    H163736   5.143   1.164   5.935 -0.3037  0.0235 -0.0344
14107TIP3    H263737   5.189   1.020   5.928  1.1316  0.4151  0.9649
14108TIP3   OH263738   0.819   4.979   0.545  0.3227 -0.4703 -0.3235
14108TIP3    H163739   0.839   5.047   0.610  0.2205  0.8930 -1.6813
14108TIP3    H263740   0.731   4.948   0.568  0.4004 -0.1967  0.3477
14109TIP3   OH263741   3.390   5.484   5.794 -0.9194  0.0716 -0.7593
14109TIP3    H163742   3.315   5.452   5.843 -0.2318 -0.8897 -0.3152
14109TIP3    H263743   3.429   5.405   5.756 -0.3629  0.6046 -1.3054
14110TIP3   OH263744   0.987   5.821   0.523 -0.0526  0.2267  0.2399
14110TIP3    H163745   1.062   5.831   0.581  0.5090  1.6948 -0.7263
14110TIP3    H263746   0.979   5.906   0.479 -0.5926 -0.8019 -1.6884
14111TIP3   OH263747   2.601   2.947  15.415 -0.1332  0.1662 -0.3755
14111TIP3    H163748   2.524   2.905  15.451  0.1099 -0.1448 -0.2138
14111TIP3    H263749   2.594   3.039  15.441  0.0535 -0.0593  0.4873
14112TIP3   OH263750   3.594   4.586   5.445 -0.1642 -0.5225 -0.4021
14112TIP3    H163751   3.609   4.577   5.539 -0.4879  2.2245 -0.0370
14112TIP3    H263752   3.672   4.632   5.413 -1.0931  0.6086 -1.0757
14113TIP3   OH263753   6.516   1.304   2.441 -0.1488  0.2792  0.1359
14113TIP3    H163754   6.548   1.214   2.442  0.5070  0.4887 -0.7736
14113TIP3    H263755   6.430   1.300   2.481 -0.2707 -0.8133 -0.2232
14114TIP3   OH263756   4.692   1.232  14.770  0.3205 -0.2001  0.5334
14114TIP3    H163757   4.657   1.277  14.847  0.9156  1.8872 -0.3971
14114TIP3    H263758   4.786   1.228  14.786  0.3310 -0.6877  0.3642
14115TIP3   OH263759   4.442   4.213   2.218  0.3475  0.4673  0.0121
14115TIP3    H163760   4.404   4.241   2.135  0.1996 -0.4562 -0.2393
14115TIP3    H263761   4.465   4.121   2.204  1.3401  0.6160  0.6332
14116TIP3   OH263762   1.433   3.166   3.944  1.2763  0.6417 -0.3188
14116TIP3    H163763   1.468   3.142   4.030  0.4681  0.5177 -0.0235
14116TIP3    H263764   1.511   3.182   3.891  1.7921 -0.3608  0.1274
14117TIP3   OH263765   4.308   1.820   4.055 -0.3588 -0.1739  0.0402
14117TIP3    H163766   4.374   1.790   4.119  0.2768  3.1362  0.9955
14117TIP3    H263767   4.330   1.772   3.975  2.7103  0.2323  0.5604
14118TIP3   OH263768   0.889   2.842  10.643  0.7737 -1.0383  0.1526
14118TIP3    H163769   0.968   2.787  10.640  0.0831 -2.0039 -0.5700
14118TIP3    H263770   0.879   2.875  10.554  1.1544  0.2361  0.5735
14119TIP3   OH263771   5.578   0.582  12.642 -0.4724 -0.1452  0.2832
14119TIP3    H163772   5.579   0.494  12.604 -1.2142 -0.4417  0.9457
14119TIP3    H263773   5.593   0.568  12.736 -3.1794  0.2030  0.8122
14120TIP3   OH263774   0.309   5.976   1.638 -0.4665  0.4910  0.5319
14120TIP3    H163775   0.358   5.916   1.582  0.5486  1.2723  0.5877
14120TIP3    H263776   0.225   5.988   1.593 -0.8019 -1.1917  0.6679
14121TIP3   OH263777   0.788   3.813  15.172 -0.1191 -0.0620  0.3964
14121TIP3    H163778   0.877   3.792  15.199  0.9041  1.4615 -1.6001
14121TIP3    H263779   0.772   3.901  15.207 -1.0352 -0.5325  1.1776
14122TIP3   OH263780   0.230   0.523   0.065 -0.3770 -0.1484 -0.0044
14122TIP3    H163781   0.203   0.459  -0.001 -1.1039 -2.7973  2.7533
14122TIP3    H263782   0.150   0.570   0.087 -0.5355 -0.5289  0.2576
14123TIP3   OH263783   6.685   4.335  13.369  0.2867 -0.3815  0.2097
14123TIP3    H163784   6.635   4.260  13.337  0.9144 -1.1940  1.1311
14123TIP3    H263785   6.633   4.411  13.341 -1.5398 -1.1948  1.2709
14124TIP3   OH263786   4.420   5.651  13.021  0.7597 -0.3523 -0.2990
14124TIP3    H163787   4.438   5.745  13.024 -0.7693 -0.0997  1.8911
14124TIP3    H263788   4.473   5.614  13.091 -1.3090 -0.6182  1.1622
14125TIP3   OH263789   0.064   0.769   1.877 -0.3901 -0.2394  0.2220
14125TIP3    H163790   0.069   0.697   1.940  0.7787 -0.8100 -0.4953
14125TIP3    H263791   0.139   0.755   1.819 -0.5471  1.1758 -0.3391
14126TIP3   OH263792   2.896   1.197  15.333  0.2349  0.2798  0.2219
14126TIP3    H163793   2.976   1.177  15.381 -0.0172 -2.0400 -0.2596
14126TIP3    H263794   2.926   1.244  15.256  0.9618  1.0258  0.9470
14127TIP3   OH263795   5.931   4.969  10.712 -0.4862 -0.2250  0.2783
14127TIP3    H163796   5.955   4.878  10.693 -1.9220 -0.6962  0.5974
14127TIP3    H263797   5.953   5.017  10.632 -0.5448 -1.0236 -0.2250
14128TIP3   OH263798   5.082   4.079   4.397  0.1720  0.7833 -0.4232
14128TIP3    H163799   5.121   4.138   4.333 -1.4695  0.7256 -1.4833
14128TIP3    H263800   5.064   3.999   4.348  0.1162  0.2650  0.4279
14129TIP3   OH263801   4.058   3.019  13.394  0.0376 -0.4156  0.4630
14129TIP3    H163802   4.017   3.004  13.479 -0.3969  1.9490  0.7102
14129TIP3    H263803   3.990   2.994  13.330 -0.6100  0.3395  0.8464
14130TIP3   OH263804   6.046   5.895  16.694  0.3476  0.3451  0.9439
14130TIP3    H163805   5.987   5.877  16.621  0.9832 -1.5493  0.8747
14130TIP3    H263806   6.002   5.857  16.770  0.9354 -0.0551  1.0827
14131TIP3   OH263807   0.299   3.654   3.382  0.0880  0.0437  0.4700
14131TIP3    H163808   0.281   3.719   3.450  1.3690  0.7584  0.1337
14131TIP3    H263809   0.391   3.629   3.396 -0.1102 -0.9817 -0.0043
14132TIP3   OH263810   6.611   2.631  16.700  0.3421 -0.2993  0.4720
14132TIP3    H163811   6.642   2.563  16.642 -1.1319 -0.5569 -0.0262
14132TIP3    H263812   6.615   2.592  16.787  0.6727 -0.5822  0.3290
14133TIP3   OH263813   4.310   3.452  15.437  0.1526 -0.0752 -0.0724
14133TIP3    H163814   4.260   3.482  15.513  0.0498 -0.9722  0.2179
14133TIP3    H263815   4.278   3.505  15.364  0.9125  1.4413  0.6803
14134TIP3   OH263816   0.519   6.192  14.970 -0.5109  0.1607 -0.1494
14134TIP3    H163817   0.457   6.250  15.013  0.8960  2.6816 -1.3850
14134TIP3    H263818   0.466   6.137  14.913 -1.8312  0.5494  0.6943
14135TIP3   OH263819   0.819   5.296  11.587  0.7422 -0.2122  0.3904
14135TIP3    H163820   0.782   5.375  11.549  0.3510 -0.0156  1.1687
14135TIP3    H263821   0.858   5.326  11.670 -1.9941 -1.3352  2.1427
14136TIP3   OH263822   2.969   3.261   1.372  0.1142  0.6534 -0.3052
14136TIP3    H163823   2.970   3.238   1.465  3.4032 -0.0881 -0.4469
14136TIP3    H263824   2.906   3.332   1.365 -1.1279 -0.1488  2.2621
14137TIP3   OH263825   5.529   3.668   0.821 -0.9984  0.4015 -0.3427
14137TIP3    H163826   5.517   3.584   0.776 -0.0273  0.0406  0.0669
14137TIP3    H263827   5.441   3.704   0.827 -1.7676 -1.6727  1.5675
14138TIP3   OH263828   1.043   6.280  16.122 -0.4247 -0.1504  0.3008
14138TIP3    H163829   1.128   6.275  16.079  0.0723  0.4845  1.2104
14138TIP3    H263830   0.995   6.203  16.089 -0.3281  0.7020 -1.9456
14139TIP3   OH263831   3.094   4.193   2.618 -0.5705  0.0320 -0.3259
14139TIP3    H163832   3.102   4.116   2.561  1.3778 -0.2125  0.2329
14139TIP3    H263833   3.128   4.164   2.702 -0.7456  1.2369  0.1725
14140TIP3   OH263834   1.628   6.021  14.511  0.1701  0.1486 -0.4186
14140TIP3    H163835   1.557   5.971  14.551 -0.3224  0.8614 -0.3918
14140TIP3    H263836   1.619   6.006  14.417  0.3070 -0.1915 -0.3747
14141TIP3   OH263837   0.850   5.630  15.054 -0.1953  0.1582 -0.0079
14141TIP3    H163838   0.931   5.662  15.093  0.5995 -1.0604 -0.6182
14141TIP3    H263839   0.855   5.656  14.962  0.3485 -1.4372 -0.4512
14142TIP3   OH263840   3.748   4.370   6.267 -0.7257 -0.0021  0.7715
14142TIP3    H163841   3.673   4.413   6.309 -0.6140 -0.4703  1.4465
14142TIP3    H263842   3.710   4.292   6.226 -0.3163 -1.2123  2.6400
14143TIP3   OH263843   2.588   4.430  16.376 -0.4823 -0.1279 -0.2336
14143TIP3    H163844   2.513   4.370  16.378 -0.0215 -1.0216 -4.4848
14143TIP3    H263845   2.661   4.376  16.406 -0.8846 -0.3268  0.4096
14144TIP3   OH263846   3.311   1.071  15.200  0.3030  0.4140 -0.1395
14144TIP3    H163847   3.298   0.979  15.176 -0.1395  0.3616  0.2829
14144TIP3    H263848   3.282   1.120  15.123 -0.4052  0.2259 -0.0014
14145TIP3   OH263849   0.174   4.089   3.626 -0.1562  0.2833 -0.2286
14145TIP3    H163850   0.155   3.995   3.632  1.6423 -0.0662  0.2563
14145TIP3    H263851   0.206   4.101   3.537  0.2540  0.3255 -0.0725
14146TIP3   OH263852   0.010   0.059   4.038  0.2391  0.2679  0.3838
14146TIP3    H163853   0.007  -0.028   4.077 -0.4793 -0.2400 -0.7632
14146TIP3    H263854   0.101   0.086   4.047  0.3381 -0.3622  1.2716
14147TIP3   OH263855   4.317   5.014  14.296  0.0458  0.5489 -0.0509
14147TIP3    H163856   4.322   5.023  14.201  1.0205  2.6227  0.1808
14147TIP3    H263857   4.251   5.077  14.323  1.3656  1.5571  0.8614
14148TIP3   OH263858   5.782   4.543  11.474  0.0061 -0.0621 -0.0784
14148TIP3    H163859   5.725   4.482  11.428  0.3750 -0.7296  0.3441
14148TIP3    H263860   5.768   4.523  11.567  0.1190  0.5016  0.0632
14149TIP3   OH263861   5.201   4.921  15.151 -0.6272 -0.5115 -0.2659
14149TIP3    H163862   5.279   4.921  15.094  0.5008 -0.8337  1.2484
14149TIP3    H263863   5.210   4.999  15.205 -0.3078 -1.6008  1.2950
14150TIP3   OH263864   3.483   6.380   1.527 -0.2277 -0.1868 -0.7147
14150TIP3    H163865   3.547   6.311   1.508 -0.0330  0.7779 -3.8099
14150TIP3    H263866   3.532   6.445   1.578 -0.2174 -1.9030  1.5872
14151TIP3   OH263867   0.990   1.560   1.931 -0.1902 -0.2813 -0.0160
14151TIP3    H163868   0.927   1.632   1.929  0.4748  0.3296  0.6403
14151TIP3    H263869   1.076   1.603   1.927  0.1889 -1.0878 -0.5946
14152TIP3   OH263870   5.691   2.345   4.281 -0.3064  0.0690  0.2061
14152TIP3    H163871   5.596   2.338   4.296 -0.6216 -1.5883 -2.2372
14152TIP3    H263872   5.730   2.327   4.366 -2.1448 -1.7085  0.7279
14153TIP3   OH263873   1.554   4.638   4.016  0.2008 -0.3102 -0.2919
14153TIP3    H163874   1.566   4.630   3.922  1.5969  0.0234 -0.1538
14153TIP3    H263875   1.490   4.707   4.027  0.6346  0.2094 -0.9815
14154TIP3   OH263876   3.245   6.759   5.612 -0.3593  1.7097  0.3215
14154TIP3    H163877   3.288   6.699   5.673 -0.4120  1.4137  0.0658
14154TIP3    H263878   3.263   6.724   5.526 -1.0743  1.6096  0.2070
14155TIP3   OH263879   3.483   2.116   2.788 -0.2005 -0.2214  0.1434
14155TIP3    H163880   3.527   2.042   2.745 -0.9794 -1.5506  1.5950
14155TIP3    H263881   3.418   2.076   2.845  0.4197  1.5334  2.1453
14156TIP3   OH263882   5.322   4.997   3.094 -0.2871  0.3036 -0.2172
14156TIP3    H163883   5.409   4.956   3.088 -0.0655  0.5595  1.1109
14156TIP3    H263884   5.340   5.090   3.101 -0.6335  0.3006  0.8082
14157TIP3   OH263885   1.118   3.379   2.143 -0.0296 -0.0756  0.2738
14157TIP3    H163886   1.194   3.352   2.092 -0.4124 -0.0590 -0.3137
14157TIP3    H263887   1.064   3.429   2.081 -0.0841  0.6823  0.9285
14158TIP3   OH263888   1.686   0.908   5.193 -0.2839  0.4475 -0.0284
14158TIP3    H163889   1.701   0.949   5.278 -0.3568 -0.9528  0.6711
14158TIP3    H263890   1.762   0.935   5.140  0.5615  0.0482  0.9635
14159TIP3   OH263891   4.744   1.650  12.704 -0.0062  0.3138  0.2552
14159TIP3    H163892   4.766   1.577  12.762 -0.3780 -0.4030 -0.4956
14159TIP3    H263893   4.829   1.685  12.676  0.1845 -1.0385 -0.8803
14160TIP3   OH263894   1.026   5.828   3.096  0.1130 -0.3380  0.0251
14160TIP3    H163895   1.113   5.804   3.128 -0.1374 -3.4637 -1.4612
14160TIP3    H263896   1.040   5.908   3.046  2.0448 -0.5116  0.2541
14161TIP3   OH263897   0.996   1.934  12.625  0.1548 -0.8847  0.5473
14161TIP3    H163898   1.018   1.856  12.575 -0.1137  0.6452 -2.0271
14161TIP3    H263899   1.071   1.948  12.683  1.7694 -1.0724 -1.4713
14162TIP3   OH263900   6.160   6.697   5.499  0.0969 -0.5116  0.4871
14162TIP3    H163901   6.138   6.790   5.504  2.4344  0.0065  1.7584
14162TIP3    H263902   6.132   6.670   5.412 -1.7242  1.0825  0.5647
14163TIP3   OH263903   4.863   1.543  16.157 -0.2869 -0.2939  0.1229
14163TIP3    H163904   4.913   1.584  16.086 -3.3902 -0.5547 -2.3091
14163TIP3    H263905   4.877   1.449  16.145 -0.3196 -0.3115  0.2231
14164TIP3   OH263906   5.768   3.917   5.585  0.0839 -0.2579 -0.2872
14164TIP3    H163907   5.852   3.964   5.594 -0.1656  0.2988 -0.8413
14164TIP3    H263908   5.761   3.867   5.666  0.8324 -0.1060 -0.1159
14165TIP3   OH263909   0.557   5.773  14.555 -0.2729  0.4415 -0.2808
14165TIP3    H163910   0.556   5.854  14.606  0.4346 -0.8136  1.8008
14165TIP3    H263911   0.627   5.787  14.490 -0.4871  1.6676 -0.2652
14166TIP3   OH263912   2.685   4.955   0.545 -0.4032  0.6365 -0.1210
14166TIP3    H163913   2.674   4.862   0.563  1.2661  0.0669 -1.7988
14166TIP3    H263914   2.695   4.996   0.631 -0.2141 -0.8706  0.5795
14167TIP3   OH263915   3.987   6.107   3.280 -0.0836  0.3101  0.2222
14167TIP3    H163916   3.992   6.015   3.306  1.5451  0.7102  1.3880
14167TIP3    H263917   3.987   6.105   3.184 -0.5453 -0.9225  0.2431
14168TIP3   OH263918   5.191   0.266   5.461 -0.4751 -0.2115 -0.0066
14168TIP3    H163919   5.223   0.178   5.444  0.3471  0.1043 -0.1299
14168TIP3    H263920   5.158   0.297   5.377  1.2985  0.4188 -0.5099
14169TIP3   OH263921   2.478   6.528  15.727 -0.2844 -0.1754  0.4632
14169TIP3    H163922   2.441   6.501  15.643 -1.4569  0.7380  0.6757
14169TIP3    H263923   2.541   6.597  15.704 -0.0059 -0.4906  0.2682
14170TIP3   OH263924   4.777   1.506   5.962  0.5774 -0.4151 -0.7304
14170TIP3    H163925   4.781   1.410   5.960  1.0249 -0.4109 -0.2910
14170TIP3    H263926   4.781   1.527   6.056  2.6217  0.1194 -0.9188
14171TIP3   OH263927   0.683   0.273   0.478  0.6288 -0.1590 -0.2563
14171TIP3    H163928   0.589   0.281   0.498  0.7240 -2.7085  1.4686
14171TIP3    H263929   0.717   0.362   0.488 -0.8546  0.1054  3.3671
14172TIP3   OH263930   3.684   1.507  13.228 -0.0455  0.2073 -0.0360
14172TIP3    H163931   3.717   1.564  13.298 -0.8474 -1.6283  1.9053
14172TIP3    H263932   3.739   1.429  13.234 -0.9291 -0.4633 -0.6340
14173TIP3   OH263933   5.080   4.341   1.556  0.3132 -0.1860  0.7514
14173TIP3    H163934   5.109   4.428   1.529 -0.2197 -0.4701 -0.7807
14173TIP3    H263935   5.122   4.326   1.641  0.0314  1.7537  1.2449
14174TIP3   OH263936   5.192   0.090  16.288 -0.6454 -0.0454 -0.3826
14174TIP3    H163937   5.127   0.033  16.248 -0.4500 -1.4294  1.2315
14174TIP3    H263938   5.248   0.032  16.339  0.6224  1.3755 -0.1045
14175TIP3   OH263939   3.461   1.905  11.023  0.1595 -0.1766  0.9268
14175TIP3    H163940   3.391   1.967  10.999  0.7505  0.2208  0.2201
14175TIP3    H263941   3.415   1.823  11.039 -0.3224 -0.2810 -0.9537
14176TIP3   OH263942   6.577   2.273  16.863 -0.0386  0.1125 -0.2281
14176TIP3    H163943   6.490   2.265  16.902  0.0599  1.9813  0.4177
14176TIP3    H263944   6.638   2.267  16.936  0.3450 -0.2804 -0.5734
14177TIP3   OH263945   2.715   2.227  14.630  0.1176 -0.2947 -0.0071
14177TIP3    H163946   2.740   2.232  14.723  0.7592 -0.6211 -0.1591
14177TIP3    H263947   2.796   2.201  14.585 -0.5408 -1.5237 -0.4903
14178TIP3   OH263948   5.144   0.558  15.711 -0.3541  0.4657 -0.0545
14178TIP3    H163949   5.076   0.618  15.742 -1.3594 -1.0951  0.8242
14178TIP3    H263950   5.132   0.479  15.763  0.9998 -0.4852 -1.1447
14179TIP3   OH263951   6.204   5.684   5.618 -0.1025  0.1412  0.0569
14179TIP3    H163952   6.294   5.674   5.649 -0.5200 -1.5328  0.7994
14179TIP3    H263953   6.204   5.766   5.570  1.7318  0.3556  0.3905
14180TIP3   OH263954   3.364   6.252   1.192  0.2089  0.1409 -0.2129
14180TIP3    H163955   3.376   6.278   1.101  0.2180  2.4750  0.3975
14180TIP3    H263956   3.450   6.268   1.233  0.9042 -3.1809 -0.2817
14181TIP3   OH263957   6.668   4.626  13.899  0.1530 -0.3009 -0.2970
14181TIP3    H163958   6.732   4.629  13.970  0.6149 -1.9145 -0.6268
14181TIP3    H263959   6.687   4.545  13.853 -1.4028 -0.2255 -1.1010
14182TIP3   OH263960   2.789   0.578   4.677  0.5467  0.5201  0.2312
14182TIP3    H163961   2.701   0.542   4.692  0.6263  0.9867  1.9347
14182TIP3    H263962   2.829   0.518   4.615 -1.3527  0.8937 -1.4208
14183TIP3   OH263963   5.557   0.405   1.628  0.1075 -0.2483 -0.7106
14183TIP3    H163964   5.462   0.419   1.627 -0.1104 -1.6172  0.0473
14183TIP3    H263965   5.593   0.486   1.665 -0.7663  0.2046 -0.8449
14184TIP3   OH263966   1.788   3.634  12.695  0.5993  0.3941  0.4311
14184TIP3    H163967   1.742   3.624  12.612  2.3895  0.7269 -0.6317
14184TIP3    H263968   1.780   3.549  12.738  0.4218 -0.0500 -0.4805
14185TIP3   OH263969   0.118   6.330  10.927  0.4035  0.2224 -0.3915
14185TIP3    H163970   0.133   6.364  10.839  0.9981 -2.0019 -1.2021
14185TIP3    H263971   0.199   6.283  10.948 -1.3063 -2.9390 -0.4825
14186TIP3   OH263972   0.729   2.118  15.929  0.0439  0.2904 -0.2243
14186TIP3    H163973   0.733   2.093  16.021 -0.0139 -0.0964 -0.3268
14186TIP3    H263974   0.764   2.207  15.927 -0.4690  0.5028  0.2485
14187TIP3   OH263975   1.954   5.055   2.467 -0.4682  0.7967 -0.0528
14187TIP3    H163976   1.900   4.978   2.484  1.0340 -0.3963 -0.6302
14187TIP3    H263977   1.895   5.116   2.423 -1.4536 -0.3241 -0.3160
14188TIP3   OH263978   2.599   1.792  13.779 -0.2424 -0.4024  0.6131
14188TIP3    H163979   2.541   1.726  13.818 -0.3018 -0.0157  1.1917
14188TIP3    H263980   2.588   1.869  13.835  0.8044 -0.3122  0.6954
14189TIP3   OH263981   2.518   3.230   4.690  0.4613  0.8134  0.6667
14189TIP3    H163982   2.449   3.292   4.666  0.4487 -0.1578 -2.0672
14189TIP3    H263983   2.595   3.285   4.703  0.3413  1.5099 -1.2807
14190TIP3   OH263984   5.103   3.667   5.390 -0.0891 -0.3095  0.1126
14190TIP3    H163985   5.193   3.648   5.363  0.3582 -0.5479  1.7165
14190TIP3    H263986   5.070   3.583   5.424 -0.0022  0.4150  2.0289
14191TIP3   OH263987   1.679   2.420  16.841 -0.3125 -0.2354 -0.4483
14191TIP3    H163988   1.716   2.412  16.753  0.2624 -1.2087 -0.1266
14191TIP3    H263989   1.715   2.502  16.875  0.6373 -0.5882 -0.5785
14192TIP3   OH263990   0.417   0.386   3.718  0.2124  0.3873  0.1397
14192TIP3    H163991   0.366   0.399   3.798  0.8623 -0.5567  0.7122
14192TIP3    H263992   0.498   0.436   3.733  0.1650  0.5299 -0.0851
14193TIP3   OH263993   1.027   0.346   1.571 -0.2176  0.3392  0.3094
14193TIP3    H163994   1.001   0.400   1.496 -0.8553  1.3786  1.2552
14193TIP3    H263995   0.946   0.337   1.622 -0.1174 -1.5342  0.1603
14194TIP3   OH263996   6.379   5.216   4.317  0.7588  0.1421  0.1926
14194TIP3    H163997   6.381   5.170   4.233  1.9938  1.5258 -0.5678
14194TIP3    H263998   6.450   5.281   4.310 -0.7113  1.9214  1.3414
14195TIP3   OH263999   1.767   3.064  15.683  0.3539 -0.4527 -0.0993
14195TIP3    H164000   1.720   3.115  15.748  1.1132  1.2366 -0.8364
14195TIP3    H264001   1.709   3.064  15.606  0.4948 -0.4573 -0.2048
14196TIP3   OH264002   3.281   0.351  13.967 -0.0721 -0.0098 -0.2642
14196TIP3    H164003   3.262   0.259  13.983 -0.9100  0.7376  3.4922
14196TIP3    H264004   3.368   0.364  14.003  0.5127  0.4250 -1.8228
14197TIP3   OH264005   5.819   6.250   3.565  0.1691 -0.4213  0.0255
14197TIP3    H164006   5.825   6.155   3.577  0.8101 -0.3780  0.0792
14197TIP3    H264007   5.903   6.283   3.596  0.4712  0.0398 -1.2593
14198TIP3   OH264008   3.549   4.842   4.782  0.4122  0.2192 -1.0280
14198TIP3    H164009   3.549   4.854   4.877  3.3720  0.6156 -1.0500
14198TIP3    H264010   3.481   4.903   4.751  0.7029  1.4470  0.6747
14199TIP3   OH264011   0.517   2.041   5.053 -0.4129 -0.3243  0.5013
14199TIP3    H164012   0.580   1.993   5.107 -0.6936 -0.1925  0.9428
14199TIP3    H264013   0.514   2.129   5.091 -1.4227 -0.5405  0.9481
14200TIP3   OH264014   6.701   0.660   1.322 -0.0972 -0.3186 -0.4526
14200TIP3    H164015   6.633   0.726   1.306 -1.0824 -1.1044  0.4111
14200TIP3    H264016   6.721   0.669   1.415 -0.5640 -1.5372 -0.2253
14201TIP3   OH264017   3.226   5.268   5.916  0.4997 -0.6500  0.0168
14201TIP3    H164018   3.131   5.267   5.924  0.5116  1.5884  0.9784
14201TIP3    H264019   3.258   5.246   6.003  0.8451 -0.5148 -0.0716
14202TIP3   OH264020   2.848   0.268   2.611 -0.5557  0.2218  0.2012
14202TIP3    H164021   2.812   0.180   2.617  0.7937 -0.3939 -0.4252
14202TIP3    H264022   2.781   0.318   2.563 -0.7702 -0.7896 -0.5768
14203TIP3   OH264023   0.426   5.687  16.226 -0.1150  0.7258  0.4156
14203TIP3    H164024   0.361   5.619  16.244 -0.6751  0.5928 -1.9362
14203TIP3    H264025   0.511   5.644  16.240 -0.4729 -0.4073 -0.7573
14204TIP3   OH264026   3.911   0.401   1.309 -0.1698  0.1064  0.7110
14204TIP3    H164027   3.935   0.316   1.273 -0.3615 -0.0186  0.8775
14204TIP3    H264028   3.904   0.386   1.403 -0.4385  0.2542  0.7138
14205TIP3   OH264029   0.879   4.583  14.627 -0.1037  0.1298  0.5370
14205TIP3    H164030   0.950   4.535  14.670  0.1165  0.5705  0.6632
14205TIP3    H264031   0.844   4.641  14.695 -0.7881 -0.3108  0.5664
14206TIP3   OH264032   3.193   4.695  15.908  0.5709  0.3178 -0.1377
14206TIP3    H164033   3.224   4.616  15.953  2.2879  0.1944 -1.5012
14206TIP3    H264034   3.098   4.687  15.911  0.7011 -1.3941  0.4819
14207TIP3   OH264035   2.370   5.732  14.531  0.2058 -0.4307  0.4317
14207TIP3    H164036   2.369   5.782  14.612 -0.1168 -0.6933  0.5929
14207TIP3    H264037   2.330   5.648  14.555 -1.5956  0.1572 -0.4390
14208TIP3   OH264038   3.194   6.352  13.225  0.0967 -0.4557 -0.0006
14208TIP3    H164039   3.174   6.281  13.165  1.8785  1.1155 -2.5610
14208TIP3    H264040   3.278   6.329  13.263 -0.7175 -1.1246  1.4288
14209TIP3   OH264041   1.171   3.879  14.295  0.3414 -0.0988 -0.0010
14209TIP3    H164042   1.205   3.908  14.210 -0.1489 -1.2242 -0.5962
14209TIP3    H264043   1.200   3.788  14.302 -0.0119 -0.1494  0.8352
14210TIP3   OH264044   0.006   4.055  11.749  0.2562 -0.0473  0.6887
14210TIP3    H164045   0.055   4.006  11.815 -0.3204 -0.4915  0.7954
14210TIP3    H264046  -0.083   4.022  11.757  0.4075 -0.8983 -1.0832
14211TIP3   OH264047   4.064   0.625   3.851  0.3357 -0.4747  0.7934
14211TIP3    H164048   3.987   0.585   3.890  0.1516 -1.2444 -0.3251
14211TIP3    H264049   4.034   0.712   3.823  0.3913 -0.0363  2.0630
14212TIP3   OH264050   6.334   4.662  15.228  0.6146 -0.2712 -0.1542
14212TIP3    H164051   6.340   4.758  15.225  1.3441 -0.3509 -2.8660
14212TIP3    H264052   6.251   4.645  15.273 -0.4409  1.6715 -1.2820
14213TIP3   OH264053   2.280   0.230   1.505  0.1386 -0.4803  0.2604
14213TIP3    H164054   2.374   0.213   1.500  0.2953 -1.3271  4.1554
14213TIP3    H264055   2.274   0.323   1.528  0.1050 -0.6637  1.0294
14214TIP3   OH264056   5.041   2.820  11.627 -0.1368 -0.1612  0.6817
14214TIP3    H164057   5.114   2.866  11.585 -0.6080  1.2488  1.3823
14214TIP3    H264058   5.067   2.812  11.719 -0.9068  0.4341  0.9547
14215TIP3   OH264059   1.182   3.355  13.217 -0.1179 -0.8604 -0.0259
14215TIP3    H164060   1.228   3.392  13.293 -0.7079  0.2389 -0.1979
14215TIP3    H264061   1.222   3.398  13.141  0.4534 -1.9382 -0.3429
14216TIP3   OH264062   2.946   0.183   4.848  0.1786 -0.2391  0.1665
14216TIP3    H164063   2.856   0.210   4.869  0.1812 -0.7315  0.7953
14216TIP3    H264064   2.996   0.265   4.850  0.0287 -0.1669  1.2843
14217TIP3   OH264065   0.620   6.639   5.218 -0.3620 -0.0801 -0.4709
14217TIP3    H164066   0.703   6.681   5.193 -0.4936  0.1667 -0.4935
14217TIP3    H264067   0.641   6.592   5.299 -0.7915  2.0149  0.9183
14218TIP3   OH264068   0.191   0.996  17.038 -0.2513  0.1140  0.0221
14218TIP3    H164069   0.120   1.058  17.056 -1.3938 -1.1706 -0.0270
14218TIP3    H264070   0.202   0.998  16.943 -1.6187 -1.2014 -0.1755
14219TIP3   OH264071   0.727   2.984  11.558 -0.0722  0.3510 -0.1778
14219TIP3    H164072   0.719   2.941  11.644 -1.3232  2.1082  0.6142
14219TIP3    H264073   0.816   3.019  11.557  0.6811 -1.4783 -0.4933
14220TIP3   OH264074   0.086   3.341   3.208 -0.5766 -0.2550 -0.3493
14220TIP3    H164075   0.031   3.264   3.199  0.1505 -0.6651 -1.4836
14220TIP3    H264076   0.173   3.306   3.227 -0.3872  0.3163 -0.1401
14221TIP3   OH264077   3.362   5.555   5.219  0.3879  0.2854 -0.5579
14221TIP3    H164078   3.344   5.476   5.269  2.6243  0.9211  1.3472
14221TIP3    H264079   3.363   5.526   5.128 -0.4350 -1.5487 -0.0085
14222TIP3   OH264080   1.099   2.221  17.015 -0.2048  0.3386 -0.5278
14222TIP3    H164081   1.165   2.205  17.082  2.0828 -0.1224 -2.8250
14222TIP3    H264082   1.051   2.139  17.009  0.5020 -0.0801 -0.4635
14223TIP3   OH264083   5.679   0.589   3.202 -0.2696 -0.3261  0.0148
14223TIP3    H164084   5.768   0.585   3.167  0.1476 -0.1673  1.0491
14223TIP3    H264085   5.656   0.682   3.199 -0.2790 -0.3268  0.0707
14224TIP3   OH264086   2.017   5.439  12.694  0.2208 -0.0219 -0.0243
14224TIP3    H164087   1.955   5.438  12.768 -0.5814  1.1181 -0.6510
14224TIP3    H264088   2.050   5.529  12.692 -0.1558  0.1009 -1.3575
14225TIP3   OH264089   0.869   5.025  10.861 -0.2228 -0.5694 -0.1345
14225TIP3    H164090   0.822   5.011  10.943 -0.9122  0.9952 -0.2490
14225TIP3    H264091   0.899   4.938  10.835 -1.8579 -1.3822  0.6571
14226TIP3   OH264092   5.484   0.601  16.819 -0.0278 -0.1566  0.0178
14226TIP3    H164093   5.423   0.533  16.788 -1.0221  1.0795 -0.7815
14226TIP3    H264094   5.570   0.559  16.815 -0.7116 -1.5888  0.1621
14227TIP3   OH264095   3.218   5.404   2.575 -0.0189  1.0343  0.1542
14227TIP3    H164096   3.292   5.343   2.575 -0.4881  0.4645 -0.0222
14227TIP3    H264097   3.142   5.350   2.595 -0.1989  1.8555  1.7787
14228TIP3   OH264098   5.924   6.587   5.590 -0.8043 -0.2644  0.3751
14228TIP3    H164099   6.009   6.622   5.563 -2.0757  1.9031 -0.9304
14228TIP3    H264100   5.860   6.653   5.562 -3.0404 -2.3726  0.3203
14229TIP3   OH264101   3.462   3.412  15.376 -0.1107 -0.3463 -0.2418
14229TIP3    H164102   3.440   3.387  15.286 -2.4085  0.5261  0.0279
14229TIP3    H264103   3.550   3.378  15.390 -1.6471 -5.1226 -1.0640
14230TIP3   OH264104   5.671   4.856  14.840  0.1890  0.4022  0.0364
14230TIP3    H164105   5.585   4.896  14.826  0.0072  0.6888  1.8800
14230TIP3    H264106   5.726   4.928  14.873  0.8289 -0.0442 -0.0503
14231TIP3   OH264107   3.164   6.558   0.079 -0.1414  0.0184  0.1300
14231TIP3    H164108   3.145   6.650   0.064 -2.6454 -0.3751  0.6743
14231TIP3    H264109   3.109   6.512   0.014 -0.4951 -1.1437  1.2364
14232TIP3   OH264110   6.104   2.506   1.809 -0.2744  0.0335  0.0415
14232TIP3    H164111   6.052   2.440   1.856  0.8972  0.8857  2.6055
14232TIP3    H264112   6.174   2.456   1.768 -0.2386 -0.5186  0.7531
14233TIP3   OH264113   6.657   0.500   5.894 -0.2661  0.1076 -0.1579
14233TIP3    H164114   6.718   0.516   5.822 -2.6830  2.1922 -1.8515
14233TIP3    H264115   6.594   0.437   5.858 -0.8217  0.2696  0.5156
14234TIP3   OH264116   1.765   1.692   6.007  0.8831  0.0265  0.4929
14234TIP3    H164117   1.743   1.619   6.066  0.2108  0.7745  1.1870
14234TIP3    H264118   1.849   1.667   5.968  0.0073 -1.7688 -0.3365
14235TIP3   OH264119   2.330   2.594   3.676  0.4450 -0.0787 -0.2278
14235TIP3    H164120   2.294   2.674   3.714 -1.5113 -0.9264 -0.2483
14235TIP3    H264121   2.395   2.625   3.613 -0.3004  1.5029 -0.2526
14236TIP3   OH264122   4.694   0.982  15.316 -0.0889  0.2370 -0.4534
14236TIP3    H164123   4.784   0.988  15.286 -0.0070 -2.3195 -0.8780
14236TIP3    H264124   4.699   0.991  15.411  1.0710 -3.1127 -0.1184
14237TIP3   OH264125   1.681   5.350   4.492  0.3570 -0.3739  0.1384
14237TIP3    H164126   1.756   5.360   4.550  1.3737 -0.2925 -1.1900
14237TIP3    H264127   1.700   5.271   4.441 -0.8780 -0.8682  0.4272
14238TIP3   OH264128   2.719   5.414  16.112 -0.7017 -0.2016  0.4854
14238TIP3    H164129   2.762   5.487  16.068  0.4176  0.3133  2.3703
14238TIP3    H264130   2.626   5.424  16.091 -0.2158  0.0325 -1.6925
14239TIP3   OH264131   0.204   6.239  16.035  0.1571 -0.3484  0.1048
14239TIP3    H164132   0.224   6.163  16.091  1.8180  1.0153  1.4464
14239TIP3    H264133   0.264   6.307  16.066  1.5837  0.2715 -3.7814
14240TIP3   OH264134   5.393   6.145   1.941 -0.2487  0.0511  0.0984
14240TIP3    H164135   5.486   6.146   1.966 -0.1916 -0.4115 -0.0726
14240TIP3    H264136   5.376   6.233   1.909 -0.3989  0.7493  2.0195
14241TIP3   OH264137   6.110   4.487   1.983 -0.4120  0.6683 -0.3756
14241TIP3    H164138   6.120   4.392   1.988  2.1758  0.9290 -0.0185
14241TIP3    H264139   6.019   4.503   2.010 -1.2504 -1.7718 -1.6036
14242TIP3   OH264140   1.377   3.497  13.838 -0.5173  0.4008 -0.7596
14242TIP3    H164141   1.287   3.468  13.853 -0.5990  0.8047 -0.4564
14242TIP3    H264142   1.424   3.417  13.816 -0.4360 -0.2076  1.4901
14243TIP3   OH264143   2.536   6.783   1.215 -0.0234 -0.5635  0.0614
14243TIP3    H164144   2.515   6.690   1.219  1.8728 -1.0158 -0.1865
14243TIP3    H264145   2.596   6.791   1.141 -0.1004  0.8546  0.1308
14244TIP3   OH264146   4.017   1.528  12.122 -0.1425  0.4512 -0.6973
14244TIP3    H164147   3.958   1.496  12.189  1.0437 -1.4774 -0.5307
14244TIP3    H264148   3.969   1.598  12.078 -1.4651  0.7588  1.2154
14245TIP3   OH264149   2.868   4.494   4.321 -0.1696  0.3006 -0.3965
14245TIP3    H164150   2.956   4.506   4.286  0.6120 -2.8727  0.3023
14245TIP3    H264151   2.867   4.547   4.401  0.7715  1.1880 -0.9738
14246TIP3   OH264152   2.352   6.714  13.641 -0.6289 -0.3471 -0.1273
14246TIP3    H164153   2.338   6.803  13.608  0.0391  0.5601  1.9056
14246TIP3    H264154   2.316   6.657  13.574  1.9511  1.3321 -3.0719
14247TIP3   OH264155   4.184   2.810   2.019  0.8730  0.2295 -0.3921
14247TIP3    H164156   4.190   2.902   1.994 -1.8579  0.2042 -1.2928
14247TIP3    H264157   4.136   2.811   2.102 -2.0628 -0.5437 -2.0203
14248TIP3   OH264158   3.537   6.439   4.048 -0.1626  0.1553 -0.8249
14248TIP3    H164159   3.490   6.462   4.128 -0.3445  0.4055 -1.0024
14248TIP3    H264160   3.518   6.511   3.988  1.6243  0.9797 -0.4226
14249TIP3   OH264161   2.681   4.690   1.229 -0.6191 -0.4907 -0.7798
14249TIP3    H164162   2.647   4.750   1.295 -1.0309 -0.1387 -1.3084
14249TIP3    H264163   2.775   4.685   1.246 -1.1609 -3.0548  2.0137
14250TIP3   OH264164   1.071   3.338   5.901  0.8379  0.6053 -0.1053
14250TIP3    H164165   1.022   3.408   5.944  1.8136  1.1854  0.1044
14250TIP3    H264166   1.022   3.258   5.919 -0.5512  1.3083 -0.7649
14251TIP3   OH264167   3.889   3.890  16.879  0.0317  0.0518  0.1393
14251TIP3    H164168   3.812   3.944  16.863 -0.8279 -1.0481  0.5251
14251TIP3    H264169   3.930   3.928  16.957  0.3874  1.1817 -0.5895
14252TIP3   OH264170   0.625   3.119   2.017 -0.5737 -0.6004 -0.1834
14252TIP3    H164171   0.619   3.081   1.929 -2.0819  0.2186 -0.4603
14252TIP3    H264172   0.536   3.113   2.052  0.1346 -1.4640  1.5322
14253TIP3   OH264173   1.431   3.299   6.159  0.1236  1.0188 -0.5566
14253TIP3    H164174   1.457   3.212   6.129  0.2582  0.4705  1.0808
14253TIP3    H264175   1.336   3.295   6.167  0.0522  1.2893 -1.3089
14254TIP3   OH264176   3.670   1.974  12.276 -0.1669 -0.2342  0.2947
14254TIP3    H164177   3.624   2.054  12.304  0.8288  0.3541  0.2972
14254TIP3    H264178   3.756   1.982  12.317  0.0030 -1.2294  0.1311
14255TIP3   OH264179   0.258   0.678   0.849 -0.1909 -0.1684 -0.1847
14255TIP3    H164180   0.223   0.602   0.803 -2.8424  0.4515  0.6878
14255TIP3    H264181   0.211   0.679   0.932  3.0074 -0.0847  1.6980
14256TIP3   OH264182   0.360   5.607  10.742 -0.0150  0.8902  0.2932
14256TIP3    H164183   0.287   5.588  10.802  0.9181 -0.8861  0.8772
14256TIP3    H264184   0.329   5.576  10.656 -0.6811  1.8774  0.1684
14257TIP3   OH264185   1.826   0.184  16.956  0.1039  0.4720  0.0359
14257TIP3    H164186   1.794   0.128  17.026 -0.4305  1.3026  0.4608
14257TIP3    H264187   1.779   0.155  16.878  0.4325 -0.2076  0.0828
14258TIP3   OH264188   2.768   2.261  14.237 -0.2610 -0.0819 -0.0365
14258TIP3    H164189   2.856   2.235  14.211  0.9368  0.9440  2.7845
14258TIP3    H264190   2.771   2.356  14.244 -1.4016 -0.0777  0.7062
14259TIP3   OH264191   5.797   0.606   2.400 -0.3661  0.1442  0.1270
14259TIP3    H164192   5.868   0.579   2.458  0.1088  0.4547 -0.3050
14259TIP3    H264193   5.717   0.585   2.449  0.0240  0.2323  0.8118
14260TIP3   OH264194   5.270   1.427  15.725  0.1753 -0.3746  0.2921
14260TIP3    H164195   5.304   1.378  15.800  0.4315 -0.2974  0.2259
14260TIP3    H264196   5.308   1.383  15.649 -1.6286 -1.6768  0.0993
14261TIP3   OH264197   4.131   3.797   4.026  0.4065 -0.2754  0.5665
14261TIP3    H164198   4.056   3.826   4.078  0.4184  0.1876  0.3272
14261TIP3    H264199   4.134   3.702   4.039  1.0527 -0.0288  2.2492
14262TIP3   OH264200   1.043   3.879   1.424 -0.5991  0.6354 -0.3195
14262TIP3    H164201   1.091   3.797   1.437 -1.9778 -0.4654 -1.9750
14262TIP3    H264202   1.098   3.929   1.364 -1.4995 -0.6542 -2.2709
14263TIP3   OH264203   1.560   0.203  14.102  0.4777  0.2493  0.4957
14263TIP3    H164204   1.630   0.174  14.161  0.9976  1.3447  0.4306
14263TIP3    H264205   1.539   0.125  14.049  2.1874  0.1083 -0.0053
14264TIP3   OH264206   4.097   1.282   1.325  0.1297 -0.0111  0.5122
14264TIP3    H164207   4.175   1.335   1.346 -0.3351  0.2436  1.6507
14264TIP3    H264208   4.047   1.282   1.406 -0.6807 -0.8330  0.0075
14265TIP3   OH264209   5.426   2.117  14.974  0.4966 -0.0296 -0.2544
14265TIP3    H164210   5.363   2.145  15.041  1.7744 -0.9679  1.3933
14265TIP3    H264211   5.482   2.193  14.961 -0.7365  0.6867 -1.4578
14266TIP3   OH264212   3.361   1.795  11.815  0.3159 -0.7097 -0.4591
14266TIP3    H164213   3.366   1.863  11.881  0.2222 -1.1193 -0.0277
14266TIP3    H264214   3.268   1.791  11.792  0.7285  1.4455 -2.7456
14267TIP3   OH264215   2.092   3.540   2.275 -0.4435  0.4581 -1.0157
14267TIP3    H164216   2.150   3.531   2.199  2.3399 -0.4362  1.1052
14267TIP3    H264217   2.022   3.476   2.260  1.0067 -0.9267 -2.0708
14268TIP3   OH264218   1.057   1.391   3.603 -0.1938 -0.6118 -0.4737
14268TIP3    H164219   1.150   1.372   3.592 -0.2897 -1.9683  0.8865
14268TIP3    H264220   1.039   1.462   3.541  1.1094 -2.1887 -2.6875
14269TIP3   OH264221   1.316   5.991  13.443  0.1326  0.0757  0.3892
14269TIP3    H164222   1.228   6.022  13.422  0.0667  1.0480  2.0385
14269TIP3    H264223   1.372   6.035  13.379 -0.4995 -0.0083 -0.2272
14270TIP3   OH264224   4.896   0.236  15.745 -0.3841 -0.1344 -0.0930
14270TIP3    H164225   4.855   0.150  15.756 -1.6468  0.3878 -0.6751
14270TIP3    H264226   4.975   0.232  15.799 -0.0188 -1.9339 -0.7263
14271TIP3   OH264227   3.016   1.861   4.580 -0.0960 -0.4511  0.0510
14271TIP3    H164228   3.045   1.935   4.633  0.0854 -0.8753  0.5548
14271TIP3    H264229   2.982   1.798   4.644 -1.8909 -0.0756 -0.5102
14272TIP3   OH264230   5.272   5.803   4.410  0.1272 -0.1470  0.3266
14272TIP3    H164231   5.234   5.876   4.361  1.7982 -0.0349 -0.8661
14272TIP3    H264232   5.200   5.768   4.462 -1.2517  0.8997 -0.8457
14273TIP3   OH264233   5.815   4.899  10.267 -0.4488  0.0867 -0.0587
14273TIP3    H164234   5.850   4.832  10.208 -0.4510  1.1350 -1.2664
14273TIP3    H264235   5.880   4.969  10.264 -1.6531  1.1864 -0.7435
14274TIP3   OH264236   3.611   5.298  13.623 -0.5090 -0.3173  0.0246
14274TIP3    H164237   3.558   5.290  13.702  0.5800  1.7244  0.9878
14274TIP3    H264238   3.546   5.297  13.552 -1.7075  0.3480  1.0797
14275TIP3   OH264239   3.136   0.543  15.037 -0.5708  0.2584 -0.2637
14275TIP3    H164240   3.107   0.613  15.095  1.6173  0.7642  0.2394
14275TIP3    H264241   3.187   0.484  15.092 -1.7653 -1.3507 -0.8457
14276TIP3   OH264242   2.374   4.389   1.931 -0.2783  0.4321  0.1611
14276TIP3    H164243   2.279   4.402   1.920 -0.4511 -0.7501  0.0984
14276TIP3    H264244   2.411   4.419   1.848 -0.6630  0.3803 -0.0356
14277TIP3   OH264245   0.016   4.822  12.807  0.5295 -0.1016 -0.2391
14277TIP3    H164246   0.026   4.837  12.713  0.2897 -0.0007 -0.2487
14277TIP3    H264247   0.106   4.816  12.840  0.6696  2.2262 -0.1007
14278TIP3   OH264248   5.848   5.999   1.082  0.5272 -0.2783  0.2850
14278TIP3    H164249   5.800   5.963   1.007 -0.7676 -1.2674  1.5466
14278TIP3    H264250   5.887   6.079   1.049 -2.5570  0.9156 -0.6449
14279TIP3   OH264251   1.459   2.108   2.523  0.1923  0.3526 -1.1153
14279TIP3    H164252   1.446   2.047   2.596  0.6951  1.0005 -0.4689
14279TIP3    H264253   1.391   2.174   2.534  0.4962  0.6541 -1.0050
14280TIP3   OH264254   5.995   5.242   2.640  0.1494 -0.0814 -0.1467
14280TIP3    H164255   6.007   5.205   2.727 -1.8585  0.2264  0.2985
14280TIP3    H264256   6.003   5.168   2.580  0.5300 -0.4727  0.3861
14281TIP3   OH264257   2.472   4.238   5.331 -0.9506  0.0866  0.4917
14281TIP3    H164258   2.462   4.157   5.381 -2.1844 -0.1589 -0.1221
14281TIP3    H264259   2.522   4.296   5.388 -1.2767 -0.6225  1.5116
14282TIP3   OH264260   3.794   1.843   1.487  0.1065  0.7094 -0.2130
14282TIP3    H164261   3.880   1.817   1.454  0.5175  0.1342  1.2810
14282TIP3    H264262   3.812   1.904   1.558 -0.8075  3.1040 -1.9332
14283TIP3   OH264263   2.062   1.303   5.763  0.3928  0.2422 -0.1086
14283TIP3    H164264   2.082   1.362   5.835  0.7824 -0.2515  0.1808
14283TIP3    H264265   2.147   1.280   5.726  0.2228  0.0813 -0.4020
14284TIP3   OH264266   0.259   2.588   1.016 -0.4714  0.4168 -0.0988
14284TIP3    H164267   0.301   2.648   0.954 -2.0392  1.4326 -0.2206
14284TIP3    H264268   0.263   2.502   0.974 -1.0051  0.9925 -1.3777
14285TIP3   OH264269   5.112   3.753   1.548 -0.0249 -0.2034 -0.1122
14285TIP3    H164270   5.197   3.770   1.507 -0.1723 -1.7976 -1.1445
14285TIP3    H264271   5.052   3.743   1.474 -0.5000 -2.1349  0.5068
14286TIP3   OH264272   1.087   2.070   1.653 -0.1300  0.2903  0.3204
14286TIP3    H164273   1.173   2.070   1.612  0.4364  2.4622  1.4600
14286TIP3    H264274   1.026   2.051   1.582  1.1905 -0.2988 -0.6697
14287TIP3   OH264275   4.938   0.127   3.277  0.4373 -0.8841  0.3547
14287TIP3    H164276   4.907   0.074   3.350  0.4846 -1.8043 -0.2864
14287TIP3    H264277   5.016   0.171   3.311  0.3649 -1.1867  0.9129
14288TIP3   OH264278   0.806   2.781  16.931 -0.2210  0.2965  0.0722
14288TIP3    H164279   0.716   2.812  16.921 -0.4970 -0.3774  0.3696
14288TIP3    H264280   0.848   2.846  16.987 -0.9681 -0.1988  1.2284
14289TIP3   OH264281   3.120   1.149  15.027 -0.0651  0.1416 -0.0008
14289TIP3    H164282   3.098   1.240  15.012  0.1064  0.1935  0.0555
14289TIP3    H264283   3.092   1.103  14.948 -0.4172  0.1976  0.0915
14290TIP3   OH264284   0.241   4.801  13.015 -0.0896  0.4888 -0.7869
14290TIP3    H164285   0.218   4.711  13.040  0.9091  0.1224 -1.1755
14290TIP3    H264286   0.314   4.824  13.072  0.7613  0.4444 -1.8502
14291TIP3   OH264287   0.236   1.822  15.685  0.5054  0.2397 -0.2733
14291TIP3    H164288   0.238   1.744  15.630  0.6246  0.5995 -0.7932
14291TIP3    H264289   0.320   1.866  15.666  1.4803 -0.6809  1.7435
14292TIP3   OH264290   2.171   2.149   1.163  0.2716 -0.3067 -0.2522
14292TIP3    H164291   2.125   2.082   1.213  0.5559 -1.0934 -1.0129
14292TIP3    H264292   2.101   2.202   1.124  0.0591  0.7827  1.5718
14293TIP3   OH264293   1.198   0.589   2.724 -0.0737 -0.5985 -0.4073
14293TIP3    H164294   1.124   0.648   2.715 -1.4133 -2.1829 -0.1571
14293TIP3    H264295   1.164   0.515   2.775  1.7348 -1.2635 -0.0972
14294TIP3   OH264296   4.747   4.020  11.848  0.5468  0.0919  0.0317
14294TIP3    H164297   4.834   4.016  11.809  0.5660  0.1708  0.0672
14294TIP3    H264298   4.690   4.045  11.775  0.5775  0.2053  0.0464
14295TIP3   OH264299   2.068   5.690  14.778  0.8598 -0.3284 -0.4782
14295TIP3    H164300   2.033   5.749  14.712  1.7579  0.0568 -0.6137
14295TIP3    H264301   2.113   5.622  14.728  1.6324  0.0228 -0.2672
14296TIP3   OH264302   0.987   1.314   1.802  0.1628 -0.0968 -0.3811
14296TIP3    H164303   1.073   1.274   1.786 -0.5469 -1.4400 -0.9364
14296TIP3    H264304   1.007   1.399   1.841  1.6906 -1.4551  1.9085
14297TIP3   OH264305   3.271   1.135   0.049  0.6023  0.4223 -0.3941
14297TIP3    H164306   3.212   1.132   0.125  1.1071  1.3142  0.0482
14297TIP3    H264307   3.226   1.084  -0.018  0.4366 -0.8817  0.6997
14298TIP3   OH264308   0.896   2.263   1.278 -0.0948  0.5716  0.0048
14298TIP3    H164309   0.902   2.347   1.233  0.3358  0.6670  0.2371
14298TIP3    H264310   0.827   2.216   1.232  0.3778  0.6421 -0.7856
14299TIP3   OH264311   5.214   6.311  16.991  0.1933  0.0685  0.1578
14299TIP3    H164312   5.163   6.387  17.017 -1.5634 -1.1444  0.3820
14299TIP3    H264313   5.151   6.254  16.947  0.9709 -2.2245  1.8980
14300TIP3   OH264314   5.330   3.383  16.808  0.7659  0.7912 -0.4916
14300TIP3    H164315   5.363   3.465  16.769  2.4278  0.3292 -0.0851
14300TIP3    H264316   5.323   3.403  16.901 -0.6692  1.0554 -0.6405
14301TIP3   OH264317   6.557   6.073   5.888 -0.5636  0.1874 -0.2336
14301TIP3    H164318   6.613   6.113   5.822  1.6307  0.0694  1.4996
14301TIP3    H264319   6.561   5.979   5.870  0.4514  0.1085  0.3511
14302TIP3   OH264320   2.558   2.631   1.168 -0.0589  0.5754 -0.0373
14302TIP3    H164321   2.474   2.677   1.161 -2.0082 -2.2529  3.1107
14302TIP3    H264322   2.612   2.690   1.220 -1.1332  1.1394  0.4755
14303TIP3   OH264323   0.353   2.705  11.927 -1.2712 -0.1667  0.1510
14303TIP3    H164324   0.296   2.629  11.917 -1.5643 -0.0848  1.0790
14303TIP3    H264325   0.401   2.711  11.845 -0.3540 -2.0919  0.5367
14304TIP3   OH264326   6.585   4.831  16.489  0.1840  0.4473 -0.1464
14304TIP3    H164327   6.534   4.751  16.503 -1.3519  1.7281  1.9020
14304TIP3    H264328   6.521   4.902  16.498  1.8780  1.9940 -0.0197
14305TIP3   OH264329   5.602   3.676   2.011  0.0542 -0.2276  0.4238
14305TIP3    H164330   5.524   3.670   2.065  0.3446  0.7050  0.9621
14305TIP3    H264331   5.595   3.762   1.968  0.4705 -0.4050 -0.0072
14306TIP3   OH264332   0.000   4.147   0.339  0.1157  0.2454  0.1583
14306TIP3    H164333  -0.042   4.209   0.399 -0.0363 -0.5513  0.8958
14306TIP3    H264334   0.016   4.197   0.259 -1.9390  0.6559 -0.0188
14307TIP3   OH264335   1.604   0.439   2.861  0.3184  0.7022 -0.0849
14307TIP3    H164336   1.688   0.481   2.874  0.6304  0.6105 -1.7201
14307TIP3    H264337   1.611   0.356   2.908  0.6731  1.2753  0.8698
14308TIP3   OH264338   2.510   0.021   2.059  0.4134  0.5702 -0.0743
14308TIP3    H164339   2.422   0.052   2.081  0.6456  1.8886 -0.9575
14308TIP3    H264340   2.567   0.096   2.076  1.3713 -0.2701  0.4645
14309TIP3   OH264341   0.486   1.308  12.137 -0.2997 -0.2663  0.4075
14309TIP3    H164342   0.547   1.323  12.064 -1.0955 -0.1483 -0.2460
14309TIP3    H264343   0.542   1.289  12.212  0.5900  1.2339  0.1429
14310TIP3   OH264344   4.616   6.630  16.125 -0.8116  0.3517 -0.3029
14310TIP3    H164345   4.619   6.629  16.221  0.6207  1.0040 -0.3276
14310TIP3    H264346   4.593   6.721  16.103 -3.1753 -0.2844 -0.5456
14311TIP3   OH264347   5.862   5.337   5.072 -0.3493  0.4326  0.4842
14311TIP3    H164348   5.885   5.313   4.982 -0.8560  2.2496 -0.1553
14311TIP3    H264349   5.799   5.271   5.099 -0.7494  0.2843 -0.7718
14312TIP3   OH264350   3.795   6.783   5.441 -0.0953 -0.2712  0.0503
14312TIP3    H164351   3.823   6.696   5.414 -0.0750  0.1737 -1.3841
14312TIP3    H264352   3.853   6.843   5.395 -0.5915  0.5288  0.4501
14313TIP3   OH264353   6.732   5.313   3.015  0.1978 -0.1052 -0.0527
14313TIP3    H164354   6.691   5.227   3.023 -1.0105  0.3593 -1.0230
14313TIP3    H264355   6.775   5.327   3.099 -2.0500 -0.4153  1.1970
14314TIP3   OH264356   3.007   3.896   4.681  0.3331 -0.0579 -0.0470
14314TIP3    H164357   2.926   3.918   4.636  2.0596  2.6683 -1.9732
14314TIP3    H264358   3.029   3.975   4.730  2.4037 -0.3508 -0.4489
14315TIP3   OH264359   1.162   6.750  16.786 -0.6464 -0.1381  0.1167
14315TIP3    H164360   1.187   6.671  16.834  1.3127 -0.7070 -1.7282
14315TIP3    H264361   1.151   6.720  16.695 -0.3736  1.6146 -0.5196
14316TIP3   OH264362   5.156   3.285   2.793 -0.2023 -0.3042  0.0447
14316TIP3    H164363   5.070   3.298   2.833 -1.4427  0.4207 -2.7711
14316TIP3    H264364   5.210   3.252   2.864 -2.2801  1.0992  2.3650
14317TIP3   OH264365   6.089   6.029  15.727  0.3118  0.3797 -0.3069
14317TIP3    H164366   6.151   6.091  15.765  1.2531 -0.0973 -1.0453
14317TIP3    H264367   6.137   5.946  15.726 -0.5138 -0.0945 -0.4368
14318TIP3   OH264368   1.941   0.817  16.896  0.1301 -0.5011 -0.1455
14318TIP3    H164369   2.002   0.744  16.908  0.7845 -0.0190 -0.5023
14318TIP3    H264370   1.987   0.877  16.837 -0.6239 -0.0558 -0.2801
14319TIP3   OH264371   3.831   0.917   3.171  0.2759  0.9017  0.2001
14319TIP3    H164372   3.913   0.873   3.194 -0.1549 -0.8075 -1.4648
14319TIP3    H264373   3.776   0.907   3.249  1.5397  1.8524  1.2406
14320TIP3   OH264374   5.680   5.607   1.747  0.1954  0.3801  0.3346
14320TIP3    H164375   5.591   5.643   1.741 -0.0159 -0.1058  0.5608
14320TIP3    H264376   5.672   5.532   1.806  1.4894  2.7128  3.6722
14321TIP3   OH264377   3.627   4.012  15.743 -0.2598 -0.0443  0.3361
14321TIP3    H164378   3.594   3.996  15.655  1.3259 -1.2512 -0.0540
14321TIP3    H264379   3.608   4.105  15.759 -2.6643 -0.3750 -0.3491
14322TIP3   OH264380   3.534   2.828  12.431  0.0085 -0.0877 -0.1222
14322TIP3    H164381   3.567   2.795  12.515 -1.7750  0.5392  0.8340
14322TIP3    H264382   3.464   2.888  12.455 -1.1914 -0.6715 -2.1028
14323TIP3   OH264383   3.024   1.851   0.675  0.0505  0.3197  0.0058
14323TIP3    H164384   3.028   1.933   0.725 -0.3805  0.1308  0.3557
14323TIP3    H264385   3.010   1.879   0.585 -0.1867  0.6314  0.1359
14324TIP3   OH264386   1.066   6.732   1.589  0.0757 -0.0866 -0.3179
14324TIP3    H164387   1.154   6.746   1.625 -0.4364 -0.7499  1.2162
14324TIP3    H264388   1.069   6.645   1.550  0.3102  0.1897 -0.9234
14325TIP3   OH264389   0.369   5.665   2.731 -0.2446 -0.0711  0.0080
14325TIP3    H164390   0.373   5.573   2.702 -2.4857 -1.0891  2.7717
14325TIP3    H264391   0.428   5.668   2.806  0.5778  1.0174 -0.6722
14326TIP3   OH264392   6.781   2.439   2.902 -0.1365  0.3107 -0.2659
14326TIP3    H164393   6.861   2.477   2.940  1.9148 -2.6335 -1.3821
14326TIP3    H264394   6.795   2.443   2.808 -1.1773 -0.4935 -0.4619
14327TIP3   OH264395   5.014   3.537   3.271 -0.6372  0.3419  0.1466
14327TIP3    H164396   5.102   3.559   3.241 -1.3642  0.0079 -2.2947
14327TIP3    H264397   4.966   3.620   3.268 -0.9753  0.1223 -0.5508
14328TIP3   OH264398   0.646   2.713  13.251 -0.0678 -0.0477  0.8303
14328TIP3    H164399   0.714   2.659  13.290 -1.6503 -2.6452  0.1639
14328TIP3    H264400   0.574   2.711  13.315 -0.3713  0.7220  0.5134
14329TIP3   OH264401   5.202   6.227   1.015 -0.4043  0.0838 -0.3824
14329TIP3    H164402   5.210   6.133   1.026 -2.0091 -0.0301 -0.0934
14329TIP3    H264403   5.272   6.264   1.069 -1.7563 -0.8336  2.0738
14330TIP3   OH264404   6.483   3.852   1.909  0.2919 -0.0634  0.4623
14330TIP3    H164405   6.509   3.860   2.001  0.1068  2.6363  0.3107
14330TIP3    H264406   6.395   3.815   1.912 -0.3240  1.4153  1.4728
14331TIP3   OH264407   1.763   1.123   2.730 -0.0966  0.0349  0.0432
14331TIP3    H164408   1.811   1.113   2.647 -1.2702 -1.1980 -0.5224
14331TIP3    H264409   1.827   1.101   2.798  0.5417 -0.1653 -0.6134
14332TIP3   OH264410   6.515   3.650  15.539 -0.0744  0.1719  0.2112
14332TIP3    H164411   6.450   3.720  15.547  0.4514  0.8634 -1.3559
14332TIP3    H264412   6.574   3.681  15.471  0.6845 -1.4091  0.1462
14333TIP3   OH264413   3.200   1.584   5.649 -0.2459 -0.3889 -0.4384
14333TIP3    H164414   3.253   1.537   5.585  1.0904 -0.5045  0.7097
14333TIP3    H264415   3.180   1.518   5.716  0.4719  0.3234  0.4915
14334TIP3   OH264416   3.725   4.255  13.547  0.3709  0.4221 -0.1066
14334TIP3    H164417   3.679   4.203  13.613  1.4946 -1.8420 -1.0219
14334TIP3    H264418   3.796   4.298  13.595  1.4133 -1.5095  0.1546
14335TIP3   OH264419   5.102   4.831  16.628  0.4341 -0.1796  0.4208
14335TIP3    H164420   5.027   4.890  16.623  0.4474 -0.3313 -1.7426
14335TIP3    H264421   5.065   4.746  16.649  0.0969 -0.0770  0.2450
14336TIP3   OH264422   4.442   5.612  11.393 -0.1214 -0.4639  0.9785
14336TIP3    H164423   4.505   5.551  11.432  1.2636  1.0906  1.1931
14336TIP3    H264424   4.495   5.682  11.355 -1.6085 -0.2656 -0.8405
14337TIP3   OH264425   2.113   1.468   0.578  0.1061  0.2795  0.0619
14337TIP3    H164426   2.044   1.416   0.537  1.6919 -0.0723 -2.2995
14337TIP3    H264427   2.067   1.533   0.631 -1.9998 -0.5688 -0.7070
14338TIP3   OH264428   6.551   3.745   2.721  0.0906  0.6291  0.2121
14338TIP3    H164429   6.623   3.784   2.772  0.2982  0.3287  0.1480
14338TIP3    H264430   6.594   3.710   2.643  0.0993 -0.9635  0.9269
14339TIP3   OH264431   0.811   3.890  12.085 -0.8551  0.2994  0.3296
14339TIP3    H164432   0.798   3.905  12.178  0.1938 -0.8748  0.6821
14339TIP3    H264433   0.786   3.799  12.071  1.8029 -0.4424  0.0568
14340TIP3   OH264434   2.796   6.390   1.000 -0.2569  0.1673 -0.5215
14340TIP3    H164435   2.772   6.442   1.076 -1.8386  1.3903 -1.8404
14340TIP3    H264436   2.786   6.299   1.029 -1.5597  0.6266  0.4813
14341TIP3   OH264437   4.301   4.364  12.646 -0.2119 -0.0358  0.8720
14341TIP3    H164438   4.245   4.438  12.671 -4.0428 -1.3020 -3.2958
14341TIP3    H264439   4.375   4.404  12.600 -0.9536  1.3394  0.8375
14342TIP3   OH264440   5.503   4.423  12.066  1.0393 -0.2707 -0.0107
14342TIP3    H164441   5.519   4.498  12.010  0.9373 -0.6285 -0.5175
14342TIP3    H264442   5.547   4.445  12.148  1.3975  0.1402 -0.3102
14343TIP3   OH264443   2.257   4.732  13.243 -0.3734  0.0280 -0.0727
14343TIP3    H164444   2.242   4.824  13.265 -0.2304  0.5146 -1.8639
14343TIP3    H264445   2.307   4.736  13.161  1.2925 -1.6258  0.8093
14344TIP3   OH264446   3.415   6.240   4.907  0.0728 -0.3055 -0.0737
14344TIP3    H164447   3.403   6.327   4.869 -2.1475 -0.2481  0.6688
14344TIP3    H264448   3.410   6.255   5.002 -0.2029 -1.2073  0.0601
14345TIP3   OH264449   4.700   6.415   3.275  0.4217  0.8908  0.5345
14345TIP3    H164450   4.668   6.500   3.305  1.6878  1.9677 -1.0788
14345TIP3    H264451   4.739   6.433   3.189  1.0119 -1.2543  0.3293
14346TIP3   OH264452   2.806   6.005  16.136  0.0961  0.0969 -0.0445
14346TIP3    H164453   2.730   6.040  16.182 -0.9760 -0.1313 -1.6381
14346TIP3    H264454   2.791   5.911  16.132  0.9617 -0.0777  0.5204
14347TIP3   OH264455   3.451   4.296   2.312  0.2047  0.4398  0.5551
14347TIP3    H164456   3.439   4.310   2.218 -1.1533  0.1075  0.6634
14347TIP3    H264457   3.533   4.340   2.333  1.4693 -1.0336 -1.1249
14348TIP3   OH264458   4.891   5.799  15.822  0.2212  0.2250  0.0212
14348TIP3    H164459   4.892   5.824  15.915  2.2978  1.1608 -0.2320
14348TIP3    H264460   4.851   5.873  15.777  0.7556  0.4920 -0.0174
14349TIP3   OH264461   2.146   4.662  17.234  0.3468  0.1382  0.2472
14349TIP3    H164462   2.067   4.710  17.260 -0.6853 -0.7994 -1.0369
14349TIP3    H264463   2.113   4.576  17.206  1.8511 -0.3409 -0.0712
14350TIP3   OH264464   4.065   0.433   4.639 -0.0838 -0.0233 -0.1662
14350TIP3    H164465   3.972   0.454   4.630 -0.2158 -0.7028 -0.3939
14350TIP3    H264466   4.075   0.350   4.593  0.7291  0.2792 -0.5307
14351TIP3   OH264467   3.377   4.748  16.678  0.1553 -0.4051 -0.3116
14351TIP3    H164468   3.379   4.819  16.614  0.0548  0.1877  0.3367
14351TIP3    H264469   3.431   4.780  16.750 -2.3609  0.2835  1.3193
14352TIP3   OH264470   6.590   5.225  15.568 -0.1676  0.2967  0.1699
14352TIP3    H164471   6.579   5.317  15.541  1.6167  0.2626 -0.8130
14352TIP3    H264472   6.591   5.228  15.663  0.3158  1.3726  0.1444
14353TIP3   OH264473   1.358   4.953  13.184 -0.8488  0.4280  0.0564
14353TIP3    H164474   1.429   5.017  13.186  0.0294 -0.5769  1.8808
14353TIP3    H264475   1.396   4.873  13.219 -2.4475 -0.5910 -0.4795
14354TIP3   OH264476   2.896   1.618  12.826 -0.4122  0.2431 -0.3357
14354TIP3    H164477   2.969   1.678  12.810 -0.6370  0.3471 -0.9591
14354TIP3    H264478   2.880   1.576  12.742 -1.5843  0.7974 -0.3996
14355TIP3   OH264479   2.773   1.262  10.754 -0.4645  0.0329 -0.8209
14355TIP3    H164480   2.847   1.212  10.719  0.8842  2.6450 -1.8466
14355TIP3    H264481   2.696   1.215  10.723  0.7302 -2.3753 -0.2748
14356TIP3   OH264482   0.254   4.520  13.961 -0.5623 -0.4937 -0.4574
14356TIP3    H164483   0.294   4.443  14.002  0.6879  0.4346  0.1124
14356TIP3    H264484   0.238   4.494  13.871 -0.4240 -1.5238 -0.1875
14357TIP3   OH264485   5.995   6.672  13.061 -0.3308 -0.2178  0.1796
14357TIP3    H164486   6.052   6.603  13.095  0.8431 -0.1353 -1.5411
14357TIP3    H264487   6.052   6.749  13.054 -1.8727  1.2829  3.0731
14358TIP3   OH264488   6.070   1.063   0.247  0.0869  0.3430  0.2813
14358TIP3    H164489   6.113   1.134   0.295 -0.0290  0.6342 -0.0432
14358TIP3    H264490   6.140   1.001   0.227  0.2804  0.6078  0.1344
14359TIP3   OH264491   1.862   0.714  12.541  0.1208  0.2985  0.5746
14359TIP3    H164492   1.830   0.695  12.629 -1.0055 -1.2571 -0.1311
14359TIP3    H264493   1.919   0.640  12.520 -0.8101 -0.1244 -0.5528
14360TIP3   OH264494   2.521   0.163   3.437  0.2489  0.3837  0.2134
14360TIP3    H164495   2.552   0.227   3.501  1.0805 -0.4802  0.6844
14360TIP3    H264496   2.445   0.123   3.478  1.0433 -0.4859  0.8761
14361TIP3   OH264497   5.629   4.585  14.883  0.7500 -0.0333 -0.4508
14361TIP3    H164498   5.630   4.676  14.853  0.2976 -1.0364 -3.6811
14361TIP3    H264499   5.719   4.555  14.870  0.8625 -0.0974  0.4634
14362TIP3   OH264500   1.745   3.825  11.829  0.8357  0.1138  0.3912
14362TIP3    H164501   1.791   3.808  11.911  0.5587  1.3024  0.8038
14362TIP3    H264502   1.767   3.751  11.773  0.1949 -1.2280  1.8943
14363TIP3   OH264503   3.425   1.125  16.111  0.1762  0.1682  0.4952
14363TIP3    H164504   3.340   1.110  16.153 -0.7998 -0.7855 -1.7619
14363TIP3    H264505   3.452   1.039  16.080  2.1574  0.4077  1.4698
14364TIP3   OH264506   4.246   0.460  16.840  0.0059 -0.1653 -0.6327
14364TIP3    H164507   4.319   0.472  16.901 -1.0983  0.7733  0.5532
14364TIP3    H264508   4.265   0.521  16.768 -0.3555  1.1749  0.3932
14365TIP3   OH264509   3.973   0.483  12.999 -0.0797  0.2833 -0.1465
14365TIP3    H164510   3.927   0.400  13.012  0.2444  0.2902  1.1577
14365TIP3    H264511   3.938   0.518  12.917 -0.8277 -0.7387 -0.2716
14366TIP3   OH264512   2.781   3.541  11.874  0.1365  0.0801 -0.3432
14366TIP3    H164513   2.854   3.551  11.936 -0.8932  1.9304  0.6128
14366TIP3    H264514   2.741   3.628  11.870  0.7429  0.2645 -4.3662
14367TIP3   OH264515   3.660   4.917   3.187  0.0009 -0.0056 -0.0647
14367TIP3    H164516   3.667   4.995   3.132  1.3510  0.2069  0.3842
14367TIP3    H264517   3.681   4.948   3.275 -2.6467 -0.2416  0.6801
14368TIP3   OH264518   2.670   2.415   5.733  0.2563 -0.7256  0.0047
14368TIP3    H164519   2.671   2.418   5.829 -0.1808  0.0457 -0.0134
14368TIP3    H264520   2.602   2.477   5.708  0.7303 -0.5362 -0.8209
14369TIP3   OH264521   4.151   6.417   5.211  0.0515 -0.1095  0.4136
14369TIP3    H164522   4.186   6.453   5.129 -0.2324  0.0007  0.3368
14369TIP3    H264523   4.225   6.416   5.271 -0.0897  1.2830  0.6360
14370TIP3   OH264524   5.326   4.093  14.407 -0.0268 -0.1638 -0.1131
14370TIP3    H164525   5.315   4.150  14.484  1.4196  0.2568 -0.1913
14370TIP3    H264526   5.343   4.154  14.335  2.0389 -0.7049 -0.1022
14371TIP3   OH264527   5.091   1.350  14.111 -0.7819  0.2803 -0.2677
14371TIP3    H164528   5.070   1.434  14.069 -0.4184  1.0817  1.0978
14371TIP3    H264529   5.107   1.373  14.203  0.1230 -1.1735 -0.0467
14372TIP3   OH264530   6.391   1.607  12.997 -0.2070  0.3735  0.1038
14372TIP3    H164531   6.383   1.514  13.017  4.1297  0.3595  2.5225
14372TIP3    H264532   6.413   1.611  12.904  0.2109 -1.0620  0.1382
14373TIP3   OH264533   0.365   3.352  13.917  0.0439  0.0288  0.6161
14373TIP3    H164534   0.311   3.415  13.869 -0.4274 -1.1839 -0.4761
14373TIP3    H264535   0.354   3.375  14.009  1.3031  2.6942  0.1736
14374TIP3   OH264536   0.213   3.444  12.310  0.2409 -0.2556  0.0888
14374TIP3    H164537   0.248   3.529  12.283 -0.0814  0.2745  1.2704
14374TIP3    H264538   0.118   3.458  12.314  0.4577  0.9727  5.4007
14375TIP3   OH264539   2.953   4.026   6.558 -0.2146 -0.3902 -0.1973
14375TIP3    H164540   2.960   3.940   6.516  0.5044 -0.3246 -0.2241
14375TIP3    H264541   2.923   4.006   6.647  1.5809 -0.8294  0.3383
14376TIP3   OH264542   1.709   4.979   0.771 -0.2856 -0.1293 -0.1213
14376TIP3    H164543   1.677   4.905   0.719 -0.9861  0.7118 -0.9063
14376TIP3    H264544   1.696   5.055   0.715  0.1814  0.6328  0.7877
14377TIP3   OH264545   1.815   0.073  15.365 -0.3727  0.0229 -0.2304
14377TIP3    H164546   1.812  -0.019  15.340  0.9834  0.2310 -1.1798
14377TIP3    H264547   1.903   0.086  15.399 -0.4112  1.0853 -0.5274
14378TIP3   OH264548   1.079   3.944   2.360 -0.4286 -0.6821  0.1683
14378TIP3    H164549   1.009   3.988   2.407 -0.3519 -0.1448 -0.2150
14378TIP3    H264550   1.061   3.851   2.371 -2.0505 -0.5474 -1.1833
14379TIP3   OH264551   6.302   4.130  12.082 -0.1803 -0.1686 -0.0879
14379TIP3    H164552   6.295   4.085  12.166  0.2648 -0.4183 -0.1818
14379TIP3    H264553   6.319   4.221  12.105  1.9379 -0.5788  0.0980
14380TIP3   OH264554   5.736   2.375   2.879  0.1755 -0.1863  0.4621
14380TIP3    H164555   5.721   2.462   2.917  1.9704  0.0113  0.7248
14380TIP3    H264556   5.648   2.336   2.874 -0.6731  1.7005  0.1890
14381TIP3   OH264557   4.297   4.517   4.121 -0.2080  0.3285  0.0440
14381TIP3    H164558   4.222   4.573   4.104  0.3029  0.7925 -0.7159
14381TIP3    H264559   4.281   4.482   4.209 -0.8826  1.1049  0.2429
14382TIP3   OH264560   6.195   2.640  13.393  0.0333 -0.4950 -0.1538
14382TIP3    H164561   6.280   2.624  13.435  0.9234 -1.3265 -2.2399
14382TIP3    H264562   6.165   2.553  13.366 -0.8247 -0.0268 -0.7120
14383TIP3   OH264563   3.705   0.527  14.516  0.1424 -0.2508  0.5303
14383TIP3    H164564   3.640   0.593  14.492  0.9746  0.4905  0.2520
14383TIP3    H264565   3.669   0.445  14.484  0.1181  0.3907 -1.1697
14384TIP3   OH264566   3.328   6.496  16.862  0.0333  0.0470  0.3351
14384TIP3    H164567   3.329   6.435  16.788 -1.3137  0.4965 -0.0695
14384TIP3    H264568   3.377   6.572  16.831 -0.8908  0.4083 -0.2574
14385TIP3   OH264569   3.085   1.930  15.089  0.6354  0.2211  0.3402
14385TIP3    H164570   3.157   1.900  15.034  0.3468 -0.1988  0.1896
14385TIP3    H264571   3.018   1.862  15.080 -0.0681  0.9672 -0.0993
14386TIP3   OH264572   6.394   2.569   5.562 -0.5012  0.3019  1.3174
14386TIP3    H164573   6.437   2.611   5.637 -1.4974  0.0811  2.0278
14386TIP3    H264574   6.361   2.486   5.597  0.9145 -0.8131  0.0815
14387TIP3   OH264575   3.695   4.273   0.444 -0.0625 -0.2005 -0.6642
14387TIP3    H164576   3.760   4.279   0.374 -0.4648  1.7683 -0.8966
14387TIP3    H264577   3.703   4.356   0.491 -1.1398 -0.7016  0.4220
14388TIP3   OH264578   4.430   3.092  13.389  0.1077  0.1669 -0.0505
14388TIP3    H164579   4.521   3.120  13.376  0.0386  0.9375  1.0507
14388TIP3    H264580   4.436   3.025  13.457  0.0999 -1.4832 -1.6275
14389TIP3   OH264581   4.762   6.142   3.883  0.4791  0.1910 -0.6890
14389TIP3    H164582   4.679   6.095   3.889  1.2987 -1.0790  1.2083
14389TIP3    H264583   4.766   6.172   3.793 -0.0250 -3.5122 -2.0083
14390TIP3   OH264584   3.936   0.211  12.758 -0.0689 -0.2953  0.2803
14390TIP3    H164585   4.001   0.169  12.701  0.3053  0.3971  0.1869
14390TIP3    H264586   3.868   0.145  12.769 -0.2397 -0.3712 -1.1296
14391TIP3   OH264587   4.115   3.344  17.171  0.2757  0.1178  0.1131
14391TIP3    H164588   4.028   3.368  17.205  0.6000 -0.1191  1.1083
14391TIP3    H264589   4.105   3.349  17.076 -0.6023  0.9129  0.2369
14392TIP3   OH264590   5.461   2.562   5.654  0.0805  0.0112 -0.2242
14392TIP3    H164591   5.433   2.471   5.641 -0.2916 -0.0440  0.9508
14392TIP3    H264592   5.449   2.578   5.748 -0.3920  1.4515 -0.5187
14393TIP3   OH264593   6.242   5.174   0.667 -0.0922 -0.4610  0.1928
14393TIP3    H164594   6.268   5.234   0.736  0.2992 -0.9924  0.5105
14393TIP3    H264595   6.159   5.209   0.635 -0.2841 -0.2256  0.9425
14394TIP3   OH264596   6.376   5.028   0.174 -0.1700 -0.1793  0.1337
14394TIP3    H164597   6.383   5.113   0.217  0.5364  0.4932 -1.2611
14394TIP3    H264598   6.314   5.042   0.102  1.5635 -0.2366 -1.4339
14395TIP3   OH264599   6.085   4.635  13.295  0.1889 -0.3195 -0.0149
14395TIP3    H164600   6.111   4.715  13.249  0.8180 -0.1974  0.5458
14395TIP3    H264601   6.101   4.565  13.232  1.0183 -0.1543  0.0112
14396TIP3   OH264602   1.231   4.423  13.279  0.5548  0.2571 -0.0152
14396TIP3    H164603   1.325   4.437  13.286  0.5384  1.3402 -1.5773
14396TIP3    H264604   1.201   4.489  13.216 -0.9829 -1.0822 -0.7605
14397TIP3   OH264605   3.781   2.894  12.586  0.0695  0.1742  0.1993
14397TIP3    H164606   3.857   2.892  12.645 -0.7869 -2.6819  1.2726
14397TIP3    H264607   3.782   2.810  12.542 -1.0762  1.0958 -1.6493
14398TIP3   OH264608   0.564   5.054  17.006  0.5862 -0.6242  0.3628
14398TIP3    H164609   0.475   5.053  16.971  0.8261  1.0864 -0.3281
14398TIP3    H264610   0.552   5.058  17.100 -0.1108  2.4113  0.1950
14399TIP3   OH264611   4.496   5.727   0.320  0.0519  0.1575  0.3268
14399TIP3    H164612   4.524   5.674   0.395 -0.8852  0.7759  1.1185
14399TIP3    H264613   4.482   5.663   0.250  0.6137 -0.4572  0.7652
14400TIP3   OH264614   6.120   3.787  15.156  0.0553  0.9628 -0.4634
14400TIP3    H164615   6.132   3.703  15.200  0.7791  0.6710 -1.2140
14400TIP3    H264616   6.200   3.799  15.105  0.0119  2.1630 -0.2715
14401TIP3   OH264617   0.726   0.759   4.726  0.0599  0.4146  0.1676
14401TIP3    H164618   0.717   0.725   4.637 -0.0778  1.0652 -0.0664
14401TIP3    H264619   0.810   0.723   4.756  1.1703  1.9667 -1.0238
14402TIP3   OH264620   0.992   3.045   0.655 -0.2482 -0.2840 -1.1875
14402TIP3    H164621   1.066   3.032   0.596  0.4137 -0.3165 -0.3598
14402TIP3    H264622   0.952   3.128   0.625  1.2186  0.6878 -0.5081
14403TIP3   OH264623   3.173   5.944  14.257  0.2267 -0.1970  0.4271
14403TIP3    H164624   3.088   5.952  14.213 -0.3927  4.4670  2.1604
14403TIP3    H264625   3.162   5.870  14.316 -2.5956  0.1318  0.4091
14404TIP3   OH264626   3.567   2.621   3.305  0.7635  0.0050  0.1792
14404TIP3    H164627   3.582   2.679   3.230  0.9833 -0.4907 -0.1637
14404TIP3    H264628   3.485   2.652   3.343  0.8824  0.5470  0.0068
14405TIP3   OH264629   3.884   1.741  12.031  0.3009 -0.4821 -0.3082
14405TIP3    H164630   3.899   1.782  11.946 -1.5360 -0.1803 -0.5139
14405TIP3    H264631   3.792   1.713  12.027 -0.2250  0.8412  2.1213
14406TIP3   OH264632   3.152   1.730   1.964  0.7415  0.0778  0.4234
14406TIP3    H164633   3.092   1.663   1.998  1.2155 -0.1055  0.9103
14406TIP3    H264634   3.109   1.813   1.985 -0.2889 -0.0773 -1.0002
14407TIP3   OH264635   5.989   5.275   1.174  0.4631  0.0972  0.3032
14407TIP3    H164636   6.074   5.256   1.213  0.6690  3.3580  1.5611
14407TIP3    H264637   5.991   5.369   1.156 -1.5917 -0.3842 -2.8439
14408TIP3   OH264638   1.885   3.834  15.009  0.1379 -0.1381  0.0809
14408TIP3    H164639   1.819   3.791  14.955  1.0778  0.2135 -1.3620
14408TIP3    H264640   1.968   3.793  14.983  0.7618  0.9491  0.3339
14409TIP3   OH264641   6.451   5.930  14.281  0.7854 -0.2695  0.2376
14409TIP3    H164642   6.362   5.894  14.288  1.2430 -1.7477 -1.1979
14409TIP3    H264643   6.441   6.023  14.301 -1.4168 -0.0368 -1.6408
14410TIP3   OH264644   4.153   3.057  10.546  0.3027 -0.4444 -0.4145
14410TIP3    H164645   4.235   3.037  10.501  1.9475  0.4067  2.0798
14410TIP3    H264646   4.085   3.014  10.494  2.4723 -2.2894 -1.7881
14411TIP3   OH264647   4.497   6.267   4.705  0.0148 -0.4448  0.2353
14411TIP3    H164648   4.544   6.323   4.768  2.5342 -1.0679 -1.0081
14411TIP3    H264649   4.462   6.196   4.758  2.2619 -1.0659  0.9695
14412TIP3   OH264650   1.353   5.752   4.959 -0.3620  0.6317 -0.3331
14412TIP3    H164651   1.309   5.671   4.934 -1.6386  1.0842  0.3548
14412TIP3    H264652   1.417   5.725   5.025  0.4915 -0.0494 -1.4213
14413TIP3   OH264653   4.457   3.885  15.137 -0.1918 -0.6609 -0.8879
14413TIP3    H164654   4.363   3.902  15.135  0.0448  2.3794  4.2265
14413TIP3    H264655   4.469   3.822  15.208  1.7356  0.0920 -0.5034
14414TIP3   OH264656   4.530   1.968   3.347  0.0093 -0.7385  0.0388
14414TIP3    H164657   4.517   2.038   3.283  0.0009  0.0669  0.9025
14414TIP3    H264658   4.624   1.951   3.346 -0.0883 -1.2029 -0.6873
14415TIP3   OH264659   1.860   5.230  11.427  0.1309 -0.3171 -0.1738
14415TIP3    H164660   1.893   5.156  11.376  0.8174 -1.0613  1.3120
14415TIP3    H264661   1.801   5.190  11.491 -1.8698  0.7690 -1.3132
14416TIP3   OH264662   0.645   5.558   4.699 -0.0354 -0.0158  0.3696
14416TIP3    H164663   0.568   5.538   4.647 -0.2179 -0.0583  0.6550
14416TIP3    H264664   0.613   5.617   4.768  0.4361  1.0470 -0.2986
14417TIP3   OH264665   5.246   4.507  14.069  0.2044 -0.4522 -0.2570
14417TIP3    H164666   5.180   4.575  14.081  0.6648  0.2812 -1.6595
14417TIP3    H264667   5.329   4.555  14.069  0.6238 -1.1777  0.0086
14418TIP3   OH264668   4.553   4.832  15.005 -0.0499  0.1644  0.5327
14418TIP3    H164669   4.493   4.907  15.003  0.8866  0.9198  0.1795
14418TIP3    H264670   4.503   4.761  14.965 -0.7425  0.7589  0.3101
14419TIP3   OH264671   4.003   4.076  15.821  0.0861  0.0800 -0.0472
14419TIP3    H164672   3.922   4.080  15.870  0.0519  1.0768 -0.1854
14419TIP3    H264673   3.976   4.071  15.729  0.1859  2.3888 -0.2266
14420TIP3   OH264674   5.279   3.207   3.031 -0.2946 -0.2172 -0.0539
14420TIP3    H164675   5.243   3.225   3.117 -1.5501 -1.1570 -0.3702
14420TIP3    H264676   5.374   3.204   3.045 -0.5800 -2.4011  1.7103
14421TIP3   OH264677   2.106   2.753  13.888  0.1151 -0.2152 -0.7591
14421TIP3    H164678   2.093   2.794  13.802 -0.4639 -1.4234 -1.2637
14421TIP3    H264679   2.169   2.683  13.872 -0.5437 -0.9095 -0.3461
14422TIP3   OH264680   5.343   4.093  16.403 -0.0211  0.4691  0.5898
14422TIP3    H164681   5.359   4.117  16.311  2.4267  0.7521  1.0532
14422TIP3    H264682   5.312   4.174  16.443  0.6892  0.8453  0.3982
14423TIP3   OH264683   6.069   5.244  14.971 -0.1084 -0.3541 -0.2254
14423TIP3    H164684   6.091   5.171  15.029  0.3854  1.0586  1.4382
14423TIP3    H264685   6.138   5.243  14.904  0.5058 -0.7759  0.3990
14424TIP3   OH264686   4.333   4.533  16.497 -0.0869 -0.2071  0.0451
14424TIP3    H164687   4.388   4.563  16.569 -0.8247 -0.3415  0.6700
14424TIP3    H264688   4.394   4.507  16.429  0.7814 -3.8324  2.0805
14425TIP3   OH264689   5.833   5.301  15.104  0.1233  0.5542  0.3379
14425TIP3    H164690   5.914   5.277  15.057  0.9404  1.0034  1.4877
14425TIP3    H264691   5.850   5.390  15.134 -0.7641  0.5953  0.6998
14426TIP3   OH264692   3.080   4.673  13.581  0.2249  0.1849 -0.2680
14426TIP3    H164693   3.118   4.672  13.669 -1.3185  1.6496  0.4251
14426TIP3    H264694   2.986   4.665  13.595  0.0162 -0.3662 -1.8401
14427TIP3   OH264695   3.398   3.973  11.394 -0.1354 -0.2937  0.4787
14427TIP3    H164696   3.383   3.953  11.302 -3.3076 -1.4454  1.1559
14427TIP3    H264697   3.453   3.901  11.426  1.4323  0.4080 -0.6278
14428TIP3   OH264698   5.719   1.290   2.914 -0.3883  0.6974  0.8769
14428TIP3    H164699   5.642   1.294   2.970 -1.7094 -1.4713 -0.7017
14428TIP3    H264700   5.684   1.282   2.826  1.6605  2.7578 -0.1857
14429TIP3   OH264701   1.233   4.850  14.079 -0.3582  0.0231 -0.0517
14429TIP3    H164702   1.314   4.850  14.028  0.6081 -0.6624  1.4543
14429TIP3    H264703   1.165   4.826  14.015  0.6310  0.5033 -1.3021
14430TIP3   OH264704   0.480   6.300   2.560 -0.2265 -0.5998 -0.1489
14430TIP3    H164705   0.430   6.219   2.548 -0.3776 -0.4610 -0.4626
14430TIP3    H264706   0.572   6.272   2.554 -0.2508 -0.9460  1.0073
14431TIP3   OH264707   5.841   4.361  16.204 -0.1637  0.1078 -0.7374
14431TIP3    H164708   5.899   4.369  16.279 -0.5244 -0.6449 -0.3722
14431TIP3    H264709   5.765   4.416  16.227 -0.5736 -0.6470 -0.2493
14432TIP3   OH264710   1.867   5.549  17.056  0.1569  0.0843  0.0584
14432TIP3    H164711   1.954   5.523  17.087 -1.1759 -1.0018  2.9998
14432TIP3    H264712   1.852   5.634  17.097 -0.3334  0.1118 -0.1784
14433TIP3   OH264713   5.552   5.939  12.774 -0.0658  0.0290 -0.5162
14433TIP3    H164714   5.518   5.919  12.687 -0.7370  0.7028 -0.4061
14433TIP3    H264715   5.495   6.008  12.808 -0.5398 -1.0531  0.9412
14434TIP3   OH264716   6.483   3.889  13.554  0.0864  0.0197  0.1322
14434TIP3    H164717   6.566   3.920  13.518 -0.6801 -0.5997 -2.3038
14434TIP3    H264718   6.482   3.919  13.645  2.5819  0.7603 -0.0686
14435TIP3   OH264719   3.617   5.584  16.459  0.5501  0.0434 -0.0925
14435TIP3    H164720   3.683   5.583  16.529  1.1146 -0.4437 -0.6209
14435TIP3    H264721   3.555   5.515  16.483  0.4857  0.1962  0.1727
14436TIP3   OH264722   5.745   3.665  13.561  0.0627 -0.4671 -0.3596
14436TIP3    H164723   5.819   3.622  13.603 -2.1886 -2.0460  2.1754
14436TIP3    H264724   5.743   3.628  13.472  1.2388 -1.7731  0.1353
14437TIP3   OH264725   5.394   2.297   5.934  0.4203 -0.3195 -0.0160
14437TIP3    H164726   5.400   2.207   5.965  0.8482 -0.4555 -0.4771
14437TIP3    H264727   5.327   2.338   5.988  0.1933 -0.9326  0.1600
14438TIP3   OH264728   2.717   2.943  11.376 -0.2959  0.2341 -0.0099
14438TIP3    H164729   2.630   2.905  11.363 -1.1692  1.8292  0.9705
14438TIP3    H264730   2.700   3.036  11.390  1.5779  0.5503  0.2060
14439TIP3   OH264731   4.044   1.091  12.897 -0.0754  0.1223 -0.0202
14439TIP3    H164732   4.041   1.006  12.940  2.2114  1.0824  2.1684
14439TIP3    H264733   4.061   1.071  12.805 -0.0157 -1.7867  0.3882
14440TIP3   OH264734   0.070   2.193  15.072  0.1777 -0.1789 -0.0689
14440TIP3    H164735   0.021   2.181  14.990  0.6987 -1.3941 -0.2161
14440TIP3    H264736   0.002   2.198  15.139 -0.2026 -0.5482 -0.4202
14441TIP3   OH264737   5.222   5.388  12.179 -0.1059 -0.4809  0.5827
14441TIP3    H164738   5.132   5.420  12.188  0.2910  0.0697  2.7884
14441TIP3    H264739   5.240   5.343  12.262  1.2728 -1.5604 -0.2770
14442TIP3   OH264740   3.229   6.230  11.208  0.1095  0.7436  0.3459
14442TIP3    H164741   3.252   6.284  11.132  0.3411  0.8407  0.4859
14442TIP3    H264742   3.191   6.151  11.170 -1.3237  1.5030  0.1672
14443TIP3   OH264743   6.782   6.765  14.440  0.0479  0.4951 -0.1968
14443TIP3    H164744   6.861   6.742  14.488  0.9240  1.4359 -1.1530
14443TIP3    H264745   6.715   6.777  14.508  0.0849 -2.6401  0.4697
14444TIP3   OH264746   0.756   4.863   5.932 -0.9131  0.3450 -0.2862
14444TIP3    H164747   0.833   4.856   5.876 -0.4852 -1.4156  0.4969
14444TIP3    H264748   0.791   4.868   6.021 -1.6623  1.0529 -0.0178
14445TIP3   OH264749   2.307   5.183   5.196  0.5668  0.9186 -0.8944
14445TIP3    H164750   2.276   5.230   5.119  3.5218 -2.3412 -4.2964
14445TIP3    H264751   2.259   5.099   5.193  1.9459  0.0907 -0.1760
14446TIP3   OH264752   4.723   0.406  11.929 -0.1210  0.4173  0.0092
14446TIP3    H164753   4.818   0.400  11.941 -0.4209 -2.9831  1.4893
14446TIP3    H264754   4.692   0.456  12.004  0.4492  1.1126 -0.2165
14447TIP3   OH264755   0.357   3.916   2.154  0.5569 -0.5965  0.0861
14447TIP3    H164756   0.292   3.905   2.084 -0.4999 -2.2140  1.3013
14447TIP3    H264757   0.432   3.958   2.110 -1.2437  1.2373 -1.3454
14448TIP3   OH264758   5.975   6.347  11.779 -0.1014 -0.2743  0.2535
14448TIP3    H164759   6.059   6.385  11.754 -0.5398  0.5320 -0.0303
14448TIP3    H264760   5.936   6.411  11.838 -0.1205 -1.0648  1.0973
14449TIP3   OH264761   1.867   6.288   1.772  0.0789  0.0912  0.0789
14449TIP3    H164762   1.800   6.290   1.840  1.2834 -2.6052  1.4020
14449TIP3    H264763   1.824   6.248   1.697 -0.4331  0.4493  0.1781
14450TIP3   OH264764   3.523   6.318  15.249 -0.3297 -0.9689 -0.2918
14450TIP3    H164765   3.539   6.260  15.323  1.1949  0.4011  0.4845
14450TIP3    H264766   3.598   6.378  15.249 -2.0690  1.2478 -0.8385
14451TIP3   OH264767   5.668   5.201   4.708  0.5270  0.1865 -0.0845
14451TIP3    H164768   5.585   5.249   4.713  1.8477  2.4878  0.4064
14451TIP3    H264769   5.694   5.208   4.616  0.1108 -0.6701 -0.2712
14452TIP3   OH264770   0.662   0.664  11.296 -0.5576  0.4083  0.0876
14452TIP3    H164771   0.576   0.696  11.270 -0.8044  1.4414  2.0771
14452TIP3    H264772   0.656   0.569  11.288 -1.3276  0.5798 -1.3981
14453TIP3   OH264773   3.532   4.169   1.332  0.1535 -0.0702  0.2563
14453TIP3    H164774   3.524   4.088   1.383 -0.2511  0.2427  0.6865
14453TIP3    H264775   3.473   4.157   1.257  0.1484 -0.1996  0.2815
14454TIP3   OH264776   3.544   3.012  16.478  0.6910  0.4349 -0.0590
14454TIP3    H164777   3.475   2.948  16.493  1.0208 -0.1224 -0.8513
14454TIP3    H264778   3.623   2.969  16.511  0.5233  1.4402  1.7095
14455TIP3   OH264779   0.407   5.381  11.781  0.0705  0.4288 -0.0829
14455TIP3    H164780   0.410   5.379  11.685  1.1590  0.4888 -0.0545
14455TIP3    H264781   0.458   5.459  11.805  1.8368 -0.9080  0.6202
14456TIP3   OH264782   5.297   5.954  11.306  0.0692 -0.3162 -0.1116
14456TIP3    H164783   5.367   5.893  11.327  1.0053  1.0075  0.7606
14456TIP3    H264784   5.342   6.038  11.296 -1.4816  0.7185  1.3117
14457TIP3   OH264785   1.770   2.132   5.054  0.0224 -0.5735 -0.5837
14457TIP3    H164786   1.752   2.078   4.977  2.3626 -0.1773 -1.4367
14457TIP3    H264787   1.775   2.069   5.127 -0.5717 -1.1268 -1.0199
14458TIP3   OH264788   5.680   2.936   3.499 -0.2795 -0.0294  0.0831
14458TIP3    H164789   5.759   2.975   3.461  0.5146 -2.9050 -1.3875
14458TIP3    H264790   5.703   2.917   3.590 -0.0734  1.2725  0.3021
14459TIP3   OH264791   2.449   5.046   4.432  0.0572  0.5957  0.1714
14459TIP3    H164792   2.398   5.123   4.404  0.1116  1.2522  1.8480
14459TIP3    H264793   2.504   5.078   4.503  0.3411 -0.9317  0.6540
14460TIP3   OH264794   0.975   2.518  16.637  0.0701  0.3441 -0.0394
14460TIP3    H164795   1.040   2.462  16.679 -1.2744  0.7913  2.8150
14460TIP3    H264796   1.024   2.570  16.573  2.1604 -0.6312  0.7507
14461TIP3   OH264797   4.815   2.918   4.739 -0.3642  0.2876 -0.7915
14461TIP3    H164798   4.854   3.004   4.750  0.4399 -0.0326 -1.1052
14461TIP3    H264799   4.773   2.921   4.654 -0.5949  0.4704 -0.6709
14462TIP3   OH264800   0.225   2.944   4.936  0.0122 -0.0477 -0.2153
14462TIP3    H164801   0.301   3.000   4.922  0.7135 -0.7036  0.8910
14462TIP3    H264802   0.190   2.972   5.021  0.8709 -1.8215  0.7575
14463TIP3   OH264803   3.029   1.268   0.878 -0.0865 -0.2353 -0.6924
14463TIP3    H164804   3.098   1.234   0.821 -0.5829  2.1950 -2.8088
14463TIP3    H264805   2.963   1.303   0.819 -1.3326  1.0321  1.3677
14464TIP3   OH264806   4.350   4.516   0.141  0.1530  0.4298  0.4484
14464TIP3    H164807   4.270   4.537   0.189  0.1443 -1.3046  1.2411
14464TIP3    H264808   4.324   4.519   0.049 -0.6394  0.6014  0.6719
14465TIP3   OH264809   3.310   4.001  11.122 -0.1855 -0.1993  0.0872
14465TIP3    H164810   3.238   3.989  11.184 -0.6659 -0.4901 -0.5335
14465TIP3    H264811   3.308   4.094  11.100 -1.6874 -0.6034 -1.5430
14466TIP3   OH264812   3.327   3.291  11.091  0.1002 -0.4788 -0.0653
14466TIP3    H164813   3.266   3.360  11.116  1.3322  1.0296 -1.0754
14466TIP3    H264814   3.272   3.215  11.072 -1.5565  1.2040 -2.1976
14467TIP3   OH264815   3.750   4.610   3.106  0.0336  0.3523  0.8653
14467TIP3    H164816   3.718   4.695   3.136 -1.0582  0.8646 -1.6673
14467TIP3    H264817   3.825   4.631   3.050 -1.4092 -0.2031 -1.3144
14468TIP3   OH264818   2.522   4.510   4.969  0.1588 -0.8517  0.2109
14468TIP3    H164819   2.496   4.450   4.899  2.4293 -1.2315 -0.3515
14468TIP3    H264820   2.599   4.469   5.007  0.5508  0.7287  1.1440
14469TIP3   OH264821   4.649   0.806   0.987  0.0095  0.8359 -0.0894
14469TIP3    H164822   4.694   0.761   0.915  0.5188  0.2958  0.5549
14469TIP3    H264823   4.615   0.887   0.948  2.7952  1.9678 -0.2338
14470TIP3   OH264824   6.695   0.682  15.804  0.2862  0.7494  0.1479
14470TIP3    H164825   6.740   0.736  15.869 -0.6262 -0.6738  2.0206
14470TIP3    H264826   6.709   0.592  15.834  1.5952 -0.0814 -2.7874
14471TIP3   OH264827   6.383   5.218  16.169  0.7363  0.2472 -0.2453
14471TIP3    H164828   6.306   5.197  16.221  1.6112 -0.2520  0.8633
14471TIP3    H264829   6.401   5.139  16.119  1.0979  0.0428  0.2106
14472TIP3   OH264830   1.843   5.912   4.279  0.3884  0.1933  0.1092
14472TIP3    H164831   1.826   6.001   4.309 -0.4810 -0.3643  1.3183
14472TIP3    H264832   1.838   5.918   4.184 -0.5971  1.2559  0.2095
14473TIP3   OH264833   6.080   4.449  15.884 -0.3248  0.2663 -0.3534
14473TIP3    H164834   6.136   4.437  15.961 -2.1110 -1.8469  0.6575
14473TIP3    H264835   6.008   4.388  15.897 -1.2116  0.6399 -3.2140
14474TIP3   OH264836   5.773   1.994  14.499 -0.2096 -0.0529  0.4768
14474TIP3    H164837   5.678   1.997  14.498 -0.2283 -0.8663 -0.1303
14474TIP3    H264838   5.800   2.086  14.489 -0.9248  0.5143  3.1732
14475TIP3   OH264839   2.878   2.673  12.837 -0.3366 -0.0157  0.5866
14475TIP3    H164840   2.822   2.744  12.869 -2.1963 -1.6480  1.0896
14475TIP3    H264841   2.875   2.607  12.906  1.0766 -0.7508 -0.0249
14476TIP3   OH264842   6.447   0.915   1.608  0.3910 -0.1083  0.0184
14476TIP3    H164843   6.519   0.852   1.608 -0.1100 -0.7066  0.9522
14476TIP3    H264844   6.483   0.993   1.650  0.9417  0.1431 -0.9177
14477TIP3   OH264845   4.603   2.501  15.024 -0.1334  0.0586  0.1339
14477TIP3    H164846   4.561   2.420  14.994  0.9829 -0.0693 -1.1291
14477TIP3    H264847   4.595   2.561  14.949  0.8468  0.4298  0.3237
14478TIP3   OH264848   1.895   1.533  10.545 -0.1483 -0.4432 -0.3906
14478TIP3    H164849   1.982   1.507  10.574 -0.2693 -0.9065 -0.4517
14478TIP3    H264850   1.872   1.607  10.603  0.3639 -0.1894 -0.5071
14479TIP3   OH264851   5.373   5.018   1.775 -0.5601  0.4855  0.9902
14479TIP3    H164852   5.310   5.065   1.829 -1.2886  0.5669  0.0880
14479TIP3    H264853   5.358   5.051   1.686 -0.1915 -0.5008  0.5519
14480TIP3   OH264854   1.333   1.715  14.279 -0.3721 -0.0778 -0.2045
14480TIP3    H164855   1.343   1.748  14.368 -0.4358  1.2667 -0.6865
14480TIP3    H264856   1.421   1.719  14.242  0.3245 -3.8039  0.8491
14481TIP3   OH264857   5.390   1.886   2.110  0.6610  0.8376  0.8528
14481TIP3    H164858   5.321   1.878   2.043  0.9539  1.2794  0.5003
14481TIP3    H264859   5.467   1.845   2.070  0.0931 -1.4448  1.9922
14482TIP3   OH264860   3.069   5.032  15.927 -0.1138 -0.5418 -0.2180
14482TIP3    H164861   3.008   5.097  15.963  1.3681  1.1046 -0.6351
14482TIP3    H264862   3.095   4.980  16.004  0.8520  1.1549  0.6306
14483TIP3   OH264863   6.693   6.493  13.263 -0.3995 -0.1091 -0.2722
14483TIP3    H164864   6.767   6.476  13.322 -0.5392  1.3645  0.3345
14483TIP3    H264865   6.733   6.534  13.186 -0.5206  0.2414 -0.1493
14484TIP3   OH264866   4.869   4.383  12.758  0.3459 -0.2207 -0.2670
14484TIP3    H164867   4.789   4.391  12.809 -0.0818  2.2540 -1.3036
14484TIP3    H264868   4.936   4.359  12.823 -0.8858 -0.6640  0.8650
14485TIP3   OH264869   5.702   6.606   6.746 -0.7841 -0.4387  0.0306
14485TIP3    H164870   5.785   6.633   6.784  0.0102 -0.6225 -1.5257
14485TIP3    H264871   5.635   6.644   6.803  0.3621  0.4645  0.7768
14486TIP3   OH264872   1.357   6.368   4.304  0.0855 -0.2513  0.0550
14486TIP3    H164873   1.397   6.331   4.382 -0.2735  1.7286  1.2127
14486TIP3    H264874   1.279   6.313   4.289 -0.4840  0.0501  1.7771
14487TIP3   OH264875   2.612   4.941  16.788 -0.4462 -0.2206  0.3132
14487TIP3    H164876   2.604   4.925  16.882 -0.1444 -0.3770  0.3150
14487TIP3    H264877   2.707   4.944  16.773 -0.4868 -1.1679 -0.1508
14488TIP3   OH264878   2.598   0.776  11.436 -0.1606  0.3937 -0.1145
14488TIP3    H164879   2.694   0.772  11.428 -0.2288 -0.5114 -0.5438
14488TIP3    H264880   2.571   0.836  11.367  0.2169  1.9468  1.0489
14489TIP3   OH264881   0.878   3.762   2.606  0.0128  0.0060  0.4213
14489TIP3    H164882   0.839   3.730   2.687 -0.8849 -1.4241 -0.5533
14489TIP3    H264883   0.907   3.683   2.560  0.0769  0.7539 -0.8681
14490TIP3   OH264884   4.178   0.913   4.875  0.6777  0.1194 -0.0216
14490TIP3    H164885   4.134   0.829   4.861  1.6328 -0.5661  0.9791
14490TIP3    H264886   4.138   0.972   4.811  1.0457 -1.4665 -1.7485
14491TIP3   OH264887   6.607   1.751   3.298  0.4571  0.6063 -0.5106
14491TIP3    H164888   6.605   1.734   3.204 -1.1784 -0.3945 -0.3127
14491TIP3    H264889   6.629   1.844   3.305 -2.3206  1.4175 -1.9901
14492TIP3   OH264890   4.532   3.942  12.117  0.1581  0.1263 -0.2583
14492TIP3    H164891   4.444   3.980  12.116  0.9990  2.1113 -0.6336
14492TIP3    H264892   4.519   3.852  12.148 -2.0011  0.3781 -0.3714
14493TIP3   OH264893   5.456   4.250  10.574  0.0784 -0.2445 -0.0351
14493TIP3    H164894   5.468   4.179  10.637  2.2908  0.7638  0.7446
14493TIP3    H264895   5.518   4.230  10.503 -0.3312  0.1508 -0.5117
14494TIP3   OH264896   2.630   0.117  12.505 -0.2561  0.3495 -0.0140
14494TIP3    H164897   2.699   0.161  12.554  0.7865 -2.3928  1.0754
14494TIP3    H264898   2.562   0.183  12.494  1.4986  2.3780  1.0114
14495TIP3   OH264899   2.350   4.997  12.931  0.2093  0.5633  0.0409
14495TIP3    H164900   2.377   4.907  12.947 -1.2665  0.3574  1.4722
14495TIP3    H264901   2.431   5.048  12.942  0.8197 -0.4604  0.3632
14496TIP3   OH264902   2.003   2.337   1.968 -0.5252 -0.4110 -0.0462
14496TIP3    H164903   1.998   2.298   1.881 -0.5167 -1.4914  0.4335
14496TIP3    H264904   2.095   2.364   1.977 -0.5171 -0.3364 -0.3498
14497TIP3   OH264905   3.510   1.414   5.790 -0.4993  0.4781  0.1693
14497TIP3    H164906   3.605   1.418   5.787 -0.5177  0.2031 -1.0958
14497TIP3    H264907   3.489   1.401   5.883  0.7129  0.0213  0.3843
14498TIP3   OH264908   1.764   4.041  16.020  0.0436 -0.2299 -0.0591
14498TIP3    H164909   1.679   4.008  15.992  1.2134 -1.1480 -2.7232
14498TIP3    H264910   1.827   3.979  15.983  1.8563  0.1110  2.3469
14499TIP3   OH264911   2.137   4.731   5.754 -0.2353 -0.4060 -0.2768
14499TIP3    H164912   2.086   4.761   5.678 -0.2162 -2.1054 -0.9782
14499TIP3    H264913   2.227   4.727   5.722 -0.0748 -0.1365  0.1402
14500TIP3   OH264914   4.207   3.141  15.334 -0.0728 -0.0263 -0.6969
14500TIP3    H164915   4.296   3.117  15.359  0.7333  3.8521  0.4884
14500TIP3    H264916   4.216   3.184  15.249 -0.7732  0.5305 -0.4984
14501TIP3   OH264917   1.815   6.751  13.720 -0.2480 -0.1571  0.3238
14501TIP3    H164918   1.840   6.843  13.726  1.1125 -0.4899 -0.0922
14501TIP3    H264919   1.818   6.732  13.626 -0.2310 -0.7104  0.4352
14502TIP3   OH264920   6.026   4.877   0.520 -0.7843 -0.2789 -0.4641
14502TIP3    H164921   6.032   4.943   0.451  0.5923 -0.0260 -0.1103
14502TIP3    H264922   5.933   4.855   0.523 -0.9706  0.2140 -1.9178
14503TIP3   OH264923   6.520   5.898  11.464 -0.0022  0.5442 -0.6936
14503TIP3    H164924   6.579   5.880  11.537  0.0353 -0.5652 -0.9846
14503TIP3    H264925   6.433   5.886  11.501  0.0269 -0.4588 -0.9322
14504TIP3   OH264926   0.926   2.413   3.336  0.7438  0.0248 -0.9326
14504TIP3    H164927   1.017   2.383   3.337  0.4016 -1.0170  1.0923
14504TIP3    H264928   0.908   2.438   3.426 -1.4138 -1.0973 -1.0270
14505TIP3   OH264929   3.193   2.624   4.343  0.0114  0.6391  0.5812
14505TIP3    H164930   3.212   2.563   4.271  1.6052  0.2346  1.3335
14505TIP3    H264931   3.262   2.607   4.407 -0.8634  1.6637  1.7934
14506TIP3   OH264932   0.702   6.186  13.827  0.5529 -0.2192  0.3569
14506TIP3    H164933   0.653   6.224  13.900  1.6432  1.5715  0.1871
14506TIP3    H264934   0.777   6.144  13.868  1.3575  1.0953  0.2710
14507TIP3   OH264935   0.747   5.394  13.694 -0.1245 -0.4534  0.4566
14507TIP3    H164936   0.728   5.471  13.748  0.6004 -0.5479  0.8566
14507TIP3    H264937   0.821   5.351  13.739  1.8620  0.5963 -1.7063
14508TIP3   OH264938   1.871   3.040   5.342  0.4211 -0.3989  0.0444
14508TIP3    H164939   1.888   2.955   5.301  0.9537  0.1247 -0.8524
14508TIP3    H264940   1.841   3.095   5.269 -0.2241  0.0921  0.6783
14509TIP3   OH264941   0.765   4.679  13.106  0.1653  0.3329  0.5443
14509TIP3    H164942   0.855   4.695  13.134  0.7067 -2.1352  0.2829
14509TIP3    H264943   0.755   4.733  13.027  1.7300 -0.1068  0.0306
14510TIP3   OH264944   6.747   4.326  15.452  0.0609 -0.4777 -0.4905
14510TIP3    H164945   6.791   4.402  15.490 -0.6289 -0.9983  1.4191
14510TIP3    H264946   6.731   4.351  15.361 -0.1231  1.6657  0.0915
14511TIP3   OH264947   3.321   4.843   2.394 -0.5644 -0.3183  0.4091
14511TIP3    H164948   3.351   4.758   2.425 -0.0347 -0.7683 -1.3051
14511TIP3    H264949   3.225   4.837   2.399 -0.5540 -1.2592 -0.3295
14512TIP3   OH264950   6.276   5.914   5.823 -0.7165 -0.3040  0.5408
14512TIP3    H164951   6.355   5.863   5.842  0.5901  2.0482  1.7363
14512TIP3    H264952   6.301   5.970   5.749 -0.9779  1.0260  1.4444
14513TIP3   OH264953   4.848   4.561   2.889  0.1265  0.4822  0.1209
14513TIP3    H164954   4.889   4.492   2.943  2.7611  2.4651  0.7859
14513TIP3    H264955   4.766   4.581   2.934 -0.2611 -1.6048  0.3961
14514TIP3   OH264956   5.360   6.586  11.052  0.0421 -0.5222 -0.1758
14514TIP3    H164957   5.432   6.648  11.062 -1.1737  0.7043  1.2950
14514TIP3    H264958   5.397   6.514  11.000  2.6160 -0.4051  1.3971
14515TIP3   OH264959   6.293   3.765  11.075  0.4688  0.5997 -0.4023
14515TIP3    H164960   6.258   3.758  10.987  0.0881  2.4069 -0.4092
14515TIP3    H264961   6.218   3.791  11.129  0.5214 -1.2201  0.6028
14516TIP3   OH264962   6.172   5.288  15.604 -0.0436 -0.5884  0.0900
14516TIP3    H164963   6.110   5.295  15.676  1.1595 -0.1478  1.1057
14516TIP3    H264964   6.253   5.326  15.639  0.8457 -1.3425 -1.1273
14517TIP3   OH264965   4.766   4.793  15.329 -0.1934 -0.7922 -0.5305
14517TIP3    H164966   4.794   4.738  15.403 -0.3934  2.8301  2.3624
14517TIP3    H264967   4.841   4.792  15.269  0.8295 -2.0877  0.7254
14518TIP3   OH264968   3.906   2.437   1.032 -0.1036  0.4472  0.0060
14518TIP3    H164969   3.819   2.462   1.000  0.0072 -0.7791 -1.3401
14518TIP3    H264970   3.898   2.436   1.127 -0.6375  3.5605  0.0283
14519TIP3   OH264971   3.204   5.873   1.970  0.0298  0.4065  0.6311
14519TIP3    H164972   3.270   5.930   2.011  0.1939 -0.7695  2.0224
14519TIP3    H264973   3.176   5.922   1.893  3.2424  0.5487 -0.5570
14520TIP3   OH264974   0.133   0.059   2.615  0.5228  0.4482 -0.1410
14520TIP3    H164975   0.216   0.034   2.574 -0.0625 -0.3202 -0.8830
14520TIP3    H264976   0.154   0.070   2.707  1.9266  2.5020 -0.6765
14521TIP3   OH264977   3.412   0.479   3.632  0.1906  0.0756 -0.7482
14521TIP3    H164978   3.324   0.500   3.601 -0.2520 -1.0740 -0.2715
14521TIP3    H264979   3.463   0.467   3.552 -0.4328 -0.7197 -1.0295
14522TIP3   OH264980   0.790   3.074   1.465 -0.0730  0.0109  0.1736
14522TIP3    H164981   0.819   3.033   1.384  2.6866  1.5621  0.3321
14522TIP3    H264982   0.714   3.127   1.440  1.1679  1.0175 -1.5161
14523TIP3   OH264983   5.660   4.913  15.739 -0.3569  0.5543  0.4526
14523TIP3    H164984   5.575   4.943  15.706  0.1564  0.6297 -0.8195
14523TIP3    H264985   5.720   4.984  15.718  0.5260 -0.5986 -0.9920
14524TIP3   OH264986   3.327   5.997   5.044 -0.6907 -0.6974  0.8232
14524TIP3    H164987   3.386   5.921   5.044  0.3793  0.1330  1.6180
14524TIP3    H264988   3.353   6.047   4.966 -0.3867 -0.3694  1.1334
14525TIP3   OH264989   6.700   4.606   1.135 -0.4512  0.5392 -0.4273
14525TIP3    H164990   6.780   4.580   1.089 -0.5142  0.3274 -0.4160
14525TIP3    H264991   6.650   4.656   1.070  1.0002  3.2087  0.4018
14526TIP3   OH264992   5.883   2.720   0.954 -0.5206 -0.3319 -0.0228
14526TIP3    H164993   5.881   2.751   1.044  0.9555  2.4768 -0.9107
14526TIP3    H264994   5.947   2.649   0.955 -0.2166 -0.0521  1.0722
14527TIP3   OH264995   4.647   1.375   3.989  0.4772  0.0990 -0.2929
14527TIP3    H164996   4.736   1.408   3.977  0.2920  0.3157 -1.0602
14527TIP3    H264997   4.591   1.439   3.944 -0.1543  0.5130  1.0654
14528TIP3   OH264998   3.081   2.740  12.225 -0.1734  0.1956  0.7835
14528TIP3    H164999   3.003   2.763  12.175  0.7607  1.6692 -0.0273
14528TIP3    H265000   3.063   2.653  12.260 -1.7360  0.0816 -0.2885
14529TIP3   OH265001   6.081   4.863   1.279  0.2431 -0.2139 -0.2883
14529TIP3    H165002   6.034   4.842   1.198  0.4261 -1.0221 -0.1950
14529TIP3    H265003   6.072   4.784   1.333  0.9611 -0.0523  0.0751
14530TIP3   OH265004   2.386   0.774  13.908 -0.2824  0.2900 -0.2688
14530TIP3    H165005   2.435   0.855  13.896 -1.4319  0.8972 -0.8979
14530TIP3    H265006   2.451   0.705  13.900  0.5264  1.1068 -0.7720
14531TIP3   OH265007   2.494   0.536  16.789 -0.2259  0.2036 -0.0585
14531TIP3    H165008   2.542   0.533  16.706  0.1010  0.0205  0.1399
14531TIP3    H265009   2.403   0.520  16.764 -0.5294  2.6499 -0.7226
14532TIP3   OH265010   4.448   3.073  13.907 -0.1476  0.3331 -0.3143
14532TIP3    H165011   4.395   3.025  13.843 -1.9794 -1.4851  2.4170
14532TIP3    H265012   4.539   3.054  13.883 -0.8069 -0.8518 -1.9559
14533TIP3   OH265013   6.309   2.239  12.573  0.3665  0.4068  0.2984
14533TIP3    H165014   6.327   2.305  12.506  0.5720 -0.5375 -0.5944
14533TIP3    H265015   6.296   2.158  12.523 -0.1062 -0.1817  1.3625
14534TIP3   OH265016   6.134   3.018  17.025  0.1429  0.2306  0.0904
14534TIP3    H165017   6.150   3.035  16.932  1.4794 -1.5645 -0.0427
14534TIP3    H265018   6.113   3.104  17.062 -1.4320  0.8220 -2.0477
14535TIP3   OH265019   6.543   6.584   5.339 -0.2646  0.4316 -0.1570
14535TIP3    H165020   6.509   6.648   5.402  0.3666  1.5949 -0.9789
14535TIP3    H265021   6.465   6.542   5.303 -0.6713  0.5835  0.5321
14536TIP3   OH265022   6.562   1.148  16.003 -0.2882 -0.1488 -0.2248
14536TIP3    H165023   6.603   1.159  16.089  0.6381  0.5499 -0.7419
14536TIP3    H265024   6.624   1.094  15.953 -0.1385  0.6264 -0.8981
14537TIP3   OH265025   3.122   0.026  15.326 -0.3418 -0.0801 -0.1087
14537TIP3    H165026   3.061   0.087  15.367  2.0364  3.2162 -1.2956
14537TIP3    H265027   3.170  -0.012  15.400 -1.0457  0.3098  0.5656
14538TIP3   OH265028   4.580   2.456   6.735 -0.2750 -0.1380 -0.3255
14538TIP3    H165029   4.537   2.535   6.768 -0.3583  0.8512 -2.6909
14538TIP3    H265030   4.529   2.430   6.659  1.2715 -0.9614 -1.1253
14539TIP3   OH265031   4.901   5.167   6.140  0.5793  0.1814  0.0695
14539TIP3    H165032   4.920   5.201   6.053  1.6804 -0.2041  0.1524
14539TIP3    H265033   4.808   5.185   6.153  0.2620 -0.3224 -1.4267
14540TIP3   OH265034   5.027   4.283  11.322 -0.1488 -0.0184 -0.3206
14540TIP3    H165035   5.054   4.196  11.293  0.4795  0.1036 -0.1024
14540TIP3    H265036   5.104   4.319  11.367 -1.3631 -0.5417  2.2954
14541TIP3   OH265037   6.693   6.006  16.261  0.0974 -0.0769 -0.0897
14541TIP3    H165038   6.644   6.061  16.323 -0.2718 -1.2695  0.6929
14541TIP3    H265039   6.657   5.918  16.274  1.0820 -0.6083 -0.9230
14542TIP3   OH265040   0.235   4.155  12.618 -0.2822 -0.2729 -0.6573
14542TIP3    H165041   0.187   4.237  12.626  0.8448  0.4899 -1.6033
14542TIP3    H265042   0.325   4.176  12.644 -0.3291 -1.5940  0.6862
14543TIP3   OH265043   2.935   5.455  12.882  0.1711 -0.2750 -0.0412
14543TIP3    H165044   2.996   5.390  12.847 -0.1210 -0.8978  0.5946
14543TIP3    H265045   2.938   5.527  12.819  1.5025 -0.3345 -0.0605
14544TIP3   OH265046   4.132   0.413   2.677 -0.4348  0.0793  0.0995
14544TIP3    H165047   4.151   0.413   2.771 -1.5729 -0.4822  0.3375
14544TIP3    H265048   4.184   0.340   2.643  0.3375  0.5710  0.2190
14545TIP3   OH265049   2.005   5.242   3.888 -0.3115 -0.2854 -0.1894
14545TIP3    H165050   1.975   5.222   3.799  1.8884 -2.1454 -0.5661
14545TIP3    H265051   1.970   5.171   3.941  0.1335 -0.3371  0.0384
14546TIP3   OH265052   3.954   3.006   4.690  0.1119  0.2500 -0.1012
14546TIP3    H165053   3.964   3.064   4.764  0.5649 -0.4291  0.3779
14546TIP3    H265054   4.034   2.953   4.690 -0.2343 -0.2839 -0.6002
14547TIP3   OH265055   0.132   6.041  10.500 -0.1125 -0.0928  0.2704
14547TIP3    H165056   0.051   6.089  10.514  0.0638  0.0284  0.8849
14547TIP3    H265057   0.170   6.032  10.587  1.1274  0.9068 -0.1418
14548TIP3   OH265058   4.259   2.070  14.481 -0.7072  0.1235  0.4380
14548TIP3    H165059   4.173   2.043  14.452 -0.2352 -0.5541 -0.3363
14548TIP3    H265060   4.255   2.166  14.484 -1.7226  0.0611  1.1799
14549TIP3   OH265061   4.116   5.159  13.497 -0.3557 -0.5309  0.3069
14549TIP3    H165062   4.199   5.172  13.452  0.0708  1.1011  1.4856
14549TIP3    H265063   4.049   5.181  13.432  0.2588  2.1010  0.4837
14550TIP3   OH265064   0.186   5.354   3.410  0.3559 -0.0087 -0.2999
14550TIP3    H165065   0.227   5.305   3.482 -0.3580  0.6944  0.5905
14550TIP3    H265066   0.249   5.423   3.390  0.9767 -0.7631 -0.9811
14551TIP3   OH265067   0.302   6.139  12.256 -0.2441 -0.6099  0.2303
14551TIP3    H165068   0.231   6.127  12.193 -0.9262  1.2536  0.5969
14551TIP3    H265069   0.380   6.106  12.212 -1.2101 -2.0680 -0.4307
14552TIP3   OH265070   2.205   3.781   5.905  0.4298  0.4404 -0.2008
14552TIP3    H165071   2.286   3.807   5.949  0.3536  1.3389 -0.5937
14552TIP3    H265072   2.137   3.833   5.948  0.2115  0.5182 -0.6463
14553TIP3   OH265073   6.479   3.333   2.258 -0.2911 -0.0926 -0.5596
14553TIP3    H165074   6.485   3.336   2.162 -1.1604  0.4325 -0.6040
14553TIP3    H265075   6.488   3.240   2.280  1.9637 -0.0011 -0.9941
14554TIP3   OH265076   0.844   6.225  12.643 -0.1162 -0.2766  0.4983
14554TIP3    H165077   0.837   6.321  12.640 -0.4096 -0.3160 -0.3664
14554TIP3    H265078   0.754   6.194  12.634  0.0877 -0.6437 -0.3243
14555TIP3   OH265079   3.309   6.196   1.854 -0.1576 -0.3816  0.2193
14555TIP3    H165080   3.272   6.279   1.823  0.1581 -0.4244 -0.2656
14555TIP3    H265081   3.247   6.130   1.825  0.6196 -0.5177 -1.1513
14556TIP3   OH265082   2.846   3.931   2.447 -0.0922 -0.4231  0.0098
14556TIP3    H165083   2.934   3.952   2.415  0.0785  0.6836  1.1948
14556TIP3    H265084   2.849   3.838   2.467  0.5291 -0.5885 -0.8434
14557TIP3   OH265085   2.487   1.292   2.469 -0.2321 -0.1075  0.1206
14557TIP3    H165086   2.440   1.370   2.498 -1.4214 -0.0036 -2.0131
14557TIP3    H265087   2.443   1.265   2.389  2.9025 -0.3839 -1.6157
14558TIP3   OH265088   0.236   4.062   1.870 -0.8304 -0.1873  0.3261
14558TIP3    H165089   0.150   4.054   1.911 -0.3169  1.8821  1.8839
14558TIP3    H265090   0.246   4.155   1.853  0.1226 -0.6968 -2.0789
14559TIP3   OH265091   3.480   3.249   5.389  0.0356 -0.4310 -0.2614
14559TIP3    H165092   3.532   3.169   5.389 -0.8469 -1.0196 -0.2604
14559TIP3    H265093   3.469   3.270   5.297  1.2018  0.3151 -0.2342
14560TIP3   OH265094   0.637   0.146  13.417 -0.0981  0.0932  0.3705
14560TIP3    H165095   0.706   0.109  13.473 -0.8398 -1.5571  0.2145
14560TIP3    H265096   0.678   0.153  13.331  0.3064  0.4492  0.5835
14561TIP3   OH265097   5.265   1.591   4.379 -0.0533 -0.7315 -0.9458
14561TIP3    H165098   5.355   1.621   4.392 -0.6324  0.4906  0.3722
14561TIP3    H265099   5.274   1.506   4.338  1.6973 -0.2137 -1.6833
14562TIP3   OH265100   0.877   1.671  12.830 -0.0115  0.4649  0.0907
14562TIP3    H165101   0.805   1.721  12.790 -0.5479 -0.9980 -0.8209
14562TIP3    H265102   0.953   1.691  12.776 -0.8506 -1.9272 -2.0740
14563TIP3   OH265103   4.537   3.486  16.111 -0.3299  0.2200  0.1727
14563TIP3    H165104   4.461   3.464  16.166 -0.3008 -1.5253 -0.4484
14563TIP3    H265105   4.607   3.505  16.174 -0.7048 -0.2956  0.7578
14564TIP3   OH265106   5.599   0.313  14.884  0.3225 -0.1735 -0.2078
14564TIP3    H165107   5.516   0.303  14.930 -0.2241 -0.4121 -1.2312
14564TIP3    H265108   5.639   0.225  14.887 -0.2920 -0.5000 -1.2666
14565TIP3   OH265109   5.808   3.266   3.733 -0.5913 -0.2701 -0.2652
14565TIP3    H165110   5.766   3.294   3.652 -1.1619  0.1525  0.1754
14565TIP3    H265111   5.888   3.221   3.704 -0.0071  1.2160 -1.0093
14566TIP3   OH265112   2.521   6.067   5.243  0.0429 -0.7244 -0.2566
14566TIP3    H165113   2.502   6.097   5.155  0.7738  0.3770 -0.0493
14566TIP3    H265114   2.455   6.109   5.298  1.6179  1.2826  0.1559
14567TIP3   OH265115   3.598   3.225  11.861  0.1828  0.1308 -0.1258
14567TIP3    H165116   3.639   3.143  11.891  0.2278 -0.0061 -0.5617
14567TIP3    H265117   3.647   3.294  11.905  0.2904 -0.0685  0.0673
14568TIP3   OH265118   3.691   6.427   5.137  0.0138 -0.2308  0.2858
14568TIP3    H165119   3.715   6.381   5.218  1.9089 -2.4591 -1.4869
14568TIP3    H265120   3.623   6.372   5.098  0.0988  0.1121 -0.3379
14569TIP3   OH265121   0.222   4.704  16.998 -0.1021  0.0058  0.3164
14569TIP3    H165122   0.135   4.732  17.025 -0.3084  0.1900 -0.5321
14569TIP3    H265123   0.253   4.648  17.070 -1.4183 -1.0855  0.0493
14570TIP3   OH265124   5.363   0.852   5.857 -0.0592 -0.1771  0.3650
14570TIP3    H165125   5.274   0.841   5.823  0.7025  0.0308 -1.7833
14570TIP3    H265126   5.418   0.800   5.799  1.3846  0.7123  0.8950
14571TIP3   OH265127   6.070   2.703   5.525  0.1490 -0.1218  0.0141
14571TIP3    H165128   6.026   2.766   5.582 -0.2122  0.1759 -0.5821
14571TIP3    H265129   6.068   2.621   5.573 -2.4554 -0.4748 -0.6384
14572TIP3   OH265130   0.266   6.410  15.669 -0.1706  0.5512  0.2184
14572TIP3    H165131   0.302   6.423  15.581 -0.9327  0.2861 -0.1322
14572TIP3    H265132   0.279   6.316  15.686 -0.5180  0.4952  0.1697
14573TIP3   OH265133   2.890   6.155  12.002  0.1495 -0.0489 -0.0415
14573TIP3    H165134   2.830   6.180  12.072  1.0760  0.1277  0.7054
14573TIP3    H265135   2.912   6.237  11.958 -0.4215 -0.1577 -0.5348
14574TIP3   OH265136   4.600   0.140  15.415 -0.8543  0.0685  0.6946
14574TIP3    H165137   4.522   0.189  15.437 -1.3600 -0.0186 -0.8287
14574TIP3    H265138   4.671   0.183  15.462 -1.6372  0.8930  1.1139
14575TIP3   OH265139   1.216   0.739   0.545 -0.2384 -0.5313  0.1788
14575TIP3    H165140   1.138   0.777   0.505 -0.0038  0.3691  0.5757
14575TIP3    H265141   1.220   0.650   0.509 -0.4456  0.0088 -1.2140
14576TIP3   OH265142   0.105   3.766   4.256 -0.4673  0.5570  0.1571
14576TIP3    H165143   0.180   3.824   4.268 -0.6482  0.9000 -0.3600
14576TIP3    H265144   0.028   3.822   4.271 -0.6147 -0.0291  1.7350
14577TIP3   OH265145   2.693   4.945   6.510 -0.6761 -0.4763 -0.3994
14577TIP3    H165146   2.753   5.013   6.541  0.0069 -1.3984  0.3261
14577TIP3    H265147   2.636   4.990   6.448 -1.3434  1.1441  1.3443
14578TIP3   OH265148   3.103   1.811  11.165  0.9265  0.6495  0.1599
14578TIP3    H165149   3.129   1.893  11.122  0.2111  1.4402  1.2070
14578TIP3    H265150   3.184   1.761  11.171  1.3857  1.3023 -0.4652
14579TIP3   OH265151   3.936   4.591   1.739 -0.3890  0.0141  0.5933
14579TIP3    H165152   3.858   4.537   1.723 -0.4818  0.1451  0.6101
14579TIP3    H265153   3.992   4.575   1.663 -0.8983  0.7603  0.0597
14580TIP3   OH265154   5.607   0.345  13.288  0.0297 -0.1882  0.1708
14580TIP3    H165155   5.598   0.320  13.380  1.5351 -2.8297 -0.3489
14580TIP3    H265156   5.557   0.279  13.240  0.1549  0.5300 -0.9866
14581TIP3   OH265157   3.266   6.531   0.715 -0.0139 -0.1883 -0.3198
14581TIP3    H165158   3.254   6.602   0.778 -1.2104 -0.8451  0.2142
14581TIP3    H265159   3.285   6.575   0.632 -1.2875  0.7972 -0.1083
14582TIP3   OH265160   0.442   0.548  14.757  0.0019 -0.0015  0.1027
14582TIP3    H165161   0.464   0.617  14.820  0.9411  0.9866 -1.2800
14582TIP3    H265162   0.372   0.585  14.704 -0.4612 -0.6562  0.2519
14583TIP3   OH265163   5.789   2.410  15.807 -0.5187  0.4578 -0.3394
14583TIP3    H165164   5.762   2.467  15.734 -1.9186 -1.9229 -1.7327
14583TIP3    H265165   5.752   2.452  15.885 -3.6853  0.1844 -1.6225
14584TIP3   OH265166   0.016   3.126   2.326  0.2010 -0.1306  0.1637
14584TIP3    H165167  -0.008   3.043   2.368  0.5535  0.1601  0.9669
14584TIP3    H265168   0.111   3.131   2.338  0.3890 -0.3199 -1.2022
14585TIP3   OH265169   0.074   3.140   2.695  0.0124 -0.1172 -0.3815
14585TIP3    H165170   0.105   3.055   2.665  0.5505 -0.0525 -0.0331
14585TIP3    H265171  -0.021   3.135   2.691  0.0658  0.0776 -2.6138
14586TIP3   OH265172   3.891   5.636   6.390  0.4185 -0.0605  0.2394
14586TIP3    H165173   3.963   5.624   6.327 -0.4339  0.5506 -0.8758
14586TIP3    H265174   3.875   5.548   6.425  3.4595  0.2030  2.5020
14587TIP3   OH265175   6.464   1.888  12.615 -0.0618 -0.3042 -0.1525
14587TIP3    H165176   6.529   1.958  12.617 -1.0890  0.6477  0.3279
14587TIP3    H265177   6.466   1.856  12.524  0.0570  0.6891 -0.5080
14588TIP3   OH265178   5.846   1.984   4.579 -0.2925  0.1798  0.4768
14588TIP3    H165179   5.882   1.978   4.667 -1.3553  1.2122  0.9916
14588TIP3    H265180   5.910   2.037   4.531 -0.0403  0.1683  0.7961
14589TIP3   OH265181   6.296   1.987  12.097  0.2914  1.1052  0.2158
14589TIP3    H165182   6.348   1.928  12.042 -1.8236 -0.0198 -0.6358
14589TIP3    H265183   6.300   2.071  12.052 -1.7750  0.0932 -2.0076
14590TIP3   OH265184   6.456   2.583  10.965  0.0835 -0.2905  0.3919
14590TIP3    H165185   6.455   2.645  10.892  0.5008 -0.3692  0.3175
14590TIP3    H265186   6.495   2.504  10.929 -2.3969 -1.3303 -0.0887
14591TIP3   OH265187   4.800   6.198  12.414 -0.0690  0.4233 -0.0499
14591TIP3    H165188   4.775   6.260  12.484  1.6577  0.0644  0.9383
14591TIP3    H265189   4.763   6.115  12.441  0.1318  0.4033  0.1725
14592TIP3   OH265190   3.641   0.078   2.445  0.3615  0.0287  0.0046
14592TIP3    H165191   3.647  -0.011   2.409  0.2200 -0.4456  1.1144
14592TIP3    H265192   3.724   0.119   2.424  0.2829 -0.2386 -0.8486
14593TIP3   OH265193   2.042   5.488   5.555  0.2101  0.0414 -0.6059
14593TIP3    H165194   2.082   5.472   5.469  1.2839 -0.4743 -0.0155
14593TIP3    H265195   2.013   5.401   5.584  1.6243 -0.1070  0.4191
14594TIP3   OH265196   0.027   3.201   3.648 -0.3683 -0.3120 -0.5212
14594TIP3    H165197   0.076   3.283   3.642 -1.0433  0.3533  2.2903
14594TIP3    H265198  -0.065   3.228   3.653 -0.6332 -1.2562 -0.1205
14595TIP3   OH265199   5.634   0.559  11.916 -0.1658 -0.3587 -0.6798
14595TIP3    H165200   5.582   0.625  11.962  0.4164 -0.5627  0.2898
14595TIP3    H265201   5.597   0.475  11.945  0.4441 -0.4940 -0.2720
14596TIP3   OH265202   5.668   1.493  15.034 -0.0925  0.3119 -0.2886
14596TIP3    H165203   5.586   1.463  15.074 -0.5275  2.1660  0.2784
14596TIP3    H265204   5.721   1.524  15.108  0.0902  1.4495 -0.8724
14597TIP3   OH265205   1.288   6.536  14.579  0.1351  0.1996  0.3489
14597TIP3    H165206   1.239   6.618  14.570 -1.3441 -0.8553 -1.6455
14597TIP3    H265207   1.224   6.472  14.608  1.3173 -0.2460  2.0456
14598TIP3   OH265208   1.749   3.788   1.845  0.5371 -0.0050 -0.2655
14598TIP3    H165209   1.796   3.705   1.836  0.3405  0.0026 -1.4216
14598TIP3    H265210   1.675   3.768   1.902  2.0554  0.0354  1.7803
14599TIP3   OH265211   3.266   6.509  12.623 -0.1554  0.5760  0.0184
14599TIP3    H165212   3.250   6.457  12.701 -1.2196  1.8658  0.6835
14599TIP3    H265213   3.264   6.445  12.551 -0.1173 -0.4793  0.9437
14600TIP3   OH265214   0.570   4.792  14.569 -0.2407 -0.0792 -0.1065
14600TIP3    H165215   0.506   4.847  14.525 -1.0161 -0.4926  0.4740
14600TIP3    H265216   0.573   4.712  14.517  1.0749  0.5915 -1.0961
14601TIP3   OH265217   3.798   1.228  11.445  0.4307 -0.0205  0.4253
14601TIP3    H165218   3.817   1.314  11.409 -2.6299  1.2411  1.7002
14601TIP3    H265219   3.735   1.190  11.384  3.3875 -2.3609 -1.3572
14602TIP3   OH265220   6.394   0.098  13.316  0.0446  0.4952  0.1334
14602TIP3    H165221   6.457   0.138  13.256 -0.3270 -0.9225 -1.2414
14602TIP3    H265222   6.416   0.005  13.315 -0.5195  0.3416  1.5333
14603TIP3   OH265223   5.472   0.646   2.576  0.1161 -0.0420  0.0648
14603TIP3    H165224   5.512   0.571   2.533  2.1741  0.8925  0.2631
14603TIP3    H265225   5.522   0.721   2.543 -2.0950  1.2640 -0.3611
14604TIP3   OH265226   5.895   0.253   3.861 -0.1985 -0.1199  0.3897
14604TIP3    H165227   5.877   0.180   3.920 -0.3771 -0.2368  0.1910
14604TIP3    H265228   5.929   0.211   3.781 -0.4871  0.0021  0.2032
14605TIP3   OH265229   1.965   6.541   5.697 -0.5022  0.5928  0.0697
14605TIP3    H165230   2.052   6.566   5.730 -1.7270  2.3346  2.1119
14605TIP3    H265231   1.914   6.622   5.702 -1.9779 -0.1761 -2.0838
14606TIP3   OH265232   6.333   4.388  11.044  0.1187  0.3058 -0.0001
14606TIP3    H165233   6.313   4.449  11.115 -0.4195 -0.4629  0.5072
14606TIP3    H265234   6.261   4.399  10.982  1.6411  2.5135 -1.4776
14607TIP3   OH265235   2.288   0.733   4.782 -0.2132  0.3707  0.2043
14607TIP3    H165236   2.327   0.798   4.841  1.6125 -0.4240 -0.0695
14607TIP3    H265237   2.277   0.655   4.836 -0.8778  0.3996  0.1149
14608TIP3   OH265238   5.454   1.838  11.401 -0.2770  0.1233 -0.6004
14608TIP3    H165239   5.502   1.770  11.353  1.3875  0.5472  0.4597
14608TIP3    H265240   5.514   1.912  11.405 -0.6909  0.3690  1.4892
14609TIP3   OH265241   3.403   6.622   1.874 -0.1822  0.3151 -0.7467
14609TIP3    H165242   3.390   6.716   1.867  0.1900  0.3393 -1.0861
14609TIP3    H265243   3.344   6.585   1.808 -0.8248  0.2736 -0.1606
14610TIP3   OH265244   5.844   4.216  13.084  0.2339 -0.4965  0.1252
14610TIP3    H165245   5.885   4.301  13.067 -0.2681 -0.1590  0.5618
14610TIP3    H265246   5.829   4.216  13.179  0.1593 -1.0378  0.1131
14611TIP3   OH265247   6.548   1.706  11.499 -0.1790 -0.0529  0.3866
14611TIP3    H165248   6.586   1.781  11.455  0.0224  0.1218  0.8552
14611TIP3    H265249   6.564   1.633  11.439  0.6648  0.0646  0.4515
14612TIP3   OH265250   1.292   1.833  12.844  0.3016  0.4783 -0.3340
14612TIP3    H165251   1.374   1.802  12.806  1.1266  0.6494  1.2492
14612TIP3    H265252   1.319   1.904  12.903 -0.9865  0.5345  0.1950
14613TIP3   OH265253   1.654   3.243   3.815 -0.1462 -0.1542  0.2526
14613TIP3    H165254   1.717   3.171   3.823 -1.1362 -0.9110  1.3494
14613TIP3    H265255   1.709   3.321   3.811  0.9481 -0.9577 -1.0250
14614TIP3   OH265256   6.516   0.642   0.601 -0.0321 -0.0683 -0.5927
14614TIP3    H165257   6.466   0.566   0.571  0.4110 -0.5548 -0.1040
14614TIP3    H265258   6.497   0.711   0.537  1.4913 -1.2959 -2.3982
14615TIP3   OH265259   4.938   5.094   1.823  0.2500  0.5110  0.2658
14615TIP3    H165260   5.029   5.112   1.798  0.3673  1.0060  1.0420
14615TIP3    H265261   4.898   5.180   1.832 -0.2328  0.2983  0.1913
14616TIP3   OH265262   2.784   5.911   6.401 -0.0035  0.8042  0.7589
14616TIP3    H165263   2.720   5.981   6.404 -1.3830 -0.3630 -0.8643
14616TIP3    H265264   2.761   5.855   6.476 -2.3979 -0.8469 -1.1138
14617TIP3   OH265265   0.511   3.576  17.027  0.5368 -0.2887 -0.4258
14617TIP3    H165266   0.510   3.672  17.031 -1.2557 -0.2657 -0.8513
14617TIP3    H265267   0.514   3.548  17.118 -0.8334  0.1867 -0.2218
14618TIP3   OH265268   6.001   1.334   5.925 -0.2160 -0.0563 -0.3270
14618TIP3    H165269   6.063   1.344   5.996 -1.5284  1.9047  0.5995
14618TIP3    H265270   6.053   1.341   5.845  1.1907 -1.7818  0.4121
14619TIP3   OH265271   3.095   2.894  16.349 -0.2630  0.4599 -0.4888
14619TIP3    H165272   3.056   2.811  16.322 -1.3012 -0.1029  2.6455
14619TIP3    H265273   3.184   2.871  16.376  0.1223  0.7183 -1.5005
14620TIP3   OH265274   0.045   4.421   3.584  0.1032 -0.4997 -0.4874
14620TIP3    H165275   0.055   4.432   3.679 -0.3311  0.5605 -0.5587
14620TIP3    H265276   0.103   4.349   3.562 -0.5381 -1.4024  0.7420
14621TIP3   OH265277   2.124   1.880   6.237 -0.1046 -0.3273 -0.5462
14621TIP3    H165278   2.168   1.812   6.287  0.2972  0.3903  0.0849
14621TIP3    H265279   2.038   1.889   6.278  0.9224  1.6017  1.2643
14622TIP3   OH265280   4.674   5.687  15.418  0.0422 -0.7770  0.1915
14622TIP3    H165281   4.625   5.720  15.343  0.5694 -2.7593 -1.0581
14622TIP3    H265282   4.745   5.636  15.380  1.5169 -0.1394  2.0243
14623TIP3   OH265283   5.159   2.459  11.648 -0.1342 -0.0244  0.5016
14623TIP3    H165284   5.142   2.400  11.574  0.7776 -1.6620  1.5668
14623TIP3    H265285   5.080   2.513  11.653 -0.3316 -0.0966 -1.4793
14624TIP3   OH265286   1.064   5.524   2.011 -0.1700  0.1381  0.1311
14624TIP3    H165287   1.149   5.567   2.014 -0.4500  0.6842  0.4176
14624TIP3    H265288   1.017   5.570   1.942 -0.2413 -0.1360  0.0003
14625TIP3   OH265289   2.890   6.692  12.366 -0.2703 -0.2948  0.0967
14625TIP3    H165290   2.919   6.698  12.457  0.1529  0.3812 -0.0799
14625TIP3    H265291   2.939   6.618  12.330  1.5987  1.0697 -0.3112
14626TIP3   OH265292   5.075   0.722   2.950  0.3878 -0.1162  0.1235
14626TIP3    H165293   5.006   0.660   2.974  0.1886 -0.0526 -0.2915
14626TIP3    H265294   5.097   0.700   2.860  0.5265  0.2266  0.0755
14627TIP3   OH265295   2.344   4.958   1.328  0.4484 -0.0047  0.0866
14627TIP3    H165296   2.424   4.926   1.288 -0.5168 -0.8800 -1.2061
14627TIP3    H265297   2.274   4.919   1.275 -0.8171  0.8875  1.0754
14628TIP3   OH265298   4.694   5.846   4.444  0.0208  0.1582 -0.0630
14628TIP3    H165299   4.746   5.879   4.517 -2.3553  0.1526  1.6992
14628TIP3    H265300   4.665   5.924   4.397  0.1121  0.2458  0.0265
14629TIP3   OH265301   6.607   5.011  13.115 -0.0396  0.5472 -0.4598
14629TIP3    H165302   6.596   5.015  13.020 -1.9234  0.0373 -0.2821
14629TIP3    H265303   6.563   4.930  13.141  1.5805  0.0033  0.7148
14630TIP3   OH265304   2.001   0.873   4.612 -0.0251  0.4372 -0.1271
14630TIP3    H165305   1.991   0.956   4.659  0.7801  1.0815 -1.0669
14630TIP3    H265306   1.974   0.893   4.522  0.0722 -0.3459 -0.3346
14631TIP3   OH265307   0.802   4.387   5.974 -0.1532 -0.2380  0.0061
14631TIP3    H165308   0.795   4.401   5.880  0.2449  2.8244  0.3888
14631TIP3    H265309   0.890   4.352   5.987  0.7270  1.7623 -0.5053
14632TIP3   OH265310   5.430   1.141  11.796  0.5547 -0.3378 -0.1217
14632TIP3    H165311   5.346   1.181  11.773  0.5457 -0.8052 -0.9275
14632TIP3    H265312   5.490   1.171  11.727  1.0158 -0.1296  0.3662
14633TIP3   OH265313   5.961   6.153   5.768  0.7143 -0.3588 -0.2629
14633TIP3    H165314   5.871   6.150   5.802  1.2297  0.5707  1.2429
14633TIP3    H265315   5.986   6.061   5.761  0.1716 -0.6041  0.7979
14634TIP3   OH265316   2.104   6.413   1.818  0.2672  0.2932  0.3579
14634TIP3    H165317   2.010   6.392   1.810  0.0977  1.4348 -0.6871
14634TIP3    H265318   2.145   6.327   1.832 -0.8543 -0.2999  0.1524
14635TIP3   OH265319   1.752   5.534  14.770 -0.3105  0.1531 -0.4363
14635TIP3    H165320   1.827   5.474  14.766 -0.7885 -0.4557 -0.4002
14635TIP3    H265321   1.772   5.603  14.707 -0.7834 -1.2265 -2.1149
14636TIP3   OH265322   4.439   3.749  15.503 -0.1145 -0.8089  0.0907
14636TIP3    H165323   4.412   3.692  15.432  1.8022 -1.5797 -0.0225
14636TIP3    H265324   4.524   3.716  15.531  0.4620  1.2132  0.8555
14637TIP3   OH265325   1.778   2.360  13.537  0.0269 -0.0146 -0.5643
14637TIP3    H165326   1.790   2.445  13.494  1.8596 -0.2618 -0.6136
14637TIP3    H265327   1.702   2.372  13.593  0.3584  1.7226 -0.4344
14638TIP3   OH265328   2.648   5.233  17.138 -0.2375 -0.2784 -0.7809
14638TIP3    H165329   2.586   5.239  17.211 -0.0421  0.8767 -0.6991
14638TIP3    H265330   2.599   5.265  17.062  0.0906  0.1591 -0.8136
14639TIP3   OH265331   0.579   4.067   5.764  0.3025 -1.1598  0.0032
14639TIP3    H165332   0.591   4.121   5.842 -1.0115  0.2283 -0.7403
14639TIP3    H265333   0.656   4.009   5.763  1.2032 -0.0112  1.3725
14640TIP3   OH265334   5.260   4.325  12.061 -0.0942 -0.3658 -0.3775
14640TIP3    H165335   5.284   4.240  12.098  1.7726 -0.2635 -1.2640
14640TIP3    H265336   5.344   4.366  12.040 -1.0311  0.5421 -2.5272
14641TIP3   OH265337   0.164   4.363  13.336  0.0807 -0.4219 -0.0854
14641TIP3    H165338   0.197   4.293  13.393  0.0130 -0.5161 -0.1623
14641TIP3    H265339   0.069   4.353  13.338 -0.0607  0.9451  1.5380
14642TIP3   OH265340   4.522   6.638  12.234  0.2464 -0.9537  0.3309
14642TIP3    H165341   4.600   6.671  12.277  0.1115 -0.7172  0.3984
14642TIP3    H265342   4.492   6.712  12.180  0.3507 -1.2091 -0.0754
14643TIP3   OH265343   0.113   2.996  10.756 -0.6184 -0.0013 -0.1997
14643TIP3    H165344   0.180   3.025  10.817  0.6649 -0.2429 -1.4423
14643TIP3    H265345   0.096   2.905  10.780 -2.1316  0.7074  1.5133
14644TIP3   OH265346   4.458   1.055  16.325 -0.0183 -0.7837 -0.2608
14644TIP3    H165347   4.512   1.088  16.397  0.5393 -1.8018 -0.1946
14644TIP3    H265348   4.493   1.098  16.247 -0.2951 -0.0592  0.0203
14645TIP3   OH265349   1.624   0.067   2.429  0.0020  0.4789  0.2500
14645TIP3    H165350   1.679  -0.007   2.403 -0.0915  0.2184  0.7793
14645TIP3    H265351   1.605   0.051   2.522  1.0004  1.8010  0.7075
14646TIP3   OH265352   3.516   6.198   0.007 -0.4833  0.5455 -0.1733
14646TIP3    H165353   3.516   6.225  -0.085 -0.1831 -3.4727 -1.4576
14646TIP3    H265354   3.435   6.234   0.043 -1.6512  0.4074 -2.5875
14647TIP3   OH265355   6.765   5.923   1.713  0.3140  0.2856 -0.1223
14647TIP3    H165356   6.774   5.972   1.795 -0.4167  1.6037 -0.8047
14647TIP3    H265357   6.682   5.876   1.722  0.6128 -0.1861  0.1988
14648TIP3   OH265358   3.653   4.749   1.702 -0.1607 -0.0999 -0.2946
14648TIP3    H165359   3.748   4.744   1.715 -0.4923 -0.2177  2.1790
14648TIP3    H265360   3.637   4.696   1.624  1.5274 -2.2008  0.7345
14649TIP3   OH265361   2.695   1.812   6.586  0.0679 -0.7313 -0.2847
14649TIP3    H165362   2.733   1.899   6.593 -0.1700 -0.4840 -1.9464
14649TIP3    H265363   2.610   1.827   6.544 -0.4945 -1.6351  0.5113
14650TIP3   OH265364   4.543   5.246   0.756 -0.1880 -0.3409 -0.6440
14650TIP3    H165365   4.596   5.326   0.754  0.3873 -0.7167 -0.4125
14650TIP3    H265366   4.535   5.221   0.664 -0.8049  0.2722 -0.7572
14651TIP3   OH265367   3.868   4.976   2.162  0.7521 -0.2901  0.2506
14651TIP3    H165368   3.828   4.980   2.249  0.5776 -0.1075  0.1644
14651TIP3    H265369   3.811   4.918   2.112  0.6782 -0.1503  0.1712
14652TIP3   OH265370   3.450   2.646   4.446  0.4194  0.4446 -0.6883
14652TIP3    H165371   3.535   2.668   4.409  0.1261  2.2185 -0.3833
14652TIP3    H265372   3.430   2.719   4.505 -0.8589 -0.4387  0.0135
14653TIP3   OH265373   2.474   1.925  15.967  0.5275  0.2431  0.9728
14653TIP3    H165374   2.399   1.961  15.919 -0.2400 -0.4672  1.6156
14653TIP3    H265375   2.470   1.831  15.950  0.2185 -0.0236  2.4596
14654TIP3   OH265376   3.992   6.780   3.732  0.1190  0.0590  0.4090
14654TIP3    H165377   4.076   6.738   3.709  0.7125  0.9105  0.9815
14654TIP3    H265378   3.960   6.728   3.806  0.0283 -0.4095  0.0435
14655TIP3   OH265379   0.486   1.370   0.874 -0.1714 -0.1464 -0.3056
14655TIP3    H165380   0.560   1.412   0.918 -0.7794  0.6475 -0.0194
14655TIP3    H265381   0.414   1.433   0.884 -1.4165 -1.7670  1.1629
14656TIP3   OH265382   1.491   4.475  13.046  0.2832 -0.1120 -0.3106
14656TIP3    H165383   1.551   4.427  12.989  0.1456  1.4651 -1.8313
14656TIP3    H265384   1.539   4.483  13.129  1.4352 -0.4401 -0.9300
14657TIP3   OH265385   4.162   1.397   5.747 -0.2788 -0.7807  0.4631
14657TIP3    H165386   4.203   1.361   5.667  1.0345  0.8341  0.3828
14657TIP3    H265387   4.103   1.465   5.715 -0.0990 -0.4455  0.8445
14658TIP3   OH265388   0.010   5.095   4.507  0.2662  0.0216 -0.2817
14658TIP3    H165389   0.045   5.136   4.428  0.8013 -1.0063 -0.5973
14658TIP3    H265390  -0.072   5.054   4.478 -0.0164  0.4383 -0.0810
14659TIP3   OH265391   4.898   2.804  16.448 -1.0431  0.3410  0.1864
14659TIP3    H165392   4.916   2.765  16.533 -2.4549 -1.2915 -0.2305
14659TIP3    H265393   4.806   2.832  16.454 -0.7308  1.5259 -0.3257
14660TIP3   OH265394   4.860   1.551   4.326 -0.3261  0.3098 -0.6736
14660TIP3    H165395   4.900   1.466   4.305 -1.4891 -0.6534  0.8692
14660TIP3    H265396   4.786   1.529   4.383 -0.6314  2.3699 -0.2386
14661TIP3   OH265397   5.130   5.886  11.516 -0.4888 -0.1054  0.3413
14661TIP3    H165398   5.184   5.909  11.441 -0.5874 -1.6702 -0.2158
14661TIP3    H265399   5.149   5.794  11.533 -2.4448 -0.5043  0.5591
14662TIP3   OH265400   5.001   0.442   4.948 -0.0139 -0.2661  0.3274
14662TIP3    H165401   4.920   0.400   4.975  0.8501 -0.1369  3.2652
14662TIP3    H265402   5.051   0.372   4.906 -0.1551 -1.2754  1.7817
14663TIP3   OH265403   6.559   0.133  11.802 -0.0400 -0.1247  0.7142
14663TIP3    H165404   6.550   0.067  11.734  0.8110  0.2626  0.2240
14663TIP3    H265405   6.609   0.204  11.761  0.2295  0.2333  1.6451
14664TIP3   OH265406   1.808   5.619  12.158 -0.0822  0.3640  0.3411
14664TIP3    H165407   1.750   5.668  12.217 -0.0354  0.2674  0.4674
14664TIP3    H265408   1.896   5.634  12.193 -0.0283  0.5273  0.1372
14665TIP3   OH265409   4.330   2.945   2.457  0.1562  0.3999  0.0069
14665TIP3    H165410   4.369   2.869   2.499  0.6249  0.7883  0.2808
14665TIP3    H265411   4.403   3.007   2.447 -0.6151  1.6346  1.6826
14666TIP3   OH265412   1.855   1.446  11.821 -0.3007 -0.0904  0.4543
14666TIP3    H165413   1.874   1.380  11.888 -0.3780  1.6535  2.2116
14666TIP3    H265414   1.768   1.424  11.790 -0.1356 -1.1065  0.6833
14667TIP3   OH265415   2.652   0.359   1.311 -0.5910  0.2437  0.4515
14667TIP3    H165416   2.727   0.355   1.252  0.3021 -0.4733  1.6083
14667TIP3    H265417   2.609   0.442   1.292 -0.2540  0.0532 -1.1316
14668TIP3   OH265418   6.406   2.924   5.965 -0.6112  0.0242  0.1399
14668TIP3    H165419   6.454   2.975   6.031  0.6197 -1.0141  0.0683
14668TIP3    H265420   6.326   2.896   6.009  1.1086 -2.3269  1.8649
14669TIP3   OH265421   5.385   6.207  11.268 -0.6179  0.4537 -0.6838
14669TIP3    H165422   5.467   6.257  11.266  0.4861 -1.3405 -1.5820
14669TIP3    H265423   5.363   6.195  11.175 -0.1306 -1.8495 -0.5284
14670TIP3   OH265424   5.849   1.009   4.453  0.1329 -0.2907 -0.1869
14670TIP3    H165425   5.842   0.920   4.486 -0.4693  0.7655  2.6223
14670TIP3    H265426   5.938   1.037   4.475  0.5006 -0.3571 -1.5285
14671TIP3   OH265427   6.374   5.094  13.850  0.0268  0.3321 -0.3291
14671TIP3    H165428   6.457   5.049  13.835  0.2437  0.5874  0.1028
14671TIP3    H265429   6.312   5.049  13.793  0.2127 -0.5924  0.1840
14672TIP3   OH265430   2.763   3.896   4.568 -0.4791 -0.0488 -0.1127
14672TIP3    H165431   2.758   3.927   4.477 -1.4416  0.5618  0.1401
14672TIP3    H265432   2.710   3.816   4.568 -3.3861  1.8294  0.6724
14673TIP3   OH265433   1.237   4.562   4.057 -0.5593 -0.4020 -0.1162
14673TIP3    H165434   1.150   4.568   4.098  0.1610  1.4155  1.1749
14673TIP3    H265435   1.292   4.622   4.107  1.2651 -0.9242 -1.4404
14674TIP3   OH265436   1.324   3.663  12.387  0.1814  0.0153 -0.6492
14674TIP3    H165437   1.296   3.662  12.478 -0.7310  0.9530 -0.9072
14674TIP3    H265438   1.364   3.577  12.373  2.0609  0.5706  1.1382
14675TIP3   OH265439   0.473   5.711  13.251  1.0484  0.0352  0.9331
14675TIP3    H165440   0.532   5.749  13.185 -0.5239  0.5365 -0.2187
14675TIP3    H265441   0.470   5.776  13.321  1.1499  0.4274  0.5744
14676TIP3   OH265442   3.775   6.176   2.542  0.3454 -0.2457 -1.3427
14676TIP3    H165443   3.750   6.226   2.620  0.8949 -2.3362  0.1996
14676TIP3    H265444   3.698   6.182   2.485 -0.8661 -0.4239  0.2341
14677TIP3   OH265445   5.933   1.480   4.717  0.2684  0.6512  0.1650
14677TIP3    H165446   5.955   1.534   4.793  0.5268  1.2994 -0.3665
14677TIP3    H265447   5.971   1.526   4.643 -0.5989  0.3902 -0.4520
14678TIP3   OH265448   1.725   3.509   3.718  0.0579  0.2705  0.2338
14678TIP3    H165449   1.732   3.461   3.635  2.5742  0.9262  0.0152
14678TIP3    H265450   1.789   3.580   3.710  0.4937  0.2118  2.8386
14679TIP3   OH265451   6.602   6.478   0.233  0.3919 -0.3570 -0.0498
14679TIP3    H165452   6.537   6.477   0.304  0.6401 -0.4038  0.1786
14679TIP3    H265453   6.669   6.415   0.262  1.4700  1.0597  0.5954
14680TIP3   OH265454   6.388   6.300   2.678  0.5214  0.2993 -0.4101
14680TIP3    H165455   6.466   6.353   2.662  0.3236  0.7096 -0.0366
14680TIP3    H265456   6.397   6.226   2.618  2.3469 -0.8448  1.1999
14681TIP3   OH265457   3.161   5.208   4.062 -0.0143 -0.1452 -0.2190
14681TIP3    H165458   3.234   5.226   4.122  0.4895 -0.6592 -0.6796
14681TIP3    H265459   3.101   5.282   4.076 -0.5850 -0.9691  1.9510
14682TIP3   OH265460   2.874   5.541   2.667  0.3192  0.5952 -0.0009
14682TIP3    H165461   2.824   5.460   2.662  0.8511  0.1541  1.5082
14682TIP3    H265462   2.963   5.513   2.690  0.8557  1.4920 -0.9786
14683TIP3   OH265463   1.662   4.603  14.161 -0.3922  0.4380 -0.4013
14683TIP3    H165464   1.652   4.521  14.115 -0.4239  0.4994 -0.5049
14683TIP3    H265465   1.591   4.659  14.129 -0.7310  0.3045  0.1086
14684TIP3   OH265466   5.539   1.348   0.408  0.4134 -0.4838  0.3929
14684TIP3    H165467   5.518   1.433   0.370 -0.3578  0.3696  2.7014
14684TIP3    H265468   5.635   1.343   0.403  0.5492  0.9864  1.2472
14685TIP3   OH265469   0.807   2.101   3.278  0.3656  0.4788  0.1476
14685TIP3    H165470   0.878   2.131   3.335  0.8944  0.0662 -0.2873
14685TIP3    H265471   0.730   2.100   3.334  0.5704  1.5512  0.4685
14686TIP3   OH265472   5.753   1.203  12.215  0.4827 -0.9616  0.4258
14686TIP3    H165473   5.685   1.167  12.158  2.2141 -1.7749 -1.1999
14686TIP3    H265474   5.732   1.296  12.222  1.0789 -0.5026 -2.9030
14687TIP3   OH265475   1.503   2.510  15.280  0.2581  0.1388 -0.2292
14687TIP3    H165476   1.468   2.553  15.357 -0.8280  0.1351 -0.7057
14687TIP3    H265477   1.430   2.508  15.218  0.8251 -0.7256 -0.8926
14688TIP3   OH265478   3.574   4.020   0.451 -0.2314  0.7546  0.3525
14688TIP3    H165479   3.615   4.103   0.429  1.1009  0.0878  0.2398
14688TIP3    H265480   3.540   4.033   0.540 -1.3168  1.8746 -0.2164
14689TIP3   OH265481   1.347   5.614   6.356 -0.8059  0.4137  0.6388
14689TIP3    H165482   1.293   5.584   6.429 -0.6750 -0.6100  0.3351
14689TIP3    H265483   1.433   5.628   6.394 -1.1277  1.4613  1.0020
14690TIP3   OH265484   0.130   6.701  15.148  0.6288  0.2553  0.6822
14690TIP3    H165485   0.116   6.646  15.225 -0.8232 -0.9402 -0.3996
14690TIP3    H265486   0.159   6.640  15.080 -0.0043  0.9929 -0.2616
14691TIP3   OH265487   6.551   5.461   6.067  0.6008  0.1123  1.0120
14691TIP3    H165488   6.533   5.380   6.018 -0.1752  0.1061  1.3015
14691TIP3    H265489   6.631   5.496   6.026  1.1434 -0.9745  1.1075
14692TIP3   OH265490   0.817   1.273   5.530 -0.5257  0.2593  0.7136
14692TIP3    H165491   0.895   1.328   5.535  0.2974 -1.0369  2.8415
14692TIP3    H265492   0.772   1.286   5.614 -0.8630 -1.4879  0.8365
14693TIP3   OH265493   0.483   6.293   5.724 -0.4157 -0.3217  0.6578
14693TIP3    H165494   0.526   6.308   5.640  1.2597 -0.7252  1.4252
14693TIP3    H265495   0.469   6.198   5.727  1.1676 -0.5411  1.5987
14694TIP3   OH265496   0.839   1.944  13.830 -0.2179 -0.2563  0.1742
14694TIP3    H165497   0.817   1.948  13.923  1.8036  0.7285  0.6245
14694TIP3    H265498   0.779   2.006  13.789 -1.4007 -0.9939  0.7420
14695TIP3   OH265499   5.123   3.081  15.197 -0.1246  0.1312  0.1258
14695TIP3    H165500   5.208   3.041  15.178 -0.1588  0.9975 -1.9786
14695TIP3    H265501   5.096   3.119  15.114 -3.4085 -1.6226  0.3311
14696TIP3   OH265502   1.946   0.276   1.308  0.0639 -0.6007  0.0889
14696TIP3    H165503   1.877   0.322   1.260 -1.1924 -3.7456 -1.2374
14696TIP3    H265504   2.026   0.322   1.285 -1.3345  2.0694  0.3060
14697TIP3   OH265505   4.355   1.124   1.610  0.1951 -0.5238  0.1968
14697TIP3    H165506   4.379   1.216   1.600  1.7159 -1.2335 -3.0114
14697TIP3    H265507   4.438   1.079   1.623 -0.6381 -1.3698  3.0497
14698TIP3   OH265508   4.743   4.170  16.732 -0.4743 -0.4919  0.0752
14698TIP3    H165509   4.794   4.154  16.652  1.3141  1.5391  0.7725
14698TIP3    H265510   4.691   4.248  16.712 -0.5964 -0.4239  0.6490
14699TIP3   OH265511   1.942   1.650   0.673 -0.0075  0.2141 -0.2401
14699TIP3    H165512   1.882   1.682   0.741  1.4061  1.0590  0.6479
14699TIP3    H265513   1.927   1.709   0.599 -0.3048  0.3952 -0.0371
14700TIP3   OH265514   0.619   6.591   3.901  0.5224 -0.0609  0.4512
14700TIP3    H165515   0.547   6.640   3.939  0.9364  1.4136 -0.6164
14700TIP3    H265516   0.592   6.500   3.907 -0.6760  0.3529  1.6085
14701TIP3   OH265517   0.101   2.043   4.355  0.3847  0.5696  0.1691
14701TIP3    H165518   0.148   1.988   4.418  0.8924  1.3512  0.4818
14701TIP3    H265519   0.154   2.040   4.276  1.1853  1.7893  0.6560
14702TIP3   OH265520   6.174   1.736  14.690 -0.7770  0.4291  0.7444
14702TIP3    H165521   6.234   1.748  14.616 -2.4883 -0.6316 -0.8752
14702TIP3    H265522   6.221   1.678  14.749  0.1315  0.2972 -0.0820
14703TIP3   OH265523   0.720   0.479   2.794 -0.2015 -0.0848 -0.4954
14703TIP3    H165524   0.762   0.394   2.805 -0.3328 -0.2779 -1.3781
14703TIP3    H265525   0.748   0.508   2.707  2.3717  2.2230  1.0273
14704TIP3   OH265526   1.684   0.451   2.163 -0.5978  0.4138  0.0104
14704TIP3    H165527   1.597   0.484   2.184 -0.0686  1.8946 -0.0809
14704TIP3    H265528   1.705   0.391   2.235 -1.5987  0.1973  0.1303
14705TIP3   OH265529   0.050   5.781  12.056  0.1459  0.1853 -0.2956
14705TIP3    H165530  -0.012   5.747  12.121  1.0715 -0.7149  0.1173
14705TIP3    H265531  -0.005   5.827  11.992 -0.8397  0.4194  0.7076
14706TIP3   OH265532   0.235   5.533   6.027  0.2989 -0.1431 -0.6606
14706TIP3    H165533   0.300   5.576   6.083  0.3109  0.2196 -0.9476
14706TIP3    H265534   0.261   5.441   6.026 -0.2889 -0.3393  0.7386
14707TIP3   OH265535   4.167   0.789  10.679 -0.6953  0.3156 -0.0085
14707TIP3    H165536   4.107   0.737  10.732  0.2521 -0.2429  0.5126
14707TIP3    H265537   4.176   0.740  10.597  0.4421 -0.5108  0.6028
14708TIP3   OH265538   5.115   0.136  11.800  0.3087 -0.3219 -0.2550
14708TIP3    H165539   5.186   0.086  11.759  1.7199  0.2607  1.4009
14708TIP3    H265540   5.123   0.223  11.761  0.9164 -0.0803  0.4103
14709TIP3   OH265541   6.072   1.999   0.506 -0.0555  0.6193 -0.4367
14709TIP3    H165542   6.073   2.063   0.577 -0.2406  1.0742 -0.8455
14709TIP3    H265543   6.135   1.932   0.534  0.2844  1.0761 -0.1020
14710TIP3   OH265544   0.501   5.752   3.803 -0.5757 -0.2819  0.3355
14710TIP3    H165545   0.495   5.813   3.730 -1.0544  0.5224  1.0468
14710TIP3    H265546   0.417   5.760   3.848 -0.2202 -0.6560  1.0713
14711TIP3   OH265547   4.780   5.323   1.808  0.0492 -1.2571  0.1190
14711TIP3    H165548   4.723   5.293   1.737  1.2670  0.5921 -1.6592
14711TIP3    H265549   4.719   5.345   1.879 -1.1592 -3.3856 -0.2078
14712TIP3   OH265550   4.399   4.373   1.270  0.1620 -0.2041 -0.2684
14712TIP3    H165551   4.308   4.353   1.246  0.2742 -0.7690 -0.2193
14712TIP3    H265552   4.428   4.297   1.320  0.7106 -0.0832 -0.4014
14713TIP3   OH265553   2.266   2.140   5.437  0.5566 -0.4322  0.3413
14713TIP3    H165554   2.209   2.213   5.461  1.0801  0.0603  0.1203
14713TIP3    H265555   2.348   2.157   5.484  0.1285 -1.7684  1.5936
14714TIP3   OH265556   5.064   2.419   4.527 -0.3770  0.2880 -0.4662
14714TIP3    H165557   5.064   2.511   4.554 -0.1339  0.2657 -0.3948
14714TIP3    H265558   5.038   2.422   4.434 -0.5009  0.4164 -0.4279
14715TIP3   OH265559   0.830   0.123  16.710 -0.0256 -0.3667  0.3783
14715TIP3    H165560   0.847   0.215  16.728  0.6106 -0.2607 -0.7184
14715TIP3    H265561   0.771   0.124  16.634  0.1423 -0.8695  0.2380
14716TIP3   OH265562   5.694   6.559  11.666  0.1193  0.1280  0.4434
14716TIP3    H165563   5.642   6.539  11.744 -0.6325  1.1727  0.2227
14716TIP3    H265564   5.782   6.526  11.687  0.5098  2.4056  2.6696
14717TIP3   OH265565   5.481   1.488   3.031  0.0529  0.1276 -0.1647
14717TIP3    H165566   5.488   1.579   3.059 -0.9098  0.1207  0.1362
14717TIP3    H265567   5.387   1.473   3.022  0.1101 -1.2336  1.1736
14718TIP3   OH265568   0.218   4.837   5.110 -0.3966  0.6187  0.1122
14718TIP3    H165569   0.286   4.824   5.177 -0.5229  4.5296  1.1415
14718TIP3    H265570   0.265   4.867   5.033 -0.6666  0.4101 -0.1344
14719TIP3   OH265571   1.106   1.424   3.190 -0.8843  0.1841 -0.4006
14719TIP3    H165572   1.048   1.408   3.115  3.3398 -0.3386 -3.7045
14719TIP3    H265573   1.181   1.470   3.154  1.2851  0.0410  3.5702
14720TIP3   OH265574   6.514   2.902  16.285 -0.5236 -0.3531 -0.1468
14720TIP3    H165575   6.534   2.969  16.219 -0.8864 -0.2364 -0.1361
14720TIP3    H265576   6.514   2.820  16.236  1.2680 -0.5067  0.0885
14721TIP3   OH265577   1.676   6.480  11.909  0.5889 -0.2056  0.4281
14721TIP3    H165578   1.607   6.538  11.877  2.6933  1.6855 -0.8323
14721TIP3    H265579   1.683   6.500  12.003  1.0107  1.2894  0.0862
14722TIP3   OH265580   1.881   4.431   2.073  0.0529 -0.2856  0.3530
14722TIP3    H165581   1.820   4.505   2.083 -1.8767 -1.7235 -0.4625
14722TIP3    H265582   1.923   4.447   1.989 -0.5883 -0.2673  0.0308
14723TIP3   OH265583   2.433   1.058  14.995 -0.2747  0.2011 -0.2454
14723TIP3    H165584   2.358   1.114  15.018  0.3589  1.0090 -0.0863
14723TIP3    H265585   2.497   1.076  15.064  0.1342 -0.3384 -0.4855
14724TIP3   OH265586   5.406   4.665  15.039 -0.0713  0.2779 -0.2941
14724TIP3    H165587   5.359   4.594  15.084 -0.3639  0.1093 -0.8562
14724TIP3    H265588   5.471   4.620  14.985 -1.7713  0.2669 -2.4411
14725TIP3   OH265589   0.485   1.903   6.436 -0.0705 -0.3660  0.3198
14725TIP3    H165590   0.428   1.970   6.398  0.5952 -0.2705 -0.5288
14725TIP3    H265591   0.523   1.858   6.361  0.9982 -0.4065  0.8655
14726TIP3   OH265592   0.973   2.761  13.956 -0.0027 -0.2051 -0.0881
14726TIP3    H165593   0.895   2.798  13.997 -0.2083 -1.5327  0.7631
14726TIP3    H265594   1.002   2.693  14.017  0.1796 -1.6400 -1.7412
14727TIP3   OH265595   6.705   6.373   5.579  0.3415 -0.8801  0.0645
14727TIP3    H165596   6.719   6.447   5.637  0.0981 -0.0522 -0.9190
14727TIP3    H265597   6.739   6.298   5.627  1.2336 -0.0261  0.7784
14728TIP3   OH265598   2.080   4.305  11.949 -0.2423  0.0610 -0.3838
14728TIP3    H165599   2.127   4.339  11.873  0.9774  0.3355  0.4837
14728TIP3    H265600   1.993   4.346  11.943  0.4904  1.6351 -0.5637
14729TIP3   OH265601   3.556   5.026  11.009 -0.0792 -0.1522  0.0884
14729TIP3    H165602   3.468   5.056  11.033  0.1735  1.0706 -0.4961
14729TIP3    H265603   3.567   5.054  10.918  1.2419  0.4642  0.4323
14730TIP3   OH265604   2.606   4.051  11.281  0.4462  0.0035  0.1901
14730TIP3    H165605   2.695   4.020  11.297  0.0075 -1.7413 -0.6171
14730TIP3    H265606   2.591   4.118  11.348  2.0488 -0.3058  0.8723
14731TIP3   OH265607   1.217   1.262  14.516  0.2792 -0.2604  0.1148
14731TIP3    H165608   1.229   1.318  14.439 -0.9617 -0.5668 -0.3196
14731TIP3    H265609   1.256   1.312  14.588 -0.7383  1.1495 -0.2789
14732TIP3   OH265610   0.308   5.940  12.704  0.2461 -0.2264 -0.0401
14732TIP3    H165611   0.343   5.927  12.792 -0.0706 -0.6372  0.0310
14732TIP3    H265612   0.213   5.937  12.716  0.2184 -1.6403 -0.5993
14733TIP3   OH265613   2.108   1.089   4.090 -0.4529  0.6115  0.3543
14733TIP3    H165614   2.093   1.182   4.074  1.3284  0.8848  0.2499
14733TIP3    H265615   2.199   1.074   4.065 -0.1745 -0.7587  2.0884
14734TIP3   OH265616   1.862   1.471  15.644  0.6381 -0.1648 -0.0548
14734TIP3    H165617   1.868   1.553  15.595  2.2325 -0.2341  0.0236
14734TIP3    H265618   1.892   1.404  15.583 -0.0488 -0.6181  0.0954
14735TIP3   OH265619   0.671   2.415  13.700  0.0396 -0.0488  0.2260
14735TIP3    H165620   0.681   2.464  13.782  0.6364 -1.4423  0.9983
14735TIP3    H265621   0.581   2.432  13.673 -0.2703  0.1420  1.3466
14736TIP3   OH265622   3.966   3.054  11.478  0.5699  0.7894 -0.2259
14736TIP3    H165623   4.060   3.050  11.462  0.4971  0.1459 -0.5126
14736TIP3    H265624   3.927   3.074  11.393  0.3339 -0.5493 -0.4378
14737TIP3   OH265625   5.776   5.581  16.465  0.1067  0.2012 -0.4274
14737TIP3    H165626   5.731   5.540  16.391 -1.5709  0.4310  0.4643
14737TIP3    H265627   5.736   5.543  16.543  1.9123 -0.0768  0.3867
14738TIP3   OH265628   3.524   5.738   4.240  0.2635 -0.4367  0.4590
14738TIP3    H165629   3.495   5.794   4.168  0.0049 -0.7306  0.3304
14738TIP3    H265630   3.590   5.681   4.201  1.3566  0.5258  0.8572
14739TIP3   OH265631   5.280   6.555  14.000 -0.5750  0.4828 -0.5571
14739TIP3    H165632   5.204   6.611  14.017 -0.1424  0.1904  2.6721
14739TIP3    H265633   5.354   6.616  13.999 -0.4178  0.3199  0.3102
14740TIP3   OH265634   5.977   2.757  13.691  0.1917  0.8313  0.1208
14740TIP3    H165635   6.069   2.742  13.714 -0.3399 -1.3837  0.9515
14740TIP3    H265636   5.970   2.733  13.599  0.2474  0.0630  0.3162
14741TIP3   OH265637   3.274   0.245  11.915 -0.0184  0.5010 -0.3831
14741TIP3    H165638   3.313   0.240  12.002  0.8656 -0.7099 -0.8291
14741TIP3    H265639   3.345   0.220  11.855 -0.7632  0.7848 -1.4042
14742TIP3   OH265640   3.525   6.203  15.503 -0.0314 -0.0722  0.2320
14742TIP3    H165641   3.593   6.183  15.568  0.2788  2.3536  0.6918
14742TIP3    H265642   3.454   6.242  15.554 -0.7106 -0.2208 -0.5875
14743TIP3   OH265643   6.273   2.029   3.596 -0.5600 -0.0502 -0.8341
14743TIP3    H165644   6.302   1.938   3.584  1.8663  0.6575 -0.5536
14743TIP3    H265645   6.232   2.029   3.683 -0.2480 -0.7890 -0.6797
14744TIP3   OH265646   1.657   3.753   4.354 -0.1029  0.9369 -0.3593
14744TIP3    H165647   1.612   3.712   4.280 -1.9017  0.6504  0.8673
14744TIP3    H265648   1.645   3.692   4.427 -0.4684  2.3710  0.7990
14745TIP3   OH265649   3.013   6.556  16.899 -0.3771  0.2297 -0.0956
14745TIP3    H165650   3.064   6.636  16.913  0.3188 -0.6411  2.6099
14745TIP3    H265651   3.029   6.533  16.807  2.8102  0.8661  0.2643
14746TIP3   OH265652   4.283   4.322  11.382  0.0294 -0.0010  0.0140
14746TIP3    H165653   4.357   4.381  11.366  0.5788 -0.5535  0.4722
14746TIP3    H265654   4.210   4.380  11.403  0.7934  0.5104  1.3731
14747TIP3   OH265655   4.828   4.740   1.486  0.2852 -0.4052 -0.4905
14747TIP3    H165656   4.828   4.659   1.436 -0.8584 -0.0054 -1.1487
14747TIP3    H265657   4.750   4.787   1.457 -0.8896 -0.5525  2.3007
14748TIP3   OH265658   6.092   4.866   6.614 -0.0269 -0.2372  0.2768
14748TIP3    H165659   6.131   4.795   6.664 -1.4249 -0.4952  1.0349
14748TIP3    H265660   6.158   4.890   6.549  0.3584 -2.3563 -0.1199
14749TIP3   OH265661   5.614   4.854   1.015 -0.1134 -0.4272  0.0442
14749TIP3    H165662   5.695   4.903   1.030  0.7172 -1.9547  0.6452
14749TIP3    H265663   5.575   4.845   1.102  0.3171 -1.8047  0.1002
14750TIP3   OH265664   5.507   1.247   2.719  0.2543 -0.5609 -0.4497
14750TIP3    H165665   5.430   1.275   2.769  0.3519 -0.5017 -0.3296
14750TIP3    H265666   5.487   1.269   2.628  0.5990  0.5032 -0.2779
14751TIP3   OH265667   0.197   2.794  12.125 -0.3007  0.1271 -0.2346
14751TIP3    H165668   0.133   2.815  12.057 -1.1654  0.6277  0.7224
14751TIP3    H265669   0.260   2.737  12.081 -0.2800  1.2577 -1.7267
14752TIP3   OH265670   4.730   3.080  14.299 -0.6836 -0.6126  0.1083
14752TIP3    H165671   4.666   3.026  14.252  1.9166 -1.3698 -2.7326
14752TIP3    H265672   4.778   3.018  14.354  1.2671 -1.0499 -1.9922
14753TIP3   OH265673   1.736   0.068  16.303 -0.7175  0.0654 -0.0202
14753TIP3    H165674   1.802   0.004  16.279  0.6924  1.6188 -0.4351
14753TIP3    H265675   1.757   0.145  16.250 -1.2990  1.4499  1.6875
14754TIP3   OH265676   0.489   3.721   1.287  0.6426  1.1842  0.2941
14754TIP3    H165677   0.507   3.693   1.377 -1.8168  0.4527  0.5928
14754TIP3    H265678   0.575   3.747   1.253  1.9329 -0.4336  2.1755
14755TIP3   OH265679   3.804   1.287  15.204  0.4032 -0.0526  0.3968
14755TIP3    H165680   3.746   1.327  15.139 -0.3907 -1.6660  0.0851
14755TIP3    H265681   3.759   1.207  15.230  2.2556 -1.0729  0.5384
14756TIP3   OH265682   2.522   4.255  15.005  0.1098 -0.7344  0.2517
14756TIP3    H165683   2.462   4.288  15.073  0.4645 -0.3111  0.3623
14756TIP3    H265684   2.606   4.294  15.027 -0.2601  1.2589 -1.7508
14757TIP3   OH265685   1.932   2.277  12.841  0.1413 -0.1862  0.0235
14757TIP3    H165686   1.842   2.266  12.872  0.5414 -1.8078  0.6361
14757TIP3    H265687   1.958   2.362  12.874 -0.3998 -0.6841  1.7643
14758TIP3   OH265688   2.838   4.593   2.767  0.2679 -0.3753  0.5818
14758TIP3    H165689   2.926   4.608   2.801  0.4225 -0.3279  0.1599
14758TIP3    H265690   2.781   4.643   2.825  0.3881 -1.4495  1.6492
14759TIP3   OH265691   5.791   0.595   0.894  0.7037 -0.1773 -0.0048
14759TIP3    H165692   5.719   0.647   0.860  2.1300  0.6484 -1.8640
14759TIP3    H265693   5.850   0.658   0.934  0.4009 -0.8521  1.5458
14760TIP3   OH265694   4.136   1.125  16.401 -0.8902 -0.5611 -0.0689
14760TIP3    H165695   4.126   1.031  16.411  0.4444 -0.5199  1.9467
14760TIP3    H265696   4.161   1.138  16.309 -2.8715 -1.9860 -0.8355
14761TIP3   OH265697   4.231   6.412   1.456 -0.2341 -0.0885 -0.0115
14761TIP3    H165698   4.143   6.374   1.458  0.3201 -1.3934 -0.5228
14761TIP3    H265699   4.235   6.466   1.536 -0.5297 -2.2028  1.4858
14762TIP3   OH265700   4.882   2.527   2.325  0.5678  0.0091  0.1886
14762TIP3    H165701   4.871   2.545   2.418 -0.0635 -0.8388  0.2876
14762TIP3    H265702   4.826   2.451   2.308 -1.3945  1.7598 -1.4361
14763TIP3   OH265703   0.744   3.089  14.787  0.2960  0.8123 -0.2064
14763TIP3    H165704   0.673   3.124  14.841 -1.0750 -4.1975  1.5495
14763TIP3    H265705   0.824   3.121  14.828 -0.8506  2.2946  0.9240
14764TIP3   OH265706   1.851   3.349   5.989 -0.2776  0.0946 -0.7600
14764TIP3    H165707   1.773   3.294   5.997  0.2362 -0.4890  0.3284
14764TIP3    H265708   1.923   3.287   5.983 -0.0127  0.6064 -3.3140
14765TIP3   OH265709   2.643   1.160  15.170  0.2780  0.4183 -0.6971
14765TIP3    H165710   2.591   1.153  15.251  0.8463  1.7919 -0.2012
14765TIP3    H265711   2.728   1.193  15.199  1.5222 -1.9770 -1.4911
14766TIP3   OH265712   1.459   2.607   2.912  0.5542  0.6338  0.3209
14766TIP3    H165713   1.502   2.608   2.997 -1.5832 -0.3174  1.4672
14766TIP3    H265714   1.451   2.514   2.890  0.1680  0.8333 -0.4098
14767TIP3   OH265715   5.932   2.668   4.455  0.7430 -0.0670  0.3650
14767TIP3    H165716   6.009   2.723   4.444 -0.0499  0.7580 -1.2076
14767TIP3    H265717   5.863   2.729   4.483  0.0573 -0.3816 -0.6072
14768TIP3   OH265718   2.104   1.461   1.775  0.2745  0.5883 -0.5589
14768TIP3    H165719   2.151   1.540   1.749  2.8168 -0.6522  0.1007
14768TIP3    H265720   2.121   1.453   1.869  1.4570 -1.6264 -0.9366
14769TIP3   OH265721   0.990   3.543   5.365  0.2340  0.1831 -0.2664
14769TIP3    H165722   1.070   3.540   5.418 -0.3053  1.8682  0.6622
14769TIP3    H265723   1.003   3.617   5.306 -0.1813 -0.2149 -0.8556
14770TIP3   OH265724   0.563   6.305   0.721  0.5820  0.2632  0.5379
14770TIP3    H165725   0.515   6.266   0.794 -0.0050 -0.1036 -0.0422
14770TIP3    H265726   0.626   6.238   0.696  0.0966 -0.0172  0.0488
14771TIP3   OH265727   1.972   5.420  13.551  0.3934 -0.1462 -0.2424
14771TIP3    H165728   1.886   5.388  13.525  0.4441 -0.8908  0.4661
14771TIP3    H265729   2.018   5.341  13.582  0.0073  0.8162  2.9566
14772TIP3   OH265730   3.684   1.096  14.303  0.1640 -0.0973  0.2437
14772TIP3    H165731   3.726   1.047  14.232  0.4000  0.0801  0.2591
14772TIP3    H265732   3.757   1.130  14.355 -0.0107 -0.8097  0.9707
14773TIP3   OH265733   5.164   2.988  16.399  0.3460  0.5901  0.1394
14773TIP3    H165734   5.241   3.036  16.432  0.9256  0.8477 -1.5211
14773TIP3    H265735   5.163   2.907  16.450  0.7489  1.3119  1.3290
14774TIP3   OH265736   4.568   4.788  14.463  0.1646 -0.0185 -0.0228
14774TIP3    H165737   4.573   4.862  14.524  0.5114 -0.0048 -0.0657
14774TIP3    H265738   4.613   4.819  14.384  0.5383 -0.3661  0.0538
14775TIP3   OH265739   3.743   5.094   4.707 -0.1934 -0.1765 -0.2784
14775TIP3    H165740   3.685   5.170   4.705  2.2281  1.6939 -1.9798
14775TIP3    H265741   3.761   5.075   4.615  0.9775 -1.4601  0.1984
14776TIP3   OH265742   5.897   6.460   5.932  0.0792 -0.4641 -0.1124
14776TIP3    H165743   5.917   6.521   6.003 -1.6307  1.3241 -1.1429
14776TIP3    H265744   5.981   6.419   5.912  0.7541 -0.4311  2.3960
14777TIP3   OH265745   5.687   6.202  12.002  0.0272  0.0131 -0.3486
14777TIP3    H165746   5.728   6.153  11.931  1.7056  0.2907  0.4165
14777TIP3    H265747   5.646   6.134  12.057  2.0350 -0.5429  0.5096
14778TIP3   OH265748   0.142   3.938   0.100  0.1221 -0.2278  0.2502
14778TIP3    H165749   0.141   3.957   0.193  0.5385  1.2084 -0.0257
14778TIP3    H265750   0.054   3.908   0.080  0.4107 -1.8839  1.3593
14779TIP3   OH265751   2.335   1.799  12.439 -0.1998  0.3042 -0.2712
14779TIP3    H165752   2.328   1.704  12.444  0.5221  0.3286  1.7383
14779TIP3    H265753   2.291   1.830  12.518 -2.0266  1.7391 -1.8134
14780TIP3   OH265754   3.939   3.916  15.285 -0.7023  0.2535  0.9995
14780TIP3    H165755   3.907   3.872  15.364 -0.2941 -1.3145  0.3194
14780TIP3    H265756   3.940   3.847  15.218  0.4768  1.1799  0.0373
14781TIP3   OH265757   6.674   3.493   5.942  0.1652 -0.5801 -0.1734
14781TIP3    H165758   6.636   3.414   5.980  1.4604 -0.7854  0.7142
14781TIP3    H265759   6.764   3.468   5.920  0.7137  0.7739  0.5258
14782TIP3   OH265760   4.664   3.408   3.988 -0.1432 -0.0833  0.2793
14782TIP3    H165761   4.704   3.397   4.074 -0.1161 -0.1703  0.2558
14782TIP3    H265762   4.577   3.444   4.006  0.6727  1.9728  0.2241
14783TIP3   OH265763   2.766   1.311   2.414 -0.1907  0.1360  0.0219
14783TIP3    H165764   2.791   1.239   2.473 -0.7479  0.4725  0.6828
14783TIP3    H265765   2.670   1.311   2.416 -0.1935  1.1248  0.3091
14784TIP3   OH265766   5.142   4.594   0.140  0.1620 -0.3912 -0.0066
14784TIP3    H165767   5.049   4.596   0.118  0.8243  0.3979 -2.9692
14784TIP3    H265768   5.156   4.675   0.189 -1.0442 -1.4179  2.1002
14785TIP3   OH265769   0.660   5.011   4.912 -0.5841  0.0946  0.2582
14785TIP3    H165770   0.659   5.100   4.949  0.6037  1.5682 -2.9807
14785TIP3    H265771   0.752   4.985   4.913 -1.2242 -2.2820  3.6651
14786TIP3   OH265772   6.367   2.332   5.686 -0.0651 -0.2750  0.5382
14786TIP3    H165773   6.339   2.290   5.605 -1.2942 -0.2230  0.9196
14786TIP3    H265774   6.332   2.276   5.755 -1.5032  1.2156  1.0426
14787TIP3   OH265775   3.120   3.710  11.604  0.7346 -0.2864  0.1914
14787TIP3    H165776   3.202   3.667  11.628 -0.6194 -3.2286 -0.3200
14787TIP3    H265777   3.085   3.742  11.687  1.8640  0.0553  0.5489
14788TIP3   OH265778   5.102   4.313  14.495  0.3508  0.9448 -0.2978
14788TIP3    H165779   5.012   4.285  14.510  0.5270  1.0699  1.0359
14788TIP3    H265780   5.151   4.274  14.567  1.2811  1.3058 -0.7322
14789TIP3   OH265781   4.083   1.438  15.077  0.1485 -0.5793 -0.1011
14789TIP3    H165782   4.051   1.417  15.164  0.0983 -0.4869 -0.0959
14789TIP3    H265783   4.102   1.354  15.037 -2.0088 -0.7689 -0.8246
14790TIP3   OH265784   5.462   4.236  11.194  0.4535  0.3347  0.1310
14790TIP3    H165785   5.490   4.148  11.170  0.9060 -0.2207  2.6150
14790TIP3    H265786   5.429   4.273  11.112  0.4697 -2.0445 -1.0009
14791TIP3   OH265787   6.276   6.434   2.046  0.8902 -0.2264 -0.2197
14791TIP3    H165788   6.345   6.430   2.112  1.0309  1.0232 -0.2882
14791TIP3    H265789   6.205   6.381   2.083  0.7751  0.8613  1.1598
14792TIP3   OH265790   2.019   6.094   5.027 -0.3435 -0.2352  0.4134
14792TIP3    H165791   2.100   6.119   4.983 -2.0883  0.7433 -2.3975
14792TIP3    H265792   2.047   6.056   5.110  2.9200  1.0346 -0.0418
14793TIP3   OH265793   1.809   3.643  15.738 -0.0265  0.1011 -0.1910
14793TIP3    H165794   1.714   3.642  15.754  0.0038  2.6743  0.4482
14793TIP3    H265795   1.818   3.632  15.644 -0.9610 -0.3730 -0.2301
14794TIP3   OH265796   1.929   1.925  15.795  0.1624  0.0792  0.0827
14794TIP3    H165797   1.968   1.896  15.877 -0.5614  2.0044  1.1127
14794TIP3    H265798   1.947   2.019  15.791 -2.9994  0.7160 -0.1436
14795TIP3   OH265799   4.978   6.381   2.800  0.0530  0.8102  0.0662
14795TIP3    H165800   5.034   6.309   2.771 -0.6982  1.2041 -2.5024
14795TIP3    H265801   5.036   6.458   2.801  0.2003  0.6997  0.0564
14796TIP3   OH265802   4.709   0.295  11.065 -0.2103  0.4210  0.4666
14796TIP3    H165803   4.707   0.369  11.005 -1.2271  2.2270  2.6713
14796TIP3    H265804   4.802   0.279  11.081  0.0187  0.9626 -0.3100
14797TIP3   OH265805   2.291   0.940   2.065  0.2386  0.2320 -0.0981
14797TIP3    H165806   2.204   0.901   2.065  1.3217 -2.2567 -0.1347
14797TIP3    H265807   2.288   1.003   1.992 -0.9110 -1.2574 -1.3875
14798TIP3   OH265808   3.195   4.189   1.241 -0.6548  0.2655  0.5771
14798TIP3    H165809   3.146   4.135   1.180  0.5889 -0.3951  0.1366
14798TIP3    H265810   3.133   4.255   1.272 -1.5577 -0.0260 -0.6229
14799TIP3   OH265811   6.397   6.783   0.737  0.7894  0.2397 -0.3386
14799TIP3    H165812   6.359   6.783   0.825  0.8531  2.6835 -0.2813
14799TIP3    H265813   6.488   6.757   0.750  0.0213 -2.4551 -0.0891
14800TIP3   OH265814   2.242   4.936  11.555  0.3663  0.2205 -0.2138
14800TIP3    H165815   2.222   5.026  11.527 -0.4594  0.6998  1.8090
14800TIP3    H265816   2.331   4.941  11.590 -0.3113  0.6750  1.5184
14801TIP3   OH265817   0.924   2.192   6.376  0.0505 -0.0873  0.2435
14801TIP3    H165818   0.856   2.126   6.389 -0.3553 -0.3835 -3.0169
14801TIP3    H265819   0.887   2.272   6.414 -0.5819 -1.0917  1.7818
14802TIP3   OH265820   5.179   0.644   3.295 -0.1713 -0.3227 -0.3797
14802TIP3    H165821   5.258   0.692   3.321 -0.4683  0.0932 -0.2434
14802TIP3    H265822   5.210   0.579   3.232  0.4558 -0.9318  0.5496
14803TIP3   OH265823   4.414   5.912   0.774 -0.0481 -0.5487 -0.4436
14803TIP3    H165824   4.411   6.008   0.764 -1.9272 -0.8764 -3.8866
14803TIP3    H265825   4.507   5.892   0.780  0.3923  1.4700 -0.0081
14804TIP3   OH265826   4.128   5.210  15.391 -0.0306  0.6403 -0.4713
14804TIP3    H165827   4.073   5.288  15.385 -0.0569  0.7403  0.7985
14804TIP3    H265828   4.185   5.227  15.466 -2.7782 -2.2155  2.4337
14805TIP3   OH265829   3.273   4.877  11.159  0.4392  0.2234  0.1097
14805TIP3    H165830   3.221   4.797  11.164  1.5591 -0.5116  0.1438
14805TIP3    H265831   3.270   4.902  11.067 -2.3025  1.7601  0.5825
14806TIP3   OH265832   3.441   1.971   3.239  0.2831  0.0690 -1.1349
14806TIP3    H165833   3.400   1.925   3.312  2.3424 -1.6426 -1.0063
14806TIP3    H265834   3.485   2.046   3.280 -0.8148  0.6467 -0.9938
14807TIP3   OH265835   5.314   4.727   0.507 -0.3754 -0.6208  0.5025
14807TIP3    H165836   5.294   4.635   0.487  0.6414 -0.9252  0.8575
14807TIP3    H265837   5.282   4.775   0.431 -1.7446 -1.1692  0.7152
14808TIP3   OH265838   0.113   2.153  12.325 -0.1941  0.6618  0.9276
14808TIP3    H165839   0.052   2.086  12.355 -0.6349  0.9050  0.5824
14808TIP3    H265840   0.064   2.202  12.259  0.5068  0.6093  0.3598
14809TIP3   OH265841   1.452   3.750  16.400  0.0888  0.0755 -0.1646
14809TIP3    H165842   1.371   3.700  16.403  0.9840 -1.5513 -2.1445
14809TIP3    H265843   1.454   3.788  16.312  1.6313 -0.1949 -0.2558
14810TIP3   OH265844   3.317   5.364   3.627  0.7019 -0.1599  0.4026
14810TIP3    H165845   3.303   5.306   3.702  0.9747 -0.6013  0.1109
14810TIP3    H265846   3.246   5.342   3.566  1.2824 -0.7496 -0.0578
14811TIP3   OH265847   1.928   6.006  10.870 -0.1519  0.2200  0.7346
14811TIP3    H165848   1.862   5.963  10.924 -0.8566 -0.1194 -0.3749
14811TIP3    H265849   2.010   5.962  10.892 -0.3525  0.4018  1.8601
14812TIP3   OH265850   0.594   0.103  16.895  0.3173 -0.1977 -0.3865
14812TIP3    H165851   0.669   0.098  16.836 -0.4466  2.2798 -1.5933
14812TIP3    H265852   0.633   0.113  16.982  1.3913 -1.2687 -0.7256
14813TIP3   OH265853   5.156   1.716  13.916  0.3870 -0.0332  0.6173
14813TIP3    H165854   5.158   1.691  13.823  0.2598  1.6973  0.1103
14813TIP3    H265855   5.081   1.670  13.952 -1.5576  1.7781 -0.9432
14814TIP3   OH265856   4.170   2.998   6.767 -0.4502 -0.1087 -1.0356
14814TIP3    H165857   4.234   3.055   6.726 -0.2543 -0.1441 -0.7824
14814TIP3    H265858   4.202   2.910   6.751 -1.0009 -0.1693 -1.8322
14815TIP3   OH265859   4.376   3.911  15.843 -0.0832 -0.1648  0.1818
14815TIP3    H165860   4.394   3.844  15.909  2.5315 -0.1474 -0.4616
14815TIP3    H265861   4.344   3.986  15.893 -0.8169 -1.1091  1.1370
14816TIP3   OH265862   3.702   4.441   1.796  0.1649 -0.1541 -0.0542
14816TIP3    H165863   3.756   4.442   1.875  1.3265  2.4717 -0.8159
14816TIP3    H265864   3.625   4.492   1.818  0.4935  0.5879 -0.6098
14817TIP3   OH265865   1.569   5.696   5.108  0.1225  0.5752 -0.6162
14817TIP3    H165866   1.542   5.634   5.176 -0.3144  0.5959 -0.7667
14817TIP3    H265867   1.604   5.771   5.156  1.9928 -0.3729 -0.4573
14818TIP3   OH265868   4.140   1.367   5.059 -0.3589 -0.4844  0.1032
14818TIP3    H165869   4.124   1.295   4.998 -1.0443 -0.3517  0.1247
14818TIP3    H265870   4.155   1.443   5.002 -0.2552 -0.5114  0.0927
14819TIP3   OH265871   2.981   1.414   4.712 -0.1358  0.4831 -0.0761
14819TIP3    H165872   3.041   1.448   4.645 -0.8212  0.9068 -0.4756
14819TIP3    H265873   3.024   1.434   4.795  0.3591  0.6317 -0.3642
14820TIP3   OH265874   1.976   1.684  14.997 -0.4175 -0.2621  0.5689
14820TIP3    H165875   1.969   1.708  14.904 -2.7561 -0.8826  0.5698
14820TIP3    H265876   2.070   1.672  15.011  0.0107  0.3157 -1.5975
14821TIP3   OH265877   4.013   3.451  11.461 -0.0894  0.2085 -0.5708
14821TIP3    H165878   3.991   3.397  11.537  0.4808  2.2821  1.1058
14821TIP3    H265879   4.100   3.421  11.434  0.1989  0.2517  0.3138
14822TIP3   OH265880   5.507   4.435  13.488 -0.2335 -0.1206 -0.1869
14822TIP3    H165881   5.508   4.380  13.566 -0.4046  2.0184  1.3815
14822TIP3    H265882   5.416   4.437  13.461 -0.3069 -0.1797  0.0572
14823TIP3   OH265883   3.205   1.409  17.214  0.0725 -0.5094  0.6490
14823TIP3    H165884   3.239   1.320  17.217  0.4301 -0.3921  0.1094
14823TIP3    H265885   3.283   1.465  17.223 -0.0764 -0.2476  0.3068
14824TIP3   OH265886   5.032   2.377   5.897 -0.1822 -0.3925  0.0615
14824TIP3    H165887   4.968   2.375   5.826  0.0608  2.0234 -0.2598
14824TIP3    H265888   5.038   2.286   5.926 -2.1497 -1.0034 -1.3337
14825TIP3   OH265889   3.689   0.563   2.550 -0.2598 -0.8028 -0.6515
14825TIP3    H165890   3.696   0.524   2.638  0.1354  0.8882  0.0810
14825TIP3    H265891   3.770   0.536   2.506  0.2721 -0.3850  0.0416
14826TIP3   OH265892   2.045   6.189  16.126  0.0234 -0.6003  0.0731
14826TIP3    H165893   2.068   6.183  16.033  0.5530  1.6574  0.0216
14826TIP3    H265894   2.129   6.182  16.172 -0.1322 -0.7103  0.3491
14827TIP3   OH265895   1.134   4.549  14.065  0.0981 -0.4306 -0.0663
14827TIP3    H165896   1.162   4.579  13.978  0.0493 -0.9913 -0.2750
14827TIP3    H265897   1.202   4.583  14.124  0.1386 -0.0591 -0.3204
14828TIP3   OH265898   2.703   3.778  15.142 -0.1510 -0.2702  0.0344
14828TIP3    H165899   2.710   3.715  15.070 -0.2259 -0.4262  0.1641
14828TIP3    H265900   2.609   3.790  15.154 -0.1351  0.3962 -0.4548
14829TIP3   OH265901   0.119   0.115  14.924 -0.3278  0.1456  0.1155
14829TIP3    H165902   0.147   0.203  14.949 -0.1625  0.0035  0.4312
14829TIP3    H265903   0.144   0.059  14.998  0.8011 -0.3931 -0.6508
14830TIP3   OH265904   0.887   3.398  16.447  0.2381  0.1722  0.0180
14830TIP3    H165905   0.884   3.397  16.351  1.2640  1.4794 -0.0478
14830TIP3    H265906   0.935   3.478  16.468  0.8687 -0.6043  1.6037
14831TIP3   OH265907   0.626   0.048   2.409 -0.3435  0.0060  0.5900
14831TIP3    H165908   0.684   0.097   2.350 -2.8115  1.0655 -1.0682
14831TIP3    H265909   0.573   0.116   2.452 -1.7814 -1.0447  0.5126
14832TIP3   OH265910   4.248   5.500  15.560  0.0643  0.5563 -0.3929
14832TIP3    H165911   4.245   5.464  15.648  0.6718 -0.1150 -0.6452
14832TIP3    H265912   4.333   5.473  15.525 -0.8933 -0.7023 -1.8277
14833TIP3   OH265913   4.714   6.575  14.337 -0.2072 -0.2924  0.7042
14833TIP3    H165914   4.736   6.484  14.353 -0.4264 -0.7093 -1.2641
14833TIP3    H265915   4.793   6.613  14.297 -0.8787 -0.2199 -0.5948
14834TIP3   OH265916   4.527   2.952  12.706  0.5910 -0.1672 -0.4105
14834TIP3    H165917   4.444   2.941  12.753  0.0742  1.5251 -0.8539
14834TIP3    H265918   4.594   2.955  12.774  0.1748 -0.5924  0.0176
14835TIP3   OH265919   0.315   1.236   2.946  0.1713  0.2361  0.0063
14835TIP3    H165920   0.369   1.221   2.868 -1.1648 -0.5478 -0.7831
14835TIP3    H265921   0.374   1.216   3.019  1.1123 -0.0854 -0.8166
14836TIP3   OH265922   3.820   4.470   1.516 -0.2525  0.3462  0.4437
14836TIP3    H165923   3.776   4.406   1.571  0.3749 -1.5877 -1.2602
14836TIP3    H265924   3.750   4.519   1.474 -0.7348  0.6573  1.5928
14837TIP3   OH265925   0.038   1.353  16.644 -0.1120 -0.6048 -0.1927
14837TIP3    H165926   0.054   1.446  16.660  1.2055 -0.5221 -1.8588
14837TIP3    H265927   0.009   1.349  16.553 -1.2835 -1.7168  0.2152
14838TIP3   OH265928   4.717   3.797   2.494 -0.1459  0.1438 -0.3352
14838TIP3    H165929   4.642   3.849   2.464  0.6498  1.3430 -0.2638
14838TIP3    H265930   4.740   3.744   2.418  0.6760  1.8054 -1.2714
14839TIP3   OH265931   3.847   5.725   0.517 -0.0733 -0.2653 -0.3035
14839TIP3    H165932   3.858   5.761   0.606 -1.5873  0.1954 -0.2981
14839TIP3    H265933   3.911   5.773   0.464  0.8838 -0.5889  0.5432
14840TIP3   OH265934   6.516   5.268   5.885  0.5953 -0.6270 -0.8705
14840TIP3    H165935   6.572   5.227   5.818 -0.1451 -2.6883 -0.2758
14840TIP3    H265936   6.427   5.257   5.851  0.2656 -1.1126  0.1262
14841TIP3   OH265937   2.512   0.451  11.851 -0.1519  0.4755 -0.1679
14841TIP3    H165938   2.574   0.488  11.914 -0.8336 -1.9691  2.0664
14841TIP3    H265939   2.557   0.375  11.815 -0.9107  0.1296 -0.3954
14842TIP3   OH265940   1.876   5.526  16.384 -1.2356 -0.4083 -0.0519
14842TIP3    H165941   1.795   5.564  16.349 -0.0203  1.1722 -1.2045
14842TIP3    H265942   1.909   5.472  16.312  0.2872  1.3366 -0.6775
14843TIP3   OH265943   6.324   2.533  13.005 -0.6697 -0.1023  0.4694
14843TIP3    H165944   6.242   2.485  12.994 -0.4378 -0.5746  0.7951
14843TIP3    H265945   6.345   2.565  12.917 -1.4376  0.4060  0.4653
14844TIP3   OH265946   1.668   1.755  14.867 -0.4069  0.5216 -1.1603
14844TIP3    H165947   1.675   1.848  14.845 -0.0010  0.7175 -0.1853
14844TIP3    H265948   1.684   1.751  14.961  1.3643 -0.7379 -1.4969
14845TIP3   OH265949   0.511   4.024  16.213 -0.0128  0.0059  0.1014
14845TIP3    H165950   0.570   3.949  16.218  0.6690  0.5577  0.4749
14845TIP3    H265951   0.445   4.007  16.281 -0.6803 -0.9290 -0.7570
14846TIP3   OH265952   1.416   5.287  12.007 -0.7211  0.2869  0.3131
14846TIP3    H165953   1.324   5.259  12.011 -1.2559  1.5876 -2.1888
14846TIP3    H265954   1.429   5.336  12.088 -1.5241 -1.8754  1.8206
14847TIP3   OH265955   0.506   1.083   5.555  0.7321  0.3212  0.0526
14847TIP3    H165956   0.516   1.042   5.641 -0.8217 -0.8293 -0.2866
14847TIP3    H265957   0.442   1.152   5.569  1.5474  1.0722  0.1104
14848TIP3   OH265958   6.348   1.773  13.232  0.1382  0.2188  0.1006
14848TIP3    H165959   6.345   1.724  13.150 -0.5949  2.5142 -1.2867
14848TIP3    H265960   6.334   1.707  13.300 -0.3262 -1.5578 -1.6745
14849TIP3   OH265961   4.115   2.399  17.035  0.1208 -0.8140 -0.0927
14849TIP3    H165962   4.154   2.327  17.084 -0.9204 -0.4095  1.3712
14849TIP3    H265963   4.066   2.355  16.964  1.9971 -1.3745 -1.0741
14850TIP3   OH265964   6.700   2.238  12.141 -0.1111 -0.1726 -0.0465
14850TIP3    H165965   6.707   2.162  12.084  1.4014 -0.1930  0.1540
14850TIP3    H265966   6.635   2.214  12.206 -0.4259 -0.8796 -0.6232
14851TIP3   OH265967   2.755   4.974  14.180 -0.3232  0.2353  0.2630
14851TIP3    H165968   2.749   5.008  14.091  0.3337  2.2222  0.9641
14851TIP3    H265969   2.834   5.015  14.217 -1.6944  1.0298  2.4233
14852TIP3   OH265970   2.008   2.480  14.113  0.1534  0.2580 -0.0108
14852TIP3    H165971   2.079   2.447  14.167  0.0729  0.5937  0.2974
14852TIP3    H265972   2.048   2.549  14.059  0.2260 -0.0507 -0.3552
14853TIP3   OH265973   5.192   5.271  12.433 -0.1386  0.3386  0.1022
14853TIP3    H165974   5.251   5.211  12.478 -1.6032 -0.7422  0.6298
14853TIP3    H265975   5.166   5.334  12.500 -1.3013 -0.5066  0.4743
14854TIP3   OH265976   2.374   2.504  12.166  0.0027 -0.2208 -0.0483
14854TIP3    H165977   2.449   2.446  12.160 -0.1528 -0.3409 -0.8354
14854TIP3    H265978   2.298   2.446  12.163 -0.1176 -0.2737  2.6751
14855TIP3   OH265979   0.803   3.923   4.477 -0.0780  0.3116  0.4348
14855TIP3    H165980   0.737   3.990   4.458 -1.0453 -1.3935 -2.6010
14855TIP3    H265981   0.883   3.955   4.435 -0.2329  0.1265 -0.0037
14856TIP3   OH265982   4.379   2.359   6.572  0.0477 -0.1173 -0.2329
14856TIP3    H165983   4.401   2.291   6.508 -1.3335 -0.0442 -0.8072
14856TIP3    H265984   4.285   2.348   6.586  0.0106  1.0389  0.4325
14857TIP3   OH265985   5.819   4.216  13.342  0.1955  0.2490  0.3010
14857TIP3    H165986   5.834   4.155  13.414  0.1026  2.1471  1.9496
14857TIP3    H265987   5.863   4.296  13.368 -0.6195  1.2673 -1.3470
14858TIP3   OH265988   2.844   2.240   3.894  0.0502  0.6340  0.2706
14858TIP3    H165989   2.855   2.163   3.949 -2.7852 -0.3246 -0.3963
14858TIP3    H265990   2.823   2.311   3.954 -1.7861 -0.1299  0.5553
14859TIP3   OH265991   1.991   1.008  14.436  0.2645 -0.4972 -0.1963
14859TIP3    H165992   1.996   1.077  14.501 -1.3093 -0.9463  0.4309
14859TIP3    H265993   2.036   0.933  14.475 -0.0381 -0.5383  0.0701
14860TIP3   OH265994   0.745   1.408  12.709  0.2629 -0.4297 -0.6095
14860TIP3    H165995   0.668   1.367  12.670  0.5669 -1.0620 -0.5446
14860TIP3    H265996   0.714   1.494  12.737 -0.4160 -0.6769 -0.5892
14861TIP3   OH265997   2.059   1.122   2.601  0.0605 -0.2746 -0.1757
14861TIP3    H165998   2.029   1.203   2.560  0.5244  0.0030  0.0213
14861TIP3    H265999   2.101   1.151   2.682  1.4127 -0.5959 -0.7504
14862TIP3   OH266000   5.646   5.560  16.835 -0.3286 -0.3118  0.5370
14862TIP3    H166001   5.656   5.485  16.777  0.4397  1.2257 -1.3661
14862TIP3    H266002   5.633   5.521  16.922 -0.0238 -2.6297 -0.4153
14863TIP3   OH266003   1.013   6.052  15.984  0.3197  0.0808  0.4465
14863TIP3    H166004   1.097   6.015  15.957  1.1334  0.2216  2.6363
14863TIP3    H266005   0.979   6.095  15.906  0.6944 -2.8217 -1.3561
14864TIP3   OH266006   4.760   1.027  16.054 -0.0975 -0.2951 -0.2843
14864TIP3    H166007   4.722   1.030  15.966  1.0900  0.3898 -0.7923
14864TIP3    H266008   4.762   0.934  16.076  1.6335 -0.6666 -1.8967
14865TIP3   OH266009   4.504   3.864   2.857 -0.5930  0.4663  0.0479
14865TIP3    H166010   4.511   3.769   2.848 -0.0419  0.5971 -0.9316
14865TIP3    H266011   4.468   3.894   2.773  1.0185  1.3122 -0.3592
14866TIP3   OH266012   2.469   5.142   4.032  0.2372 -0.0139 -0.3014
14866TIP3    H166013   2.452   5.100   3.948 -3.2391 -1.3374  0.9765
14866TIP3    H266014   2.432   5.230   4.023 -0.0500 -0.1229 -0.1883
14867TIP3   OH266015   4.963   3.467   3.611 -0.0658 -0.3115  0.1649
14867TIP3    H166016   4.921   3.548   3.581  0.8883  1.0337  2.3546
14867TIP3    H266017   4.890   3.407   3.626 -0.8544  0.4260 -0.6645
14868TIP3   OH266018   1.350   6.207  12.239  0.0523 -0.4338 -0.7989
14868TIP3    H166019   1.261   6.244  12.237  0.8574  1.6303 -0.4711
14868TIP3    H266020   1.396   6.252  12.168  1.1451 -0.5935 -0.2039
14869TIP3   OH266021   5.182   3.165   0.445 -0.1452  0.5368  0.1797
14869TIP3    H166022   5.104   3.205   0.408  0.3826 -0.3720 -1.9462
14869TIP3    H266023   5.195   3.084   0.396  1.0091 -0.3341  1.8376
14870TIP3   OH266024   3.915   3.213  16.546 -0.0462  0.5756  0.1054
14870TIP3    H166025   3.956   3.289  16.506  0.4676  0.9382  1.2932
14870TIP3    H266026   3.984   3.172  16.598 -1.0501  0.9861  1.8279
14871TIP3   OH266027   6.162   4.498   2.977  0.1556 -0.1529 -0.3585
14871TIP3    H166028   6.095   4.461   2.920 -0.0553 -0.4991  0.1087
14871TIP3    H266029   6.186   4.426   3.036  2.1492 -0.5384 -1.6009
14872TIP3   OH266030   4.370   1.124  15.951  0.1953  0.3948  0.3359
14872TIP3    H166031   4.311   1.096  15.882  1.1463  1.4190 -0.9188
14872TIP3    H266032   4.442   1.062  15.948  0.1823  0.3736  0.4794
14873TIP3   OH266033   4.044   6.143   2.551  0.9273 -0.2349 -0.1258
14873TIP3    H166034   3.950   6.124   2.548  0.5750  1.5303 -1.1340
14873TIP3    H266035   4.076   6.121   2.463  1.1695  0.4906 -0.2253
14874TIP3   OH266036   6.322   3.584  13.308 -0.8086  0.0496  0.2885
14874TIP3    H166037   6.257   3.528  13.267 -1.6044  0.1839  1.3273
14874TIP3    H266038   6.271   3.655  13.348  0.1359  1.2155 -0.5433
14875TIP3   OH266039   3.230   1.623   5.986 -0.5767 -0.2310 -0.0215
14875TIP3    H166040   3.171   1.630   6.062 -0.4138 -0.6343  0.1463
14875TIP3    H266041   3.317   1.641   6.022 -0.6341  0.7192 -0.3381
14876TIP3   OH266042   3.636   6.267   5.382 -0.3220  0.0492 -0.1645
14876TIP3    H166043   3.568   6.229   5.439  0.8363  0.9994  1.9086
14876TIP3    H266044   3.716   6.221   5.405  0.8812  2.8639  1.5858
14877TIP3   OH266045   5.161   3.029   4.631 -0.6252 -0.0610  0.3261
14877TIP3    H166046   5.109   3.101   4.666 -1.5700 -0.2447 -0.6572
14877TIP3    H266047   5.181   2.974   4.707 -1.7875  0.0666  0.7376
14878TIP3   OH266048   1.261   2.536  15.146 -0.3610 -0.4322  0.8488
14878TIP3    H166049   1.254   2.619  15.098  2.3158  0.1025  1.3116
14878TIP3    H266050   1.209   2.551  15.225 -1.6116  0.0626 -0.0544
14879TIP3   OH266051   2.693   6.551  14.299  0.2682  0.8488  0.1159
14879TIP3    H166052   2.766   6.612  14.299  0.4255  0.7128  2.3212
14879TIP3    H266053   2.707   6.497  14.377 -0.4153 -1.3284 -1.2272
14880TIP3   OH266054   5.670   1.259  13.242 -0.2074  0.9851 -0.3408
14880TIP3    H166055   5.684   1.184  13.299 -0.4753  1.8881  0.9378
14880TIP3    H266056   5.609   1.228  13.175 -1.3638  0.4575  0.9512
14881TIP3   OH266057   4.488   6.069  13.063 -0.1119  0.1642 -0.3725
14881TIP3    H166058   4.548   6.103  13.129 -0.0848  0.5481 -0.5921
14881TIP3    H266059   4.466   6.145  13.009 -0.6148 -0.0202 -0.4339
14882TIP3   OH266060   1.586   2.599   0.863 -0.6547 -0.2773  0.4930
14882TIP3    H166061   1.626   2.631   0.783 -0.6749  0.6866  0.8569
14882TIP3    H266062   1.600   2.505   0.862  0.8624 -0.0529  0.2006
14883TIP3   OH266063   6.248   4.971  11.975  0.0784 -0.3805  0.3291
14883TIP3    H166064   6.303   5.046  11.997  1.4919 -0.8325 -1.5138
14883TIP3    H266065   6.300   4.895  12.002 -0.1524 -0.7744 -0.3271
14884TIP3   OH266066   1.077   1.290   0.847 -0.5817 -0.2765  0.0142
14884TIP3    H166067   1.095   1.307   0.754 -1.0502  0.6577  0.0892
14884TIP3    H266068   1.098   1.197   0.859  0.6059 -0.1281 -0.7619
14885TIP3   OH266069   3.035   4.587   3.453  0.6316 -0.4212  0.3333
14885TIP3    H166070   2.942   4.567   3.468 -0.0463  1.1382 -1.6584
14885TIP3    H266071   3.045   4.583   3.358  1.5447  3.7949  0.1570
14886TIP3   OH266072   6.452   0.012   3.388  0.1617 -0.0333 -0.3718
14886TIP3    H166073   6.528   0.030   3.443 -1.7713  1.7001  1.8621
14886TIP3    H266074   6.437  -0.082   3.397  0.9936 -0.0773  0.5780
14887TIP3   OH266075   6.320   0.028   1.868  0.0908 -0.1262 -0.4679
14887TIP3    H166076   6.257  -0.043   1.880 -1.9367  1.6889  0.0069
14887TIP3    H266077   6.326   0.039   1.773  1.2238 -1.6154 -0.5773
14888TIP3   OH266078   3.607   1.251  11.203  0.2117  0.8977 -0.4311
14888TIP3    H166079   3.557   1.331  11.187 -1.1480  0.2017  0.2418
14888TIP3    H266080   3.582   1.192  11.131 -0.9863  0.0750  0.6315
14889TIP3   OH266081   0.775   2.334   3.907  0.7395  0.0578  0.8859
14889TIP3    H166082   0.844   2.368   3.964  0.5103  0.1112  1.1352
14889TIP3    H266083   0.717   2.286   3.966  0.8798 -0.4771  0.5858
14890TIP3   OH266084   4.267   6.486   4.940  0.4905  0.9277 -0.3637
14890TIP3    H166085   4.208   6.463   4.868 -2.5714 -0.6793  2.5017
14890TIP3    H266086   4.349   6.441   4.920 -1.2027 -1.7825 -1.4654
14891TIP3   OH266087   5.137   0.633   4.832 -0.0498  0.0299 -0.2306
14891TIP3    H166088   5.060   0.584   4.860  0.0196 -0.9783 -1.7352
14891TIP3    H266089   5.210   0.574   4.851  0.5074  1.5093  2.4227
14892TIP3   OH266090   2.426   6.650  11.921  0.8959 -0.2192  0.4204
14892TIP3    H166091   2.444   6.688  11.835  0.8452  0.9521  0.9144
14892TIP3    H266092   2.474   6.706  11.982 -0.8657  0.3206  1.3509
14893TIP3   OH266093   5.055   6.653  13.832 -0.0341  0.7394  0.1591
14893TIP3    H166094   5.122   6.666  13.766  0.4007 -0.4367  0.3601
14893TIP3    H266095   5.026   6.562  13.820 -0.8152  0.9003  0.7742
14894TIP3   OH266096   4.149   1.767   5.584 -0.0229 -0.4125 -0.0619
14894TIP3    H166097   4.238   1.732   5.578 -0.1799 -0.5212 -2.2765
14894TIP3    H266098   4.156   1.858   5.556 -0.7350 -0.6448 -1.0128
14895TIP3   OH266099   4.354   5.494  16.444 -0.4565  0.6801 -0.5751
14895TIP3    H166100   4.351   5.529  16.355 -0.1962 -1.3284 -1.4077
14895TIP3    H266101   4.342   5.399  16.432  1.2379  0.2025  1.3907
14896TIP3   OH266102   4.730   1.318  17.018  0.2157  0.0111  0.0791
14896TIP3    H166103   4.686   1.404  17.022  0.5927  0.1410  1.6107
14896TIP3    H266104   4.676   1.267  16.957 -2.3841  0.0161  2.2601
14897TIP3   OH266105   0.446   1.605  15.763  0.1920 -0.1633  0.5195
14897TIP3    H166106   0.522   1.619  15.707 -0.1557  0.0842  0.1090
14897TIP3    H266107   0.374   1.588  15.703 -0.3239  0.7655  0.8498
14898TIP3   OH266108   5.447   1.253  16.092  0.2005 -0.4261 -0.4669
14898TIP3    H166109   5.494   1.175  16.120  1.6095 -0.5041 -2.9199
14898TIP3    H266110   5.436   1.305  16.172  2.1727 -1.6094  0.6032
14899TIP3   OH266111   0.027   0.798  12.470  0.2367 -0.0007 -0.5464
14899TIP3    H166112  -0.047   0.811  12.529  0.5722 -0.0231 -0.1212
14899TIP3    H266113   0.089   0.867  12.493  1.0114 -0.9144  0.1416
14900TIP3   OH266114   0.773   6.551  13.897  0.4413 -0.1380 -0.2342
14900TIP3    H166115   0.788   6.613  13.968  0.8234 -1.4300  0.8397
14900TIP3    H266116   0.858   6.543  13.854  0.8409 -1.2379  0.7311
14901TIP3   OH266117   1.467   2.605   6.007  0.0328  0.1052  0.2633
14901TIP3    H166118   1.382   2.627   6.044  0.5815  0.7225  1.1784
14901TIP3    H266119   1.467   2.643   5.919 -0.7362 -0.1492  0.1518
14902TIP3   OH266120   3.220   1.136  13.389 -0.5018  0.1772 -0.2511
14902TIP3    H166121   3.281   1.089  13.446 -2.4134  0.8018  2.4034
14902TIP3    H266122   3.192   1.070  13.326  0.1962 -1.0565  0.6987
14903TIP3   OH266123   4.622   2.227  12.220  0.3394  0.1607  0.2430
14903TIP3    H166124   4.683   2.229  12.294  0.7743  0.0632 -0.1131
14903TIP3    H266125   4.535   2.220  12.261  0.4816  1.4801  0.7785
14904TIP3   OH266126   1.408   3.175   0.433 -0.0458 -0.3027  0.2857
14904TIP3    H166127   1.423   3.259   0.477  0.5445 -0.3108  0.0973
14904TIP3    H266128   1.395   3.112   0.504 -0.9506  0.0253  0.4267
14905TIP3   OH266129   4.455   4.785   3.193 -0.1924  0.4742  0.1953
14905TIP3    H166130   4.499   4.869   3.204  0.0517  0.4836 -0.7888
14905TIP3    H266131   4.395   4.779   3.267 -0.9352  1.9684 -0.2738
14906TIP3   OH266132   5.438   5.119  10.537  0.0229 -0.5642  0.2491
14906TIP3    H166133   5.346   5.143  10.530 -0.3010 -1.1043  2.4371
14906TIP3    H266134   5.484   5.187  10.487 -1.4642  0.2155 -0.0933
14907TIP3   OH266135   5.955   1.421   0.657  0.1286  0.0091 -0.1515
14907TIP3    H166136   5.936   1.515   0.651 -0.9695 -0.0038  2.5900
14907TIP3    H266137   5.882   1.379   0.612 -0.8825  0.3673  1.1480
14908TIP3   OH266138   5.943   6.016  13.995  0.6818 -0.2611  0.0694
14908TIP3    H166139   5.962   6.072  14.070  1.0677  0.6123 -0.6705
14908TIP3    H266140   6.007   5.945  14.001  0.9961  0.0445  0.3115
14909TIP3   OH266141   0.441   3.113  10.889  0.7625 -0.2417 -0.1506
14909TIP3    H166142   0.364   3.091  10.941  0.4159 -0.4904 -0.7559
14909TIP3    H266143   0.455   3.036  10.834  2.5868 -0.9738  1.2894
14910TIP3   OH266144   1.375   2.832   2.489  0.5244  0.1034  0.1766
14910TIP3    H166145   1.392   2.791   2.404 -1.1188  2.4331 -1.3311
14910TIP3    H266146   1.357   2.759   2.548  3.4910 -1.6754 -1.0036
14911TIP3   OH266147   1.540   3.266   1.040  0.3110 -0.1246 -0.0096
14911TIP3    H166148   1.504   3.180   1.062 -1.1943  0.0718 -1.6150
14911TIP3    H266149   1.626   3.246   1.001  0.0731 -0.8854 -0.1639
14912TIP3   OH266150   3.792   6.084   4.689  0.1024 -0.4472  0.2336
14912TIP3    H166151   3.842   6.008   4.659 -0.3850 -0.9675  0.7196
14912TIP3    H266152   3.746   6.053   4.767 -0.1744  0.3226  0.3831
14913TIP3   OH266153   2.199   3.974  15.204  0.1008 -0.1289 -0.2619
14913TIP3    H166154   2.151   3.897  15.173 -0.4578  0.2753 -0.4083
14913TIP3    H266155   2.136   4.046  15.197  0.1326  0.0786  1.2875
14914TIP3   OH266156   5.164   3.685  13.801  0.3655  0.2655 -0.2703
14914TIP3    H166157   5.069   3.698  13.800  0.2461 -0.6183 -0.5685
14914TIP3    H266158   5.181   3.638  13.882  0.6808  1.3571  0.3098
14915TIP3   OH266159   5.938   4.254  15.337 -0.2682 -0.5496 -0.1207
14915TIP3    H166160   5.926   4.254  15.432  2.0492 -0.0159  0.2047
14915TIP3    H266161   5.951   4.162  15.315  1.2650 -0.4729  0.3952
14916TIP3   OH266162   2.378   5.673  16.685  0.1733 -0.2776  0.6246
14916TIP3    H166163   2.395   5.671  16.591 -1.2089  1.0229  0.3292
14916TIP3    H266164   2.330   5.754  16.700  1.8459  0.3891  2.7264
14917TIP3   OH266165   4.461   2.795   1.340  0.5911  0.4490 -0.2207
14917TIP3    H166166   4.488   2.782   1.250 -0.4910 -0.1986 -0.4659
14917TIP3    H266167   4.381   2.848   1.335  1.0005  1.1358  0.3988
14918TIP3   OH266168   5.115   4.427   5.481 -0.3950 -0.5550 -0.1127
14918TIP3    H166169   5.179   4.480   5.528 -2.6263  1.2405  1.0265
14918TIP3    H266170   5.151   4.338   5.484  2.0624  0.4070  0.4023
14919TIP3   OH266171   3.415   1.464   1.384 -0.3668 -0.1317  0.0957
14919TIP3    H166172   3.494   1.517   1.371  0.3993 -1.3054 -0.1453
14919TIP3    H266173   3.396   1.428   1.298 -1.3183  0.3418  0.1037
14920TIP3   OH266174   6.102   2.161   0.750 -0.1649 -0.0119  0.0918
14920TIP3    H166175   6.166   2.140   0.818 -2.3594  1.1341  2.5780
14920TIP3    H266176   6.029   2.199   0.797 -1.0517  2.4497 -3.1356
14921TIP3   OH266177   4.620   3.330  14.368 -0.0636  0.1788  0.2615
14921TIP3    H166178   4.662   3.250  14.338  0.7217  0.3529  0.8960
14921TIP3    H266179   4.652   3.343  14.456 -2.5194 -0.4374  1.2969
14922TIP3   OH266180   5.263   3.181   4.142  0.3109  0.6843 -0.1869
14922TIP3    H166181   5.312   3.262   4.151  1.0128  0.3242 -0.7325
14922TIP3    H266182   5.202   3.198   4.070  0.4347  0.7345 -0.2790
14923TIP3   OH266183   4.240   0.442   3.757  0.1014  0.0019 -0.1517
14923TIP3    H166184   4.175   0.496   3.802  0.1175 -0.4807  0.4589
14923TIP3    H266185   4.207   0.353   3.767  0.4752 -0.1728 -0.4873
14924TIP3   OH266186   2.917   5.292   1.769 -0.0630 -0.1794 -0.5019
14924TIP3    H166187   2.949   5.278   1.859 -0.5566 -1.1504 -0.4753
14924TIP3    H266188   2.960   5.373   1.742 -1.3422  1.1415  1.2846
14925TIP3   OH266189   6.339   4.599   1.376 -0.3345  0.7286 -0.2443
14925TIP3    H166190   6.290   4.591   1.294 -1.9361  4.2927  0.2607
14925TIP3    H266191   6.274   4.630   1.440  1.6200  1.2406  1.5546
14926TIP3   OH266192   5.819   1.375  14.295  0.3567 -0.3315 -0.2624
14926TIP3    H166193   5.861   1.438  14.237  0.5352 -1.8659 -1.8083
14926TIP3    H266194   5.727   1.373  14.267  0.2267 -0.3552  0.1499
14927TIP3   OH266195   1.445   1.624  15.803  0.4743  0.4186  0.3368
14927TIP3    H166196   1.415   1.547  15.851  0.5997  1.1787  1.6748
14927TIP3    H266197   1.379   1.638  15.735 -0.2535 -0.0872  0.9364
14928TIP3   OH266198   4.271   0.560   4.784 -0.4675 -0.2705  0.1611
14928TIP3    H166199   4.192   0.508   4.766 -0.6499 -0.1384  0.5695
14928TIP3    H266200   4.327   0.501   4.835  0.6460 -1.1292 -2.0020
14929TIP3   OH266201   4.802   6.370  15.519 -0.0089 -0.5725  0.1666
14929TIP3    H166202   4.708   6.358  15.532  0.1011 -1.5899  0.0240
14929TIP3    H266203   4.808   6.436  15.450 -0.6032  0.2338  0.8606
14930TIP3   OH266204   2.548   2.547   6.189 -0.1343 -0.3211 -0.3557
14930TIP3    H166205   2.589   2.631   6.209  1.0156 -0.7200 -0.9670
14930TIP3    H266206   2.512   2.517   6.272  0.6211  0.1434  0.1431
14931TIP3   OH266207   3.449   5.518   1.757 -0.0538 -0.5158  0.4164
14931TIP3    H166208   3.498   5.534   1.838  0.2477 -0.1113  0.1550
14931TIP3    H266209   3.395   5.441   1.776  1.5043 -1.6442  0.3169
14932TIP3   OH266210   3.726   3.970   5.662  0.0014 -0.1843 -0.8158
14932TIP3    H166211   3.813   3.932   5.677 -0.9726 -2.0009  0.3998
14932TIP3    H266212   3.665   3.899   5.684 -1.8171  1.3755 -0.7502
14933TIP3   OH266213   1.633   4.071  16.430 -0.2976  0.5466  0.3971
14933TIP3    H166214   1.613   4.141  16.368  1.7056  1.9779  1.3043
14933TIP3    H266215   1.712   4.029  16.394 -1.0310 -0.7802  0.2723
14934TIP3   OH266216   6.409   1.179  16.506  0.0614 -0.4758  0.2047
14934TIP3    H166217   6.343   1.111  16.495 -0.5646  0.1342  0.1287
14934TIP3    H266218   6.492   1.132  16.514 -0.4180 -1.2586  0.5856
14935TIP3   OH266219   2.687   0.868   4.373 -0.3810 -0.0582 -0.3119
14935TIP3    H166220   2.730   0.941   4.329  0.8020 -1.0825 -0.8730
14935TIP3    H266221   2.756   0.828   4.427 -1.2947 -0.0828  0.8538
14936TIP3   OH266222   1.274   6.032   4.193  0.2078 -0.5174 -0.5381
14936TIP3    H166223   1.368   6.030   4.172  0.0037 -1.0170 -1.4364
14936TIP3    H266224   1.245   6.118   4.164  0.3696 -0.4071 -0.3687
14937TIP3   OH266225   0.736   1.051  11.474 -0.4583  0.4692 -0.1714
14937TIP3    H166226   0.830   1.067  11.483 -0.1739 -0.5196 -1.2094
14937TIP3    H266227   0.698   1.137  11.458  0.5958  0.5705 -2.2460
14938TIP3   OH266228   3.530   0.900  15.956 -0.0279  0.2277 -0.2948
14938TIP3    H166229   3.460   0.910  15.892  3.0094  0.5182 -3.7441
14938TIP3    H266230   3.531   0.807  15.977  1.3832 -0.6065 -3.7243
14939TIP3   OH266231   2.174   0.628   4.462 -0.1111 -0.0014  0.1589
14939TIP3    H166232   2.118   0.591   4.530 -1.1992  2.3378  0.5616
14939TIP3    H266233   2.143   0.588   4.381 -0.9748 -0.2814  0.6233
14940TIP3   OH266234   3.321   4.914  15.295  0.5454 -0.3225 -0.3319
14940TIP3    H166235   3.248   4.858  15.321  0.9387 -0.6791 -0.0076
14940TIP3    H266236   3.350   4.956  15.376  0.0686  0.5724 -0.6168
14941TIP3   OH266237   1.916   1.814  16.248  0.0363 -0.3716 -0.0266
14941TIP3    H166238   1.948   1.725  16.238  0.8042 -0.1263  0.1896
14941TIP3    H266239   1.897   1.843  16.159  1.0494 -0.2990 -0.2335
14942TIP3   OH266240   3.188   0.309  11.323 -0.1417 -0.6330  0.3395
14942TIP3    H166241   3.281   0.313  11.347 -0.6862 -0.5593  2.5324
14942TIP3    H266242   3.166   0.398  11.298  0.5400 -0.7837 -0.7995
14943TIP3   OH266243   3.881   4.123  17.055  0.7793  0.5847  0.6342
14943TIP3    H166244   3.827   4.163  17.124  0.6237 -0.5019  1.1666
14943TIP3    H266245   3.948   4.074  17.103 -1.0432 -2.5729  0.1333
14944TIP3   OH266246   6.566   0.707  13.481  0.2406  0.1487 -0.0098
14944TIP3    H166247   6.504   0.656  13.429  0.4931  0.2539 -0.4213
14944TIP3    H266248   6.516   0.735  13.557  0.5808 -2.2204  1.1344
14945TIP3   OH266249   4.397   6.532  12.754  0.7838  0.0979 -0.3492
14945TIP3    H166250   4.438   6.519  12.668 -0.7706 -1.7093 -0.8564
14945TIP3    H266251   4.311   6.571  12.734  0.7546  0.4616  0.4545
14946TIP3   OH266252   2.983   2.760   2.069  0.1627 -0.2456  0.2414
14946TIP3    H166253   3.049   2.718   2.014  0.9207  0.9304  0.2193
14946TIP3    H266254   2.996   2.723   2.156  0.6036 -0.3152  0.1480
14947TIP3   OH266255   3.083   6.199   2.385  0.0181 -0.4321  0.2880
14947TIP3    H166256   3.138   6.258   2.332  0.9134 -0.4116  1.2190
14947TIP3    H266257   3.143   6.130   2.413 -0.9019 -1.4920 -0.3291
14948TIP3   OH266258   1.397   0.181  11.096 -0.0765  0.2998 -0.3993
14948TIP3    H166259   1.455   0.113  11.062  0.6022 -0.1281  1.5448
14948TIP3    H266260   1.314   0.136  11.111  0.6115 -0.3469  1.6755
14949TIP3   OH266261   4.449   4.482   1.784 -0.6147  0.8259  0.5398
14949TIP3    H166262   4.535   4.485   1.743 -1.2949 -0.3028 -1.0411
14949TIP3    H266263   4.436   4.569   1.821  1.4421  0.8107  1.3047
14950TIP3   OH266264   3.475   6.346  11.273  0.0933  0.1288  0.3212
14950TIP3    H166265   3.502   6.339  11.364 -1.1168 -1.1099  0.5913
14950TIP3    H266266   3.413   6.275  11.260 -0.2037  0.6552 -1.3096
14951TIP3   OH266267   0.357   0.141   4.677 -0.1892  0.2662 -0.0122
14951TIP3    H166268   0.386   0.170   4.763 -0.3968  0.3512  0.0304
14951TIP3    H266269   0.301   0.065   4.695  0.3594 -0.1641 -0.1232
14952TIP3   OH266270   4.799   5.646   1.198  0.1394  0.0752 -0.0923
14952TIP3    H166271   4.753   5.662   1.116 -2.7608  0.6829  1.5696
14952TIP3    H266272   4.748   5.577   1.241  1.9470 -0.6416  0.9413
14953TIP3   OH266273   2.492   3.116  14.124 -0.1806 -0.3948 -0.0105
14953TIP3    H166274   2.418   3.092  14.069 -1.4586 -0.8740  1.8477
14953TIP3    H266275   2.532   3.190  14.080 -1.9324  0.0447 -0.9166
14954TIP3   OH266276   3.850   4.069   3.552  0.2461 -0.2122 -0.2202
14954TIP3    H166277   3.835   4.163   3.538 -2.6465 -0.7565 -1.1832
14954TIP3    H266278   3.814   4.028   3.474 -1.8115 -2.3413  1.7682
14955TIP3   OH266279   3.418   1.937   4.846 -0.1550  0.0227  0.1499
14955TIP3    H166280   3.497   1.924   4.794 -0.3381 -0.2576 -0.0652
14955TIP3    H266281   3.357   1.871   4.812 -0.6884  0.6432 -0.1038
14956TIP3   OH266282   4.149   5.957   1.833  0.2503  0.1713  0.0434
14956TIP3    H166283   4.235   5.917   1.845 -0.3056 -1.6120 -1.7267
14956TIP3    H266284   4.108   5.951   1.919  1.7252  0.7133  0.8166
14957TIP3   OH266285   0.650   5.378   3.483  0.2266  0.2169  0.1535
14957TIP3    H166286   0.568   5.357   3.439  0.4503 -0.0133 -0.1580
14957TIP3    H266287   0.671   5.300   3.534  2.2381 -1.2375 -2.7984
14958TIP3   OH266288   1.840   1.101  13.226 -0.3948 -0.0192  0.3819
14958TIP3    H166289   1.867   1.128  13.138  0.3420 -0.3318  0.5095
14958TIP3    H266290   1.755   1.143  13.239  0.9493  2.6830  0.8105
14959TIP3   OH266291   2.691   1.018   1.495 -0.0169 -0.0035  0.2791
14959TIP3    H166292   2.729   1.054   1.575  0.0479  1.4110 -0.3651
14959TIP3    H266293   2.736   0.935   1.482  2.3394  1.2823 -0.0549
14960TIP3   OH266294   6.228   2.162  13.444 -0.0064 -0.4952 -0.0753
14960TIP3    H166295   6.286   2.202  13.380 -2.1793 -0.1534 -1.9154
14960TIP3    H266296   6.155   2.223  13.451 -0.8609 -1.6150  1.0450
14961TIP3   OH266297   4.968   6.705   2.593 -0.7633 -0.3317  0.4932
14961TIP3    H166298   4.906   6.706   2.520  0.4422  1.6578 -0.5462
14961TIP3    H266299   5.012   6.620   2.585 -0.2602  0.0837 -1.4583
14962TIP3   OH266300   5.038   4.818  11.926 -0.1711 -0.0849 -0.5043
14962TIP3    H166301   5.080   4.827  11.841  0.3387  0.8905 -0.1676
14962TIP3    H266302   5.067   4.733  11.959  0.4295 -0.0242 -0.8711
14963TIP3   OH266303   0.192   6.308  13.684  0.0686  0.1911  0.3417
14963TIP3    H166304   0.275   6.309  13.636 -0.5017  1.1843 -0.6491
14963TIP3    H266305   0.162   6.217  13.678  0.4407  0.1172 -0.4226
14964TIP3   OH266306   0.298   4.481  17.181 -0.2244 -0.2440  0.1780
14964TIP3    H166307   0.287   4.466  17.275 -0.4266 -1.5026 -0.0378
14964TIP3    H266308   0.391   4.499  17.170  0.1027 -1.7537  0.4045
14965TIP3   OH266309   2.997   6.136   0.858 -0.3918 -0.2500  0.2255
14965TIP3    H166310   3.043   6.220   0.866 -1.9890  0.6119  0.6618
14965TIP3    H266311   2.969   6.116   0.947  0.8443 -1.7771  0.2930
14966TIP3   OH266312   4.111   4.304   4.959 -0.1956  0.6332  0.5033
14966TIP3    H166313   4.161   4.279   5.037  0.7253  2.1668  0.4411
14966TIP3    H266314   4.064   4.383   4.986 -0.4558  0.7396 -0.2554
14967TIP3   OH266315   1.805   2.932  11.576 -0.7293  0.4125  0.6226
14967TIP3    H166316   1.826   2.854  11.525  0.0978  1.5862 -0.8703
14967TIP3    H266317   1.829   2.908  11.666  0.2682 -0.7619  0.0611
14968TIP3   OH266318   6.421   3.287   0.724 -0.3783  0.5391 -0.2416
14968TIP3    H166319   6.517   3.289   0.724 -0.3575 -0.1173 -0.9905
14968TIP3    H266320   6.395   3.376   0.749  0.4281  0.6922  0.0566
14969TIP3   OH266321   3.027   6.323  14.305 -0.4134 -0.2002 -0.0163
14969TIP3    H166322   2.956   6.297  14.363 -1.5548  0.2889 -1.1709
14969TIP3    H266323   3.006   6.283  14.221  0.7305 -0.1408 -0.3418
14970TIP3   OH266324   3.946   2.678   4.925  0.0965 -0.2812  0.4522
14970TIP3    H166325   3.983   2.637   5.003 -0.8978 -1.1754  0.4667
14970TIP3    H266326   4.022   2.694   4.868  0.7389 -0.2564  1.3073
14971TIP3   OH266327   1.333   5.538   1.034  0.7493 -0.2581 -0.6096
14971TIP3    H166328   1.295   5.451   1.022 -0.1241  0.4080 -3.0397
14971TIP3    H266329   1.428   5.523   1.032  0.6186 -1.3863  1.0420
14972TIP3   OH266330   4.363   3.163  11.849  0.1881 -0.3104  0.5063
14972TIP3    H166331   4.288   3.137  11.796  0.8606  0.4413 -0.8357
14972TIP3    H266332   4.355   3.258  11.857 -0.1280 -0.4587  2.1033
14973TIP3   OH266333   3.171   1.480  15.260 -0.0862  0.7583 -0.9179
14973TIP3    H166334   3.168   1.403  15.317  0.5100  0.4394 -1.3199
14973TIP3    H266335   3.192   1.553  15.318 -0.4133  0.5820 -0.5775
14974TIP3   OH266336   4.683   3.019  15.298  0.3419 -0.1971  0.3392
14974TIP3    H166337   4.593   3.029  15.266  0.4669  0.6103  0.2227
14974TIP3    H266338   4.712   3.108  15.317  1.3879 -0.3807 -0.3488
14975TIP3   OH266339   6.006   2.288   1.928  0.1430  0.0561 -0.1451
14975TIP3    H166340   6.085   2.262   1.974  0.3936  0.9883 -0.0386
14975TIP3    H266341   5.991   2.218   1.864  2.2926  0.9441 -1.6645
14976TIP3   OH266342   6.228   1.330   6.137  0.4259 -0.3234 -0.7056
14976TIP3    H166343   6.304   1.316   6.081  1.2805 -1.8632  0.7894
14976TIP3    H266344   6.255   1.298   6.223 -2.4125 -2.3170 -0.4782
14977TIP3   OH266345   2.137   5.710   4.128 -0.2521 -0.0967 -0.6361
14977TIP3    H166346   2.051   5.743   4.102 -0.0002  1.4381  0.4567
14977TIP3    H266347   2.199   5.773   4.092  0.2687  0.2664  0.8831
14978TIP3   OH266348   5.031   1.485   5.850 -0.6187 -0.1566  0.8807
14978TIP3    H166349   5.024   1.391   5.832 -0.6910 -0.3620  1.9644
14978TIP3    H266350   4.950   1.506   5.896 -0.9330  0.5919 -0.0010
14979TIP3   OH266351   3.654   1.371  14.230 -0.1421 -0.1965  0.5025
14979TIP3    H166352   3.665   1.281  14.261 -2.8148 -1.0206 -0.8049
14979TIP3    H266353   3.612   1.362  14.144 -0.5204  2.3081  0.3745
14980TIP3   OH266354   2.068   1.189   0.097 -0.5577 -0.5653  0.0347
14980TIP3    H166355   2.047   1.147   0.013 -0.5943 -2.3698  0.9066
14980TIP3    H266356   2.127   1.127   0.141  1.2579  1.3776  0.4300
14981TIP3   OH266357   1.913   2.335   1.202  0.1201  0.0351 -0.0630
14981TIP3    H166358   1.914   2.302   1.291  1.2600  0.8571  0.2417
14981TIP3    H266359   1.893   2.429   1.211 -1.1208 -0.1483 -0.7727
14982TIP3   OH266360   5.554   5.305  12.693  0.1818 -0.2547  0.2831
14982TIP3    H166361   5.503   5.362  12.751  2.1935  0.9147  0.9548
14982TIP3    H266362   5.626   5.361  12.662  1.0099 -1.8375 -0.6968
14983TIP3   OH266363   3.967   5.480  11.366  0.5404  0.3082 -0.1639
14983TIP3    H166364   3.916   5.470  11.285 -0.5762  0.6992  0.4784
14983TIP3    H266365   4.028   5.551  11.346  0.4150  0.2633 -0.7373
14984TIP3   OH266366   5.279   5.009  14.236 -1.0111 -0.1605 -0.1593
14984TIP3    H166367   5.189   5.010  14.205 -0.6218  0.3778 -1.3022
14984TIP3    H266368   5.315   4.926  14.204 -0.6672  0.3044 -0.9929
14985TIP3   OH266369   0.675   0.737  15.964  0.9197  0.1344  0.0301
14985TIP3    H166370   0.592   0.689  15.962  1.5114 -0.9108 -3.3508
14985TIP3    H266371   0.650   0.828  15.982 -0.8974 -0.3126 -0.1303
14986TIP3   OH266372   2.042   6.365  14.993 -0.1910  0.0998  0.2485
14986TIP3    H166373   2.023   6.273  14.975  0.1148  0.5480 -2.4595
14986TIP3    H266374   1.970   6.393  15.049 -1.1840 -1.3355 -0.2647
14987TIP3   OH266375   4.123   1.800  11.444 -0.2005  0.6164  0.5113
14987TIP3    H166376   4.097   1.881  11.487 -1.0106  1.6413 -1.8088
14987TIP3    H266377   4.052   1.782  11.382  2.0405  0.5599 -2.1643
14988TIP3   OH266378   5.060   1.744   2.121  0.5462 -0.1769  0.4549
14988TIP3    H166379   5.093   1.794   2.046  2.4299  0.0011  1.3750
14988TIP3    H266380   5.059   1.807   2.193  1.1929 -0.9972  1.1866
14989TIP3   OH266381   6.562   3.998   5.980  0.2548 -0.6441  0.0669
14989TIP3    H166382   6.564   4.019   5.886  0.1926  0.1131  0.2340
14989TIP3    H266383   6.502   4.062   6.017 -0.6111 -1.6743  0.4509
14990TIP3   OH266384   4.302   0.653  16.645  0.4915  0.2457 -0.1288
14990TIP3    H166385   4.279   0.717  16.713 -0.5268 -1.3540  1.0619
14990TIP3    H266386   4.238   0.666  16.576  1.2258  1.5458 -0.5793
14991TIP3   OH266387   1.352   0.833   5.666  0.3031 -0.1978  0.0527
14991TIP3    H166388   1.317   0.743   5.667 -1.1663  0.3417 -0.8605
14991TIP3    H266389   1.366   0.854   5.759  2.9762 -2.2240  0.1490
14992TIP3   OH266390   5.406   0.771   2.075 -0.1990  0.1979 -0.1841
14992TIP3    H166391   5.327   0.727   2.044 -0.3811 -0.4219  1.1037
14992TIP3    H266392   5.402   0.859   2.037 -2.3624  0.7309  1.2017
14993TIP3   OH266393   6.778   5.252  17.026  0.2119  0.0554 -0.1643
14993TIP3    H166394   6.819   5.211  17.102 -1.2603 -0.0691  0.5846
14993TIP3    H266395   6.828   5.332  17.011  2.0080 -1.1277 -0.5528
14994TIP3   OH266396   1.469   4.604   0.971  0.2960  0.4958 -0.6102
14994TIP3    H166397   1.403   4.588   1.038  1.0427  2.7339  0.7191
14994TIP3    H266398   1.439   4.684   0.926  1.9333  1.3854 -0.1560
14995TIP3   OH266399   5.692   1.569  15.292 -0.3610  0.0704 -0.3351
14995TIP3    H166400   5.658   1.655  15.317 -1.0813 -0.3695  0.2160
14995TIP3    H266401   5.703   1.523  15.375 -1.5388 -0.9460 -0.7253
14996TIP3   OH266402   4.138   0.523   1.836  0.1613  0.0925 -0.2183
14996TIP3    H166403   4.099   0.446   1.878 -1.1673  1.1343  0.4992
14996TIP3    H266404   4.128   0.507   1.742  0.8075 -1.0660 -0.1006
14997TIP3   OH266405   2.876   6.697   5.008 -0.1077  0.4993  0.6918
14997TIP3    H166406   2.967   6.668   5.010 -0.9437 -2.2815  0.2259
14997TIP3    H266407   2.835   6.653   5.082 -1.4055  0.5943  0.0406
14998TIP3   OH266408   6.510   5.446  11.278 -0.1296  0.1954 -0.5290
14998TIP3    H166409   6.479   5.474  11.364  1.2796  1.2462 -0.3515
14998TIP3    H266410   6.574   5.512  11.253  0.4876 -0.8553 -1.7712
14999TIP3   OH266411   3.557   6.472  13.267  0.3889  0.0094 -0.2878
14999TIP3    H166412   3.516   6.543  13.216 -1.6772 -0.7637  0.2571
14999TIP3    H266413   3.642   6.508  13.294 -0.3571  2.0436 -0.5667
15000TIP3   OH266414   6.297   5.274  15.895 -0.4993  0.5075  0.2144
15000TIP3    H166415   6.309   5.347  15.834 -0.4522  1.2017  1.0505
15000TIP3    H266416   6.383   5.263  15.937 -0.6199  0.2464  0.3971
15001TIP3   OH266417   2.056   0.837  14.678 -0.3166  0.1799 -0.0716
15001TIP3    H166418   2.120   0.844  14.749 -2.5452 -0.3114  2.0365
15001TIP3    H266419   1.978   0.880  14.712 -2.7331 -3.6043 -0.6439
15002TIP3   OH266420   2.038   3.622  11.667  1.0625 -0.5469  0.1035
15002TIP3    H166421   2.092   3.692  11.704 -0.6309  1.4116 -1.0413
15002TIP3    H266422   2.038   3.639  11.573  2.1551 -3.2131 -0.4047
15003TIP3   OH266423   4.558   5.035   2.667  0.6447 -0.1249  0.2913
15003TIP3    H166424   4.505   5.100   2.714  2.5721  1.3834  0.4254
15003TIP3    H266425   4.592   4.978   2.736 -0.9390 -1.2283  0.1855
15004TIP3   OH266426   1.918   3.677  14.690 -0.1121  0.0451  0.3784
15004TIP3    H166427   1.984   3.607  14.685 -0.2402 -0.0103 -0.7773
15004TIP3    H266428   1.842   3.635  14.732  0.3552 -0.0798  1.0974
15005TIP3   OH266429   3.601   6.143   3.047 -0.1873 -0.0192  0.8776
15005TIP3    H166430   3.571   6.127   3.137  0.3405 -0.2343  1.0201
15005TIP3    H266431   3.684   6.096   3.042 -1.0647 -1.4733 -0.2809
15006TIP3   OH266432   4.016   1.648  14.801 -0.3773  0.2061  0.8791
15006TIP3    H166433   4.088   1.711  14.802 -1.0191  0.9390  1.4078
15006TIP3    H266434   4.043   1.580  14.862  0.3896 -0.1177  0.1895
15007TIP3   OH266435   1.825   0.619   3.995  0.7538 -0.1279  0.1182
15007TIP3    H166436   1.890   0.686   4.018  1.4054 -0.9083  0.5727
15007TIP3    H266437   1.860   0.538   4.033  0.0756 -0.7669 -0.6099
15008TIP3   OH266438   4.713   1.432   4.509  0.2849  0.3662 -0.0360
15008TIP3    H166439   4.785   1.415   4.569 -0.1444  0.1069  0.4116
15008TIP3    H266440   4.666   1.349   4.504  0.8272  0.1254 -1.4314
15009TIP3   OH266441   1.924   4.958  14.789  0.3145  0.2413  0.0542
15009TIP3    H166442   1.828   4.964  14.795  0.3500  0.8409  0.0977
15009TIP3    H266443   1.953   5.049  14.793  0.8068  0.1544 -1.4575
15010TIP3   OH266444   5.139   3.533  14.707  0.7125  0.1762  0.1624
15010TIP3    H166445   5.056   3.578  14.690  0.9002  1.8003  3.1849
15010TIP3    H266446   5.115   3.441  14.716 -0.7997  0.6399  1.0629
15011TIP3   OH266447   0.458   1.565  13.284  0.2074 -0.1392  0.4048
15011TIP3    H166448   0.500   1.596  13.204 -1.8905  0.1127 -0.6159
15011TIP3    H266449   0.417   1.643  13.322  0.3637 -0.4435  1.1989
15012TIP3   OH266450   6.588   5.361   2.781  0.3928  0.1073 -0.5407
15012TIP3    H166451   6.640   5.425   2.732  1.0898  1.8876  2.3365
15012TIP3    H266452   6.653   5.308   2.827 -0.2335  0.5821  0.9502
15013TIP3   OH266453   3.597   5.664   0.402 -0.1294  0.0534  0.4020
15013TIP3    H166454   3.690   5.670   0.424 -0.2680  0.5373  0.8873
15013TIP3    H266455   3.567   5.584   0.445  0.2192 -0.4921 -0.3567
15014TIP3   OH266456   5.773   5.187  15.502 -0.0113  0.3451  0.3567
15014TIP3    H166457   5.683   5.206  15.477 -0.4171 -0.6337  1.0461
15014TIP3    H266458   5.796   5.108  15.453 -0.0476 -0.2771  1.3190
15015TIP3   OH266459   4.659   4.988  15.636  0.4211 -0.4424 -0.0951
15015TIP3    H166460   4.683   5.078  15.614 -1.4023  0.2783  0.7756
15015TIP3    H266461   4.605   4.959  15.563 -3.0875  0.9100  1.8090
15016TIP3   OH266462   4.013   3.730  13.741  0.1694  0.0752 -0.5423
15016TIP3    H166463   3.940   3.792  13.736  0.6556  0.6685 -0.3209
15016TIP3    H266464   4.061   3.757  13.819 -0.3604 -1.4029  0.3154
15017TIP3   OH266465   0.135   5.651   4.090  0.5622  0.0896 -0.1234
15017TIP3    H166466   0.227   5.629   4.077  0.7719  1.1930 -0.5550
15017TIP3    H266467   0.092   5.567   4.106  1.3654 -0.6152 -1.5893
15018TIP3   OH266468   3.774   2.191   5.554 -0.1078  0.1268 -0.0201
15018TIP3    H166469   3.772   2.096   5.562 -1.5277  0.2066  0.5671
15018TIP3    H266470   3.683   2.218   5.556  0.2693  1.4885 -0.4666
15019TIP3   OH266471   6.112   4.346   4.539  0.1132 -0.0028  0.1123
15019TIP3    H166472   6.048   4.402   4.583  1.4611  0.9774  0.8673
15019TIP3    H266473   6.112   4.375   4.448  0.4631  0.9092  0.4025
15020TIP3   OH266474   5.436   2.386  13.683  1.0549  0.2996 -0.1774
15020TIP3    H166475   5.413   2.327  13.756  0.1099  2.2622  1.1654
15020TIP3    H266476   5.390   2.349  13.608 -2.0086  0.9322  1.2802
15021TIP3   OH266477   0.190   6.697   0.764 -0.0177  0.3264 -0.1290
15021TIP3    H166478   0.275   6.740   0.752 -0.8951  1.8494 -1.1176
15021TIP3    H266479   0.158   6.683   0.675 -1.6627  1.5665  0.2500
15022TIP3   OH266480   4.906   3.738  13.847  0.3448 -0.3165 -0.0478
15022TIP3    H166481   4.888   3.801  13.777 -2.7886  0.9341  1.7746
15022TIP3    H266482   4.832   3.678  13.844  1.7811 -2.1327  0.2166
15023TIP3   OH266483   6.250   2.374  16.683  0.0905 -0.5699  0.2407
15023TIP3    H166484   6.309   2.300  16.694 -0.3501 -0.7351  1.5314
15023TIP3    H266485   6.217   2.393  16.771 -0.9761  0.1801 -0.2961
15024TIP3   OH266486   0.621   2.617   0.971  0.3760 -0.4446 -0.3265
15024TIP3    H166487   0.673   2.643   0.895  0.8016 -0.0990  0.0839
15024TIP3    H266488   0.530   2.624   0.941  0.4898  1.0300 -0.4000
15025TIP3   OH266489   2.285   4.207   2.150 -0.0894  0.0513 -0.0060
15025TIP3    H166490   2.197   4.229   2.180 -0.9395  0.3242 -2.5722
15025TIP3    H266491   2.310   4.282   2.096  1.5110 -0.2753  0.2672
15026TIP3   OH266492   4.259   6.713  14.405  0.2483 -0.4672 -0.3828
15026TIP3    H166493   4.193   6.708  14.335  0.9616 -0.5378 -1.0617
15026TIP3    H266494   4.222   6.774  14.469 -1.4533 -2.1835  0.3077
15027TIP3   OH266495   1.290   5.033   0.921 -0.0453 -0.3793 -0.5168
15027TIP3    H166496   1.256   5.093   0.855 -1.4791  0.9082  1.3557
15027TIP3    H266497   1.328   5.089   0.988 -3.3800 -1.3239  2.3603
15028TIP3   OH266498   3.733   4.328  17.222  0.7189  0.2957 -0.6123
15028TIP3    H166499   3.816   4.365  17.252  1.8991 -1.2390 -1.8855
15028TIP3    H266500   3.677   4.404  17.209  2.4987  1.5157 -1.4171
15029TIP3   OH266501   0.059   3.693  11.784  0.3061 -0.0749  0.2957
15029TIP3    H166502   0.085   3.743  11.861  1.1971  1.9304 -1.2489
15029TIP3    H266503  -0.037   3.690  11.788  0.4113 -1.3668  2.2810
15030TIP3   OH266504   6.475   4.069   4.955  0.1388  0.1871 -0.5125
15030TIP3    H166505   6.566   4.041   4.941 -0.4265 -0.8753 -2.1800
15030TIP3    H266506   6.474   4.160   4.926  0.4523 -0.0980 -1.4328
15031TIP3   OH266507   0.971   4.215   5.801  0.2450 -0.1277 -0.3601
15031TIP3    H166508   0.941   4.124   5.792  0.2077 -0.1251 -0.2662
15031TIP3    H266509   0.983   4.227   5.895  0.8182 -0.2186 -0.4164
15032TIP3   OH266510   2.286   6.332  14.490  0.5896 -0.1323 -0.0895
15032TIP3    H166511   2.347   6.368  14.426 -0.0254 -0.1120 -0.6588
15032TIP3    H266512   2.321   6.361  14.575  0.3090  1.5008 -0.5137
15033TIP3   OH266513   5.111   2.938   1.954 -0.5159  0.3654 -0.4053
15033TIP3    H166514   5.066   3.005   1.903  1.8220  0.3075 -2.6688
15033TIP3    H266515   5.102   2.858   1.902 -0.0484 -0.2156  0.3974
15034TIP3   OH266516   6.253   2.377   3.917  0.0651 -0.3361  0.3390
15034TIP3    H166517   6.219   2.463   3.940  1.0842  0.0140  0.5599
15034TIP3    H266518   6.347   2.384   3.931  0.1913 -1.3897  0.0480
15035TIP3   OH266519   4.839   4.245  14.490 -0.4990 -0.1925  0.4834
15035TIP3    H166520   4.773   4.212  14.551 -0.2612 -0.8449  0.3952
15035TIP3    H266521   4.819   4.199  14.408 -1.2939  1.2481 -0.1473
15036TIP3   OH266522   1.550   0.803   6.617  0.6304 -0.2377  0.3094
15036TIP3    H166523   1.490   0.743   6.662 -0.5021  0.5830 -0.0909
15036TIP3    H266524   1.574   0.757   6.537 -0.9813  0.2293 -0.4568
15037TIP3   OH266525   0.116   3.281   6.092 -0.3124  0.0362 -0.2723
15037TIP3    H166526   0.059   3.319   6.159 -0.2351 -0.2207 -0.0636
15037TIP3    H266527   0.199   3.264   6.137 -0.9174 -2.0664  0.1018
15038TIP3   OH266528   4.211   2.915   5.397  0.5868 -0.2192 -0.5604
15038TIP3    H166529   4.274   2.844   5.391  0.4345 -0.2717 -1.4964
15038TIP3    H266530   4.170   2.903   5.483  0.0271 -1.7077 -1.0289
15039TIP3   OH266531   3.117   2.246   3.457 -0.5846 -0.0919 -0.2436
15039TIP3    H166532   3.207   2.269   3.432 -0.5613 -2.3354 -2.4056
15039TIP3    H266533   3.085   2.323   3.504  2.1930  1.0599 -0.1159
15040TIP3   OH266534   0.084   4.565   4.199 -0.1040 -0.2032 -0.6669
15040TIP3    H166535   0.147   4.493   4.195  0.5034  0.2840  0.0362
15040TIP3    H266536   0.012   4.537   4.142  0.4825 -1.0181 -1.0207
15041TIP3   OH266537   2.773   2.966  16.873  0.7621  0.0721 -0.1196
15041TIP3    H166538   2.717   2.952  16.950 -0.4758 -1.5579 -1.2893
15041TIP3    H266539   2.811   2.880  16.856  0.2744  0.2041 -1.9156
15042TIP3   OH266540   2.397   3.374  10.508  0.6191  0.2189  0.4899
15042TIP3    H166541   2.389   3.281  10.491  2.9320  0.2421 -0.9945
15042TIP3    H266542   2.312   3.411  10.485  0.4538 -1.2063 -1.2954
15043TIP3   OH266543   1.115   1.656  11.636  0.4245 -0.2913  0.0971
15043TIP3    H166544   1.185   1.686  11.577 -0.0713  1.4720  0.3977
15043TIP3    H266545   1.083   1.735  11.678 -0.9150 -1.2491  0.9150
15044TIP3   OH266546   0.065   6.742   5.941 -0.3501  0.4456  0.9184
15044TIP3    H166547   0.010   6.683   5.889  0.8360  1.4066 -1.5276
15044TIP3    H266548   0.031   6.736   6.029 -2.8071 -0.8438 -0.0858
15045TIP3   OH266549   5.470   4.540   5.955 -0.4995 -0.1721 -0.3761
15045TIP3    H166550   5.453   4.609   6.019  1.5388 -0.7680  0.8538
15045TIP3    H266551   5.537   4.577   5.897 -0.5947 -0.5120 -0.7014
15046TIP3   OH266552   1.835   3.548  13.725 -0.0736 -0.2437 -0.0726
15046TIP3    H166553   1.779   3.618  13.690 -0.4950 -1.1138 -1.1503
15046TIP3    H266554   1.922   3.567  13.689 -0.2376 -0.4068 -0.5555
15047TIP3   OH266555   5.861   1.085   3.995 -0.0077 -0.2169 -0.3740
15047TIP3    H166556   5.880   1.005   3.947  0.9339  0.4480 -1.1408
15047TIP3    H266557   5.937   1.098   4.052  0.1565  0.4728 -0.7375
15048TIP3   OH266558   2.372   5.523   0.170 -0.1040  0.3673  0.4620
15048TIP3    H166559   2.396   5.575   0.093 -1.7655  0.8528  0.2580
15048TIP3    H266560   2.296   5.473   0.142  0.0014 -0.3496  1.4327
15049TIP3   OH266561   5.897   5.761   4.397 -0.0837  0.3144 -0.3008
15049TIP3    H166562   5.941   5.738   4.316 -0.5133 -0.3398 -0.3551
15049TIP3    H266563   5.959   5.738   4.466 -0.9031 -2.0483 -0.2970
15050TIP3   OH266564   4.783   3.759  14.424  0.1266  0.3945 -0.4558
15050TIP3    H166565   4.692   3.765  14.396  0.1012 -0.2689 -0.5173
15050TIP3    H266566   4.807   3.849  14.448  0.1198  0.9803 -2.5378
15051TIP3   OH266567   3.742   5.121   4.030 -0.5865  0.3219  0.2021
15051TIP3    H166568   3.773   5.145   3.943  0.4716 -0.6433  0.3037
15051TIP3    H266569   3.713   5.204   4.069 -0.7891  0.8011 -0.9481
15052TIP3   OH266570   6.233   0.359  15.909 -0.1942 -0.1341 -0.0556
15052TIP3    H166571   6.167   0.370  15.840  0.0342  0.1244 -0.2384
15052TIP3    H266572   6.227   0.267  15.934  0.6134 -0.5683 -1.3559
15053TIP3   OH266573   3.435   5.948  14.413 -0.4971  0.4520 -0.1829
15053TIP3    H166574   3.454   5.987  14.498 -0.7697  0.4957 -0.1438
15053TIP3    H266575   3.429   5.854  14.430  4.1805 -0.1051 -0.9418
15054TIP3   OH266576   3.133   0.230  13.027  0.0599  0.4160  0.7962
15054TIP3    H166577   3.051   0.275  13.006 -0.1715 -0.5650 -0.4579
15054TIP3    H266578   3.113   0.174  13.102 -1.5744 -3.0153 -2.0684
15055TIP3   OH266579   3.634   1.892   2.684 -0.1091  0.0892 -0.6720
15055TIP3    H166580   3.601   1.843   2.759  0.0833  1.2619  0.1917
15055TIP3    H266581   3.709   1.842   2.653  1.3518  0.8889  1.4737
15056TIP3   OH266582   5.615   4.398  13.207  0.2432 -0.0951 -0.3018
15056TIP3    H166583   5.592   4.441  13.290 -0.6013 -1.4368  0.1810
15056TIP3    H266584   5.678   4.330  13.233  0.7741  0.1558 -0.9193
15057TIP3   OH266585   1.520   2.415   2.392  0.2404  0.1869 -0.6385
15057TIP3    H166586   1.481   2.363   2.322  3.1167 -1.9667 -0.6877
15057TIP3    H266587   1.576   2.478   2.347 -0.6648  1.2000 -0.3942
15058TIP3   OH266588   5.414   3.046  15.178  0.2719  0.3617 -0.3679
15058TIP3    H166589   5.405   3.117  15.115  0.5996  0.7808  0.0552
15058TIP3    H266590   5.420   2.967  15.125  0.8320  0.7407 -0.8686
15059TIP3   OH266591   2.841   5.153  16.079  0.6490  0.5420 -0.3507
15059TIP3    H166592   2.884   5.133  16.162 -1.2123 -0.3722  0.4271
15059TIP3    H266593   2.771   5.214  16.103  0.5986  0.8931 -1.3727
15060TIP3   OH266594   4.462   6.707   1.952 -0.4072 -0.0061  0.3027
15060TIP3    H166595   4.530   6.667   1.897  0.0668  0.9093  0.2218
15060TIP3    H266596   4.463   6.655   2.032 -0.4935 -0.7965 -0.1961
15061TIP3   OH266597   1.286   1.215   3.331 -0.3421 -0.1420 -0.1425
15061TIP3    H166598   1.201   1.173   3.323 -0.4626  0.0837 -0.0548
15061TIP3    H266599   1.317   1.222   3.241 -0.1074 -0.8511 -0.1211
15062TIP3   OH266600   0.925   2.754  14.267  0.5987  0.1959  0.2722
15062TIP3    H166601   0.894   2.840  14.295  0.3365 -0.0405  0.7048
15062TIP3    H266602   0.952   2.711  14.348 -1.0828 -0.8588  0.2853
15063TIP3   OH266603   0.822   3.311  17.015 -0.0771  0.2234  0.4482
15063TIP3    H166604   0.900   3.256  17.010 -0.1993 -0.0175  1.1864
15063TIP3    H266605   0.844   3.377  17.081 -0.4429  0.2466  0.5467
15064TIP3   OH266606   0.272   4.904  16.440 -0.1104 -0.1314 -0.1844
15064TIP3    H166607   0.188   4.896  16.395 -0.0034 -2.7000  0.0188
15064TIP3    H266608   0.291   4.816  16.471  2.6297  0.4269 -0.1766
15065TIP3   OH266609   5.908   2.730  16.455 -0.6480 -0.8430 -0.9014
15065TIP3    H166610   5.937   2.753  16.367  1.0206  2.3171  0.3990
15065TIP3    H266611   5.949   2.645  16.472 -0.5379 -1.2238 -2.9620
15066TIP3   OH266612   4.456   3.963  13.403 -0.1536  0.1248 -0.1634
15066TIP3    H166613   4.417   3.999  13.322 -0.9559  1.9235  0.9911
15066TIP3    H266614   4.390   3.902  13.435 -1.2791  1.7949  0.8006
15067TIP3   OH266615   1.953   6.477   6.076  0.7723  0.6055  0.2445
15067TIP3    H166616   1.918   6.399   6.035  0.3150  0.5614  0.7110
15067TIP3    H266617   1.982   6.448   6.163  2.1474  0.5974 -0.2042
15068TIP3   OH266618   1.070   4.642  15.688 -0.5102 -0.1754 -0.5592
15068TIP3    H166619   1.048   4.603  15.773  1.5606 -0.7408 -0.2366
15068TIP3    H266620   1.164   4.627  15.679 -0.8408 -0.9171 -3.3601
15069TIP3   OH266621   0.038   2.498   4.704  0.2778  0.4445 -0.5986
15069TIP3    H166622   0.111   2.510   4.764 -0.7484  0.1829  0.7445
15069TIP3    H266623   0.052   2.412   4.664  1.1055  0.7370 -0.9528
15070TIP3   OH266624   3.998   4.736   2.458  0.8440 -0.5166 -0.0101
15070TIP3    H166625   3.966   4.796   2.525  0.7532 -1.3976  0.7298
15070TIP3    H266626   4.087   4.714   2.485  1.1645 -0.0970 -0.7038
15071TIP3   OH266627   1.702   1.541   4.057 -0.0671 -0.6581  0.5725
15071TIP3    H166628   1.660   1.611   4.107 -0.5083  0.4693 -1.3687
15071TIP3    H266629   1.792   1.571   4.045 -0.3720 -0.1981 -0.6383
15072TIP3   OH266630   1.202   2.166  12.703 -0.0243 -0.3327 -0.1042
15072TIP3    H166631   1.267   2.113  12.750  0.5375  0.4426 -0.0050
15072TIP3    H266632   1.234   2.169  12.613 -0.4782 -0.8301 -0.2820
15073TIP3   OH266633   5.695   2.242   0.626 -0.5121  0.0939 -0.0550
15073TIP3    H166634   5.746   2.307   0.578 -1.6968 -0.7358 -2.4764
15073TIP3    H266635   5.603   2.265   0.608 -0.9802 -0.4156  1.5743
15074TIP3   OH266636   3.155   4.917  13.019 -0.0824 -0.4378 -0.3574
15074TIP3    H166637   3.110   4.848  13.067 -1.1407  0.2870 -0.2905
15074TIP3    H266638   3.091   4.947  12.955  1.3848 -1.5878 -2.4489
15075TIP3   OH266639   5.729   6.448   6.366  0.2298 -0.0322 -0.3584
15075TIP3    H166640   5.817   6.425   6.397 -0.0855 -0.4183  0.2516
15075TIP3    H266641   5.704   6.375   6.309  0.1390 -0.1083 -0.2194
15076TIP3   OH266642   3.406   3.676  13.210  0.3347 -0.5784  0.3802
15076TIP3    H166643   3.494   3.683  13.173  1.1715 -0.9714  2.2411
15076TIP3    H266644   3.397   3.584  13.233 -0.9823 -0.7516 -0.7503
15077TIP3   OH266645   6.643   0.443   4.915  0.1974  0.2108 -0.6871
15077TIP3    H166646   6.642   0.358   4.960 -1.1471  1.0772  0.9704
15077TIP3    H266647   6.729   0.480   4.936  0.0747  0.0495  0.1122
15078TIP3   OH266648   3.158   4.153   2.892  0.5617 -0.2038  0.5923
15078TIP3    H166649   3.193   4.118   2.974  1.8129 -1.2513 -0.3716
15078TIP3    H266650   3.075   4.106   2.880  0.6645 -0.4834  0.9617
15079TIP3   OH266651   4.816   3.675   0.467 -0.3876  0.0967 -0.3523
15079TIP3    H166652   4.733   3.628   0.455 -0.2631 -0.4677  0.8829
15079TIP3    H266653   4.807   3.718   0.552  1.3414 -1.6276  0.7457
15080TIP3   OH266654   1.443   4.307  14.503 -0.5001 -0.4330  0.0086
15080TIP3    H166655   1.372   4.306  14.567  0.4673 -0.7045  1.1166
15080TIP3    H266656   1.501   4.236  14.531 -0.4359 -1.0421 -1.6252
15081TIP3   OH266657   0.214   2.418  14.479  0.1386  0.5810 -0.6508
15081TIP3    H166658   0.193   2.349  14.542  1.7400  1.1652  0.5554
15081TIP3    H266659   0.187   2.499  14.522  1.8503  1.0466 -0.3822
15082TIP3   OH266660   0.427   0.672   1.992  0.2179 -0.4073  0.0701
15082TIP3    H166661   0.467   0.738   1.936 -0.9114  2.1215  2.1640
15082TIP3    H266662   0.403   0.601   1.932  0.8574  1.3619 -2.3322
15083TIP3   OH266663   1.566   3.731  14.655  0.3584  0.3642  0.4714
15083TIP3    H166664   1.497   3.674  14.623 -1.4036  2.7391 -0.1113
15083TIP3    H266665   1.621   3.748  14.579  0.6155 -0.2144  0.5334
15084TIP3   OH266666   0.006   4.848  12.514  0.2750  0.3000 -0.0404
15084TIP3    H166667   0.062   4.775  12.487 -0.3152 -0.5571  1.0460
15084TIP3    H266668  -0.075   4.836  12.464 -0.2114 -0.3834  0.8956
15085TIP3   OH266669   0.563   5.629  12.943  0.4527  0.2991 -0.5443
15085TIP3    H166670   0.507   5.702  12.969  0.0952  0.3711 -1.5064
15085TIP3    H266671   0.503   5.566  12.903  0.7809 -0.4604  0.1355
15086TIP3   OH266672   6.746   5.249   5.726 -0.5984 -0.4123 -0.1970
15086TIP3    H166673   6.711   5.169   5.687 -0.4560 -0.1997 -0.7741
15086TIP3    H266674   6.805   5.285   5.659 -1.3577  0.6507 -0.3150
15087TIP3   OH266675   1.163   3.598  14.594  0.4741  0.2928  0.2738
15087TIP3    H166676   1.256   3.608  14.571  0.7321 -1.6194  0.4412
15087TIP3    H266677   1.137   3.517  14.552 -0.9820  0.5130  0.7440
15088TIP3   OH266678   4.227   2.120   5.302  0.0195  0.4219 -0.2617
15088TIP3    H166679   4.317   2.120   5.268  0.0573 -1.0593 -0.2150
15088TIP3    H266680   4.175   2.160   5.232  0.8872  2.5088  0.2476
15089TIP3   OH266681   2.880   0.377   5.159  0.0263 -0.6311  0.5941
15089TIP3    H166682   2.829   0.401   5.081  0.7196  2.0555  0.9256
15089TIP3    H266683   2.859   0.445   5.223  2.6633 -0.4694  1.3374
15090TIP3   OH266684   3.185   2.661  14.246  0.0364  0.6550  0.7692
15090TIP3    H166685   3.131   2.740  14.254 -0.0810  0.5300  1.1863
15090TIP3    H266686   3.138   2.607  14.182  0.8617  1.5466 -0.6153
15091TIP3   OH266687   5.480   3.322   5.599  0.3149 -0.6125 -0.0101
15091TIP3    H166688   5.494   3.233   5.629 -1.0119 -1.3503 -1.5166
15091TIP3    H266689   5.547   3.336   5.531 -0.1780 -0.8534 -0.5499
15092TIP3   OH266690   4.819   1.761  10.901  0.3924 -0.2608 -0.5291
15092TIP3    H166691   4.797   1.798  10.987 -0.3695  1.1741 -1.3324
15092TIP3    H266692   4.902   1.716  10.916  0.2952  0.0160  0.9539
15093TIP3   OH266693   5.031   1.229   0.656 -0.2863  0.5581  0.0467
15093TIP3    H166694   5.008   1.289   0.585  0.4733 -0.2747 -0.9200
15093TIP3    H266695   4.973   1.253   0.728 -0.0665  2.3788 -0.3605
15094TIP3   OH266696   0.495   2.553  14.953 -0.0131 -0.0512 -0.5201
15094TIP3    H166697   0.444   2.476  14.975  0.9656 -0.1789  1.3531
15094TIP3    H266698   0.429   2.620  14.931 -0.8330 -1.7818 -3.6008
15095TIP3   OH266699   5.780   0.917   3.701  0.0064  0.7185 -0.0763
15095TIP3    H166700   5.873   0.896   3.704  0.6649  3.4569  0.2431
15095TIP3    H266701   5.738   0.851   3.756  2.1096  1.0646  1.9981
15096TIP3   OH266702   2.217   4.022   0.580 -0.3467 -0.0522 -0.1019
15096TIP3    H166703   2.291   3.988   0.631 -0.7697 -0.8780 -0.0233
15096TIP3    H266704   2.242   4.007   0.489 -0.8708 -1.3487 -0.0536
15097TIP3   OH266705   3.221   2.677  11.779  0.3218 -0.0213 -0.3396
15097TIP3    H166706   3.192   2.699  11.690 -0.9900  0.9287  0.3109
15097TIP3    H266707   3.311   2.708  11.783  0.6064 -0.6473 -1.5401
15098TIP3   OH266708   4.246   1.825  11.901  0.3801  0.1363  0.2840
15098TIP3    H166709   4.198   1.768  11.841  2.6545  0.2756 -1.7243
15098TIP3    H266710   4.240   1.781  11.986 -1.5040 -0.9007 -0.3635
15099TIP3   OH266711   2.393   1.746  13.612 -0.6703  0.1413  0.2553
15099TIP3    H166712   2.459   1.809  13.641 -1.0054  1.4203 -1.6730
15099TIP3    H266713   2.326   1.748  13.681 -1.2290  2.7587 -0.3078
15100TIP3   OH266714   0.767   2.200  12.122  0.1064  0.5971 -0.1651
15100TIP3    H166715   0.749   2.209  12.216  0.6917  1.3204 -0.1143
15100TIP3    H266716   0.744   2.285  12.085  0.9575  0.6894 -0.4927
15101TIP3   OH266717   5.383   6.354   3.526 -0.1083 -0.5382 -0.2971
15101TIP3    H166718   5.305   6.323   3.482  0.6924  0.8088 -2.7608
15101TIP3    H266719   5.354   6.376   3.615 -1.9929 -2.2696 -0.4653
15102TIP3   OH266720   1.133   5.788   3.599 -0.5960 -0.0406  0.2131
15102TIP3    H166721   1.197   5.782   3.669 -1.5725  0.3653  1.1510
15102TIP3    H266722   1.185   5.795   3.519  0.5897  3.0816  1.1836
15103TIP3   OH266723   0.705   6.008   1.407  0.7273  0.2935 -0.7162
15103TIP3    H166724   0.780   6.066   1.399  1.0395 -0.2367 -1.7094
15103TIP3    H266725   0.664   6.032   1.491  1.5127  1.1476 -0.5785
15104TIP3   OH266726   4.863   1.647  14.259  0.2364 -0.1146  0.7320
15104TIP3    H166727   4.841   1.570  14.312 -0.4298 -0.4105  0.0346
15104TIP3    H266728   4.817   1.719  14.302 -0.9040 -0.4819  0.1406
15105TIP3   OH266729   1.042   5.484   6.294 -0.2790  0.0253 -0.3486
15105TIP3    H166730   1.001   5.525   6.371 -3.3547 -0.7433 -1.5067
15105TIP3    H266731   1.114   5.432   6.330 -0.4926  1.1657  1.8139
15106TIP3   OH266732   5.647   1.589   2.219 -0.6407  0.2115  0.1932
15106TIP3    H166733   5.589   1.639   2.162 -0.7659  1.2162  1.1804
15106TIP3    H266734   5.657   1.644   2.297  0.2147 -0.7517  0.7736
15107TIP3   OH266735   6.564   1.456  15.500  0.1139 -0.8012 -0.1559
15107TIP3    H166736   6.616   1.533  15.522  2.3802 -1.2816 -3.3826
15107TIP3    H266737   6.576   1.397  15.574  3.6118 -0.5524 -0.4348
15108TIP3   OH266738   6.689   1.502   1.879 -0.0296 -0.2881 -0.1361
15108TIP3    H166739   6.599   1.528   1.898  0.4133  1.5832 -0.5035
15108TIP3    H266740   6.681   1.435   1.810 -0.9673  3.0378 -3.4069
15109TIP3   OH266741   0.578   4.967  16.631 -0.1824  0.5423 -0.2808
15109TIP3    H166742   0.592   4.900  16.698 -0.6706 -0.8481 -1.5344
15109TIP3    H266743   0.505   5.019  16.664 -0.1200  0.1538  0.4829
15110TIP3   OH266744   6.213   2.510   6.147  0.5210 -0.4082 -0.1108
15110TIP3    H166745   6.154   2.438   6.127 -0.4331  0.0371  1.0286
15110TIP3    H266746   6.155   2.580   6.180  1.5464  0.4619 -0.1204
15111TIP3   OH266747   5.970   3.827  13.259  0.7684 -0.2186  0.5238
15111TIP3    H166748   6.043   3.814  13.320  1.7962  0.6316 -0.5262
15111TIP3    H266749   5.895   3.842  13.316  1.3899 -1.1562  1.6199
15112TIP3   OH266750   2.154   5.854   3.257  0.7590  0.4876  0.2610
15112TIP3    H166751   2.244   5.843   3.226  1.2513  1.2960  1.3729
15112TIP3    H266752   2.133   5.945   3.236  1.8698  1.7229  4.1822
15113TIP3   OH266753   0.198   0.003   1.004 -0.3269  0.3980  0.0099
15113TIP3    H166754   0.129   0.041   1.059  0.1474 -3.2833  3.3357
15113TIP3    H266755   0.151  -0.044   0.935 -1.0519  0.5989  0.3680
15114TIP3   OH266756   4.736   5.556  15.763  0.6744  0.3523  0.6919
15114TIP3    H166757   4.777   5.636  15.797  2.0511  1.7005 -3.8303
15114TIP3    H266758   4.662   5.587  15.711 -1.0342 -1.6130  1.8548
15115TIP3   OH266759   2.788   1.608  15.315  0.1991 -0.3359 -0.1835
15115TIP3    H166760   2.843   1.655  15.378 -0.2680  0.3165 -0.2529
15115TIP3    H266761   2.713   1.578  15.366  0.0728 -0.2554 -0.3220
15116TIP3   OH266762   1.110   3.799  12.276 -0.6772 -0.5567 -0.1767
15116TIP3    H166763   1.045   3.771  12.340 -0.7823 -0.6321 -0.3164
15116TIP3    H266764   1.179   3.732  12.280 -0.8868 -0.7901 -0.4497
15117TIP3   OH266765   6.614   2.517  11.703  0.0032 -0.1149  0.0039
15117TIP3    H166766   6.578   2.547  11.786 -1.4793  1.8506 -1.2889
15117TIP3    H266767   6.548   2.543  11.638  1.4320 -1.0164 -1.8428
15118TIP3   OH266768   5.398   4.579  16.788  0.2647 -0.1414 -0.2348
15118TIP3    H166769   5.360   4.564  16.874 -1.0719 -1.2021 -1.0002
15118TIP3    H266770   5.405   4.492  16.749  0.9495  0.3232 -1.1672
15119TIP3   OH266771   2.339   1.797   5.218 -0.1222  0.7281  0.0157
15119TIP3    H166772   2.371   1.760   5.300  0.4341 -0.4613 -0.7353
15119TIP3    H266773   2.389   1.878   5.207 -1.4020  1.7965  1.6972
15120TIP3   OH266774   2.902   4.035  16.076  0.6726 -0.2157 -0.3894
15120TIP3    H166775   2.872   4.004  15.991 -1.0191  0.7864 -0.1795
15120TIP3    H266776   2.983   4.083  16.057  1.0666 -1.2016 -1.2310
15121TIP3   OH266777   3.743   4.955  10.659 -0.5517  0.5653 -0.0062
15121TIP3    H166778   3.767   5.015  10.588  0.6238 -0.4993 -0.5268
15121TIP3    H266779   3.684   5.006  10.714 -1.0369  1.6050 -1.4407
15122TIP3   OH266780   6.625   5.026   0.960 -0.2527  0.4831  0.1958
15122TIP3    H166781   6.647   5.081   0.884 -2.1942  0.6540 -0.2692
15122TIP3    H266782   6.556   5.075   1.005 -0.7842 -0.7714  0.7505
15123TIP3   OH266783   1.430   2.456   3.482  0.2571  0.0882  0.1874
15123TIP3    H166784   1.418   2.369   3.445 -0.5996 -0.3892  1.5534
15123TIP3    H266785   1.401   2.516   3.413 -0.1411 -0.7350 -0.3674
15124TIP3   OH266786   0.625   3.770   5.703  0.2326  0.0056  0.0828
15124TIP3    H166787   0.609   3.677   5.685  0.2467 -0.1497  0.8480
15124TIP3    H266788   0.661   3.804   5.622  0.9242 -0.8321  0.0280
15125TIP3   OH266789   4.859   0.679   3.683 -0.3170  0.4077 -0.2608
15125TIP3    H166790   4.794   0.616   3.715  0.9126 -0.3298  0.7957
15125TIP3    H266791   4.807   0.744   3.636 -1.7561 -0.5779 -0.0680
15126TIP3   OH266792   6.132   6.364   5.862 -0.7870 -0.0720  0.9728
15126TIP3    H166793   6.097   6.288   5.813 -0.4125 -0.3692  1.1655
15126TIP3    H266794   6.222   6.340   5.883 -0.6603  0.4396  1.0198
15127TIP3   OH266795   4.099   1.910   2.509  0.6180 -0.1111 -0.3498
15127TIP3    H166796   4.161   1.847   2.473  0.9493  0.8998 -1.5717
15127TIP3    H266797   4.123   1.994   2.468 -1.7706  0.2235 -1.1278
15128TIP3   OH266798   5.019   1.236   2.050 -0.6010 -0.1777  0.4568
15128TIP3    H166799   5.010   1.223   2.144  0.4091  0.3605  0.6272
15128TIP3    H266800   5.054   1.325   2.041 -2.5072  0.5151 -0.5003
15129TIP3   OH266801   4.190   1.054  11.934  0.2670  0.1192 -0.0075
15129TIP3    H166802   4.201   1.084  11.844  0.8646  0.2453  0.1050
15129TIP3    H266803   4.160   1.131  11.982  1.5827  0.5043  0.2333
15130TIP3   OH266804   0.783   5.823   3.500 -0.7966  0.3266 -0.7867
15130TIP3    H166805   0.778   5.917   3.517  1.0895  0.2452  0.4077
15130TIP3    H266806   0.719   5.808   3.431 -1.8336  2.3162 -0.3027
15131TIP3   OH266807   3.184   3.719   1.379  0.1546 -0.7321  0.3470
15131TIP3    H166808   3.243   3.647   1.358  0.4078 -1.0187  2.0384
15131TIP3    H266809   3.196   3.735   1.472  0.7289  2.0484 -0.1373
15132TIP3   OH266810   1.735   5.431  15.417 -0.0588 -0.0169  0.4828
15132TIP3    H166811   1.729   5.514  15.371  0.1374  0.6049  1.5548
15132TIP3    H266812   1.686   5.445  15.498 -1.5358 -1.5011 -0.0978
15133TIP3   OH266813   3.129   4.153   5.734 -0.5554 -0.1045 -0.1910
15133TIP3    H166814   3.138   4.242   5.700  1.3528 -0.0800  0.2958
15133TIP3    H266815   3.191   4.102   5.681  0.5662 -0.5441  1.5190
15134TIP3   OH266816   6.353   3.689   3.650 -0.4543 -0.5260 -0.7395
15134TIP3    H166817   6.431   3.687   3.595  0.0024 -0.0473 -0.1191
15134TIP3    H266818   6.337   3.782   3.666  0.0186 -0.6879  0.7687
15135TIP3   OH266819   1.170   0.828  16.860 -0.2333  0.1058  0.0422
15135TIP3    H166820   1.118   0.748  16.869  0.3284 -0.3813 -0.9468
15135TIP3    H266821   1.257   0.803  16.890 -0.6651  1.0606  2.1890
15136TIP3   OH266822   1.716   1.480  15.335  0.3697  0.1001 -0.8127
15136TIP3    H166823   1.786   1.541  15.360  1.0953 -1.0198 -0.0414
15136TIP3    H266824   1.636   1.521  15.368  0.9429  0.2344  0.4319
15137TIP3   OH266825   3.866   4.359   3.611 -0.5099 -0.2533 -0.1494
15137TIP3    H166826   3.792   4.378   3.668  1.1652  5.0462  0.6073
15137TIP3    H266827   3.848   4.409   3.531  2.7360  2.2518  0.5735
15138TIP3   OH266828   0.390   3.029   3.559  1.0673 -0.0584  0.3153
15138TIP3    H166829   0.407   3.097   3.624 -0.2991  0.8150 -0.2155
15138TIP3    H266830   0.331   2.968   3.602 -0.2414  0.7839 -0.2318
15139TIP3   OH266831   0.879   2.315  14.893  0.4769 -0.0939 -0.1296
15139TIP3    H166832   0.869   2.408  14.874  0.2606 -0.3246 -1.1980
15139TIP3    H266833   0.900   2.311  14.986 -0.0801  0.9799  0.0404
15140TIP3   OH266834   1.038   3.214  11.269  0.8133 -0.5717  0.1432
15140TIP3    H166835   1.129   3.225  11.297  1.4393 -0.9082 -1.6695
15140TIP3    H266836   1.011   3.302  11.242  0.3389 -0.3254  1.3712
15141TIP3   OH266837   5.617   1.049   2.285  0.0729 -0.2335 -0.1250
15141TIP3    H166838   5.529   1.080   2.265  0.3173  0.3298 -0.3286
15141TIP3    H266839   5.647   1.104   2.357  0.0533 -0.7864  0.3123
15142TIP3   OH266840   0.472   1.403  16.159  0.2216 -0.7527  0.1945
15142TIP3    H166841   0.498   1.495  16.151 -0.3803 -0.5080  0.9862
15142TIP3    H266842   0.378   1.406  16.173 -0.3848 -1.6489 -3.2249
15143TIP3   OH266843   1.445   1.274  13.874 -0.2610  0.0888  0.2994
15143TIP3    H166844   1.407   1.356  13.908 -0.2095  0.5580 -0.7547
15143TIP3    H266845   1.390   1.206  13.911 -0.8762  0.6571  0.4488
15144TIP3   OH266846   0.880   0.454   1.357 -0.0747 -0.6921 -0.0707
15144TIP3    H166847   0.853   0.543   1.336 -0.9048 -1.4109 -2.2054
15144TIP3    H266848   0.907   0.417   1.273 -0.5410 -2.7116  0.6446
15145TIP3   OH266849   0.799   4.881  12.909  0.1108 -0.3937 -0.1364
15145TIP3    H166850   0.765   4.964  12.875 -2.2995 -0.9384  0.8452
15145TIP3    H266851   0.821   4.831  12.831  0.6201  0.7796 -0.7600
15146TIP3   OH266852   2.230   0.514   3.171 -0.1836 -0.3681 -0.0216
15146TIP3    H166853   2.316   0.477   3.191  1.4240  2.4553 -1.4169
15146TIP3    H266854   2.168   0.449   3.203  2.4595 -2.3646  1.2334
15147TIP3   OH266855   5.549   6.759   6.900 -0.6874 -0.4389  0.6036
15147TIP3    H166856   5.462   6.753   6.940 -0.6030  1.2356  1.0717
15147TIP3    H266857   5.581   6.846   6.924  0.5095 -0.4616 -0.8041
15148TIP3   OH266858   0.175   4.662  14.625 -0.0992  0.1793  0.5739
15148TIP3    H166859   0.116   4.621  14.689 -0.5973 -0.7020 -0.4251
15148TIP3    H266860   0.260   4.622  14.641 -0.0540  0.5069  1.1693
15149TIP3   OH266861   2.492   3.009  11.609 -0.2204 -0.0266  0.1902
15149TIP3    H166862   2.582   3.034  11.588 -0.2964  1.6605  1.7617
15149TIP3    H266863   2.450   2.995  11.524  0.6968  2.2184 -0.6593
15150TIP3   OH266864   1.821   1.095  10.870  0.0930 -0.0579 -0.2833
15150TIP3    H166865   1.824   1.183  10.906  0.0826  0.1311 -0.7446
15150TIP3    H266866   1.730   1.084  10.841  0.3890  0.2116 -1.3096
15151TIP3   OH266867   2.802   6.180  13.816 -0.9319  0.2933  0.2324
15151TIP3    H166868   2.715   6.164  13.779 -0.3717 -0.2790 -0.8676
15151TIP3    H266869   2.852   6.102  13.792 -0.2914  0.3405  1.4061
15152TIP3   OH266870   0.790   0.589   2.356  0.1819 -0.3672  0.5024
15152TIP3    H166871   0.823   0.536   2.429  2.2876  1.0722  0.6239
15152TIP3    H266872   0.848   0.568   2.283  0.3664  0.9363  0.2580
15153TIP3   OH266873   0.986   0.369   5.655 -0.2874 -0.3127  0.2279
15153TIP3    H166874   1.062   0.314   5.637  0.4028 -0.3875  3.1320
15153TIP3    H266875   1.022   0.451   5.688 -1.3811  1.1213 -2.0179
15154TIP3   OH266876   1.721   2.061   1.993 -0.6150 -0.9889  0.3347
15154TIP3    H166877   1.745   2.073   1.901  1.7880 -1.8226  0.8168
15154TIP3    H266878   1.713   2.150   2.027 -2.8203 -0.6441 -0.9589
15155TIP3   OH266879   6.224   2.197  15.942 -0.5779  0.3918  0.6215
15155TIP3    H166880   6.145   2.232  15.984 -0.2018 -0.1789  1.8210
15155TIP3    H266881   6.246   2.120  15.994 -0.6244 -0.8616 -1.1754
15156TIP3   OH266882   5.526   1.469  14.324 -0.0798  0.3210  0.1845
15156TIP3    H166883   5.498   1.556  14.296  0.1796  0.2961 -0.1533
15156TIP3    H266884   5.525   1.474  14.420  0.7397  0.9612  0.1666
15157TIP3   OH266885   3.500   4.246  14.298  0.6401 -0.4780  0.3205
15157TIP3    H166886   3.490   4.222  14.390  0.1579  0.7024  0.5830
15157TIP3    H266887   3.580   4.298  14.294 -0.6590  1.5888  0.5120
15158TIP3   OH266888   0.171   0.848   0.023 -0.3686  0.3686 -0.1758
15158TIP3    H166889   0.166   0.901  -0.057  1.0255  0.8868  0.0677
15158TIP3    H266890   0.185   0.759  -0.009  1.3110  0.7262 -0.5144
15159TIP3   OH266891   0.812   4.918  14.524  0.1212 -0.4568 -0.2923
15159TIP3    H166892   0.724   4.902  14.555 -0.1304  1.6450  0.1137
15159TIP3    H266893   0.804   4.922  14.428 -0.3834  0.6874 -0.2003
15160TIP3   OH266894   4.155   5.111  16.113 -0.5785  0.5018  0.7919
15160TIP3    H166895   4.077   5.055  16.116 -1.7216  1.9583 -0.7650
15160TIP3    H266896   4.187   5.102  16.024  1.5441 -0.6974  1.6385
15161TIP3   OH266897   5.730   1.756  17.113 -0.6580 -0.6668 -0.7968
15161TIP3    H166898   5.709   1.663  17.123  0.1028 -0.7565  0.0678
15161TIP3    H266899   5.748   1.785  17.203 -1.1452  0.3740 -1.0373
15162TIP3   OH266900   6.596   6.662  10.745 -0.3091  0.1154  0.6158
15162TIP3    H166901   6.589   6.715  10.824 -0.3387  1.1770 -0.0890
15162TIP3    H266902   6.671   6.700  10.698 -1.2904  0.5456 -0.6409
15163TIP3   OH266903   2.933   5.851   4.183  0.1072  0.7365  0.4053
15163TIP3    H166904   2.940   5.946   4.176  1.7244  0.5184 -1.3497
15163TIP3    H266905   2.968   5.818   4.101 -1.4598 -1.3652  0.5259
15164TIP3   OH266906   2.229   6.604   3.339 -0.1733 -0.7709 -0.1328
15164TIP3    H166907   2.248   6.685   3.292  1.2009 -1.5666 -0.9901
15164TIP3    H266908   2.195   6.632   3.424  0.9201  0.7146 -0.1669
15165TIP3   OH266909   0.217   2.727  10.118  0.7274  0.3906  0.6066
15165TIP3    H166910   0.305   2.702  10.146 -0.1808 -0.9911  2.4040
15165TIP3    H266911   0.171   2.644  10.107 -0.7148  1.1161  1.0040
15166TIP3   OH266912   2.874   1.385   0.145  0.2226  0.1722  0.5063
15166TIP3    H166913   2.940   1.413   0.082 -0.1047  0.0584  0.1093
15166TIP3    H266914   2.876   1.452   0.214 -1.3709  1.8182 -1.0075
15167TIP3   OH266915   5.491   3.939  11.156 -0.0349  0.0979  0.5995
15167TIP3    H166916   5.504   3.882  11.080  0.1182 -1.8183  2.0344
15167TIP3    H266917   5.558   3.911  11.219 -1.3335  0.4076  2.1511
15168TIP3   OH266918   4.903   2.443   2.947 -0.4740  0.2740 -0.0928
15168TIP3    H166919   4.909   2.477   3.037 -2.8753  1.2760 -0.2761
15168TIP3    H266920   4.953   2.505   2.895  0.1630  0.1933  0.4120
15169TIP3   OH266921   2.291   2.083   4.777  0.2512 -0.7753  0.0568
15169TIP3    H166922   2.313   2.176   4.784  0.3625 -0.7795 -0.1989
15169TIP3    H266923   2.358   2.039   4.829  1.6643 -0.8798 -1.7706
15170TIP3   OH266924   6.206   6.466  11.169  0.2827  0.7574  0.4984
15170TIP3    H166925   6.269   6.473  11.097  1.4521 -0.6978  1.3565
15170TIP3    H266926   6.222   6.379  11.206 -1.8788  0.5857  1.0707
15171TIP3   OH266927   2.226   5.326  13.348  0.2012  0.0113  0.1002
15171TIP3    H166928   2.170   5.249  13.348  0.8094 -0.4710 -1.5487
15171TIP3    H266929   2.212   5.367  13.433 -4.8333  1.5260 -1.3014
15172TIP3   OH266930   5.257   0.880   0.871  0.4102  0.4363 -0.5142
15172TIP3    H166931   5.184   0.892   0.932 -1.3910 -1.5767 -2.1913
15172TIP3    H266932   5.227   0.918   0.788  0.8531 -1.2755 -1.4902
15173TIP3   OH266933   2.543   6.110   3.575  0.3760 -0.1382  0.0002
15173TIP3    H166934   2.458   6.134   3.538  0.1351  0.1708  0.7308
15173TIP3    H266935   2.576   6.192   3.611  1.1420 -0.1877 -0.5817
15174TIP3   OH266936   5.889   0.624  16.280 -0.1293 -0.3990 -0.4029
15174TIP3    H166937   5.885   0.582  16.194  0.6504  0.2119 -0.7418
15174TIP3    H266938   5.983   0.624  16.303 -0.1532  0.9470 -0.2997
15175TIP3   OH266939   5.584   1.057   3.940 -0.4407 -0.3268 -0.6251
15175TIP3    H166940   5.659   1.111   3.966 -1.3591  0.4113  0.5179
15175TIP3    H266941   5.624   0.974   3.912  0.7230 -0.4245  1.2564
15176TIP3   OH266942   1.908   6.405   4.129 -0.3343  0.3371  0.0274
15176TIP3    H166943   1.896   6.445   4.215 -0.4950 -0.1410  0.2269
15176TIP3    H266944   1.983   6.450   4.091  1.6151 -1.5019  1.6192
15177TIP3   OH266945   3.100   3.227  14.740 -0.2686 -0.3374 -0.2573
15177TIP3    H166946   3.168   3.290  14.763 -0.8999  0.3498 -0.2860
15177TIP3    H266947   3.146   3.143  14.737  0.8843  0.3150 -1.7000
15178TIP3   OH266948   1.734   2.447  16.580 -0.5687 -0.1062  0.4362
15178TIP3    H166949   1.791   2.522  16.596  1.2928 -0.9668 -1.7818
15178TIP3    H266950   1.651   2.484  16.551  0.6083  1.1090 -1.4862
15179TIP3   OH266951   0.300   0.068  13.683  0.2289  0.2996  0.5036
15179TIP3    H166952   0.329   0.059  13.592  0.9935  0.2746  0.7432
15179TIP3    H266953   0.279  -0.021  13.710  0.2819  0.2684  0.4428
15180TIP3   OH266954   1.781   1.806   3.060  0.7301 -0.5379  0.6580
15180TIP3    H166955   1.839   1.783   2.988 -1.2377  1.3303 -1.6281
15180TIP3    H266956   1.780   1.902   3.060  0.2144 -0.5306  2.7595
15181TIP3   OH266957   0.937   1.745   3.029  0.5828  0.3255  0.4166
15181TIP3    H166958   1.025   1.772   3.003  0.4592 -0.3589 -0.7751
15181TIP3    H266959   0.940   1.649   3.028 -0.1376  0.2974  0.4721
15182TIP3   OH266960   0.764   5.327  14.043 -0.1818 -0.2396  0.3084
15182TIP3    H166961   0.849   5.342  14.001 -0.6148 -0.9683 -0.8843
15182TIP3    H266962   0.700   5.351  13.976 -0.9218  0.4000  1.2328
15183TIP3   OH266963   2.418   3.394  11.272 -0.5704  0.1490 -0.4107
15183TIP3    H166964   2.492   3.345  11.238 -0.9915 -0.0014 -1.1259
15183TIP3    H266965   2.361   3.327  11.311 -0.8453  0.1342 -0.8303
15184TIP3   OH266966   5.377   3.741   4.739 -0.0622  0.1161  0.2162
15184TIP3    H166967   5.385   3.806   4.669  1.0176 -1.1299 -0.8362
15184TIP3    H266968   5.283   3.731   4.752 -0.2473  1.7355  0.2551
15185TIP3   OH266969   5.698   6.456  16.228  0.3171 -0.1218 -0.1441
15185TIP3    H166970   5.614   6.412  16.212 -0.0938  0.9945 -1.1605
15185TIP3    H266971   5.697   6.477  16.321 -0.3412 -0.5017 -0.0638
15186TIP3   OH266972   0.852   4.235  14.693 -0.1608  0.5009  0.0730
15186TIP3    H166973   0.913   4.226  14.766  0.0043  0.0985 -0.1086
15186TIP3    H266974   0.908   4.260  14.619 -0.0337 -0.9971 -0.3635
15187TIP3   OH266975   3.638   2.105  13.545 -0.1799 -0.4086  0.3659
15187TIP3    H166976   3.648   2.010  13.541 -1.6063 -0.5367 -0.4277
15187TIP3    H266977   3.592   2.121  13.627  1.2386 -0.2756  1.1603
15188TIP3   OH266978   2.403   0.768   3.710  0.0835 -0.1580 -0.5534
15188TIP3    H166979   2.473   0.741   3.651  0.6602  0.7058 -0.2635
15188TIP3    H266980   2.396   0.696   3.772  1.8792  0.4919  0.4413
15189TIP3   OH266981   1.994   3.767   2.460  0.0820  0.0030  0.6429
15189TIP3    H166982   2.035   3.681   2.448 -0.4099  0.0762 -1.8027
15189TIP3    H266983   2.051   3.828   2.415  0.0912  0.9028  1.8373
15190TIP3   OH266984   1.813   4.499  16.122  0.6421 -0.2118 -0.0795
15190TIP3    H166985   1.781   4.421  16.078 -2.4478  0.7793  0.2763
15190TIP3    H266986   1.885   4.530  16.067 -0.6410 -1.1348 -2.3634
15191TIP3   OH266987   6.263   6.180  14.846 -0.1530 -0.4264 -0.3827
15191TIP3    H166988   6.318   6.114  14.889 -3.4040 -2.9109  0.2310
15191TIP3    H266989   6.302   6.264  14.870  2.2815 -2.0187  1.4843
15192TIP3   OH266990   6.441   1.572   4.065 -0.3696  0.0036  0.0666
15192TIP3    H166991   6.494   1.652   4.061 -0.0317 -0.1831  0.7023
15192TIP3    H266992   6.379   1.581   3.993  0.6646  0.1323 -0.8277
15193TIP3   OH266993   5.769   5.827   2.977 -0.0090 -0.6837 -0.7210
15193TIP3    H166994   5.845   5.800   2.927  0.8460  0.0020  0.1868
15193TIP3    H266995   5.772   5.923   2.976 -0.6089 -0.6536 -0.3048
15194TIP3   OH266996   2.131   2.857  13.637  0.0497 -0.0931 -0.4486
15194TIP3    H166997   2.159   2.774  13.598  0.3737  0.1032 -0.6352
15194TIP3    H266998   2.155   2.923  13.572  1.3358  0.3148  0.4464
15195TIP3   OH266999   4.857   6.350  13.487 -0.2337 -0.4292  0.1691
15195TIP3    H167000   4.802   6.410  13.538  0.2876 -0.7868  1.1661
15195TIP3    H267001   4.796   6.290  13.446 -0.5751 -1.0396  1.5556
15196TIP3   OH267002   2.513   5.362  16.831 -0.0814  0.4423 -0.4076
15196TIP3    H167003   2.489   5.400  16.915 -1.7729  2.6008 -1.7882
15196TIP3    H267004   2.440   5.385  16.773  0.7799 -1.4684 -2.3308
15197TIP3   OH267005   5.636   0.295   4.962  0.3628 -0.0462 -0.4055
15197TIP3    H167006   5.700   0.337   4.905  1.0096 -0.5208 -0.0340
15197TIP3    H267007   5.652   0.202   4.952  0.2174 -0.1464  0.2405
15198TIP3   OH267008   4.028   4.916  15.753  0.4756  0.1246  0.2604
15198TIP3    H167009   3.940   4.885  15.774  1.1799 -1.7309  0.6482
15198TIP3    H267010   4.037   4.902  15.659  0.9030 -1.2308  0.4870
15199TIP3   OH267011   5.969   0.563  15.269 -0.0344 -0.6346 -0.0920
15199TIP3    H167012   5.892   0.507  15.264  0.0317 -0.7413  0.0796
15199TIP3    H267013   6.000   0.571  15.179 -1.1499  0.6553 -0.3785
15200TIP3   OH267014   2.174   1.790   0.324  0.4444  0.2764 -0.0015
15200TIP3    H167015   2.180   1.878   0.287  1.3473 -0.2823 -1.2367
15200TIP3    H267016   2.233   1.791   0.399  3.0790 -0.1914 -1.9628
15201TIP3   OH267017   5.011   0.219  12.094 -0.2405 -0.2056  0.1550
15201TIP3    H167018   5.036   0.305  12.061 -1.4516  0.1008  0.0161
15201TIP3    H267019   5.083   0.162  12.069  1.2445  1.0370  1.4848
15202TIP3   OH267020   3.737   3.697  16.525 -0.0412  0.2736  0.1564
15202TIP3    H167021   3.712   3.710  16.433  0.2707 -3.0483 -0.4702
15202TIP3    H267022   3.660   3.659  16.566  0.6304 -0.5689  0.6569
15203TIP3   OH267023   6.091   2.688   1.213  0.3725 -0.3156  0.2438
15203TIP3    H167024   6.047   2.610   1.177  0.0281 -0.3101  0.6571
15203TIP3    H267025   6.171   2.695   1.161  0.4713 -1.0260  0.2891
15204TIP3   OH267026   4.897   1.753   4.669  0.4825  0.1947 -0.4168
15204TIP3    H167027   4.809   1.748   4.705  1.2809 -0.9821  1.4358
15204TIP3    H267028   4.944   1.812   4.728  1.3943 -0.5181 -0.4222
15205TIP3   OH267029   5.833   5.716  11.265 -0.1997 -0.1126 -0.0620
15205TIP3    H167030   5.855   5.803  11.296  0.3948  0.5193 -2.1752
15205TIP3    H267031   5.914   5.682  11.228 -1.3901  0.0602 -2.9251
15206TIP3   OH267032   0.247   2.983  13.394 -0.2689 -0.4888 -0.2890
15206TIP3    H167033   0.220   3.024  13.312 -1.9078 -0.9888 -0.0228
15206TIP3    H267034   0.338   2.956  13.379  0.6955  2.7776 -0.6266
15207TIP3   OH267035   1.924   1.848   0.500  0.3323 -0.1083 -0.3943
15207TIP3    H167036   1.939   1.939   0.474  1.0779  0.5479  2.1806
15207TIP3    H267037   1.829   1.841   0.509  0.4249  1.1483  1.8079
15208TIP3   OH267038   1.677   5.293  17.013  0.2447  0.0403 -0.0164
15208TIP3    H167039   1.754   5.244  16.984 -0.3401  0.3838 -2.1657
15208TIP3    H267040   1.687   5.379  16.975 -1.5120 -0.0893 -0.8389
15209TIP3   OH267041   0.015   6.335   0.393 -0.1311 -0.4338  0.0238
15209TIP3    H167042  -0.010   6.244   0.407  1.2569 -0.8532 -0.1572
15209TIP3    H267043   0.079   6.332   0.322 -2.2488  0.9864 -1.9973
15210TIP3   OH267044   0.353   2.985  11.922  0.8256 -0.1944 -0.0928
15210TIP3    H167045   0.365   2.990  11.827 -0.6469  1.0650 -0.2378
15210TIP3    H267046   0.340   2.892  11.940  0.4753 -0.3674 -1.2169
15211TIP3   OH267047   2.363   0.385  16.526  0.2050 -0.2603  0.1071
15211TIP3    H167048   2.452   0.360  16.499  0.8660  2.2652 -0.1643
15211TIP3    H267049   2.310   0.373  16.448  0.9324  1.1919 -0.6301
15212TIP3   OH267050   0.329   0.318  16.852 -0.3002  0.1549  0.5417
15212TIP3    H167051   0.343   0.411  16.832 -0.5102  0.4183  1.6069
15212TIP3    H267052   0.246   0.297  16.808 -0.0668  0.3690 -0.0093
15213TIP3   OH267053   1.126   6.021  14.094 -0.0702  0.5408 -0.6478
15213TIP3    H167054   1.212   6.024  14.052 -0.1366  1.4743 -0.7286
15213TIP3    H267055   1.119   6.105  14.141 -0.4126 -0.0583  0.3963
15214TIP3   OH267056   5.612   0.424  13.775 -0.2325  0.0008 -0.6571
15214TIP3    H167057   5.669   0.465  13.839 -1.3773  1.4840 -0.5757
15214TIP3    H267058   5.549   0.374  13.827 -1.4981  1.6414 -0.5700
15215TIP3   OH267059   3.882   2.894  10.656 -0.4270  0.2084  0.1763
15215TIP3    H167060   3.919   2.875  10.743  0.0050 -0.2851 -0.1110
15215TIP3    H267061   3.794   2.927  10.674 -0.5374 -0.4001  0.7773
15216TIP3   OH267062   1.021   4.317  12.720 -0.3178  0.0087  0.4576
15216TIP3    H167063   1.037   4.350  12.632  0.1629  1.4680  1.0690
15216TIP3    H267064   1.087   4.360  12.774 -1.8208  0.6142  1.8550
15217TIP3   OH267065   2.824   1.240   6.572  0.0481 -0.4342 -0.4966
15217TIP3    H167066   2.730   1.233   6.556 -0.1886 -0.4167  0.8092
15217TIP3    H267067   2.849   1.326   6.538 -0.2749 -0.7060 -1.4380
15218TIP3   OH267068   0.066   6.209   5.094 -0.3316 -1.0771 -0.0263
15218TIP3    H167069   0.105   6.152   5.028  1.5518  0.1549  0.0204
15218TIP3    H267070   0.077   6.161   5.176 -1.4967 -2.0105 -0.3995
15219TIP3   OH267071   0.661   0.582   0.447 -0.2384 -0.4073  0.5283
15219TIP3    H167072   0.665   0.674   0.422  2.1234 -0.1848  1.6249
15219TIP3    H267073   0.617   0.539   0.374  1.0206  1.1804 -1.2006
15220TIP3   OH267074   5.198   0.208  14.318 -0.2488  0.6136 -0.1750
15220TIP3    H167075   5.139   0.246  14.253 -1.2418 -0.1661  0.2364
15220TIP3    H267076   5.139   0.182  14.389  0.5316 -0.7400 -0.0221
15221TIP3   OH267077   3.848   1.578  11.083 -0.3241  0.5533  0.6698
15221TIP3    H167078   3.782   1.559  11.016 -1.0717 -0.1363  1.6034
15221TIP3    H267079   3.932   1.566  11.038 -0.8247  1.2700 -0.4738
15222TIP3   OH267080   5.887   0.274   1.332 -0.0767 -0.1401 -0.5930
15222TIP3    H167081   5.826   0.256   1.403 -0.1205  1.6579 -0.1512
15222TIP3    H267082   5.852   0.353   1.290 -0.5159 -1.6278 -3.1350
15223TIP3   OH267083   0.524   4.328   4.133 -0.2449  0.0725  0.1753
15223TIP3    H167084   0.601   4.272   4.145  0.3519  0.9606  0.5669
15223TIP3    H267085   0.554   4.415   4.159 -1.6658  0.2421  1.2914
15224TIP3   OH267086   1.711   1.908  14.492  0.9176  0.2225 -0.0318
15224TIP3    H167087   1.768   1.835  14.472 -0.3769 -0.8541  0.1342
15224TIP3    H267088   1.734   1.933  14.582 -0.6841 -1.9644  1.0476
15225TIP3   OH267089   1.924   6.200  15.338  0.0662 -0.4194  0.3185
15225TIP3    H167090   1.995   6.137  15.335  0.0366 -0.5115  1.3107
15225TIP3    H267091   1.964   6.280  15.371  0.4673  0.6067 -2.5346
15226TIP3   OH267092   0.262   5.178  15.116  0.0322 -0.0804  0.1265
15226TIP3    H167093   0.306   5.223  15.189 -0.3253 -0.8477  0.8222
15226TIP3    H267094   0.243   5.091  15.150 -0.6679 -0.2492 -0.6938
15227TIP3   OH267095   5.505   1.676  10.855 -0.3110  0.2403 -0.1954
15227TIP3    H167096   5.578   1.697  10.797 -0.1058  0.0332 -0.0160
15227TIP3    H267097   5.492   1.755  10.906  1.3188 -0.4630  1.3939
15228TIP3   OH267098   6.032   5.549  11.137 -0.5983 -1.0374  0.1731
15228TIP3    H167099   6.015   5.460  11.108 -1.7546 -0.1817 -1.8512
15228TIP3    H267100   6.121   5.568  11.106  0.3850 -2.0865  2.2168
15229TIP3   OH267101   0.945   0.391   4.954  0.0670 -0.2963 -0.1164
15229TIP3    H167102   0.916   0.369   4.865  1.5600 -1.8842 -0.2222
15229TIP3    H267103   0.867   0.379   5.008 -0.6255 -0.1741 -1.0718
15230TIP3   OH267104   5.819   1.884   0.108  0.0166 -1.0362  0.0997
15230TIP3    H167105   5.879   1.869   0.181 -2.0723 -1.1835  1.8575
15230TIP3    H267106   5.779   1.969   0.128  2.2121  0.8048 -2.9351
15231TIP3   OH267107   2.133   0.248  15.673 -0.3829  0.2034 -0.6263
15231TIP3    H167108   2.228   0.252  15.677 -0.2784 -0.9577 -1.5171
15231TIP3    H267109   2.104   0.291  15.753  0.9122  0.0356 -0.0469
15232TIP3   OH267110   2.312   6.087  12.251  0.4905  0.1866 -0.1703
15232TIP3    H167111   2.254   6.163  12.251  0.5259  0.2292  0.7906
15232TIP3    H267112   2.278   6.031  12.320  2.4494  0.9122  1.4562
15233TIP3   OH267113   4.330   0.005   2.233  0.3909 -0.0762  0.9177
15233TIP3    H167114   4.382  -0.071   2.208  0.7486  0.3916  0.2014
15233TIP3    H267115   4.394   0.074   2.252  0.0563  0.3438  0.5619
15234TIP3   OH267116   0.545   4.359  14.286 -0.2470  0.3985  0.5903
15234TIP3    H167117   0.556   4.441  14.335  0.6685  1.3536 -1.1548
15234TIP3    H267118   0.628   4.313  14.298  1.1586  2.0087 -2.4769
15235TIP3   OH267119   3.200   0.025  10.913  0.6403 -0.0580  0.3839
15235TIP3    H167120   3.264   0.018  10.984  0.0101 -1.2878  0.8609
15235TIP3    H267121   3.246   0.071  10.844  1.7741 -0.1885  1.0314
15236TIP3   OH267122   5.127   4.901  16.345 -0.2716  0.8675 -0.2786
15236TIP3    H167123   5.075   4.880  16.423  1.3144 -3.0018 -0.1691
15236TIP3    H267124   5.218   4.900  16.375  0.4322 -1.7785 -2.3338
15237TIP3   OH267125   3.645   6.358   2.237  0.5348  0.9007 -0.0275
15237TIP3    H167126   3.573   6.360   2.174 -0.1158  0.5161  0.6980
15237TIP3    H267127   3.721   6.333   2.185 -0.1811 -0.3837 -0.4989
15238TIP3   OH267128   5.938   6.730   3.446  0.3238 -0.4255 -0.4502
15238TIP3    H167129   5.887   6.652   3.468 -0.3728  0.4041  0.8983
15238TIP3    H267130   6.024   6.715   3.485  0.6153 -1.0851 -1.3141
15239TIP3   OH267131   2.949   6.078  12.803  0.2141 -0.0912  0.1306
15239TIP3    H167132   2.974   6.000  12.754 -0.2377  0.0682 -0.3616
15239TIP3    H267133   2.868   6.108  12.761  1.4530  1.7877 -0.9588
15240TIP3   OH267134   5.870   4.925   5.203  0.6868  0.6865 -0.2347
15240TIP3    H167135   5.809   4.997   5.187 -0.9094 -0.2429  1.4488
15240TIP3    H267136   5.903   4.902   5.117 -1.1701  1.3906 -1.1701
15241TIP3   OH267137   5.221   5.254  11.626  0.1385 -0.1654  0.0948
15241TIP3    H167138   5.128   5.253  11.650  0.4465  1.7908  1.5185
15241TIP3    H267139   5.265   5.286  11.704  2.2391 -2.7386  0.0347
15242TIP3   OH267140   0.907   1.231   4.608 -0.2011  0.8213  0.0295
15242TIP3    H167141   0.826   1.274   4.636 -1.5884 -1.8921  0.4355
15242TIP3    H267142   0.955   1.217   4.690 -0.9704 -0.6945  0.2479
15243TIP3   OH267143   4.825   6.466   3.052  0.2031  0.3166  0.7495
15243TIP3    H167144   4.854   6.539   2.997  0.1594 -0.6221 -0.5395
15243TIP3    H267145   4.795   6.399   2.990  1.6033 -1.3764  1.8268
15244TIP3   OH267146   3.886   1.526   0.672 -0.2071  0.1400 -0.3107
15244TIP3    H167147   3.812   1.471   0.700  0.1616  0.2803  0.9652
15244TIP3    H267148   3.928   1.476   0.603 -1.1057 -0.2485 -0.5893
15245TIP3   OH267149   2.180   6.136   6.360 -0.1083  0.1110 -0.0512
15245TIP3    H167150   2.268   6.133   6.398 -0.0173  2.1721 -0.0443
15245TIP3    H267151   2.121   6.128   6.435  0.0682  0.7717  0.1570
15246TIP3   OH267152   3.084   3.983  15.237 -0.0149 -0.0986 -0.2010
15246TIP3    H167153   3.086   3.898  15.282  0.5607  0.2716  0.4788
15246TIP3    H267154   2.997   3.988  15.200 -0.2696 -0.7151  0.3001
15247TIP3   OH267155   2.717   5.059  15.567 -0.3176  0.2245  0.0664
15247TIP3    H167156   2.745   5.112  15.492 -2.4997  0.8369 -0.3521
15247TIP3    H267157   2.749   5.107  15.643  1.1023  0.0882 -0.4309
15248TIP3   OH267158   3.885   4.999  17.109 -0.5521 -0.5672 -0.3575
15248TIP3    H167159   3.886   5.091  17.082  1.2148 -0.3248  0.3839
15248TIP3    H267160   3.912   4.950  17.031 -1.7843 -0.4803 -0.8360
15249TIP3   OH267161   3.514   0.675   4.628  0.3387  0.3700 -0.1013
15249TIP3    H167162   3.520   0.655   4.535 -0.3180  0.5358 -0.1841
15249TIP3    H267163   3.592   0.727   4.647  0.9392 -0.4450 -0.3579
15250TIP3   OH267164   1.428   0.882  11.968 -0.2038  0.5559  0.1475
15250TIP3    H167165   1.337   0.901  11.989 -0.1368 -0.5342  1.4811
15250TIP3    H267166   1.455   0.816  12.032  1.9307  1.8134  0.6147
15251TIP3   OH267167   6.474   1.014   0.917 -0.1497 -0.8037  0.1264
15251TIP3    H167168   6.483   0.931   0.871  2.4778 -0.4922 -0.0042
15251TIP3    H267169   6.550   1.018   0.975 -0.4427  1.3393  0.4225
15252TIP3   OH267170   6.389   5.074  16.754 -0.1662  0.4393  0.1381
15252TIP3    H167171   6.357   5.154  16.796  1.6169  0.8689  0.7103
15252TIP3    H267172   6.484   5.077  16.765 -0.0875 -1.9280  0.4558
15253TIP3   OH267173   1.901   1.404  17.110 -0.3668 -0.3091  0.1713
15253TIP3    H167174   1.860   1.343  17.171  2.5395 -2.1741  0.3597
15253TIP3    H267175   1.974   1.442  17.160  0.2453  0.3559 -1.1993
15254TIP3   OH267176   5.964   4.803  13.929  0.3163 -0.4721  0.4440
15254TIP3    H167177   6.022   4.727  13.921  0.9623 -0.0069  0.6897
15254TIP3    H267178   5.885   4.777  13.883  1.2701 -0.5491 -1.1977
15255TIP3   OH267179   0.223   4.692   4.488 -0.0657  0.0089 -0.9606
15255TIP3    H167180   0.268   4.705   4.405  0.4260  0.2364 -0.6596
15255TIP3    H267181   0.226   4.777   4.531 -0.4951 -0.0578 -0.7952
15256TIP3   OH267182   2.480   0.080  15.728  0.2545 -0.0685  0.2986
15256TIP3    H167183   2.430   0.159  15.750 -0.3969 -0.5732  0.6534
15256TIP3    H267184   2.502   0.041  15.812 -0.0757 -0.6662  0.1123
15257TIP3   OH267185   1.407   2.549   2.605  0.1995  0.2534 -0.1892
15257TIP3    H167186   1.454   2.488   2.548  1.7263  0.2619  1.0255
15257TIP3    H267187   1.399   2.502   2.688  0.6007  1.3613  0.4841
15258TIP3   OH267188   0.517   5.353  12.314  0.6362 -0.7409 -0.4302
15258TIP3    H167189   0.493   5.267  12.348  1.6760 -1.4964 -1.5503
15258TIP3    H267190   0.466   5.362  12.233 -1.0535  0.6086  0.7349
15259TIP3   OH267191   4.380   5.072  12.697 -0.5203 -0.4430  0.5731
15259TIP3    H167192   4.458   5.017  12.703 -0.0635  0.1608  0.2592
15259TIP3    H267193   4.315   5.016  12.656  0.3396 -0.3438 -0.9614
15260TIP3   OH267194   6.687   1.386   1.633 -0.1635 -0.6373 -0.1068
15260TIP3    H167195   6.639   1.421   1.558 -1.7345 -2.2072  0.1592
15260TIP3    H267196   6.777   1.376   1.601 -0.4755  0.2093 -1.2728
15261TIP3   OH267197   5.504   1.055  13.415 -0.1914  0.3768 -0.5746
15261TIP3    H167198   5.478   0.979  13.364 -0.6939 -0.2491  0.5939
15261TIP3    H267199   5.448   1.052  13.492  0.7355  1.1599  0.1391
15262TIP3   OH267200   1.792   4.535   5.165 -0.0182 -0.7209  0.2711
15262TIP3    H167201   1.778   4.603   5.232  1.3731 -0.6834  0.5372
15262TIP3    H267202   1.805   4.584   5.084 -4.0568 -0.8169 -0.5300
15263TIP3   OH267203   2.922   5.992   2.675  0.5336  0.3047  0.3092
15263TIP3    H167204   2.896   5.922   2.736 -3.9110  1.8031  0.3284
15263TIP3    H267205   2.933   6.069   2.730  0.5691  0.7446 -0.3083
15264TIP3   OH267206   2.977   4.481  14.514  0.2488 -1.0240  0.1955
15264TIP3    H167207   2.918   4.534  14.568  0.9653  0.3230 -0.3316
15264TIP3    H267208   2.949   4.498  14.424 -0.8060 -3.1048  0.0931
15265TIP3   OH267209   6.402   4.756   3.572  0.0277 -0.4317  0.0429
15265TIP3    H167210   6.317   4.797   3.586  0.6359  0.3255  1.6416
15265TIP3    H267211   6.405   4.739   3.477 -1.1244  1.2368 -0.3201
15266TIP3   OH267212   5.832   3.830   0.039  0.4795 -0.4097  0.0214
15266TIP3    H167213   5.904   3.893   0.039  1.2344 -1.2562 -1.1985
15266TIP3    H267214   5.771   3.864   0.105  2.0685  0.2226  1.2034
15267TIP3   OH267215   4.294   6.180   5.451 -0.4337 -0.1486 -0.4259
15267TIP3    H167216   4.294   6.168   5.546 -0.1078 -0.1856 -0.4312
15267TIP3    H267217   4.248   6.264   5.437 -1.1643 -0.5199 -0.2862
15268TIP3   OH267218   6.551   1.408   5.841  0.0598  0.3796  0.5711
15268TIP3    H167219   6.510   1.477   5.892 -0.6428  1.8044 -1.8872
15268TIP3    H267220   6.618   1.453   5.789  0.2133 -0.9323 -0.3824
15269TIP3   OH267221   5.576   5.852   5.848  0.0213 -0.1001 -0.2443
15269TIP3    H167222   5.569   5.776   5.790 -1.4876  0.4468 -0.7859
15269TIP3    H267223   5.507   5.911   5.819 -2.0717 -0.6448  3.3665
15270TIP3   OH267224   5.373   2.074  11.742  0.0837  0.5429  0.4819
15270TIP3    H167225   5.428   2.091  11.819 -0.9610  1.1896  1.0975
15270TIP3    H267226   5.296   2.129  11.755 -1.0408 -0.8835 -0.0157
15271TIP3   OH267227   5.455   5.143  17.174 -0.2584 -0.4673 -0.2117
15271TIP3    H167228   5.527   5.173  17.229  0.0064  0.7746 -1.2024
15271TIP3    H267229   5.482   5.057  17.143 -0.3047 -1.0818  1.3826
15272TIP3   OH267230   4.563   4.574  14.648 -0.1175 -0.7411 -0.4124
15272TIP3    H167231   4.576   4.501  14.587  0.4563 -0.3844 -0.7144
15272TIP3    H267232   4.600   4.650  14.604 -0.8358 -0.2325 -0.1473
15273TIP3   OH267233   4.851   2.996   4.022  0.2553  0.8592  0.6131
15273TIP3    H167234   4.834   3.073   3.968 -0.5435 -0.6086 -1.2574
15273TIP3    H267235   4.861   2.924   3.960 -1.2141 -0.9612  2.4121
15274TIP3   OH267236   1.133   4.586  16.812  0.3902  0.4738 -0.1511
15274TIP3    H167237   1.061   4.602  16.873 -1.3089 -0.2919 -1.9075
15274TIP3    H267238   1.106   4.629  16.731  1.5084 -0.5619 -1.0931
15275TIP3   OH267239   2.991   5.552  11.699 -0.5602 -0.0443  0.0560
15275TIP3    H167240   3.038   5.549  11.615  0.0954 -3.0085  0.4710
15275TIP3    H267241   2.992   5.462  11.730 -3.4293  0.4675  1.8425
15276TIP3   OH267242   3.305   2.839  13.220  0.2337  0.2096  0.3418
15276TIP3    H167243   3.253   2.855  13.141  1.1480 -1.3333 -0.5986
15276TIP3    H267244   3.323   2.745  13.218 -1.1502 -0.1904  3.2935
15277TIP3   OH267245   1.319   4.084  12.539  0.7175  0.3253  0.0098
15277TIP3    H167246   1.374   4.152  12.499  2.2714 -0.7213  0.3480
15277TIP3    H267247   1.334   4.093  12.633 -2.2318  2.1738  0.3856
15278TIP3   OH267248   0.761   0.970   1.074 -0.5461  0.0110  0.2803
15278TIP3    H167249   0.738   1.025   1.000 -2.7096 -1.3188 -0.0732
15278TIP3    H267250   0.793   0.889   1.034 -0.6932 -0.3010  0.7964
15279TIP3   OH267251   1.098   3.637   4.280  0.5089  0.3344 -0.0667
15279TIP3    H167252   1.009   3.651   4.314  0.3899  2.7402 -1.2801
15279TIP3    H267253   1.085   3.590   4.198  0.4908 -1.0165  0.6984
15280TIP3   OH267254   5.067   6.594   5.582 -0.2107  0.0141  0.4178
15280TIP3    H167255   5.006   6.665   5.563  0.2849  0.3319  0.0018
15280TIP3    H267256   5.011   6.519   5.599 -0.7382  0.4873  0.7899
15281TIP3   OH267257   4.571   3.396  11.703 -0.6414  0.1104  0.3453
15281TIP3    H167258   4.640   3.462  11.701 -1.3547  0.9713  2.3823
15281TIP3    H267259   4.599   3.329  11.642  2.1965  0.2424  1.4512
15282TIP3   OH267260   5.124   1.133   0.034 -0.2557  0.3022 -0.0161
15282TIP3    H167261   5.067   1.153  -0.041  0.8910 -1.1198 -1.2967
15282TIP3    H267262   5.212   1.136  -0.002  0.3813  0.6227  1.5406
15283TIP3   OH267263   3.605   0.623   4.023 -1.0235  0.9187 -0.0733
15283TIP3    H167264   3.624   0.671   4.104 -0.7943 -0.5514  0.7446
15283TIP3    H267265   3.511   0.609   4.025 -0.7754 -0.6917  0.8261
15284TIP3   OH267266   5.378   4.475   0.006  0.3685  0.9507 -0.4366
15284TIP3    H167267   5.459   4.514   0.039  0.4941 -0.2420  0.6993
15284TIP3    H267268   5.310   4.516   0.059  0.3018  1.2358 -0.7378
15285TIP3   OH267269   3.279   1.516  14.551 -0.1477  0.4662 -0.3617
15285TIP3    H167270   3.250   1.466  14.476  0.0306  0.5417 -0.4828
15285TIP3    H267271   3.325   1.452  14.606 -1.1262  0.2055  0.1552
15286TIP3   OH267272   1.613   5.281  16.150 -0.2158 -0.4541 -0.5037
15286TIP3    H167273   1.707   5.297  16.158 -0.1730 -0.9371 -0.0525
15286TIP3    H267274   1.574   5.336  16.218 -0.1498 -1.3718  0.2918
15287TIP3   OH267275   3.404   5.603  15.071 -0.1608 -0.6885  0.3946
15287TIP3    H167276   3.346   5.632  15.142  1.0882  0.2085  1.0751
15287TIP3    H267277   3.378   5.656  14.996 -1.5621 -1.7146  0.1351
15288TIP3   OH267278   5.714   2.955  14.936  0.0541  0.1959 -0.4515
15288TIP3    H167279   5.790   2.904  14.966 -0.1036 -0.3535 -0.9549
15288TIP3    H267280   5.727   2.964  14.841 -0.6732 -0.1938 -0.5970
15289TIP3   OH267281   4.590   2.055   6.208 -0.3442 -0.1511 -0.1660
15289TIP3    H167282   4.579   2.069   6.302  2.2706 -0.1071  0.1830
15289TIP3    H267283   4.607   1.961   6.200  0.6476  0.0469 -0.4487
15290TIP3   OH267284   4.014   2.463   2.624  0.9869 -0.0796  0.2435
15290TIP3    H167285   4.057   2.380   2.644  2.0757  0.1272 -1.1752
15290TIP3    H267286   4.062   2.497   2.548 -2.1605 -0.2424 -1.9104
15291TIP3   OH267287   0.372   1.865  14.224 -0.1245  0.2593 -0.0591
15291TIP3    H167288   0.441   1.932  14.222 -0.8044  0.9535 -0.5121
15291TIP3    H267289   0.407   1.797  14.281  1.0630  0.4750 -0.5069
15292TIP3   OH267290   5.752   5.112  12.721  0.1171 -0.2811  0.3151
15292TIP3    H167291   5.701   5.175  12.670 -0.3738 -1.0549 -0.1516
15292TIP3    H267292   5.831   5.097  12.670  0.5055  0.3858  0.7050
15293TIP3   OH267293   4.934   3.692  12.469 -0.0476  0.5888  0.5549
15293TIP3    H167294   4.895   3.685  12.557 -0.5549  2.6745  0.5138
15293TIP3    H267295   5.022   3.725  12.485 -0.0268  0.6465  0.3096
15294TIP3   OH267296   0.073   5.901   6.082  0.4350  0.3440  0.0465
15294TIP3    H167297   0.018   5.977   6.103  0.9815  1.3202 -1.8494
15294TIP3    H267298   0.140   5.901   6.150 -0.0374  1.0854  0.5253
15295TIP3   OH267299   3.189   5.884   2.644 -0.2194 -0.2883 -0.0231
15295TIP3    H167300   3.224   5.822   2.580  0.2575 -0.5685  0.5174
15295TIP3    H267301   3.103   5.907   2.609  0.0137 -0.4874 -0.7406
15296TIP3   OH267302   3.906   1.642   5.086 -0.5382  0.0397  0.1870
15296TIP3    H167303   3.950   1.715   5.129 -0.1824 -1.9177  3.2863
15296TIP3    H267304   3.977   1.586   5.053 -0.7450 -0.7047  0.9828
15297TIP3   OH267305   5.851   0.758   5.538 -0.1320  0.1156 -0.1464
15297TIP3    H167306   5.764   0.795   5.553  0.0497  0.8446 -0.7878
15297TIP3    H267307   5.843   0.666   5.559 -1.3266 -0.0274 -1.1798
15298TIP3   OH267308   4.033   0.108  15.393 -0.0656 -0.0364 -0.3812
15298TIP3    H167309   4.031   0.038  15.458  1.2660  1.5931  1.4450
15298TIP3    H267310   3.952   0.156  15.406  0.9310  1.2522  1.1783
15299TIP3   OH267311   2.158   5.431   5.290  0.2454  0.4303  0.1276
15299TIP3    H167312   2.119   5.471   5.212  0.2473 -0.3755 -0.2964
15299TIP3    H267313   2.195   5.349   5.258 -1.4749 -0.8597  1.3486
15300TIP3   OH267314   3.703   3.310  14.813  0.2588 -0.0019  0.0816
15300TIP3    H167315   3.703   3.376  14.881  0.3542  1.5244 -1.3637
15300TIP3    H267316   3.637   3.246  14.841 -1.5239  1.9225  0.3346
15301TIP3   OH267317   3.905   5.699   3.229  0.0900  0.7293  0.3429
15301TIP3    H167318   3.993   5.735   3.220  1.5584 -2.7740 -0.1642
15301TIP3    H267319   3.903   5.661   3.316 -0.7801  0.3987  0.1901
15302TIP3   OH267320   2.686   6.240  15.998  0.7108  0.0090  0.0271
15302TIP3    H167321   2.724   6.165  16.043 -0.5375 -0.3137  0.5725
15302TIP3    H267322   2.666   6.208  15.910 -1.8843 -1.0081  0.9233
15303TIP3   OH267323   0.422   1.472   3.548  0.5161 -0.0866 -0.1599
15303TIP3    H167324   0.444   1.477   3.454  2.2161 -0.0683  0.2271
15303TIP3    H267325   0.506   1.477   3.592 -0.1629 -1.6358  1.3354
15304TIP3   OH267326   6.243   4.578   6.461 -0.4017 -0.3148 -0.1753
15304TIP3    H167327   6.156   4.549   6.489 -0.7204 -1.1756 -1.9644
15304TIP3    H267328   6.230   4.668   6.433 -0.6285 -0.2951 -0.0075
15305TIP3   OH267329   1.487   4.568  16.468 -0.2260 -0.0557  0.1130
15305TIP3    H167330   1.569   4.594  16.511 -0.2001  2.4059 -1.2830
15305TIP3    H267331   1.419   4.617  16.515 -0.4995  0.4644 -0.8042
15306TIP3   OH267332   5.488   2.067   6.056  0.0968  0.3954 -0.1929
15306TIP3    H167333   5.439   1.989   6.082  0.4594  0.2294 -0.0071
15306TIP3    H267334   5.578   2.036   6.044  0.2603  0.8044 -0.0263
15307TIP3   OH267335   4.262   5.861   4.141 -0.4721  0.0018 -0.1458
15307TIP3    H167336   4.190   5.817   4.094 -0.2671 -0.1737 -0.3009
15307TIP3    H267337   4.340   5.835   4.092 -0.2525 -0.2029  0.3123
15308TIP3   OH267338   6.324   1.549  13.392 -0.1351  0.4364  0.3403
15308TIP3    H167339   6.372   1.521  13.470  0.2559 -0.5015 -0.2342
15308TIP3    H267340   6.286   1.469  13.357  0.3138  0.7431 -0.8526
15309TIP3   OH267341   4.870   0.451   2.186  1.3574 -0.1374  0.2269
15309TIP3    H167342   4.871   0.427   2.278  2.7689 -0.4979  0.1319
15309TIP3    H267343   4.796   0.404   2.148  0.1058  0.8594  1.3855
15310TIP3   OH267344   3.264   5.618  16.243  0.2155 -0.2379 -0.4917
15310TIP3    H167345   3.183   5.666  16.224  1.5331  1.7942 -1.0070
15310TIP3    H267346   3.283   5.639  16.335 -1.3111 -2.9794  0.5481
15311TIP3   OH267347   5.571   6.181  14.557 -0.9135 -0.6172  0.5761
15311TIP3    H167348   5.665   6.167  14.555 -0.8906 -1.0371  3.0625
15311TIP3    H267349   5.561   6.266  14.601 -1.6036  0.6901 -2.0327
15312TIP3   OH267350   1.249   0.925   3.660  0.5346  0.2667  0.3589
15312TIP3    H167351   1.287   1.012   3.645 -0.7272  1.0502  1.6247
15312TIP3    H267352   1.160   0.932   3.627  0.5878 -0.7157  0.0076
15313TIP3   OH267353   2.335   6.451  14.039 -0.3838  0.3941  0.0323
15313TIP3    H167354   2.348   6.465  14.133 -0.7274 -1.0602  0.3021
15313TIP3    H267355   2.244   6.420  14.032  0.2343 -1.3091 -0.5809
15314TIP3   OH267356   3.089   1.964   0.431 -0.3626 -0.1805 -0.2518
15314TIP3    H167357   3.163   1.931   0.380 -0.2015 -0.3597  0.0948
15314TIP3    H267358   3.057   2.039   0.381  0.8499  0.6788  0.2597
15315TIP3   OH267359   5.664   1.705  16.659  0.1336 -0.0023  0.2077
15315TIP3    H167360   5.737   1.765  16.645 -2.3576  3.0986 -0.0396
15315TIP3    H267361   5.601   1.728  16.591 -1.6024 -1.8070  1.1470
15316TIP3   OH267362   5.591   2.066   4.970  1.0766 -0.1578  0.0016
15316TIP3    H167363   5.536   2.144   4.980  3.4183  1.7022 -1.0253
15316TIP3    H267364   5.598   2.031   5.059  1.1956  1.6645  0.7390
15317TIP3   OH267365   2.921   3.513  14.179  0.1811 -0.2389  0.0663
15317TIP3    H167366   2.831   3.486  14.200  0.2730  1.1746  2.5695
15317TIP3    H267367   2.931   3.496  14.086 -2.2527 -1.6649  0.0421
15318TIP3   OH267368   4.089   4.241  14.791 -0.1472 -0.0012 -0.4125
15318TIP3    H167369   4.078   4.159  14.839 -2.9397  1.7169  2.0354
15318TIP3    H267370   4.154   4.290  14.843 -0.1764  0.2417 -0.6045
15319TIP3   OH267371   0.063   2.281   4.260  0.2377  0.1298  0.5145
15319TIP3    H167372   0.049   2.256   4.168  0.9641 -0.5241  0.5801
15319TIP3    H267373   0.068   2.198   4.307 -2.4041  0.4719  1.5063
15320TIP3   OH267374   2.093   5.062  12.860 -0.1990 -0.4219 -0.3725
15320TIP3    H167375   2.185   5.038  12.870 -0.7517 -2.0800  0.8287
15320TIP3    H267376   2.088   5.101  12.772  1.9299  1.1071  0.1534
15321TIP3   OH267377   4.823   6.749   0.348 -0.1439  0.5807  0.3752
15321TIP3    H167378   4.760   6.708   0.289  0.4547 -0.2190  0.2802
15321TIP3    H267379   4.891   6.683   0.360 -0.9801  0.1492  3.1544
15322TIP3   OH267380   2.778   5.158  10.558  0.1440  0.4156  0.2597
15322TIP3    H167381   2.872   5.148  10.573  0.0486 -0.6304  0.2004
15322TIP3    H267382   2.745   5.194  10.640  0.5539  0.4695  0.4027
15323TIP3   OH267383   6.275   3.947   3.679  0.3422  0.1067  0.0586
15323TIP3    H167384   6.304   4.037   3.692  0.9340  0.1632 -1.5578
15323TIP3    H267385   6.182   3.954   3.660 -0.1424  0.1649  2.2748
15324TIP3   OH267386   4.803   4.736   3.135 -0.3229 -0.0762  0.1406
15324TIP3    H167387   4.856   4.814   3.150 -0.0634 -0.1820 -0.2298
15324TIP3    H267388   4.852   4.685   3.071 -0.0741 -0.9438  1.0107
15325TIP3   OH267389   4.313   1.502   3.091  0.1231  0.8004  0.1999
15325TIP3    H167390   4.370   1.509   3.014  1.1784  0.8723  0.9817
15325TIP3    H267391   4.369   1.526   3.165 -1.6199  3.3957  0.7217
15326TIP3   OH267392   4.422   3.911   4.414 -0.1202 -0.3818  0.0840
15326TIP3    H167393   4.419   3.967   4.336 -0.8041  0.9269  1.0135
15326TIP3    H267394   4.331   3.886   4.429 -0.0244 -0.4180  0.6045
15327TIP3   OH267395   0.274   5.641  16.703 -0.6192 -0.4776  0.1293
15327TIP3    H167396   0.215   5.601  16.638 -1.0591  0.5346 -0.1182
15327TIP3    H267397   0.355   5.655  16.655 -1.2424  1.1281 -0.5069
15328TIP3   OH267398   2.528   6.689  12.909  0.0461  0.1558 -0.0369
15328TIP3    H167399   2.483   6.734  12.837 -0.2412  0.2335  0.1858
15328TIP3    H267400   2.521   6.596  12.888 -1.9305  0.0362  0.9512
15329TIP3   OH267401   1.870   3.082   0.551  0.2733  0.2355 -0.0148
15329TIP3    H167402   1.800   3.018   0.564 -0.7489  0.9526 -1.8148
15329TIP3    H267403   1.825   3.166   0.542  1.1223  0.3872 -3.7204
15330TIP3   OH267404   0.199   3.034  11.012  0.0787 -0.0092  0.1865
15330TIP3    H167405   0.136   3.099  11.045  0.1890  1.4371 -2.3182
15330TIP3    H267406   0.171   2.952  11.051 -2.5299  0.8535  0.2565
15331TIP3   OH267407   2.821   6.314  16.362 -0.1810 -0.5607  0.4537
15331TIP3    H167408   2.886   6.298  16.293 -1.2174  0.2932 -0.7379
15331TIP3    H267409   2.850   6.259  16.435  1.5137 -0.6960 -0.2866
15332TIP3   OH267410   2.529   3.490  16.950  0.2555 -0.1110  0.7364
15332TIP3    H167411   2.471   3.415  16.962 -0.8616  0.3894 -1.4723
15332TIP3    H267412   2.477   3.565  16.977 -0.2179  0.3570 -1.4154
15333TIP3   OH267413   1.849   2.514   3.010  0.0983  0.5198  0.1466
15333TIP3    H167414   1.897   2.555   2.938 -0.5237 -1.3538 -1.3722
15333TIP3    H267415   1.910   2.516   3.084  1.8680 -0.2044 -1.2603
15334TIP3   OH267416   4.581   2.805   1.080  0.2698  0.2802  0.6334
15334TIP3    H167417   4.594   2.864   1.006 -1.0713 -0.6768 -0.3844
15334TIP3    H267418   4.622   2.723   1.053 -3.0899 -1.1243 -0.4757
15335TIP3   OH267419   1.689   4.037  12.746  0.5291  0.5633 -0.0321
15335TIP3    H167420   1.726   4.078  12.668  1.9789 -0.5968  0.0332
15335TIP3    H267421   1.663   3.949  12.717 -0.7654  0.8087  0.3154
15336TIP3   OH267422   3.614   2.165  14.833  0.3456 -0.0600 -0.1942
15336TIP3    H167423   3.522   2.142  14.815 -0.3797  3.4544 -1.3574
15336TIP3    H267424   3.658   2.153  14.749  0.3691  0.8217 -0.3105
15337TIP3   OH267425   6.219   0.603  12.451  0.8095  0.5540  0.3384
15337TIP3    H167426   6.311   0.578  12.441  0.6008  0.4951 -1.7429
15337TIP3    H267427   6.179   0.529  12.497  0.7663 -1.9066 -3.3336
15338TIP3   OH267428   1.979   1.584   0.281 -0.1349  0.0881 -0.1669
15338TIP3    H167429   1.933   1.621   0.207  1.6574  0.5055 -1.1039
15338TIP3    H267430   2.046   1.649   0.303  2.6355 -2.2328 -1.4198
15339TIP3   OH267431   4.820   3.935  15.277  0.6526 -0.2660 -0.0901
15339TIP3    H167432   4.788   3.846  15.291 -0.3852  0.1600  0.2911
15339TIP3    H267433   4.804   3.980  15.360  1.3226  0.2374 -0.2247
15340TIP3   OH267434   3.474   2.105  13.756  0.1257  0.0900 -0.3155
15340TIP3    H167435   3.388   2.076  13.725  0.2580 -1.2641  0.5488
15340TIP3    H267436   3.454   2.176  13.817 -0.2763  0.9158 -1.3831
15341TIP3   OH267437   5.663   0.216   3.715  0.7951  0.4353 -0.5440
15341TIP3    H167438   5.601   0.241   3.784  1.5734  1.4830 -0.2028
15341TIP3    H267439   5.747   0.253   3.744  1.8448 -1.9207 -0.4321
15342TIP3   OH267440   6.427   6.503   3.394  0.3338 -0.3032 -0.1963
15342TIP3    H167441   6.490   6.431   3.384 -0.0307 -0.3949 -1.9796
15342TIP3    H267442   6.378   6.503   3.312  0.6258  2.2882 -0.3856
15343TIP3   OH267443   4.870   6.059   6.353 -0.2206  0.1380  0.3011
15343TIP3    H167444   4.923   6.080   6.429  0.0124  0.8539 -0.0489
15343TIP3    H267445   4.791   6.020   6.389  0.5980 -1.0617  0.8166
15344TIP3   OH267446   5.180   5.309  16.725  0.5123 -0.2987  0.7801
15344TIP3    H167447   5.145   5.368  16.792  1.0615  2.5006 -1.2954
15344TIP3    H267448   5.256   5.269  16.766  3.1337  4.2490  0.6779
15345TIP3   OH267449   3.240   4.414  14.513 -0.4957  0.1417  0.2236
15345TIP3    H167450   3.145   4.425  14.522 -0.5697 -1.2697  1.4652
15345TIP3    H267451   3.272   4.416  14.604  0.5590 -0.1768 -0.1370
15346TIP3   OH267452   5.815   5.086  17.137 -0.1930 -0.5824 -0.1276
15346TIP3    H167453   5.766   5.141  17.076  1.3774  1.3051  0.2614
15346TIP3    H267454   5.875   5.037  17.081 -0.5132 -0.7310 -0.3401
15347TIP3   OH267455   0.640   3.668  13.299 -0.2240  0.8090 -0.5798
15347TIP3    H167456   0.556   3.706  13.275 -0.2046 -0.0295 -2.0010
15347TIP3    H267457   0.633   3.575  13.277  0.3057  0.2820  1.3541
15348TIP3   OH267458   2.594   3.551  11.445 -0.4586  0.9874 -0.2729
15348TIP3    H167459   2.534   3.495  11.396 -1.5289  2.4775 -0.7145
15348TIP3    H267460   2.539   3.594  11.510  0.9171 -0.8465  2.1953
15349TIP3   OH267461   5.823   4.111   2.918 -0.3789 -0.5836 -0.5138
15349TIP3    H167462   5.875   4.169   2.973 -0.8266 -0.2072 -0.4822
15349TIP3    H267463   5.821   4.155   2.833  2.6080 -2.4879 -1.6368
15350TIP3   OH267464   2.805   2.295  16.498  0.3076 -0.7486  0.6652
15350TIP3    H167465   2.766   2.245  16.569 -0.7377 -0.9937 -0.0613
15350TIP3    H267466   2.766   2.382  16.507 -2.4892 -1.6671 -1.5989
15351TIP3   OH267467   5.272   4.277   0.225 -0.0787  0.1936  0.5045
15351TIP3    H167468   5.187   4.309   0.195  0.2548 -0.0449 -0.7396
15351TIP3    H267469   5.321   4.260   0.144  0.5001 -1.4290  1.1909
15352TIP3   OH267470   0.314   2.524  15.870  0.1612 -0.2882 -0.4944
15352TIP3    H167471   0.350   2.436  15.859  2.3662  0.6468 -1.1362
15352TIP3    H267472   0.378   2.569  15.926 -1.2895  0.7002  0.4080
15353TIP3   OH267473   5.280   4.179   1.444 -0.0115  0.4256 -0.2757
15353TIP3    H167474   5.296   4.139   1.530 -0.4819 -0.0194 -0.3926
15353TIP3    H267475   5.268   4.272   1.462  1.3267  0.5609 -0.0210
15354TIP3   OH267476   4.215   0.017  15.849  0.2222  0.0035  0.2152
15354TIP3    H167477   4.136  -0.001  15.799 -0.2848 -0.9491  1.3405
15354TIP3    H267478   4.226   0.112  15.844 -2.5353  0.5213  2.3025
15355TIP3   OH267479   0.654   5.086  13.274  0.8624 -0.3328  0.1998
15355TIP3    H167480   0.725   5.114  13.331  1.0785 -0.9370  0.2340
15355TIP3    H267481   0.648   4.991  13.287  1.6588 -0.6662 -1.5896
15356TIP3   OH267482   2.036   1.886  13.457 -0.2755  0.4565 -0.5299
15356TIP3    H167483   1.955   1.835  13.453  0.7233 -1.1691 -0.1560
15356TIP3    H267484   2.058   1.902  13.365  1.4223 -3.0440 -0.7778
15357TIP3   OH267485   3.838   6.105   4.188 -0.1312  0.5658  0.5452
15357TIP3    H167486   3.883   6.177   4.233 -0.2080  0.6148  0.5450
15357TIP3    H267487   3.747   6.134   4.182  0.3244  1.5992 -1.7482
15358TIP3   OH267488   5.239   2.268  16.296  0.0608 -0.9251  0.7475
15358TIP3    H167489   5.148   2.270  16.268  0.0091  0.5859  0.9569
15358TIP3    H267490   5.273   2.186  16.262 -0.3320  0.2591 -2.7064
15359TIP3   OH267491   5.636   4.465   3.336  0.1722 -0.5921  0.4727
15359TIP3    H167492   5.630   4.473   3.241 -0.7828 -0.7380  0.5164
15359TIP3    H267493   5.624   4.555   3.368 -2.3083 -0.9241  0.5748
15360TIP3   OH267494   2.668   3.864   3.883 -0.8074 -0.1834  0.1057
15360TIP3    H167495   2.578   3.859   3.916 -0.3630 -1.4657  1.1326
15360TIP3    H267496   2.689   3.775   3.855  0.4711 -0.0911  0.7411
15361TIP3   OH267497   1.285   6.726  10.910 -0.1547 -0.4095  0.3524
15361TIP3    H167498   1.264   6.790  10.841 -1.4412 -0.5491  0.6069
15361TIP3    H267499   1.376   6.745  10.932 -0.9617  2.4400  1.5551
15362TIP3   OH267500   3.793   1.855  14.041 -0.4988 -0.3231 -0.2434
15362TIP3    H167501   3.879   1.870  14.079  0.5906 -0.2491 -2.6741
15362TIP3    H267502   3.733   1.862  14.115  1.6688 -1.5411  1.6891
15363TIP3   OH267503   2.699   3.405   5.517  0.3839  0.1340 -0.9330
15363TIP3    H167504   2.739   3.362   5.593  3.2976  0.4876 -2.1762
15363TIP3    H267505   2.699   3.339   5.448 -0.9400  0.2406 -1.0502
15364TIP3   OH267506   6.612   2.200  13.554  0.1162  0.3286 -0.1095
15364TIP3    H167507   6.698   2.225  13.590 -0.0302  1.2806 -0.3938
15364TIP3    H267508   6.622   2.213  13.459 -0.2359  0.0955 -0.1775
15365TIP3   OH267509   1.180   5.058  13.776 -0.8717  0.0368 -0.0969
15365TIP3    H167510   1.147   4.969  13.786  0.3383 -0.3110  1.0070
15365TIP3    H267511   1.209   5.062  13.685 -0.0733 -1.0166  0.0934
15366TIP3   OH267512   0.110   2.586   1.522  0.1373 -0.2767 -0.3065
15366TIP3    H167513   0.125   2.602   1.615  2.1369  0.2764 -0.7058
15366TIP3    H267514   0.120   2.672   1.481  2.8881 -1.0986 -1.4618
15367TIP3   OH267515   2.203   4.348  16.180 -0.1772  0.1395 -0.0817
15367TIP3    H167516   2.131   4.286  16.193  0.0978 -0.4967 -1.5221
15367TIP3    H267517   2.206   4.399  16.261  0.8044 -2.9709  1.9300
15368TIP3   OH267518   3.404   5.460  12.090  0.3778 -0.2864 -0.2042
15368TIP3    H167519   3.410   5.394  12.021  1.0804  0.5939 -0.9829
15368TIP3    H267520   3.378   5.540  12.045 -1.5574 -0.2695  0.8898
15369TIP3   OH267521   5.778   4.539   4.025  0.2528  0.2790 -0.5836
15369TIP3    H167522   5.730   4.523   4.106 -1.8917  0.1923 -1.8221
15369TIP3    H267523   5.758   4.630   4.003 -1.0575 -0.3570 -2.1681
15370TIP3   OH267524   3.435   2.453  13.433 -0.1045  0.5390  0.0552
15370TIP3    H167525   3.531   2.448  13.431 -0.1655 -0.4914 -0.5186
15370TIP3    H267526   3.415   2.488  13.520  0.7041 -2.0805  1.3333
15371TIP3   OH267527   1.488   0.735  12.187 -0.2416  0.0135  0.2805
15371TIP3    H167528   1.459   0.767  12.272  0.3046  1.0419  0.0976
15371TIP3    H267529   1.584   0.733  12.194 -0.2086 -0.1960 -0.1944
15372TIP3   OH267530   6.128   6.597   1.895  0.1712 -0.0589  0.4890
15372TIP3    H167531   6.181   6.530   1.936  0.5498  0.6392  1.1524
15372TIP3    H267532   6.053   6.550   1.858 -0.0001 -0.7307  1.6814
15373TIP3   OH267533   3.174   1.187   0.661  0.5645 -0.1176  0.2412
15373TIP3    H167534   3.149   1.111   0.609 -0.8291  0.5078 -0.0438
15373TIP3    H267535   3.208   1.250   0.598 -0.1914  0.2565  0.1896
15374TIP3   OH267536   6.729   3.995  12.184  0.1698 -0.0195 -0.1595
15374TIP3    H167537   6.638   4.009  12.158 -0.4431  1.0474  2.4445
15374TIP3    H267538   6.738   3.900  12.187 -0.0975 -0.1588 -2.9167
15375TIP3   OH267539   1.086   3.862  17.178 -0.4891 -0.6480 -0.2561
15375TIP3    H167540   1.129   3.778  17.194  1.3520 -0.2541 -2.8518
15375TIP3    H267541   1.143   3.907  17.116 -0.6688  3.1446  2.1471
15376TIP3   OH267542   3.634   6.549   3.669  0.0935  0.0097  0.7845
15376TIP3    H167543   3.710   6.493   3.653 -0.5925 -1.0293  1.1245
15376TIP3    H267544   3.651   6.588   3.755 -0.1434 -0.8534  1.2214
15377TIP3   OH267545   2.007   2.169   6.238 -0.6793 -0.0175  0.5626
15377TIP3    H167546   2.008   2.113   6.315 -0.1277  0.0763  0.6262
15377TIP3    H267547   2.059   2.245   6.263 -0.3771 -0.0505  0.0494
15378TIP3   OH267548   4.711   0.376  13.392  0.2876  0.5002 -0.5685
15378TIP3    H167549   4.701   0.470  13.407  1.4281  0.7909 -1.5753
15378TIP3    H267550   4.796   0.355  13.430  0.3281  0.0073 -0.9277
15379TIP3   OH267551   2.625   0.270  14.891  0.3583 -0.9906 -0.0333
15379TIP3    H167552   2.643   0.351  14.844  2.4053 -1.7583 -0.6307
15379TIP3    H267553   2.531   0.258  14.883  0.3338  0.1927 -1.8067
15380TIP3   OH267554   2.815   0.706   1.442  0.6911  0.2522 -0.1241
15380TIP3    H167555   2.750   0.658   1.391  0.2281  0.9139 -0.1618
15380TIP3    H267556   2.898   0.686   1.399  0.3473  0.5280 -0.9353
15381TIP3   OH267557   6.084   4.604  16.465  0.2070  0.3548 -0.5476
15381TIP3    H167558   6.089   4.589  16.560  1.0518  1.4617 -0.4001
15381TIP3    H267559   6.154   4.549  16.429  0.1701  0.2614 -0.4767
15382TIP3   OH267560   2.431   4.431  16.037 -0.3047 -0.3497 -0.0495
15382TIP3    H167561   2.341   4.411  16.060  0.2648 -1.5861  1.1752
15382TIP3    H267562   2.480   4.352  16.060  1.0382  0.1639 -1.0425
15383TIP3   OH267563   5.213   4.421   4.663  0.2796 -0.2684 -0.2134
15383TIP3    H167564   5.156   4.344   4.659  1.7950 -1.4444  0.3381
15383TIP3    H267565   5.209   4.458   4.575 -2.6803  0.6804  0.2806
15384TIP3   OH267566   6.204   4.401   0.525 -0.1612  0.2576 -0.8040
15384TIP3    H167567   6.175   4.489   0.547  0.3710  0.1410  0.4001
15384TIP3    H267568   6.295   4.397   0.556 -0.5637 -1.1053  0.2593
15385TIP3   OH267569   1.989   4.723  14.614  0.5467  0.2949 -0.4359
15385TIP3    H167570   2.036   4.749  14.535 -0.6275  0.5150 -1.0715
15385TIP3    H267571   1.941   4.801  14.641 -0.7797 -0.3920 -0.7554
15386TIP3   OH267572   6.429   0.459  12.525  0.0708 -0.1972  0.1443
15386TIP3    H167573   6.430   0.375  12.571 -0.1822 -0.6761 -0.7219
15386TIP3    H267574   6.519   0.471  12.495 -0.0305 -0.4711 -0.2813
15387TIP3   OH267575   4.952   5.932   4.647 -0.1270 -0.2097 -0.4339
15387TIP3    H167576   4.882   5.963   4.704  1.1860  0.7644  0.7076
15387TIP3    H267577   5.002   6.010   4.625 -0.2878 -0.6663 -2.4875
15388TIP3   OH267578   4.896   6.346  14.382  0.2597  0.5547  0.3109
15388TIP3    H167579   4.972   6.362  14.327  0.3877  0.3624  0.4306
15388TIP3    H267580   4.887   6.251  14.383  1.2131  0.4611  1.8923
15389TIP3   OH267581   2.445   1.786   3.963  0.1370 -0.0624 -0.1636
15389TIP3    H167582   2.502   1.840   4.018  1.4344 -1.1899 -0.3679
15389TIP3    H267583   2.505   1.737   3.907 -1.0443 -1.0973 -0.5540
15390TIP3   OH267584   4.009   1.059   5.277  0.6525  0.1269 -0.1772
15390TIP3    H167585   4.097   1.095   5.260  0.1231  1.0730 -1.0396
15390TIP3    H267586   3.961   1.076   5.195 -1.0448  1.8385  1.1366
15391TIP3   OH267587   5.916   2.331  14.973 -0.3521 -0.0340 -0.2243
15391TIP3    H167588   5.984   2.393  14.946 -0.4372  0.3855  0.5327
15391TIP3    H267589   5.863   2.378  15.037 -0.3752 -0.9175  0.4186
15392TIP3   OH267590   0.129   1.015  11.445 -0.3206 -0.3250  0.1408
15392TIP3    H167591   0.139   0.921  11.428 -0.1706 -0.4041  0.6339
15392TIP3    H267592   0.134   1.056  11.359  1.3250 -0.6268  0.0765
15393TIP3   OH267593   5.741   3.576  12.074 -0.2196 -0.0755  0.7725
15393TIP3    H167594   5.665   3.549  12.022 -0.0224 -1.4299  1.1762
15393TIP3    H267595   5.707   3.586  12.163 -0.5978  2.4344  0.3882
15394TIP3   OH267596   4.730   0.086  12.810 -0.4642 -0.2219  0.1458
15394TIP3    H167597   4.687   0.061  12.728  1.1810  1.1823 -1.2124
15394TIP3    H267598   4.667   0.065  12.878 -1.8051 -1.5967 -1.4773
15395TIP3   OH267599   1.871   0.330   4.788 -0.0131 -0.5830 -0.3122
15395TIP3    H167600   1.927   0.406   4.775 -0.0975 -0.5952 -0.7721
15395TIP3    H267601   1.923   0.256   4.755 -0.1592 -0.6429 -0.4095
15396TIP3   OH267602   6.238   5.215   2.444 -0.1195 -0.0522 -0.3751
15396TIP3    H167603   6.255   5.279   2.513 -0.2127 -0.3466 -0.0771
15396TIP3    H267604   6.251   5.130   2.486  0.2268 -0.2236 -0.8302
15397TIP3   OH267605   0.010   4.023  10.992  0.0501  0.1387 -0.2661
15397TIP3    H167606   0.025   4.112  11.022 -0.8055  1.4907 -3.6189
15397TIP3    H267607  -0.078   4.001  11.020 -1.1942  1.8318 -2.7302
15398TIP3   OH267608   1.620   5.495   4.238  0.1396 -0.3870  0.2347
15398TIP3    H167609   1.564   5.433   4.285  0.1622  0.1599  0.9908
15398TIP3    H267610   1.568   5.523   4.163 -0.0894 -0.8908  0.2067
15399TIP3   OH267611   0.584   1.728   6.224 -0.1422 -0.2516 -0.2757
15399TIP3    H167612   0.602   1.655   6.283 -2.7525 -1.0119 -0.3905
15399TIP3    H267613   0.508   1.701   6.173 -0.2825  1.9644 -1.3360
15400TIP3   OH267614   5.789   3.536  12.703  0.5556 -0.1638 -0.0515
15400TIP3    H167615   5.859   3.601  12.702 -0.5667  1.0817  0.6828
15400TIP3    H267616   5.746   3.546  12.619 -0.3198  0.8389  0.5052
15401TIP3   OH267617   5.730   3.596  13.304 -0.1946 -0.1390  0.6404
15401TIP3    H167618   5.648   3.556  13.274 -0.6312  1.3950 -0.2555
15401TIP3    H267619   5.778   3.615  13.223  0.5654  0.0101  1.1165
15402TIP3   OH267620   2.239   0.317   1.867 -0.2972  0.1101  0.1996
15402TIP3    H167621   2.303   0.364   1.920  0.2401  0.3403 -0.6399
15402TIP3    H267622   2.277   0.230   1.856  1.6520  1.2999 -3.2959
15403TIP3   OH267623   2.064   5.654   6.565  0.5433 -0.6878  0.2296
15403TIP3    H167624   2.068   5.749   6.572  0.9153 -0.6828 -0.0590
15403TIP3    H267625   1.976   5.631   6.596 -0.3997 -0.0406 -1.9352
15404TIP3   OH267626   3.953   6.557  16.349  0.0263  0.2114  0.0843
15404TIP3    H167627   3.858   6.548  16.343 -0.1155  0.3227  1.8708
15404TIP3    H267628   3.987   6.497  16.283 -1.2504 -1.0454  0.5401
15405TIP3   OH267629   1.443   0.166  11.400  0.0196  0.1259  0.5445
15405TIP3    H167630   1.494   0.241  11.370 -0.0080 -1.0310 -2.5523
15405TIP3    H267631   1.353   0.185  11.374  0.2015 -1.4876 -1.3729
15406TIP3   OH267632   0.552   3.407   1.340  0.2956 -0.2340 -0.0119
15406TIP3    H167633   0.619   3.409   1.272  0.5483 -0.1349  0.2402
15406TIP3    H267634   0.587   3.462   1.410 -0.1187 -0.0519  0.0528
15407TIP3   OH267635   2.142   4.444  16.456 -0.0555  0.0884  0.3617
15407TIP3    H167636   2.223   4.488  16.485 -0.2560  1.1103 -0.6073
15407TIP3    H267637   2.072   4.499  16.491 -0.3424 -0.7870  1.1782
15408TIP3   OH267638   3.736   3.257   4.827 -0.9345  0.3583  0.2486
15408TIP3    H167639   3.792   3.213   4.891 -1.7790 -0.5602  0.3768
15408TIP3    H267640   3.692   3.326   4.876 -0.9228  0.2131  0.4630
15409TIP3   OH267641   3.620   4.394   2.664  0.3621  0.1954 -0.3916
15409TIP3    H167642   3.531   4.399   2.699  0.1167  0.7705 -1.0711
15409TIP3    H267643   3.655   4.483   2.673  0.5269  0.1951 -0.9882
15410TIP3   OH267644   1.179   5.188  11.857 -0.0834  0.4347  0.0123
15410TIP3    H167645   1.114   5.185  11.926  0.3196  0.2890  0.3903
15410TIP3    H267646   1.147   5.128  11.790 -0.2459  0.2259  0.2784
15411TIP3   OH267647   3.034   4.856   0.838 -0.0314  0.1135 -0.1735
15411TIP3    H167648   2.995   4.907   0.910 -0.8079 -0.3319 -0.2687
15411TIP3    H267649   3.019   4.765   0.863 -0.0645 -0.0444 -0.7712
15412TIP3   OH267650   3.009   5.797   2.158 -0.0188  0.1627 -0.0868
15412TIP3    H167651   3.040   5.823   2.245 -0.0301 -0.1963  0.0255
15412TIP3    H267652   3.080   5.822   2.099  0.3491 -0.3655  0.1301
15413TIP3   OH267653   3.115   4.322  11.284  0.4534  0.2928  0.1018
15413TIP3    H167654   3.032   4.297  11.244 -0.0815 -0.7903  1.8160
15413TIP3    H267655   3.182   4.298  11.220 -0.2986 -2.2787  0.2338
15414TIP3   OH267656   3.197   6.640  14.407  0.2386 -0.2148 -0.1066
15414TIP3    H167657   3.222   6.705  14.341 -0.2732 -0.0421 -0.1361
15414TIP3    H267658   3.190   6.690  14.488 -0.1309 -0.2384 -0.1236
15415TIP3   OH267659   4.134   1.655   4.184  0.0354  0.3271  0.8716
15415TIP3    H167660   4.182   1.728   4.145 -0.6772  0.8337  0.9305
15415TIP3    H267661   4.202   1.598   4.219  0.6630  0.1199 -0.6502
15416TIP3   OH267662   6.704   4.773  14.372 -0.2656 -0.1762  0.5024
15416TIP3    H167663   6.667   4.690  14.402 -1.9270  0.0896 -0.7309
15416TIP3    H267664   6.788   4.750  14.334 -0.5801 -1.2585  0.4419
15417TIP3   OH267665   3.848   0.398  13.705 -0.3279 -0.3368  0.2865
15417TIP3    H167666   3.817   0.319  13.661 -1.5244  0.1206  0.2831
15417TIP3    H267667   3.787   0.411  13.777 -0.7134  1.0940 -0.2740
15418TIP3   OH267668   1.012   4.657  15.402  0.0503 -0.1692 -0.3807
15418TIP3    H167669   1.040   4.590  15.340  0.4260  1.3664 -1.8993
15418TIP3    H267670   1.041   4.625  15.487 -1.4181 -2.8148 -0.8352
15419TIP3   OH267671   0.534   2.466   3.811 -0.0863 -0.1925  0.5473
15419TIP3    H167672   0.499   2.378   3.794  1.1188 -0.1785 -2.2921
15419TIP3    H267673   0.624   2.452   3.839 -0.5220  0.0697  2.1453
15420TIP3   OH267674   0.438   4.570   3.975 -0.3781  0.2112  0.0178
15420TIP3    H167675   0.347   4.552   3.953 -0.1064 -0.6243 -0.4172
15420TIP3    H267676   0.488   4.505   3.927  0.5906  1.8431 -1.2605
15421TIP3   OH267677   2.935   5.090   0.974  1.0788 -0.4050  0.0068
15421TIP3    H167678   2.981   5.174   0.977 -0.4570  0.4921 -0.7487
15421TIP3    H267679   2.953   5.049   1.058  0.2022  1.5828  1.1941
15422TIP3   OH267680   3.065   0.643   5.468 -0.3156 -0.6832  0.7354
15422TIP3    H167681   3.128   0.611   5.532 -0.9761  0.0621  1.7947
15422TIP3    H267682   3.030   0.723   5.508 -1.4328 -0.7303 -0.1275
15423TIP3   OH267683   0.675   3.776  10.670 -0.1465 -0.0867 -0.1672
15423TIP3    H167684   0.639   3.826  10.743  1.7556 -2.4183  2.4530
15423TIP3    H267685   0.712   3.842  10.611 -0.5856  1.7489  1.5772
15424TIP3   OH267686   6.534   5.507  15.486  0.4625  0.1867 -0.5123
15424TIP3    H167687   6.496   5.542  15.405 -2.0980  1.0621  1.0402
15424TIP3    H267688   6.602   5.570  15.509 -0.8594  1.5930 -0.3569
15425TIP3   OH267689   1.804   1.587  12.316 -0.3676 -0.1833  0.3141
15425TIP3    H167690   1.788   1.493  12.328  0.6895 -0.3388  0.5350
15425TIP3    H267691   1.898   1.593  12.300 -0.4027  0.8650  0.5122
15426TIP3   OH267692   5.314   3.467  17.067  0.1005  0.3428  0.1270
15426TIP3    H167693   5.330   3.555  17.099 -1.1516  0.5763  0.1267
15426TIP3    H267694   5.267   3.423  17.138  2.5029 -0.9698  0.9427
15427TIP3   OH267695   4.936   0.108  12.638 -0.2011  0.5799 -0.0444
15427TIP3    H167696   4.866   0.116  12.574 -0.0252 -1.5937 -0.5522
15427TIP3    H267697   4.894   0.071  12.716 -0.3303  2.8013  0.9770
15428TIP3   OH267698   4.334   2.778  14.147  0.2692 -0.0530 -0.0822
15428TIP3    H167699   4.272   2.850  14.156  0.7759  0.4646 -0.7004
15428TIP3    H267700   4.333   2.735  14.232  2.8967  3.0309  1.6221
15429TIP3   OH267701   4.409   3.180   5.007 -0.3870 -0.3153 -0.3681
15429TIP3    H167702   4.374   3.265   5.035 -1.3356 -0.5558 -0.8158
15429TIP3    H267703   4.352   3.116   5.049 -0.7901 -0.7063 -1.5069
15430TIP3   OH267704   2.994   0.220  15.512  0.4351 -0.0117  0.3396
15430TIP3    H167705   2.900   0.222  15.533  0.6599  0.7299  1.2926
15430TIP3    H267706   3.034   0.173  15.585  0.9727  0.8804  0.6241
15431TIP3   OH267707   3.525   4.058  10.780  0.0284 -0.5521  0.3671
15431TIP3    H167708   3.517   4.130  10.717 -1.3127 -0.7109  0.3398
15431TIP3    H267709   3.532   3.979  10.726 -0.0054 -0.5872  0.4136
15432TIP3   OH267710   6.023   2.804   2.091 -0.6469 -0.1214  0.6084
15432TIP3    H167711   6.039   2.877   2.150 -3.5582  1.6812 -0.6966
15432TIP3    H267712   5.968   2.744   2.141 -1.3300  0.3889  0.4845
15433TIP3   OH267713   2.434   0.283   4.594  0.1263 -0.1710  1.0198
15433TIP3    H167714   2.402   0.193   4.596  1.9711 -0.8475  1.4752
15433TIP3    H267715   2.394   0.321   4.516 -0.4152 -1.4805  0.6421
15434TIP3   OH267716   6.324   2.613   2.893 -0.4220  0.7715 -0.3961
15434TIP3    H167717   6.266   2.552   2.849 -1.0112  0.7585  0.3910
15434TIP3    H267718   6.283   2.629   2.978  1.4492 -0.3460  0.7424
15435TIP3   OH267719   5.528   0.567  13.138 -0.2380  0.1926 -1.0227
15435TIP3    H167720   5.440   0.590  13.170 -0.6309 -1.2334 -1.0255
15435TIP3    H267721   5.552   0.489  13.188  1.4581  1.1520 -0.3224
15436TIP3   OH267722   4.632   4.312  17.214 -0.1175  0.5076 -0.2194
15436TIP3    H167723   4.623   4.266  17.131 -2.8906  2.7156 -1.2373
15436TIP3    H267724   4.551   4.292  17.261  0.2657  1.3999  0.8470
15437TIP3   OH267725   1.670   0.463   0.311 -0.2707 -0.0636 -0.1416
15437TIP3    H167726   1.624   0.413   0.244 -0.5122  0.1462 -0.1334
15437TIP3    H267727   1.759   0.474   0.277 -0.3320 -0.1472 -0.3248
15438TIP3   OH267728   5.278   5.461  15.896 -0.1933  0.0487 -0.4209
15438TIP3    H167729   5.358   5.474  15.845  0.2619 -1.2658 -0.0746
15438TIP3    H267730   5.226   5.539  15.880  0.5336  0.2600 -1.8065
15439TIP3   OH267731   6.694   5.052   2.361  0.5082  0.1487 -0.1568
15439TIP3    H167732   6.611   5.097   2.346  1.2149  1.3728 -0.4129
15439TIP3    H267733   6.670   4.959   2.367 -0.3867 -0.0045 -4.5072
15440TIP3   OH267734   4.034   2.895  14.203 -0.0976 -0.5660 -0.0279
15440TIP3    H167735   3.952   2.941  14.185  0.1908 -0.0489 -0.0339
15440TIP3    H267736   4.088   2.959  14.248  0.6985 -0.5560 -0.9746
15441TIP3   OH267737   1.874   3.616   4.027  0.5348 -0.1732  0.1951
15441TIP3    H167738   1.935   3.573   3.966 -0.2177 -0.3073 -0.4768
15441TIP3    H267739   1.830   3.682   3.973 -1.2312 -1.3046  0.1942
15442TIP3   OH267740   1.160   2.869   3.890 -0.8236  0.2473  0.0101
15442TIP3    H167741   1.140   2.777   3.871 -1.1871  0.2923  0.1611
15442TIP3    H267742   1.105   2.890   3.966  0.3775  0.1577  0.9155
15443TIP3   OH267743   3.765   5.555   5.642 -0.9369 -0.3934  0.0189
15443TIP3    H167744   3.762   5.648   5.665  0.6978 -0.6165  1.2401
15443TIP3    H267745   3.678   5.536   5.607 -1.7582  1.2681  1.0847
15444TIP3   OH267746   4.246   6.048  13.151 -0.3294  0.2768 -0.2717
15444TIP3    H167747   4.336   6.037  13.119 -0.4321  1.0070 -0.8181
15444TIP3    H267748   4.192   6.047  13.072 -0.8127 -0.2043  0.0568
15445TIP3   OH267749   5.352   0.007   3.612  0.3431 -0.2490  0.1114
15445TIP3    H167750   5.329  -0.059   3.547 -0.0219  1.1508 -1.2081
15445TIP3    H267751   5.268   0.047   3.637  0.5231 -0.4981  1.1404
15446TIP3   OH267752   5.115   3.528  17.230  0.5800 -0.2312 -0.1338
15446TIP3    H167753   5.167   3.607  17.220 -1.2602  0.8092 -1.9156
15446TIP3    H267754   5.064   3.542  17.309  0.1602  0.4369 -0.5177
15447TIP3   OH267755   3.040   6.478   4.769 -0.1890 -0.1006  0.8186
15447TIP3    H167756   2.994   6.562   4.760  1.4461  0.9535  1.9519
15447TIP3    H267757   2.998   6.435   4.843 -0.3742  0.1769  0.8740
15448TIP3   OH267758   3.146   4.879  16.478  0.5929 -0.2225 -0.4107
15448TIP3    H167759   3.202   4.825  16.422  0.6054 -0.2884 -0.3358
15448TIP3    H267760   3.204   4.946  16.513  0.3448  0.5206 -1.3888
15449TIP3   OH267761   4.025   4.077   4.503 -0.1232 -0.3846 -0.2747
15449TIP3    H167762   3.950   4.020   4.490 -0.7789 -0.0376  1.7996
15449TIP3    H267763   4.050   4.064   4.594  0.5096  1.6876 -0.1216
15450TIP3   OH267764   5.839   2.178   2.401 -0.0099 -0.1850  0.8086
15450TIP3    H167765   5.857   2.145   2.489  1.3560  0.3390  0.7349
15450TIP3    H267766   5.842   2.100   2.345 -0.8696 -0.5181  1.2141
15451TIP3   OH267767   3.932   2.239  13.472  0.0251 -0.4390 -0.0686
15451TIP3    H167768   3.837   2.250  13.463 -0.1749 -2.0415 -0.1274
15451TIP3    H267769   3.963   2.226  13.382  0.1962 -0.7086  0.0303
15452TIP3   OH267770   6.163   6.076  13.766 -0.5326 -0.2846 -0.4614
15452TIP3    H167771   6.102   6.065  13.693 -1.6456  0.5523  0.3163
15452TIP3    H267772   6.112   6.053  13.844  0.2674  0.0018  0.1553
15453TIP3   OH267773   0.648   1.653  12.434  0.5343  0.2410 -0.0710
15453TIP3    H167774   0.705   1.577  12.425  0.5590  0.1914  0.4545
15453TIP3    H267775   0.616   1.648  12.524 -0.2687  0.2917 -0.3517
15454TIP3   OH267776   5.952   2.562  15.376  0.5891  0.2489  0.0549
15454TIP3    H167777   5.902   2.508  15.313 -0.1694  0.9422  0.0512
15454TIP3    H267778   5.933   2.652  15.350 -0.3381  0.5585  1.7408
15455TIP3   OH267779   5.044   1.974  13.596  0.1602  0.0646  0.0107
15455TIP3    H167780   5.040   1.994  13.689  1.7119 -0.4735  0.2124
15455TIP3    H267781   4.967   1.920  13.578  1.5294 -2.4796  1.6330
15456TIP3   OH267782   6.428   3.653   2.950 -1.0726 -0.1377  0.3473
15456TIP3    H167783   6.443   3.671   2.857 -0.5208 -0.1243  0.4395
15456TIP3    H267784   6.403   3.738   2.987 -1.4583 -0.1765  0.1828
15457TIP3   OH267785   1.395   3.683   4.259 -0.1614  0.4939 -0.8919
15457TIP3    H167786   1.303   3.702   4.242  0.1474  1.0043 -2.0758
15457TIP3    H267787   1.416   3.610   4.202 -0.2391 -0.6975  0.5697
15458TIP3   OH267788   1.085   2.916  11.987 -0.2758 -0.0061  0.1598
15458TIP3    H167789   1.090   2.910  11.892  0.1015 -0.1857  0.1899
15458TIP3    H267790   1.135   2.840  12.018  2.3363  1.8112  0.5298
15459TIP3   OH267791   5.094   3.262   3.285  0.5590  0.0600 -0.2692
15459TIP3    H167792   5.127   3.255   3.375  2.4644  1.6247 -0.7994
15459TIP3    H267793   5.072   3.355   3.275 -0.3762 -0.2519 -1.1852
15460TIP3   OH267794   1.556   3.009  13.451 -0.1105 -0.4971  0.6197
15460TIP3    H167795   1.531   3.041  13.538 -1.3748 -0.7505  0.3528
15460TIP3    H267796   1.473   2.987  13.409  0.4715  0.0306 -0.8144
15461TIP3   OH267797   4.158   3.501   1.186  0.2245  0.7840  0.2066
15461TIP3    H167798   4.115   3.574   1.141  1.0157 -0.0711 -1.9606
15461TIP3    H267799   4.102   3.426   1.168  2.4691 -0.3081 -2.5002
15462TIP3   OH267800   3.343   2.305   0.514 -0.0820  0.1055  0.1645
15462TIP3    H167801   3.287   2.238   0.553 -0.4111  1.0213  1.2638
15462TIP3    H267802   3.292   2.338   0.440  0.3680 -1.3344 -0.8063
15463TIP3   OH267803   1.679   0.757  16.414  0.3996  0.8739  0.1952
15463TIP3    H167804   1.662   0.764  16.508 -1.1586 -3.4717  0.3815
15463TIP3    H267805   1.774   0.752  16.408  0.4469 -1.0718  1.8319
15464TIP3   OH267806   6.526   2.192  15.586 -0.4837  0.1459  0.0081
15464TIP3    H167807   6.604   2.237  15.555  0.1240  0.3915  1.8295
15464TIP3    H267808   6.559   2.114  15.631 -1.4116 -0.9260 -1.1468
15465TIP3   OH267809   4.837   0.531   1.830  0.4743 -0.1441 -0.2303
15465TIP3    H167810   4.860   0.521   1.922  1.2495  1.5819 -0.2348
15465TIP3    H267811   4.747   0.563   1.831  0.1492 -1.0383 -0.1065
15466TIP3   OH267812   3.009   6.116  12.463  0.1301 -0.6834 -0.2437
15466TIP3    H167813   3.023   6.137  12.555  0.4858  0.4022 -0.5413
15466TIP3    H267814   3.082   6.058  12.440  0.9097  0.2877 -0.2498
15467TIP3   OH267815   0.584   1.052   5.853  0.3235  0.6984  0.0021
15467TIP3    H167816   0.674   1.065   5.882  1.1727 -0.7417 -1.8528
15467TIP3    H267817   0.532   1.111   5.908  1.9551 -0.9945  3.5063
15468TIP3   OH267818   0.836   0.185  14.659  0.4735 -0.0315 -0.2152
15468TIP3    H167819   0.837   0.093  14.687  1.6132 -0.0201 -0.2071
15468TIP3    H267820   0.761   0.222  14.705  0.3919 -0.8013  0.2965
15469TIP3   OH267821   1.668   1.784   0.463 -0.8628  0.4290 -0.0925
15469TIP3    H167822   1.598   1.798   0.527 -0.7385  2.3067 -0.3231
15469TIP3    H267823   1.657   1.693   0.435 -1.5280 -0.1226  1.8484
15470TIP3   OH267824   6.772   1.810  15.971 -0.0149  0.3425 -0.3514
15470TIP3    H167825   6.816   1.770  15.896 -0.3412 -1.2067  0.2604
15470TIP3    H267826   6.687   1.767  15.975 -0.7082  1.7002 -0.1581
15471TIP3   OH267827   6.455   6.461  11.831 -0.1789 -0.5941  0.0520
15471TIP3    H167828   6.456   6.546  11.787  2.7142 -1.0794 -0.9131
15471TIP3    H267829   6.484   6.480  11.920 -2.0395 -0.2302  0.6085
15472TIP3   OH267830   1.293   4.074  17.078 -0.5114  0.2123 -0.1088
15472TIP3    H167831   1.279   4.049  16.986  0.4340  0.5287 -0.3492
15472TIP3    H267832   1.341   4.157  17.072 -2.2871  1.3345  0.6748
15473TIP3   OH267833   2.412   2.263   5.030 -0.6181 -0.3786 -0.5940
15473TIP3    H167834   2.408   2.332   5.097  0.2243  0.5098 -1.4400
15473TIP3    H267835   2.375   2.304   4.952 -1.2979 -1.3063 -0.7621
15474TIP3   OH267836   1.487   2.042   3.005 -0.2412  0.1201 -0.2874
15474TIP3    H167837   1.453   2.001   3.084  1.2142  0.7766  0.7017
15474TIP3    H267838   1.550   2.107   3.037 -0.1368  0.8631 -1.9570
15475TIP3   OH267839   0.867   5.512  12.233 -0.5796 -0.0791 -0.3155
15475TIP3    H167840   0.956   5.544  12.243 -0.3778 -0.4934 -0.7274
15475TIP3    H267841   0.829   5.518  12.321  0.0076 -0.3494 -0.0408
15476TIP3   OH267842   1.052   4.108  11.389 -0.0789 -0.9670 -0.0259
15476TIP3    H167843   1.036   4.173  11.321 -1.8313  0.0604  1.3458
15476TIP3    H267844   1.024   4.026  11.351  0.2079 -0.6173 -1.0179
15477TIP3   OH267845   2.355   6.087   3.119 -0.0989 -0.2459  0.3192
15477TIP3    H167846   2.439   6.130   3.138 -0.4171  0.5920 -0.1339
15477TIP3    H267847   2.370   6.039   3.038  0.2053 -0.8462  0.7283
15478TIP3   OH267848   3.715   2.402  13.163  0.1198  0.8351  0.5246
15478TIP3    H167849   3.674   2.488  13.158 -0.2366  0.6522  0.2755
15478TIP3    H267850   3.645   2.344  13.194  0.6237  0.8148  1.6468
15479TIP3   OH267851   5.265   6.651  17.112 -0.2928 -0.0103  0.0409
15479TIP3    H167852   5.195   6.705  17.073  0.2024  0.3624 -0.3418
15479TIP3    H267853   5.344   6.678  17.066  0.8211  2.4681  3.2439
15480TIP3   OH267854   1.673   1.122  15.793 -0.9621 -0.0136 -0.1127
15480TIP3    H167855   1.729   1.114  15.716 -1.9790  0.1837 -0.9016
15480TIP3    H267856   1.602   1.059  15.778 -0.5074 -0.8825  1.2754
15481TIP3   OH267857   5.646   3.046  12.393 -0.2979  0.2355 -1.2596
15481TIP3    H167858   5.700   3.111  12.438  0.4277 -0.1572 -1.5549
15481TIP3    H267859   5.558   3.059  12.429  0.3914 -0.4972  0.7725
15482TIP3   OH267860   3.885   3.374   3.709 -0.0977  0.3539 -0.1663
15482TIP3    H167861   3.943   3.379   3.633 -0.1170  0.3567 -0.1812
15482TIP3    H267862   3.935   3.326   3.775 -0.0223  0.4878 -0.1267
15483TIP3   OH267863   6.391   1.289  11.679  0.1058 -0.6210  0.0408
15483TIP3    H167864   6.357   1.301  11.590  0.9676 -1.0268 -0.3559
15483TIP3    H267865   6.326   1.234  11.723  0.4399 -1.7417 -0.8343
15484TIP3   OH267866   5.300   5.633  11.195 -0.4135  0.1034  0.1267
15484TIP3    H167867   5.300   5.628  11.099 -0.1021  0.9700  0.0739
15484TIP3    H267868   5.362   5.565  11.222  0.5278  0.7421 -0.3538
15485TIP3   OH267869   4.402   3.863   1.656 -0.0425 -0.3235  0.2326
15485TIP3    H167870   4.360   3.790   1.701  0.0585 -0.7637 -0.3966
15485TIP3    H267871   4.495   3.840   1.654 -0.2819 -1.1539 -1.8280
15486TIP3   OH267872   0.840   1.896   2.576  0.4093 -0.0926  0.2902
15486TIP3    H167873   0.891   1.815   2.582  1.6590  0.8310  2.9628
15486TIP3    H267874   0.780   1.892   2.650  0.9087  1.6818  0.8062
15487TIP3   OH267875   0.397   4.122   6.242  0.0979 -0.3727  0.3217
15487TIP3    H167876   0.341   4.196   6.221  0.6474  0.1859  0.7994
15487TIP3    H267877   0.401   4.120   6.338 -0.5078 -1.4751  0.3367
15488TIP3   OH267878   0.598   2.133   1.459  0.0584  0.6238 -0.4331
15488TIP3    H167879   0.604   2.196   1.531 -1.9985  1.2684 -0.7843
15488TIP3    H267880   0.618   2.185   1.381 -0.6784  0.6371 -0.6204
15489TIP3   OH267881   3.773   4.515  15.364  0.2388 -0.2155  0.1897
15489TIP3    H167882   3.699   4.457  15.381 -1.3523  1.2535 -1.6550
15489TIP3    H267883   3.734   4.600  15.346  2.2733  0.2405 -2.3342
15490TIP3   OH267884   2.066   1.562  12.207  0.3145 -0.0773  0.2541
15490TIP3    H167885   2.087   1.645  12.163 -1.9750  1.5932  2.1764
15490TIP3    H267886   2.026   1.508  12.139 -0.1036  1.1866 -0.5139
15491TIP3   OH267887   0.110   3.587   4.023 -0.5624  0.2714  0.0181
15491TIP3    H167888   0.036   3.555   3.971  0.2858 -0.6337 -0.6531
15491TIP3    H267889   0.071   3.647   4.086 -1.6886  0.9218 -1.2720
15492TIP3   OH267890   6.243   4.932  14.059  0.2993  0.9527  0.2140
15492TIP3    H167891   6.289   4.895  13.983  1.8900 -0.1746  1.6889
15492TIP3    H267892   6.240   4.861  14.123 -0.3837  2.0876  1.4742
15493TIP3   OH267893   4.671   1.023   4.161 -0.4893  0.6998  0.5858
15493TIP3    H167894   4.765   1.020   4.180 -0.6437  0.3825  1.2809
15493TIP3    H267895   4.662   1.097   4.100  0.2061  0.7451  0.5314
15494TIP3   OH267896   6.193   1.805  16.075  0.1853 -0.4771  0.0593
15494TIP3    H167897   6.177   1.855  15.994 -0.2132  0.6731  0.8400
15494TIP3    H267898   6.139   1.726  16.064 -1.4179  0.5879  0.0411
15495TIP3   OH267899   6.624   3.793   2.152  0.8410  0.1890 -0.0980
15495TIP3    H167900   6.651   3.702   2.162 -0.5160 -0.1976  0.2152
15495TIP3    H267901   6.642   3.834   2.236 -1.3590 -0.5730  0.7824
15496TIP3   OH267902   0.567   3.902   4.722  0.3094  0.1537 -0.1310
15496TIP3    H167903   0.658   3.904   4.693  0.2083 -0.3912 -0.4922
15496TIP3    H267904   0.570   3.937   4.811  0.5579  2.1646 -0.9152
15497TIP3   OH267905   6.766   5.682   3.653 -0.7201  0.1290 -0.0131
15497TIP3    H167906   6.747   5.625   3.578 -0.6505  2.3995 -1.8113
15497TIP3    H267907   6.857   5.708   3.640 -0.3992 -0.2190  1.4245
15498TIP3   OH267908   2.042   6.523   5.360  0.0171  0.4846 -0.0650
15498TIP3    H167909   2.002   6.456   5.416 -2.0749  1.8881  0.2094
15498TIP3    H267910   2.043   6.484   5.273 -1.0797  0.0187  0.1122
15499TIP3   OH267911   5.511   1.088   5.035  0.3007 -0.0412  0.0626
15499TIP3    H167912   5.604   1.088   5.060  0.6798  0.7692 -1.3125
15499TIP3    H267913   5.507   1.142   4.956 -1.4147  0.2699  0.3474
15500TIP3   OH267914   5.900   2.766  12.118  0.1548  0.1795 -0.3007
15500TIP3    H167915   5.842   2.799  12.187 -0.7819 -0.2199 -0.8979
15500TIP3    H267916   5.855   2.690  12.083  2.0723 -1.4708  0.7147
15501TIP3   OH267917   3.047   2.414  12.627  0.6845 -0.0848  0.6909
15501TIP3    H167918   3.011   2.418  12.538 -0.8455 -1.9043  1.1938
15501TIP3    H267919   3.140   2.433  12.615  0.7635 -1.5841 -1.4843
15502TIP3   OH267920   0.220   4.166  16.213  0.4973 -0.2218 -0.0844
15502TIP3    H167921   0.201   4.080  16.175  1.8460  0.2089 -1.7904
15502TIP3    H267922   0.272   4.211  16.146  1.8776  1.0239  1.7693
15503TIP3   OH267923   3.609   0.373  12.191 -0.0972  0.9241 -0.2326
15503TIP3    H167924   3.661   0.328  12.258 -0.6233  0.6958  0.0282
15503TIP3    H267925   3.546   0.307  12.161  0.5609  0.8293 -1.4310
15504TIP3   OH267926   1.811   2.723  11.365 -0.2852 -0.0534 -0.0750
15504TIP3    H167927   1.856   2.638  11.370 -1.6847 -0.8114  0.0021
15504TIP3    H267928   1.718   2.700  11.366 -0.6729  1.5112  0.2181
15505TIP3   OH267929   5.488   5.103  16.197  0.3937 -0.0643 -0.1295
15505TIP3    H167930   5.421   5.132  16.135 -1.2205  1.3319  2.2128
15505TIP3    H267931   5.562   5.161  16.182  0.3506 -0.3009 -1.3222
15506TIP3   OH267932   4.858   6.306   4.648 -0.5758  0.2453 -0.2457
15506TIP3    H167933   4.823   6.365   4.714  0.2049 -0.7137  1.0635
15506TIP3    H267934   4.900   6.236   4.698 -1.0672 -1.1759 -1.7475
15507TIP3   OH267935   3.499   4.878   6.513 -0.3375  0.0801  0.2900
15507TIP3    H167936   3.518   4.827   6.591  1.0332 -0.5821 -0.4426
15507TIP3    H267937   3.476   4.813   6.446  1.6905  0.3495 -0.7267
15508TIP3   OH267938   3.676   2.509   0.872 -0.2416 -0.0318 -0.0071
15508TIP3    H167939   3.606   2.459   0.831  0.4890 -1.0376 -0.0748
15508TIP3    H267940   3.693   2.582   0.813  0.9884 -1.6148 -1.6658
15509TIP3   OH267941   2.263   4.900  12.440  0.2878 -0.0216  0.7091
15509TIP3    H167942   2.309   4.983  12.451  0.7575  0.0280 -1.3704
15509TIP3    H267943   2.205   4.915  12.365 -1.5439 -0.7619  1.9295
15510TIP3   OH267944   2.477   2.296  17.187  0.6356  0.0273 -0.2374
15510TIP3    H167945   2.568   2.274  17.206  0.2589  0.1208  1.8506
15510TIP3    H267946   2.447   2.225  17.130  1.6114 -0.7458  0.1992
15511TIP3   OH267947   0.012   4.677   5.088 -0.3771  0.2724  0.3157
15511TIP3    H167948   0.072   4.749   5.107 -0.4369  0.7260 -1.1692
15511TIP3    H267949   0.068   4.599   5.082  0.0692  0.6932 -1.0727
15512TIP3   OH267950   2.294   2.121   3.797 -0.1008  0.1324  0.0922
15512TIP3    H167951   2.283   2.054   3.730 -1.0335  0.6046 -0.2424
15512TIP3    H267952   2.348   2.189   3.756 -1.1486  0.6911 -0.3981
15513TIP3   OH267953   5.284   0.617  14.733  0.0388 -0.2887  0.6281
15513TIP3    H167954   5.249   0.549  14.791 -0.5783  0.4499  1.1307
15513TIP3    H267955   5.371   0.636  14.769  0.3842 -1.1074  0.2339
15514TIP3   OH267956   1.695   3.321   1.857 -0.1942  0.2511 -0.1436
15514TIP3    H167957   1.751   3.256   1.900 -0.1478  1.1981  1.2824
15514TIP3    H267958   1.624   3.269   1.818  0.4729 -0.7628 -0.0311
15515TIP3   OH267959   4.402   4.978   0.476  0.2265 -0.2537  0.3109
15515TIP3    H167960   4.357   4.912   0.423  1.0444 -0.3373 -0.2882
15515TIP3    H267961   4.333   5.018   0.528 -1.1270  1.9575 -3.0371
15516TIP3   OH267962   3.756   3.593   1.617 -0.2160  0.2938  0.4294
15516TIP3    H167963   3.665   3.566   1.602 -0.0023  0.6057 -1.5959
15516TIP3    H267964   3.789   3.614   1.530  0.9803  2.8106  1.4547
15517TIP3   OH267965   1.494   5.685  15.824  0.8081  0.1082  0.1610
15517TIP3    H167966   1.428   5.619  15.846  0.9026 -0.3349 -0.8341
15517TIP3    H267967   1.578   5.643  15.845  0.8386  0.1414  0.1054
15518TIP3   OH267968   3.016   1.481   1.108  0.3521 -0.4493 -0.0117
15518TIP3    H167969   3.046   1.443   1.190 -0.5182 -1.5819 -0.2016
15518TIP3    H267970   3.040   1.417   1.041  0.4273  0.1395 -0.5632
15519TIP3   OH267971   0.801   4.265  14.398  0.2697  0.0807 -0.1585
15519TIP3    H167972   0.863   4.331  14.370  1.3745 -1.2312 -0.8642
15519TIP3    H267973   0.850   4.182  14.394 -1.2541 -0.8596  0.0955
15520TIP3   OH267974   3.394   1.870   1.942 -0.2859  0.3435 -0.1126
15520TIP3    H167975   3.479   1.856   1.983 -0.0215  0.2676 -0.6794
15520TIP3    H267976   3.343   1.792   1.966 -0.5934  0.9471  1.2140
15521TIP3   OH267977   6.463   4.219  11.436  0.1177 -0.0562 -0.1670
15521TIP3    H167978   6.476   4.271  11.515  0.0322  0.7488 -0.6762
15521TIP3    H267979   6.385   4.256  11.396  0.7122  0.1770 -1.1280
15522TIP3   OH267980   3.463   4.110   0.692 -0.3711  0.2716  0.3202
15522TIP3    H167981   3.414   4.137   0.770 -0.4127 -0.2691  0.4837
15522TIP3    H267982   3.498   4.023   0.715 -2.5520 -1.0661 -1.2412
15523TIP3   OH267983   0.675   4.034   4.951 -0.1995 -0.2113 -0.2472
15523TIP3    H167984   0.622   4.105   4.986  1.0055  0.9634 -0.7748
15523TIP3    H267985   0.638   3.955   4.991 -2.0486  0.6165 -0.2665
15524TIP3   OH267986   4.794   1.348   0.783 -0.2660 -0.0038  0.0152
15524TIP3    H167987   4.813   1.437   0.752  2.3703 -0.1221  1.1510
15524TIP3    H267988   4.734   1.312   0.718 -0.0711  2.0384 -1.3355
15525TIP3   OH267989   5.499   2.179   0.299 -0.2987 -0.0080 -0.0482
15525TIP3    H167990   5.424   2.159   0.243 -2.2116  1.6468  1.8398
15525TIP3    H267991   5.486   2.126   0.378 -0.4975  1.6434  1.0558
15526TIP3   OH267992   5.508   2.167  11.476 -0.7333  0.2995  0.0195
15526TIP3    H167993   5.572   2.200  11.539  1.0873 -1.7152 -0.7291
15526TIP3    H267994   5.431   2.146  11.529  0.1891  0.1753  1.3443
15527TIP3   OH267995   3.235   3.435   1.436  0.0860  0.1419  0.2870
15527TIP3    H167996   3.179   3.465   1.508 -0.3506  1.9165 -0.7539
15527TIP3    H267997   3.206   3.346   1.419 -0.6104  0.1149  1.5214
15528TIP3   OH267998   0.119   4.121  13.804  0.4944  0.4695 -0.1849
15528TIP3    H167999   0.058   4.110  13.731  0.3567  1.6781 -0.2743
15528TIP3    H268000   0.074   4.181  13.864  1.9059  2.0430 -0.6489
15529TIP3   OH268001   5.130   3.790  14.810  0.4461 -0.0920 -0.2241
15529TIP3    H168002   5.044   3.828  14.796  1.2281  0.6871 -3.1639
15529TIP3    H268003   5.115   3.696  14.814 -0.8433  0.1603  2.0412
15530TIP3   OH268004   5.118   0.581   5.393  0.3154 -0.1232  0.5965
15530TIP3    H168005   5.064   0.660   5.394 -0.7438 -0.8320  0.2389
15530TIP3    H268006   5.159   0.581   5.306 -1.6515 -1.2613 -0.3656
15531TIP3   OH268007   5.408   4.292   3.612  0.3810  0.0782  0.0994
15531TIP3    H168008   5.485   4.342   3.637  0.0843  0.7080 -0.2540
15531TIP3    H268009   5.376   4.335   3.533 -0.6641  0.1643  0.5703
15532TIP3   OH268010   1.857   5.557   0.305 -0.2088  0.1684  0.1045
15532TIP3    H168011   1.802   5.530   0.232  1.4055 -0.5008 -0.8906
15532TIP3    H268012   1.870   5.651   0.291  0.9746 -0.1532 -1.1096
15533TIP3   OH268013   0.657   3.309   4.195  0.4703 -0.0400  0.5010
15533TIP3    H168014   0.722   3.373   4.168  2.0097 -2.1853 -0.9705
15533TIP3    H268015   0.699   3.260   4.266 -0.0958 -0.4665  0.5507
15534TIP3   OH268016   1.942   4.551  14.839  0.5003  0.2068 -0.3847
15534TIP3    H168017   1.956   4.645  14.832  1.7826 -0.0270 -1.0248
15534TIP3    H268018   1.855   4.537  14.800  0.7584  0.9940 -1.2592
15535TIP3   OH268019   0.097   3.883   6.163 -0.1981 -0.2355  0.4676
15535TIP3    H168020   0.088   3.903   6.070 -1.1698 -2.2965  0.0865
15535TIP3    H268021   0.040   3.945   6.207 -1.5972 -0.8050 -0.5183
15536TIP3   OH268022   4.363   1.975  11.719 -0.1776 -0.1827  0.2199
15536TIP3    H168023   4.329   1.924  11.793  0.6968  0.5355  1.1329
15536TIP3    H268024   4.286   1.992  11.665 -0.6380 -1.6554  0.3903
15537TIP3   OH268025   4.598   4.759   1.062 -0.1055 -0.0426  0.3178
15537TIP3    H168026   4.534   4.806   1.116  1.0515  0.8976  0.8882
15537TIP3    H268027   4.598   4.805   0.979  0.4641  0.4893  0.6131
15538TIP3   OH268028   5.727   6.276  16.955 -0.3671 -0.3873  0.1950
15538TIP3    H168029   5.642   6.317  16.970  0.6046  1.5925  0.4004
15538TIP3    H268030   5.755   6.247  17.042 -0.7114 -0.7866  0.1730
15539TIP3   OH268031   1.526   3.081   5.622 -0.1302 -0.0669  0.0507
15539TIP3    H168032   1.562   3.150   5.677  1.8264  0.7411 -2.1554
15539TIP3    H268033   1.443   3.059   5.663 -0.0680  2.5026  1.6872
15540TIP3   OH268034   3.179   2.386  11.032  0.6923 -0.3025  0.6124
15540TIP3    H168035   3.214   2.308  11.074  2.2572 -1.2534 -2.3457
15540TIP3    H268036   3.257   2.440  11.014 -0.1562  0.9947  0.7689
15541TIP3   OH268037   1.957   2.252   2.345  0.0314 -0.2460 -0.3588
15541TIP3    H168038   1.893   2.227   2.279 -1.9760  2.2724  0.5191
15541TIP3    H268039   1.904   2.293   2.415  2.5043  1.0924  0.7882
15542TIP3   OH268040   0.709   6.349   2.104 -0.4691  0.6526  0.3916
15542TIP3    H168041   0.798   6.336   2.136 -0.1267 -0.1120 -0.8455
15542TIP3    H268042   0.684   6.265   2.066 -1.2360  1.2407 -0.4250
15543TIP3   OH268043   5.732   4.174   0.028  1.1540 -0.1625  0.2206
15543TIP3    H168044   5.797   4.223  -0.022  1.5574  0.1798  1.0598
15543TIP3    H268045   5.774   4.158   0.113  0.0193  0.4006  0.9140
15544TIP3   OH268046   4.184   1.214  16.157  0.8635  0.4546  0.0006
15544TIP3    H168047   4.256   1.181  16.105  0.1350  0.5847 -1.1133
15544TIP3    H268048   4.159   1.296  16.115  0.0041  0.3598  0.3006
15545TIP3   OH268049   3.835   5.864  11.298 -0.2252  0.4463 -0.2972
15545TIP3    H168050   3.769   5.802  11.327 -0.8770  2.0922  1.8704
15545TIP3    H268051   3.786   5.943  11.274  0.9118  1.6333  1.1695
15546TIP3   OH268052   6.734   0.212   2.401  0.5170 -0.2305  0.1861
15546TIP3    H168053   6.663   0.198   2.339 -0.0841 -1.9150  1.2240
15546TIP3    H268054   6.727   0.139   2.463  0.4205  1.9355  2.8768
15547TIP3   OH268055   6.203   4.074   5.014  0.0357  0.0057 -0.2360
15547TIP3    H168056   6.295   4.097   5.003  0.3299 -0.9673  0.0980
15547TIP3    H268057   6.157   4.133   4.954  0.8976  0.3217 -0.6092
15548TIP3   OH268058   3.209   4.180   3.609  0.0863  0.1138  0.6912
15548TIP3    H168059   3.247   4.140   3.531 -1.7788 -0.1147 -0.1293
15548TIP3    H268060   3.268   4.156   3.680  0.7622 -1.3211 -0.3341
15549TIP3   OH268061   4.666   4.505   1.602  0.1573  0.1631 -0.7456
15549TIP3    H168062   4.720   4.584   1.608 -1.6189  1.3434  0.3460
15549TIP3    H268063   4.683   4.471   1.514  0.5794  2.0625 -1.4344
15550TIP3   OH268064   2.779   0.947  16.974 -0.4880  0.8611  0.3121
15550TIP3    H168065   2.699   0.999  16.978 -0.8345  0.6175 -2.2455
15550TIP3    H268066   2.755   0.870  16.921  0.8880 -0.2524  1.2632
15551TIP3   OH268067   0.740   4.274  17.055 -0.4293 -0.0316 -0.1072
15551TIP3    H168068   0.662   4.247  17.104 -0.1841 -1.0411 -0.2732
15551TIP3    H268069   0.790   4.193  17.042  0.4808  0.5571 -0.2967
15552TIP3   OH268070   0.035   2.750  10.837 -0.2147  0.2598 -0.2030
15552TIP3    H168071   0.064   2.766  10.927 -1.7635 -1.2899  0.6043
15552TIP3    H268072   0.019   2.655  10.833  2.1418 -0.0840 -2.8209
15553TIP3   OH268073   0.951   2.076   5.495  0.4447 -0.0105  0.0708
15553TIP3    H168074   0.981   2.112   5.412 -0.3912 -0.5779 -0.4931
15553TIP3    H268075   0.913   2.150   5.542  0.8246  0.2908 -0.0989
15554TIP3   OH268076   4.663   0.293   3.096 -0.3262 -0.5138  0.2763
15554TIP3    H168077   4.587   0.236   3.108 -1.0137  0.2300 -0.4852
15554TIP3    H268078   4.642   0.372   3.146 -1.1067  0.6507 -1.8273
15555TIP3   OH268079   1.606   2.615   3.178 -0.2169 -0.5174 -0.9370
15555TIP3    H168080   1.685   2.665   3.155 -1.3813  1.9611  0.3132
15555TIP3    H268081   1.635   2.524   3.177  2.5656  0.3163 -0.8847
15556TIP3   OH268082   1.689   0.482  13.684  0.1150 -0.2119 -0.5393
15556TIP3    H168083   1.611   0.475  13.739 -0.4471 -0.2463 -1.3403
15556TIP3    H268084   1.759   0.506  13.745 -0.9620  2.1117 -0.1673
15557TIP3   OH268085   0.149   5.876   3.331 -0.4347  0.0701 -0.1980
15557TIP3    H168086   0.095   5.811   3.285 -2.6459  0.4011  1.8469
15557TIP3    H268087   0.238   5.845   3.320 -1.3869 -2.9283  0.1225
15558TIP3   OH268088   0.548   4.136  15.964 -0.2304 -1.0890  0.4408
15558TIP3    H168089   0.514   4.090  16.041 -0.0854 -0.5452  0.8324
15558TIP3    H268090   0.601   4.071  15.918 -0.6277 -1.5235  0.6008
15559TIP3   OH268091   3.987   2.259  15.714 -0.3048  0.0052 -0.5132
15559TIP3    H168092   3.937   2.265  15.632 -0.8903  2.2379 -0.0390
15559TIP3    H268093   4.044   2.336  15.712  0.1847 -0.3169  0.8591
15560TIP3   OH268094   0.053   3.688  13.994  0.4372  0.3732  0.2776
15560TIP3    H168095   0.011   3.602  13.999  0.2485  0.5734  2.3296
15560TIP3    H268096  -0.009   3.743  13.947 -0.2083 -0.1581  0.5139
15561TIP3   OH268097   2.065   1.188  14.639 -0.3978  0.3332  0.0403
15561TIP3    H168098   2.063   1.142  14.723 -0.7117  1.2577  0.5449
15561TIP3    H268099   2.041   1.278  14.661  0.9544  0.9030 -0.8385
15562TIP3   OH268100   4.280   3.856   5.660 -0.6739 -0.0365 -0.0561
15562TIP3    H168101   4.293   3.933   5.715 -0.0152 -0.5650  0.5507
15562TIP3    H268102   4.296   3.782   5.719  0.5307 -0.6040 -1.0731
15563TIP3   OH268103   0.510   5.399  14.925 -0.8913  0.7378 -0.2601
15563TIP3    H168104   0.537   5.349  14.848 -0.7766  0.1564  0.1553
15563TIP3    H268105   0.576   5.380  14.990 -1.5912  0.3467  0.3438
15564TIP3   OH268106   5.967   1.371  14.534  0.1079 -0.2285 -0.1999
15564TIP3    H168107   5.935   1.401  14.449  0.4979 -0.5083 -0.4472
15564TIP3    H268108   5.951   1.277  14.534 -1.0433 -0.0401  0.5448
15565TIP3   OH268109   1.489   4.258  12.376  0.0994  0.8061  0.0243
15565TIP3    H168110   1.506   4.291  12.464 -2.2741  1.9148  0.0885
15565TIP3    H268111   1.564   4.201  12.357  1.7972  2.3834  1.8350
15566TIP3   OH268112   1.132   6.319  11.269  0.0377 -0.2901  0.0359
15566TIP3    H168113   1.160   6.398  11.222  0.4814 -0.9042 -0.7451
15566TIP3    H268114   1.067   6.279  11.211  1.2878 -1.5619 -0.5141
15567TIP3   OH268115   3.456   4.789   1.903  0.1194 -0.1461 -0.4640
15567TIP3    H168116   3.381   4.730   1.899 -0.0282  0.0809 -1.2543
15567TIP3    H268117   3.502   4.775   1.820  0.0587  0.8596 -0.6858
15568TIP3   OH268118   4.758   6.171   1.499 -0.2969  0.1764 -0.4011
15568TIP3    H168119   4.742   6.195   1.408 -1.2688 -0.0977 -0.3038
15568TIP3    H268120   4.841   6.123   1.496 -0.4378 -0.0367 -1.1816
15569TIP3   OH268121   5.521   2.716   1.671  0.6171 -0.5418 -0.1081
15569TIP3    H168122   5.476   2.792   1.635  2.0034  0.8819  1.1024
15569TIP3    H268123   5.614   2.737   1.664  1.0221 -2.1302  0.2456
15570TIP3   OH268124   4.705   1.589   3.673 -0.0383 -0.3697 -0.5693
15570TIP3    H168125   4.638   1.579   3.742  0.2003  0.4080 -0.2191
15570TIP3    H268126   4.665   1.648   3.610  0.5981  0.6720  0.0014
15571TIP3   OH268127   0.047   1.843   0.738  0.3958 -0.1582 -0.0921
15571TIP3    H168128  -0.025   1.781   0.725  1.1770 -0.7989 -1.4910
15571TIP3    H268129   0.007   1.929   0.725 -0.1118 -0.5102 -0.9385
15572TIP3   OH268130   5.289   4.347   5.797  0.3763  0.0154  0.8648
15572TIP3    H168131   5.377   4.379   5.818  0.8585  0.2334 -1.3953
15572TIP3    H268132   5.230   4.413   5.835  1.1914  0.0647  2.0547
15573TIP3   OH268133   0.686   1.837  11.338  0.2541 -1.1811 -0.5330
15573TIP3    H168134   0.679   1.901  11.267 -0.2006 -0.5223  0.1018
15573TIP3    H268135   0.765   1.863  11.386 -0.1274 -0.8787 -0.0658
15574TIP3   OH268136   6.277   6.575  14.823 -0.1063  0.0576 -0.2708
15574TIP3    H168137   6.193   6.528  14.818  0.1931 -0.4192 -1.0349
15574TIP3    H268138   6.325   6.529  14.892 -0.1981 -0.1207 -0.3230
15575TIP3   OH268139   6.139   1.910   4.007 -0.0627  0.7803  0.1539
15575TIP3    H168140   6.149   1.989   3.955 -0.4388  1.4994  1.1500
15575TIP3    H268141   6.099   1.940   4.089 -0.8130 -0.5350  0.2857
15576TIP3   OH268142   1.388   1.700  17.001  0.1025 -0.0214 -0.0564
15576TIP3    H168143   1.300   1.679  16.968 -0.3741  0.3837  0.9329
15576TIP3    H268144   1.440   1.715  16.923 -0.4615 -1.2629 -0.6923
15577TIP3   OH268145   1.141   6.684   5.899  0.4195 -0.3707  0.1234
15577TIP3    H168146   1.173   6.771   5.877  0.9770 -0.3060  1.1859
15577TIP3    H268147   1.046   6.689   5.888  0.6484 -0.2535 -1.9644
15578TIP3   OH268148   4.314   1.368   6.555 -0.1425  0.0615  0.5302
15578TIP3    H168149   4.359   1.307   6.615 -0.1503 -0.6624 -0.1968
15578TIP3    H268150   4.305   1.449   6.606  2.6902  0.4836  0.4217
15579TIP3   OH268151   1.670   6.154  15.400  0.4075  0.1074  0.1378
15579TIP3    H168152   1.662   6.111  15.485 -0.0233 -0.9897 -0.4523
15579TIP3    H268153   1.763   6.173  15.391  0.6408 -0.9990  0.2528
15580TIP3   OH268154   3.407   4.726  11.654 -0.4538  0.1597  0.2539
15580TIP3    H168155   3.497   4.716  11.621 -0.4607  1.8196 -0.2926
15580TIP3    H268156   3.352   4.699  11.581 -0.4109 -0.9763  0.6297
15581TIP3   OH268157   4.957   0.837   0.644  0.1156  0.3456  0.2695
15581TIP3    H168158   5.036   0.883   0.614  0.6006 -0.1050  0.8603
15581TIP3    H268159   4.901   0.906   0.680 -0.7569  1.0080 -2.2282
15582TIP3   OH268160   2.966   2.060   3.700 -0.0966 -0.2723  0.2475
15582TIP3    H168161   2.881   2.055   3.656  0.9218 -1.7060 -1.5832
15582TIP3    H268162   2.954   2.129   3.766 -1.8466  1.4538 -1.7978
15583TIP3   OH268163   4.322   0.251   4.713 -0.1542 -0.3471  0.2727
15583TIP3    H168164   4.322   0.175   4.771 -1.3634 -1.2928 -0.9409
15583TIP3    H268165   4.230   0.270   4.698  0.1414  1.3728  0.5588
15584TIP3   OH268166   4.090   0.203   3.552 -0.8090  0.2528 -0.4625
15584TIP3    H168167   4.032   0.133   3.582  0.0020 -0.4399 -0.4635
15584TIP3    H268168   4.040   0.283   3.564 -1.5904 -0.2913 -0.0407
15585TIP3   OH268169   4.959   2.529  13.634  0.2377 -0.3170  0.2865
15585TIP3    H168170   5.041   2.540  13.682 -0.5584 -1.3502  1.9117
15585TIP3    H268171   4.945   2.435  13.632 -1.1630 -0.1157  0.4150
15586TIP3   OH268172   1.840   0.952  13.836  0.5760  0.4619 -0.0870
15586TIP3    H168173   1.786   0.902  13.775 -0.5358 -1.1197  2.0847
15586TIP3    H268174   1.810   1.042  13.827  0.6474  0.2925 -2.0605
15587TIP3   OH268175   5.179   3.959  11.910  0.0995  0.1091 -0.0275
15587TIP3    H168176   5.193   3.864  11.912 -1.2824 -0.0918  0.6472
15587TIP3    H268177   5.208   3.985  11.823 -0.9046 -1.1628 -0.7658
15588TIP3   OH268178   0.866   6.734   0.026 -0.6261  0.7461  0.2308
15588TIP3    H168179   0.917   6.675  -0.029 -0.2195  1.2606  0.0555
15588TIP3    H268180   0.801   6.677   0.068 -2.4262  0.6682 -2.4959
15589TIP3   OH268181   4.966   5.484  12.238 -0.0041 -0.6616  0.2236
15589TIP3    H168182   4.919   5.409  12.273 -2.4904  0.5866 -0.3746
15589TIP3    H268183   4.902   5.532  12.186  1.6519  1.6057  0.1556
15590TIP3   OH268184   6.580   5.523   5.629  0.1514 -0.5307 -0.1838
15590TIP3    H168185   6.644   5.573   5.579  0.8483 -1.3394 -0.1052
15590TIP3    H268186   6.621   5.438   5.643 -1.2922 -1.3809 -0.9144
15591TIP3   OH268187   0.145   3.140   5.108  0.2508 -0.4261 -0.2303
15591TIP3    H168188   0.090   3.165   5.181 -2.0402  0.1300 -2.0932
15591TIP3    H268189   0.231   3.177   5.129  0.0117 -1.4593  2.7778
15592TIP3   OH268190   4.837   0.769  12.817 -0.4667 -0.1143 -0.0069
15592TIP3    H168191   4.855   0.846  12.870  0.8158 -0.0094 -0.5547
15592TIP3    H268192   4.811   0.805  12.732  0.7483 -0.2685 -0.4557
15593TIP3   OH268193   2.887   3.780  12.449  0.2846 -0.2639 -0.2878
15593TIP3    H168194   2.905   3.861  12.498 -0.4297  0.1135 -0.6429
15593TIP3    H268195   2.866   3.810  12.360  2.2740 -0.9923 -1.0254
15594TIP3   OH268196   1.629   1.246   5.924  0.2601 -0.1917 -0.1004
15594TIP3    H168197   1.570   1.293   5.982  0.9864  0.4585  0.1128
15594TIP3    H268198   1.715   1.281   5.944  0.7650 -1.3647 -0.1852
15595TIP3   OH268199   5.909   2.066   1.412 -0.5030  0.2649  0.4140
15595TIP3    H168200   5.877   2.107   1.492 -0.7781 -0.4165  0.6525
15595TIP3    H268201   5.946   2.139   1.361 -1.7876  0.9538  0.4408
15596TIP3   OH268202   4.183   3.749   2.659  0.6502 -0.0467  0.1959
15596TIP3    H168203   4.147   3.827   2.701 -0.2572 -0.6215  0.5249
15596TIP3    H268204   4.105   3.700   2.630  1.1060 -1.8239  1.8553
15597TIP3   OH268205   5.874   5.385   5.738  0.0833 -0.4376 -0.0495
15597TIP3    H168206   5.816   5.457   5.759  1.0252  1.1330 -2.6019
15597TIP3    H268207   5.838   5.347   5.658  2.4589  0.5635 -1.6874
15598TIP3   OH268208   2.800   4.668   4.798 -0.1171  0.0003 -0.3801
15598TIP3    H168209   2.778   4.704   4.883 -0.2427 -0.4895 -0.2042
15598TIP3    H268210   2.761   4.729   4.735 -1.2855 -0.4292 -0.0768
15599TIP3   OH268211   5.169   2.981  12.863  0.3234  0.0510  0.1697
15599TIP3    H168212   5.114   3.054  12.836  2.2201  1.6749  0.6656
15599TIP3    H268213   5.201   3.004  12.949  1.3464 -1.1391  0.1316
15600TIP3   OH268214   3.265   4.187   4.325  0.0936  0.1464 -0.6377
15600TIP3    H168215   3.262   4.282   4.319 -0.1143  0.2206  0.5632
15600TIP3    H268216   3.195   4.157   4.266 -0.4210  0.7594 -0.3372
15601TIP3   OH268217   6.197   3.676   0.092  0.0627  0.4913 -0.0534
15601TIP3    H168218   6.254   3.739   0.137  1.4505  0.2381 -1.3776
15601TIP3    H268219   6.111   3.689   0.131  0.7838  1.7195  1.1913
15602TIP3   OH268220   3.108   3.290  14.375  0.6451 -0.5598  0.6843
15602TIP3    H168221   3.020   3.256  14.394  1.3631 -1.5183  2.4514
15602TIP3    H268222   3.110   3.376  14.416 -0.6394  1.0218 -2.4330
15603TIP3   OH268223   4.557   2.294  13.614 -0.0975  0.3385 -0.3708
15603TIP3    H168224   4.553   2.224  13.680 -2.4278  0.2060 -0.6227
15603TIP3    H268225   4.542   2.375  13.663 -2.9594  0.1416 -0.8637
15604TIP3   OH268226   4.489   0.902   5.131  0.2235  0.5087  0.2476
15604TIP3    H168227   4.526   0.843   5.065 -1.4114 -2.1565  1.6385
15604TIP3    H268228   4.442   0.969   5.081  1.9833  0.5883 -1.3445
15605TIP3   OH268229   5.208   2.558   3.095 -0.0163  0.9333 -0.0800
15605TIP3    H168230   5.219   2.534   3.003  2.3000  0.5084  0.2801
15605TIP3    H268231   5.286   2.608   3.117  0.1457 -0.1968  2.0399
15606TIP3   OH268232   6.108   0.157   0.732 -0.3657 -0.4670 -0.7134
15606TIP3    H168233   6.082   0.249   0.723  0.9037 -0.0879 -0.5961
15606TIP3    H268234   6.203   0.159   0.736 -0.1777 -2.0040 -3.2560
15607TIP3   OH268235   3.501   0.235  12.954 -0.7404 -0.0404  0.0417
15607TIP3    H168236   3.575   0.295  12.941  0.3141 -1.6693 -1.6792
15607TIP3    H268237   3.442   0.256  12.882  1.3069 -3.4522 -2.7948
15608TIP3   OH268238   3.132   6.246  13.745 -0.2804  0.0472  0.1240
15608TIP3    H168239   3.069   6.201  13.689 -1.0242  0.8674  0.2882
15608TIP3    H268240   3.212   6.194  13.738 -0.4890 -0.0956 -1.3703
15609TIP3   OH268241   4.106   6.767   4.119  0.4434  0.2740 -0.3707
15609TIP3    H168242   4.111   6.673   4.103  0.5451 -0.1972  2.2350
15609TIP3    H268243   4.118   6.776   4.214  2.8280  3.0991 -0.8888
15610TIP3   OH268244   1.748   4.734  15.722 -0.0256 -0.4010 -0.6291
15610TIP3    H168245   1.821   4.724  15.783  2.0138  0.8332 -2.7485
15610TIP3    H268246   1.680   4.778  15.773  3.1241  4.4141 -0.2182
15611TIP3   OH268247   4.976   4.186  14.036 -0.2861 -0.3301 -1.2432
15611TIP3    H168248   4.935   4.272  14.041 -2.6016 -1.5056  0.6259
15611TIP3    H268249   5.044   4.188  14.103 -0.0695  0.1777 -1.4755
15612TIP3   OH268250   4.943   6.603  14.797  0.7891 -0.4363 -0.1946
15612TIP3    H168251   4.986   6.658  14.732  0.2911  1.1732  0.8238
15612TIP3    H268252   4.891   6.663  14.850 -1.1043 -2.0670 -0.0965
15613TIP3   OH268253   2.866   1.791  12.102  0.2085 -0.9101  0.0978
15613TIP3    H168254   2.837   1.738  12.176 -0.0435  0.0512  0.7066
15613TIP3    H268255   2.792   1.849  12.083  0.8113 -0.1383  0.0577
15614TIP3   OH268256   5.275   1.780   0.244  0.1665  0.1654  0.1498
15614TIP3    H168257   5.181   1.781   0.261  0.0226 -1.6139 -0.4380
15614TIP3    H268258   5.288   1.840   0.171 -0.1500  2.4093  1.8912
15615TIP3   OH268259   2.235   0.210  14.061  0.1146  0.1282 -0.7115
15615TIP3    H168260   2.281   0.127  14.076 -2.5562 -1.4683 -0.9571
15615TIP3    H268261   2.280   0.250  13.987  1.1663 -1.3301 -0.8823
15616TIP3   OH268262   2.172   2.271   0.560 -0.0688 -0.3071  0.6106
15616TIP3    H168263   2.227   2.340   0.598 -0.1779 -1.7631  3.5125
15616TIP3    H268264   2.136   2.311   0.480  1.4652  2.2886  1.1525
15617TIP3   OH268265   2.446   2.247   0.477 -0.5402  0.0900 -0.6044
15617TIP3    H168266   2.374   2.207   0.428 -0.2861  2.3407 -2.9116
15617TIP3    H268267   2.407   2.270   0.562 -1.9544 -0.6569 -1.0386
15618TIP3   OH268268   4.256   6.670  13.273 -0.0329  0.4782  0.0699
15618TIP3    H168269   4.270   6.715  13.356 -2.2318  1.6565 -0.1503
15618TIP3    H268270   4.297   6.727  13.207 -0.4910  0.8187  0.0798
15619TIP3   OH268271   0.306   3.637   4.695  0.3120  0.0895  0.2035
15619TIP3    H168272   0.361   3.589   4.756  1.2119 -1.1554 -1.5417
15619TIP3    H268273   0.219   3.597   4.704  0.2706  0.3814  1.1506
15620TIP3   OH268274   2.354   3.017   3.070 -0.1791 -0.2170  0.0871
15620TIP3    H168275   2.318   3.105   3.079  0.2427 -0.0647  0.2885
15620TIP3    H268276   2.445   3.030   3.045 -0.4264 -0.6156 -1.0344
15621TIP3   OH268277   6.219   2.695  10.496 -0.1191 -0.3412  0.6413
15621TIP3    H168278   6.181   2.693  10.408  1.4039 -2.1899 -0.0185
15621TIP3    H268279   6.275   2.773  10.495 -2.2466  1.2251  0.9393
15622TIP3   OH268280   4.226   6.642   0.571 -0.2252 -0.2614 -0.1706
15622TIP3    H168281   4.161   6.590   0.619  0.0777  0.5361  1.1023
15622TIP3    H268282   4.237   6.594   0.488 -1.5322 -1.0660  0.0937
15623TIP3   OH268283   1.879   2.384   3.573  0.2417  0.1620  0.5270
15623TIP3    H168284   1.894   2.306   3.627  0.3918 -1.9327 -2.3955
15623TIP3    H268285   1.966   2.418   3.555  0.3240 -0.3332 -0.0366
15624TIP3   OH268286   6.713   1.805   4.786 -0.5012  0.4086  0.7231
15624TIP3    H168287   6.709   1.891   4.828  1.7839 -0.3992  2.7178
15624TIP3    H268288   6.805   1.794   4.762 -0.8235 -1.3635  0.2285
15625TIP3   OH268289   2.524   1.678   0.307 -0.3430 -0.3272 -0.3455
15625TIP3    H168290   2.560   1.734   0.376  0.4760  1.0146 -1.8294
15625TIP3    H268291   2.456   1.628   0.350  0.7463 -0.1470  1.6492
15626TIP3   OH268292   1.753   6.013  16.703  0.3815  0.6446 -0.2614
15626TIP3    H168293   1.715   6.015  16.791 -0.5521 -1.6192 -0.5952
15626TIP3    H268294   1.704   6.080  16.655 -0.4085  0.5707  0.4258
15627TIP3   OH268295   5.041   5.535  14.870  0.1642  0.0999  0.1235
15627TIP3    H168296   5.050   5.451  14.915 -1.5169 -0.2939 -0.2339
15627TIP3    H268297   4.948   5.539  14.846  0.4133  1.6769 -0.6132
15628TIP3   OH268298   5.466   3.588  11.928  0.0439 -0.7016 -0.2696
15628TIP3    H168299   5.377   3.619  11.913  0.3870 -0.4502 -1.9539
15628TIP3    H268300   5.521   3.648  11.877  1.2633 -0.2987  1.4634
15629TIP3   OH268301   1.876   1.021   3.132 -0.9931 -0.5418 -0.5081
15629TIP3    H168302   1.935   0.947   3.148  1.7489  2.0849  2.2230
15629TIP3    H268303   1.888   1.042   3.039  1.1860 -1.0800 -0.3706
15630TIP3   OH268304   1.033   6.593  12.826  0.3549 -0.3195  0.2988
15630TIP3    H168305   1.041   6.689  12.831 -0.3662 -0.2821  0.7264
15630TIP3    H268306   1.064   6.562  12.911 -1.5254 -0.3300  1.0010
15631TIP3   OH268307   0.900   1.394  14.535 -0.1804 -0.7523 -0.0565
15631TIP3    H168308   0.889   1.327  14.602 -0.3522 -1.3609 -0.6918
15631TIP3    H268309   0.975   1.446  14.564  1.2550 -2.4808 -0.6339
15632TIP3   OH268310   1.186   4.765   1.455  0.2937  0.2872  0.1387
15632TIP3    H168311   1.122   4.748   1.525 -0.6020  3.0544  0.0457
15632TIP3    H268312   1.268   4.730   1.489 -0.6030 -0.4348  1.6301
15633TIP3   OH268313   1.285   6.306  16.013 -0.0316 -0.0528 -0.0795
15633TIP3    H168314   1.251   6.337  15.929 -0.7859 -0.6958 -0.0143
15633TIP3    H268315   1.380   6.311  16.003 -0.1143 -0.2163 -1.0124
15634TIP3   OH268316   2.250   6.734   2.715 -0.2674  0.3634  0.0237
15634TIP3    H168317   2.204   6.656   2.745 -0.6975  1.0133  1.0863
15634TIP3    H268318   2.234   6.799   2.783  1.2471  0.9569 -0.1755
15635TIP3   OH268319   3.228   3.217   2.768  0.2428 -0.0477  0.1128
15635TIP3    H168320   3.252   3.296   2.816 -0.3920  0.0952  0.1965
15635TIP3    H268321   3.174   3.248   2.695  2.6346 -0.0751 -1.7575
15636TIP3   OH268322   0.222   0.352  11.628  0.1144 -0.3950  0.0678
15636TIP3    H168323   0.266   0.356  11.713 -0.3404  0.6568  0.2611
15636TIP3    H268324   0.135   0.317  11.647  0.4597 -1.3908 -0.1529
15637TIP3   OH268325   1.279   4.648  14.324  0.0684 -0.9049  0.1115
15637TIP3    H168326   1.315   4.728  14.286  0.4685 -0.8004  0.7003
15637TIP3    H268327   1.229   4.679  14.400  2.6733 -1.4558  2.0990
15638TIP3   OH268328   3.201   5.082   5.101 -0.2532 -0.0323  0.3403
15638TIP3    H168329   3.129   5.020   5.112  1.3254 -2.4302 -2.0664
15638TIP3    H268330   3.160   5.160   5.065 -2.1007 -0.1604  2.1138
15639TIP3   OH268331   4.096   4.799  11.831  0.4742 -0.3031 -0.3617
15639TIP3    H168332   4.099   4.735  11.903 -3.3679 -0.8821 -0.5742
15639TIP3    H268333   4.151   4.871  11.861  0.0621 -1.1211  2.6117
15640TIP3   OH268334   3.583   6.195   0.663  0.2097  0.5160 -0.0350
15640TIP3    H168335   3.601   6.105   0.637  1.2770  1.2353 -1.8777
15640TIP3    H268336   3.489   6.206   0.646 -0.2765 -0.7117  1.7244
15641TIP3   OH268337   4.005   1.579  14.529  0.2503 -0.2079 -0.0169
15641TIP3    H168338   4.005   1.486  14.504  0.3405 -0.1887 -0.0859
15641TIP3    H268339   4.006   1.577  14.625  1.7069 -0.2754 -0.0239
15642TIP3   OH268340   2.516   4.886   5.997 -0.3374  0.0117 -0.1328
15642TIP3    H168341   2.423   4.909   5.994  0.2871  2.4965 -1.4095
15642TIP3    H268342   2.522   4.822   6.068 -2.8564  0.6708  0.7340
15643TIP3   OH268343   4.842   3.744  11.956 -0.0588  0.3349  0.1240
15643TIP3    H168344   4.825   3.838  11.943 -1.1822 -0.0948 -1.8328
15643TIP3    H268345   4.837   3.732  12.050  0.8270  2.3783  0.4716
15644TIP3   OH268346   0.459   6.015   5.704  0.0010  0.2776  0.2764
15644TIP3    H168347   0.478   5.939   5.649 -1.1923  0.1152  0.0842
15644TIP3    H268348   0.392   5.985   5.765 -0.0936  1.0198  0.5413
15645TIP3   OH268349   6.613   1.206  15.393 -0.0263  0.0351  0.4650
15645TIP3    H168350   6.584   1.294  15.419  0.4388  0.4759 -0.4934
15645TIP3    H268351   6.536   1.151  15.406 -0.3993  0.6298  0.8221
15646TIP3   OH268352   2.186   2.954  12.159 -0.4734  0.1832 -0.0931
15646TIP3    H168353   2.216   2.929  12.246 -1.0091  0.4740  0.1768
15646TIP3    H268354   2.122   3.023  12.174  0.0761  0.8589 -0.7660
15647TIP3   OH268355   4.552   3.902  11.663  0.6116 -0.4245 -0.0294
15647TIP3    H168356   4.606   3.865  11.594  1.4348  0.7399 -0.0202
15647TIP3    H268357   4.499   3.969  11.619  1.6427  0.8100  0.5785
15648TIP3   OH268358   4.397   2.618  13.669 -0.3886  0.5663  0.7648
15648TIP3    H168359   4.463   2.686  13.656  1.3360 -1.3629 -0.7911
15648TIP3    H268360   4.425   2.571  13.747  1.8914 -2.2091 -1.6140
15649TIP3   OH268361   3.953   2.768   1.331 -0.0138  0.2081  0.5910
15649TIP3    H168362   3.934   2.684   1.290 -0.7892  0.5772  0.1869
15649TIP3    H268363   3.878   2.823   1.309  1.1849  1.4693 -0.4113
15650TIP3   OH268364   3.254   0.625  15.371 -0.1687 -0.2888 -0.3249
15650TIP3    H168365   3.271   0.535  15.343 -0.5201 -0.5823  0.3779
15650TIP3    H268366   3.161   0.627  15.390  0.3093 -0.5376  2.2570
15651TIP3   OH268367   4.842   4.849   1.153  0.5209 -0.2980 -0.0767
15651TIP3    H168368   4.841   4.806   1.238  2.3839 -1.5853 -0.6870
15651TIP3    H268369   4.769   4.809   1.105  1.5512 -2.0121 -0.2472
15652TIP3   OH268370   6.023   3.579   5.828  0.4333 -0.0320  0.0768
15652TIP3    H168371   6.043   3.627   5.909 -0.8174  0.3860  0.1389
15652TIP3    H268372   5.965   3.509   5.855 -1.1485  0.9679 -0.6757
15653TIP3   OH268373   6.038   1.413   4.346 -0.4910 -1.0236 -0.0605
15653TIP3    H168374   6.052   1.361   4.425  0.6492  0.3368  0.6553
15653TIP3    H268375   6.126   1.436   4.316 -0.9749  0.7315 -0.1825
15654TIP3   OH268376   3.170   3.086  11.332  0.2175  0.1371 -0.4793
15654TIP3    H168377   3.168   3.037  11.250  0.6040  0.1606 -0.5033
15654TIP3    H268378   3.134   3.172  11.309  1.7549  0.6528 -0.9713
15655TIP3   OH268379   0.154   4.905  10.315  0.1420 -0.3566 -0.7552
15655TIP3    H168380   0.160   4.918  10.410 -1.2237 -5.0117  0.0710
15655TIP3    H268381   0.241   4.876  10.289  0.7763  1.7973 -1.1522
15656TIP3   OH268382   3.598   2.254   2.088  0.1763  0.4310 -0.1640
15656TIP3    H168383   3.611   2.345   2.063  0.0950  0.0457 -1.6653
15656TIP3    H268384   3.584   2.257   2.183  3.1765  1.6637  0.2976
15657TIP3   OH268385   6.762   0.513   0.638  0.2741  0.0207  0.1326
15657TIP3    H168386   6.715   0.591   0.608 -0.2554  0.3715  1.8665
15657TIP3    H268387   6.697   0.463   0.688  1.2984 -0.3141  1.1365
15658TIP3   OH268388   1.320   3.563  11.345  0.0028 -0.0862 -0.0378
15658TIP3    H168389   1.268   3.534  11.420 -0.6476 -2.9687 -1.5717
15658TIP3    H268390   1.271   3.534  11.268  3.4012 -2.1724 -1.5398
15659TIP3   OH268391   6.286   6.470   5.288 -0.2434 -0.6825  0.0641
15659TIP3    H168392   6.271   6.408   5.360 -0.5938 -0.0414  0.5444
15659TIP3    H268393   6.208   6.525   5.287 -0.0669 -0.4375 -0.5638
15660TIP3   OH268394   5.766   5.036  16.092  0.4509  0.0468  0.2223
15660TIP3    H168395   5.847   5.081  16.066  0.2065  0.2875 -0.1196
15660TIP3    H268396   5.790   4.944  16.095  0.7436  0.1193  0.1320
15661TIP3   OH268397   1.203   3.296  14.121 -0.3379 -0.1542  0.0288
15661TIP3    H168398   1.175   3.352  14.049 -1.2303 -0.8194 -0.1522
15661TIP3    H268399   1.168   3.210  14.100 -0.5939 -0.3611  1.2394
15662TIP3   OH268400   3.848   3.121   6.383  0.3221  0.0741  0.4505
15662TIP3    H168401   3.918   3.183   6.366  0.4175  0.2266  1.3760
15662TIP3    H268402   3.871   3.080   6.466  0.0809 -0.9565  0.0246
15663TIP3   OH268403   1.861   2.874  12.611  0.2900 -0.3172  0.0124
15663TIP3    H168404   1.782   2.832  12.646  0.0439 -1.9798 -2.4427
15663TIP3    H268405   1.933   2.817  12.638  0.3797 -0.2172 -0.0133
15664TIP3   OH268406   1.994   2.976   0.316  0.4586  0.3144 -0.6764
15664TIP3    H168407   1.920   2.968   0.257 -0.0647  0.4258 -0.0398
15664TIP3    H268408   1.961   3.027   0.390  0.4011 -1.9152  0.8784
15665TIP3   OH268409   5.680   0.700   1.185  0.8986 -0.3944 -0.0311
15665TIP3    H168410   5.722   0.625   1.143  0.6240 -2.1492  2.6709
15665TIP3    H268411   5.712   0.697   1.275 -1.2220  1.1541  0.8021
15666TIP3   OH268412   3.518   3.212  14.264 -0.9203 -0.5217 -0.1197
15666TIP3    H168413   3.588   3.277  14.259 -1.1349 -0.2372  0.5152
15666TIP3    H268414   3.454   3.250  14.325 -1.4316 -0.9599 -0.3792
15667TIP3   OH268415   4.834   3.278   3.815 -0.1898  0.0347  0.9980
15667TIP3    H168416   4.785   3.226   3.751  0.0885  0.3318  0.5415
15667TIP3    H268417   4.769   3.337   3.853 -0.4966 -0.6049  1.4789
15668TIP3   OH268418   2.581   3.201  10.696 -0.4257  0.1204  0.4620
15668TIP3    H168419   2.547   3.126  10.647 -2.0323  1.0148  0.1524
15668TIP3    H268420   2.533   3.200  10.778 -1.7066  1.7646 -0.2348
15669TIP3   OH268421   3.059   0.173   1.587 -0.9204 -0.2677 -0.5646
15669TIP3    H168422   2.990   0.121   1.629  2.1850 -3.0937  1.2109
15669TIP3    H268423   3.075   0.245   1.648 -0.9656 -0.6827 -0.0616
15670TIP3   OH268424   2.065   4.806   1.527  0.3779  0.3678  0.2501
15670TIP3    H168425   2.122   4.738   1.491  0.4204  0.4527  0.1575
15670TIP3    H268426   2.035   4.855   1.451 -0.0194  0.1681  0.2781
15671TIP3   OH268427   5.645   0.168  13.515  0.0511  0.1958  0.0445
15671TIP3    H168428   5.710   0.203  13.576  0.8571 -2.3304  0.6830
15671TIP3    H268429   5.689   0.093  13.474 -2.4524 -1.6167  0.5566
15672TIP3   OH268430   2.283   0.077  14.646 -0.1590  0.0143  0.6497
15672TIP3    H168431   2.309   0.011  14.581 -1.5883 -0.1659  0.2566
15672TIP3    H268432   2.235   0.028  14.712 -0.3192  0.5004  0.8929
15673TIP3   OH268433   2.879   2.312   1.279  0.1404  0.1557  0.1862
15673TIP3    H168434   2.800   2.318   1.224  0.3933  0.4922 -0.1422
15673TIP3    H268435   2.948   2.352   1.226  0.5911 -0.3813  0.3668
15674TIP3   OH268436   4.606   0.541  12.123  0.4952 -0.6328 -0.1132
15674TIP3    H168437   4.539   0.605  12.099  1.7104  0.9380  0.6278
15674TIP3    H268438   4.566   0.489  12.193 -0.1827 -0.1443 -0.1373
15675TIP3   OH268439   1.133   1.309  16.973 -0.1198  0.2200  0.3760
15675TIP3    H168440   1.081   1.367  17.028  0.8130  1.0862  0.3502
15675TIP3    H268441   1.110   1.221  17.002  0.5185  0.6633  2.3041
15676TIP3   OH268442   3.288   3.575   3.655 -0.3679  0.5348  0.1185
15676TIP3    H168443   3.319   3.577   3.745 -0.9922 -2.2730  0.4329
15676TIP3    H268444   3.330   3.498   3.617  0.9761  2.4146 -2.4362
15677TIP3   OH268445   4.494   5.587   0.536  0.3820 -0.3217  0.0394
15677TIP3    H168446   4.424   5.532   0.570  1.6607 -1.8933  0.1552
15677TIP3    H268447   4.551   5.604   0.611  0.4531  0.4802 -0.1824
15678TIP3   OH268448   1.774   2.891   6.034 -0.2119  0.2330  0.4422
15678TIP3    H168449   1.853   2.916   5.986 -1.0907  2.4264  0.0654
15678TIP3    H268450   1.757   2.801   6.006  1.3321  0.2225 -0.5801
15679TIP3   OH268451   3.547   5.874  13.410 -0.3370 -1.0947  0.0690
15679TIP3    H168452   3.571   5.856  13.501  0.1328 -0.9604 -0.0286
15679TIP3    H268453   3.596   5.953  13.387 -0.0133 -1.4479 -0.4793
15680TIP3   OH268454   6.262   1.290   4.495 -1.0676 -0.1631  0.1251
15680TIP3    H168455   6.266   1.198   4.470 -2.6642 -0.0368 -0.6529
15680TIP3    H268456   6.290   1.338   4.417  1.6396 -0.0344  1.1350
15681TIP3   OH268457   6.327   4.952   5.049  0.2817 -0.4230 -0.8799
15681TIP3    H168458   6.373   4.914   4.975  0.1464  0.9442 -1.6817
15681TIP3    H268459   6.281   4.879   5.089  2.4248 -1.6546 -0.5895
15682TIP3   OH268460   4.504   0.708   1.624  0.3823 -0.1248 -0.6322
15682TIP3    H168461   4.482   0.615   1.627 -0.3825 -0.0008 -2.0382
15682TIP3    H268462   4.528   0.730   1.714 -0.2046 -1.4935 -0.1341
15683TIP3   OH268463   1.473   6.344  11.577  0.1514  0.5552 -0.0963
15683TIP3    H168464   1.501   6.414  11.636 -0.0296  0.4274  0.1417
15683TIP3    H268465   1.410   6.386  11.518  0.7582  0.8200 -0.5683
15684TIP3   OH268466   6.625   4.100  17.101  0.4670 -0.0329 -0.0590
15684TIP3    H168467   6.714   4.110  17.136 -0.1045 -0.3516  1.5371
15684TIP3    H268468   6.599   4.012  17.127 -0.1136 -0.1407 -1.0042
15685TIP3   OH268469   2.344   5.190   0.719 -0.4199 -0.3167  0.0797
15685TIP3    H168470   2.293   5.250   0.774 -0.9222 -0.3576 -0.3326
15685TIP3    H268471   2.341   5.230   0.632 -0.5795 -0.8271 -0.1515
15686TIP3   OH268472   3.556   1.449  11.451  0.2667  0.3906 -0.0213
15686TIP3    H168473   3.600   1.368  11.423  1.8523  0.6632  1.6273
15686TIP3    H268474   3.490   1.464  11.383  1.1370 -1.3107 -1.3017
15687TIP3   OH268475   6.228   0.849   1.172  0.3017  0.4954 -0.0285
15687TIP3    H168476   6.318   0.835   1.144  0.6366  2.8697 -0.2904
15687TIP3    H268477   6.236   0.885   1.261 -0.4669 -0.6193  0.5064
15688TIP3   OH268478   1.602   5.469   1.032  0.0578  0.2658 -0.3260
15688TIP3    H168479   1.685   5.515   1.027 -0.4811  1.0226 -2.8055
15688TIP3    H268480   1.590   5.431   0.945 -0.7186 -2.4702  0.8986
15689TIP3   OH268481   3.419   5.189   2.176  0.3752  0.0241 -0.4447
15689TIP3    H168482   3.424   5.137   2.256 -1.2691  0.4574 -0.0350
15689TIP3    H268483   3.362   5.139   2.118  1.2014 -0.0684 -1.1890
15690TIP3   OH268484   0.347   5.654  11.211 -0.1802  0.1608  0.3752
15690TIP3    H168485   0.368   5.577  11.158 -2.5524  0.0460 -0.4565
15690TIP3    H268486   0.430   5.702  11.218  0.9993 -1.7252 -0.2854
15691TIP3   OH268487   5.740   5.261  10.956 -0.0709  0.1338 -0.1175
15691TIP3    H168488   5.794   5.340  10.944  1.1860 -0.9143 -1.7106
15691TIP3    H268489   5.653   5.287  10.928  0.0642  1.2929  0.5125
15692TIP3   OH268490   1.246   0.070   6.475 -0.2496 -0.3509  0.8301
15692TIP3    H168491   1.263   0.022   6.395  2.4629 -0.3462  1.3752
15692TIP3    H268492   1.200   0.149   6.446  0.2764 -0.5825 -0.6686
15693TIP3   OH268493   4.674   0.120  13.495  0.6105 -0.7318 -0.2387
15693TIP3    H168494   4.763   0.084  13.496  1.6616  1.7514  1.0753
15693TIP3    H268495   4.670   0.172  13.415  0.8241  0.2315  0.3627
15694TIP3   OH268496   6.217   0.730   5.697 -0.3238 -0.0344 -0.5022
15694TIP3    H168497   6.297   0.775   5.670  0.1100  0.1094  0.9519
15694TIP3    H268498   6.150   0.798   5.700  0.0111  0.2566  0.3748
15695TIP3   OH268499   5.945   1.063  14.589 -0.3779 -0.0555 -0.2565
15695TIP3    H168500   5.878   1.059  14.658 -0.1608  1.0814  0.0346
15695TIP3    H268501   5.930   0.984  14.537  0.7227 -2.0208  2.2581
15696TIP3   OH268502   0.140   0.347   2.033  0.2773  0.4809 -0.3568
15696TIP3    H168503   0.136   0.316   1.943  0.3634 -1.3069  0.2460
15696TIP3    H268504   0.049   0.362   2.057  0.0931 -1.0621 -0.0605
15697TIP3   OH268505   1.775   4.321   0.880  0.1299  0.2357 -0.5458
15697TIP3    H168506   1.821   4.239   0.867  0.6048  0.1210  1.6093
15697TIP3    H268507   1.695   4.312   0.829 -0.2371 -1.9185  0.3574
15698TIP3   OH268508   4.345   2.251  15.860 -0.3372  0.4294  0.3332
15698TIP3    H168509   4.272   2.192  15.883 -1.2268  1.0380 -0.8828
15698TIP3    H268510   4.370   2.224  15.772  0.7100  0.4490  0.6188
15699TIP3   OH268511   5.498   5.201   2.204  0.5180 -0.1191  0.1606
15699TIP3    H168512   5.591   5.222   2.214  0.9484 -1.7230 -0.3841
15699TIP3    H268513   5.474   5.160   2.287  0.8248 -1.5657 -0.4498
15700TIP3   OH268514   4.995   1.340   0.178 -0.4996 -0.4246 -0.0758
15700TIP3    H168515   5.010   1.247   0.163  0.5830 -0.3963  0.7745
15700TIP3    H268516   5.066   1.384   0.131 -0.3385 -0.0856  0.4828
15701TIP3   OH268517   5.198   1.665  16.743  0.1053 -0.3149 -0.3694
15701TIP3    H168518   5.196   1.592  16.682  2.4730  0.5434 -1.5372
15701TIP3    H268519   5.290   1.675  16.765 -0.1958  2.2743 -0.1673
15702TIP3   OH268520   6.152   6.549  11.709 -0.3891  0.6505 -0.3155
15702TIP3    H168521   6.181   6.636  11.682  1.3318  0.3532  0.5090
15702TIP3    H268522   6.142   6.501  11.627  0.3771  1.1036 -0.6768
15703TIP3   OH268523   3.244   2.283  15.176  0.2112  0.1322  0.1874
15703TIP3    H168524   3.246   2.353  15.242  1.3319 -0.1169  0.4449
15703TIP3    H268525   3.329   2.240  15.187  1.2470  1.3253 -2.7754
15704TIP3   OH268526   3.303   5.297   1.823 -0.4998 -0.4966 -0.0458
15704TIP3    H168527   3.262   5.281   1.739 -0.4722  0.5649 -0.2615
15704TIP3    H268528   3.273   5.224   1.879 -1.4772 -0.5322 -0.6155
15705TIP3   OH268529   1.553   1.678  14.610  0.1315  0.3410  0.0606
15705TIP3    H168530   1.570   1.698  14.702 -1.6421  1.3593  0.1854
15705TIP3    H268531   1.488   1.743  14.583  1.4904  0.7922 -2.2442
15706TIP3   OH268532   5.982   1.680  11.071 -0.5223 -1.0675  0.2191
15706TIP3    H168533   5.937   1.764  11.065 -1.0303 -1.3585 -0.0751
15706TIP3    H268534   6.073   1.700  11.048 -0.6448 -0.6021  0.1337
15707TIP3   OH268535   2.992   4.451   5.134  0.0392 -0.1687 -0.4230
15707TIP3    H168536   3.014   4.524   5.192  0.0974 -1.2531  0.9831
15707TIP3    H268537   3.059   4.453   5.066 -0.7533  1.8832 -1.1622
15708TIP3   OH268538   3.023   4.793   2.578  0.6731  0.2448  0.2770
15708TIP3    H168539   3.051   4.751   2.659 -1.9072  0.3889  1.2917
15708TIP3    H268540   2.961   4.731   2.538  1.1147  0.6372 -1.0593
15709TIP3   OH268541   4.646   4.344  11.796  0.0717 -0.3475 -0.9404
15709TIP3    H168542   4.613   4.433  11.812  1.2108  0.0707 -0.8784
15709TIP3    H268543   4.657   4.306  11.883  1.8270  0.2862 -0.8761
15710TIP3   OH268544   4.701   4.852   2.486 -0.1656 -0.4305 -0.1691
15710TIP3    H168545   4.717   4.759   2.504  0.6604 -0.1358  0.6547
15710TIP3    H268546   4.675   4.889   2.570 -1.3473 -0.0763 -0.6693
15711TIP3   OH268547   5.952   0.583   3.157 -0.4896 -0.7117 -0.1097
15711TIP3    H168548   6.002   0.664   3.146 -1.9180 -0.0005 -1.6974
15711TIP3    H268549   6.012   0.524   3.202  1.1870  0.6620 -0.4553
15712TIP3   OH268550   1.018   6.193   5.449 -0.0984  0.1551  0.8672
15712TIP3    H168551   0.972   6.270   5.415 -2.1424 -0.5715  1.8655
15712TIP3    H268552   1.094   6.183   5.392 -0.0994  2.5630  0.3694
15713TIP3   OH268553   1.416   0.613  15.385  0.5167  0.1801  0.0486
15713TIP3    H168554   1.382   0.614  15.475  0.3323  0.1529 -0.0213
15713TIP3    H268555   1.390   0.698  15.350  0.4187  0.1115 -0.0437
15714TIP3   OH268556   2.546   3.706   4.506  0.0868  0.2561 -0.3006
15714TIP3    H168557   2.487   3.773   4.542 -0.0775 -0.7799  1.4181
15714TIP3    H268558   2.493   3.627   4.504  0.2937  0.1559 -2.3043
15715TIP3   OH268559   1.883   2.677  16.614 -0.3308  0.0511  0.3975
15715TIP3    H168560   1.899   2.768  16.639  0.2765  0.2737 -0.7856
15715TIP3    H268561   1.944   2.660  16.542 -1.5730 -0.7862 -0.4911
15716TIP3   OH268562   5.291   2.145   6.531 -0.1786 -0.2437 -0.4157
15716TIP3    H168563   5.342   2.158   6.451 -1.0172 -2.6313 -1.3620
15716TIP3    H268564   5.268   2.234   6.559  2.4133  0.7677 -1.3014
15717TIP3   OH268565   6.095   5.151   4.356 -0.1306 -0.1878  0.2930
15717TIP3    H168566   6.073   5.198   4.437  0.3935  0.6897 -0.0635
15717TIP3    H268567   6.181   5.185   4.332 -1.5653  1.8000 -2.2758
15718TIP3   OH268568   3.939   6.784  14.980  0.7626 -0.1626 -0.4834
15718TIP3    H168569   4.030   6.783  15.010  0.7746 -4.5834 -0.3901
15718TIP3    H268570   3.887   6.774  15.060  0.1148  2.1498 -0.5557
15719TIP3   OH268571   3.085   4.589  13.834 -0.3071  0.3043  0.0562
15719TIP3    H168572   3.034   4.536  13.773 -2.9337  0.5042  1.9486
15719TIP3    H268573   3.132   4.526  13.888 -0.3995  0.0258 -0.1901
15720TIP3   OH268574   6.753   3.574  14.693 -0.5193 -0.0404  0.0751
15720TIP3    H168575   6.815   3.516  14.648  0.5041  1.7049 -0.7736
15720TIP3    H268576   6.724   3.635  14.625  0.0857  1.8415  1.4716
15721TIP3   OH268577   1.494   6.462   0.533  0.1646 -0.0458 -0.2721
15721TIP3    H168578   1.439   6.519   0.587 -0.3013 -1.8676  1.2367
15721TIP3    H268579   1.431   6.406   0.487  0.6590 -0.1222 -0.8539
15722TIP3   OH268580   6.635   1.887  16.866 -0.2077  1.0180 -0.0817
15722TIP3    H168581   6.560   1.835  16.837  1.1330 -0.0475 -1.8106
15722TIP3    H268582   6.688   1.825  16.916 -0.8138  1.9528  1.7372
15723TIP3   OH268583   3.811   6.448   6.242  0.1742 -0.0993 -0.3609
15723TIP3    H168584   3.863   6.516   6.285 -3.2834  1.3417  1.7731
15723TIP3    H268585   3.778   6.490   6.162 -1.5003  0.6042  0.6727
15724TIP3   OH268586   3.839   5.998  16.435 -0.1482  0.1300  0.0229
15724TIP3    H168587   3.874   5.911  16.457  0.7709  0.7907  1.2637
15724TIP3    H268588   3.858   6.009  16.342  0.5988 -0.6068  0.0798
15725TIP3   OH268589   3.368   6.479   4.292 -0.3194 -0.3107  0.4982
15725TIP3    H168590   3.274   6.495   4.294 -0.4952 -1.0909 -0.7093
15725TIP3    H268591   3.388   6.438   4.376 -0.8618  0.8174  1.1890
15726TIP3   OH268592   1.467   1.422  14.552  0.7614 -0.2228 -0.2415
15726TIP3    H168593   1.386   1.436  14.503  0.1294 -0.1807  0.8046
15726TIP3    H268594   1.498   1.510  14.573  0.4829 -0.2580  0.3218
15727TIP3   OH268595   5.304   4.906   1.437 -0.2158  0.0877  0.5902
15727TIP3    H168596   5.258   4.892   1.520  1.4112 -1.5719  1.2306
15727TIP3    H268597   5.249   4.862   1.372 -0.8207  0.2703  0.9684
15728TIP3   OH268598   2.316   4.670  11.624 -0.3018 -0.3571  0.0381
15728TIP3    H168599   2.282   4.760  11.632 -1.1334 -0.5160 -1.5211
15728TIP3    H268600   2.383   4.664  11.692 -0.7828  1.1962  0.6817
15729TIP3   OH268601   2.559   2.110  10.883  0.4293  1.1276 -0.0668
15729TIP3    H168602   2.645   2.125  10.844  1.3934  0.0908  1.5964
15729TIP3    H268603   2.497   2.141  10.817  2.0697  1.8286 -1.3137
15730TIP3   OH268604   1.197   4.199   2.434 -0.3095  0.5414 -0.7785
15730TIP3    H168605   1.290   4.189   2.456  0.4543  1.6098 -3.2983
15730TIP3    H268606   1.167   4.110   2.415  0.0887  0.1385  0.4606
15731TIP3   OH268607   3.491   5.672  17.016  0.1115  0.5036 -0.2913
15731TIP3    H168608   3.577   5.644  17.047  0.5867 -0.2666 -2.2322
15731TIP3    H268609   3.503   5.763  16.990  0.1272  0.6410  0.1865
15732TIP3   OH268610   5.706   2.709  16.655 -0.1349  0.1006  0.1782
15732TIP3    H168611   5.753   2.726  16.574 -1.5474 -0.0154 -0.6852
15732TIP3    H268612   5.617   2.740  16.639  0.0820  2.0172  2.4149
15733TIP3   OH268613   4.713   6.046   4.708 -0.1445  0.4407  0.5046
15733TIP3    H168614   4.636   6.012   4.753 -0.5991  2.8786  1.5885
15733TIP3    H268615   4.693   6.137   4.690  1.5434  0.4886 -1.3412
15734TIP3   OH268616   3.712   0.810   3.378 -0.3743 -0.2813 -0.6765
15734TIP3    H168617   3.691   0.859   3.458 -0.4401 -0.1296 -0.7853
15734TIP3    H268618   3.653   0.735   3.380 -1.5318  0.5851 -1.4006
15735TIP3   OH268619   1.464   3.851   0.357  0.7331 -0.1257 -0.1311
15735TIP3    H168620   1.401   3.824   0.423  0.8583 -2.5243 -0.9437
15735TIP3    H268621   1.548   3.822   0.390  1.1984  1.3838  0.0583
15736TIP3   OH268622   0.294   1.609  15.529 -0.2410  0.0539  0.3898
15736TIP3    H168623   0.338   1.636  15.448 -0.8094  2.7063  0.9451
15736TIP3    H268624   0.260   1.522  15.509  2.9069 -0.9542 -0.9490
15737TIP3   OH268625   1.601   4.340  16.775 -0.0634 -0.1175  0.0671
15737TIP3    H168626   1.621   4.383  16.692  0.7674 -0.8736 -0.1304
15737TIP3    H268627   1.591   4.248  16.753  0.8938 -0.4346  0.9157
15738TIP3   OH268628   2.497   1.822  17.056  0.0052  0.7196 -0.3463
15738TIP3    H168629   2.566   1.884  17.031  0.3037  1.2543  1.7239
15738TIP3    H268630   2.543   1.753  17.104 -0.6119 -0.0566 -0.8599
15739TIP3   OH268631   6.035   0.937   5.632  0.0902  0.1191 -0.7848
15739TIP3    H168632   5.977   1.011   5.617  0.7264  0.3661 -2.0643
15739TIP3    H268633   5.976   0.861   5.637 -0.3632  0.3670 -2.0735
15740TIP3   OH268634   1.777   0.135   3.449 -0.2799 -0.2093 -0.0056
15740TIP3    H168635   1.783   0.087   3.531  0.1231  0.5328  0.4031
15740TIP3    H268636   1.728   0.077   3.391 -1.8311 -0.1446  1.2010
15741TIP3   OH268637   1.202   2.153  11.003  0.4625 -0.0300  0.4663
15741TIP3    H168638   1.199   2.241  10.966  0.4007 -0.5636 -0.8112
15741TIP3    H268639   1.111   2.125  11.009  0.5716 -0.7787 -1.0334
15742TIP3   OH268640   4.691   3.606   2.690  0.3127 -0.1738  0.0458
15742TIP3    H168641   4.599   3.583   2.679  0.7983 -1.7183 -0.8757
15742TIP3    H268642   4.702   3.686   2.638 -0.3939 -0.2413 -0.2108
15743TIP3   OH268643   2.581   1.302   5.459  0.7828 -0.0754  0.1237
15743TIP3    H168644   2.646   1.263   5.518 -1.0646 -3.2680  0.2027
15743TIP3    H268645   2.520   1.346   5.517 -0.1094 -1.7804  0.5141
15744TIP3   OH268646   0.005   3.284   4.342  0.1618 -0.0691 -0.0907
15744TIP3    H168647   0.062   3.359   4.320 -0.3923  0.2108 -0.5834
15744TIP3    H268648  -0.074   3.324   4.377  0.3183 -0.4665  0.7406
15745TIP3   OH268649   4.325   1.936   5.757  0.0293  0.4238 -0.4388
15745TIP3    H168650   4.287   1.999   5.696 -1.8685 -0.4302 -0.1897
15745TIP3    H268651   4.267   1.938   5.833  0.6256 -0.7263  0.0622
15746TIP3   OH268652   5.645   4.253  15.209  0.2008  0.4397  0.3439
15746TIP3    H168653   5.622   4.242  15.302  2.2832 -0.3140  0.8028
15746TIP3    H268654   5.686   4.170  15.185 -1.4012  0.1682 -1.6215
15747TIP3   OH268655   5.635   2.263  13.909 -0.4227  0.5634 -0.0496
15747TIP3    H168656   5.621   2.345  13.956 -2.0395 -0.8397  1.9654
15747TIP3    H268657   5.638   2.196  13.977  2.5688 -0.8958 -1.5183
15748TIP3   OH268658   3.714   1.185   2.146  0.5952 -0.1601  0.7723
15748TIP3    H168659   3.751   1.151   2.228  0.7546  0.1544  0.8310
15748TIP3    H268660   3.627   1.216   2.171  0.5791 -0.2163  0.7870
15749TIP3   OH268661   1.085   4.489   1.254 -0.3776  0.3460  0.4526
15749TIP3    H168662   1.106   4.398   1.271  0.1579  0.3569 -0.1206
15749TIP3    H268663   1.089   4.531   1.340 -1.2946 -0.3014  0.8113
15750TIP3   OH268664   0.740   4.064  11.270 -0.5924 -0.5759  0.5669
15750TIP3    H168665   0.774   4.046  11.182  0.4664  2.0261  0.4173
15750TIP3    H268666   0.666   4.122  11.256  0.3339  0.8408  1.4370
15751TIP3   OH268667   3.430   1.076   5.529 -0.0077 -0.0752 -0.0265
15751TIP3    H168668   3.345   1.034   5.520 -1.2142  2.3242 -0.4105
15751TIP3    H268669   3.476   1.055   5.447 -0.4273 -0.9429 -0.0463
15752TIP3   OH268670   1.499   2.052  13.264  0.0734  0.3323 -0.3259
15752TIP3    H168671   1.423   2.092  13.307  0.3645 -1.3981  1.8864
15752TIP3    H268672   1.571   2.110  13.284 -0.2153  0.7330 -0.4345
15753TIP3   OH268673   3.655   3.561   0.455  0.1132  0.7104  0.3523
15753TIP3    H168674   3.610   3.640   0.426 -1.2820 -0.5533 -0.9611
15753TIP3    H268675   3.737   3.560   0.404 -0.2089  0.9259 -0.1708
15754TIP3   OH268676   3.611   4.085  12.961  0.3373 -0.2787 -0.3616
15754TIP3    H168677   3.652   4.021  13.019  0.7684 -2.0544 -2.5186
15754TIP3    H268678   3.676   4.098  12.892 -0.4299  1.2612 -0.8071
15755TIP3   OH268679   0.247   3.980   3.343  0.3477 -0.1596 -0.3784
15755TIP3    H168680   0.341   3.961   3.343  0.8453  2.1025  0.7409
15755TIP3    H268681   0.209   3.916   3.403  1.1863 -0.9459 -0.6766
15756TIP3   OH268682   0.434   5.841   3.328  0.1449  0.0218  1.2572
15756TIP3    H168683   0.475   5.926   3.340  0.7499 -0.0683 -0.1643
15756TIP3    H268684   0.426   5.830   3.233  0.1361 -1.5340  1.4166
15757TIP3   OH268685   0.355   0.511   1.380 -0.0006  0.0483  0.1079
15757TIP3    H168686   0.288   0.453   1.418 -1.4161  1.5555 -0.0417
15757TIP3    H268687   0.352   0.492   1.287  0.3592 -0.4730  0.2006
15758TIP3   OH268688   4.148   3.205  12.774  0.1406  0.1320 -0.0845
15758TIP3    H168689   4.170   3.237  12.687 -2.2198  1.0839 -0.3636
15758TIP3    H268690   4.134   3.284  12.826 -0.6936 -0.4208  0.5556
15759TIP3   OH268691   0.172   1.950   2.139  0.3968 -0.7280  0.5187
15759TIP3    H168692   0.221   2.017   2.187  1.4017 -0.7845 -0.4204
15759TIP3    H268693   0.204   1.955   2.049  1.2843 -3.1828  0.6354
15760TIP3   OH268694   3.637   3.783   0.314  0.1112 -0.2638 -0.4225
15760TIP3    H168695   3.585   3.861   0.334 -0.8176 -0.4289 -2.1054
15760TIP3    H268696   3.725   3.816   0.296  0.7804 -0.0328  2.9858
15761TIP3   OH268697   0.738   5.350   4.208  0.0281  0.4786 -0.3388
15761TIP3    H168698   0.793   5.345   4.287 -1.3543  2.5031  0.7851
15761TIP3    H268699   0.790   5.400   4.146  1.5112 -1.8925 -1.1140
15762TIP3   OH268700   0.728   3.098  15.834  0.2460 -0.5862 -0.6384
15762TIP3    H168701   0.766   3.151  15.765  1.6270  0.4618  0.8969
15762TIP3    H268702   0.687   3.161  15.894 -0.8205 -1.4661 -0.4164
15763TIP3   OH268703   2.980   4.319  15.253 -0.2089 -0.0315  0.4569
15763TIP3    H168704   3.006   4.337  15.344 -0.9422  0.0768  0.6479
15763TIP3    H268705   3.046   4.258  15.221  1.4928  1.8275  0.2670
15764TIP3   OH268706   6.774   4.544   4.485 -0.4880  0.8045  0.3995
15764TIP3    H168707   6.837   4.567   4.417  1.2866 -2.1655  0.9513
15764TIP3    H268708   6.808   4.586   4.564 -0.4865  1.1409  0.2196
15765TIP3   OH268709   5.363   5.765   3.786 -0.3985 -0.1053  0.0766
15765TIP3    H168710   5.326   5.830   3.846  1.6472 -0.6904  2.0065
15765TIP3    H268711   5.434   5.811   3.741 -0.4455 -0.3398 -0.2374
15766TIP3   OH268712   5.103   3.929  12.676  0.4220 -0.1411  0.2080
15766TIP3    H168713   5.174   3.962  12.732  0.9420  2.2745 -1.7684
15766TIP3    H268714   5.147   3.896  12.598 -0.6133  2.6937 -1.6667
15767TIP3   OH268715   2.575   3.491  15.833 -0.6314  0.2158  0.5161
15767TIP3    H168716   2.653   3.546  15.836 -0.0486 -0.6268  0.9644
15767TIP3    H268717   2.544   3.498  15.743  0.1658  0.2583  0.2477
15768TIP3   OH268718   6.612   4.556  15.604  0.5804  0.4758  0.4075
15768TIP3    H168719   6.585   4.507  15.527  2.1171  0.0565  0.1172
15768TIP3    H268720   6.577   4.644  15.590 -3.0552 -0.7479  1.4212
15769TIP3   OH268721   2.384   2.659  15.653 -0.2967  0.0046 -0.0669
15769TIP3    H168722   2.391   2.568  15.684  1.7665  0.3501  0.5542
15769TIP3    H268723   2.351   2.708  15.728 -1.1611 -0.1774 -0.3221
15770TIP3   OH268724   6.584   3.334  14.944 -0.0705 -0.0071  0.1715
15770TIP3    H168725   6.623   3.259  14.900 -1.9786 -0.4652 -0.7497
15770TIP3    H268726   6.654   3.400  14.945  1.2621 -1.4028  0.0458
15771TIP3   OH268727   2.523   0.649  15.381  0.2171 -0.6067  0.1567
15771TIP3    H168728   2.560   0.730  15.416  1.5265 -0.9857 -0.2931
15771TIP3    H268729   2.498   0.599  15.458  0.1191 -0.0988  0.4612
15772TIP3   OH268730   5.198   4.104   4.161 -0.0107 -0.7608  0.2270
15772TIP3    H168731   5.180   4.194   4.136 -2.2111 -0.9557  0.9324
15772TIP3    H268732   5.269   4.076   4.104 -1.6888  0.3024 -2.4932
15773TIP3   OH268733   4.965   1.221   0.948 -0.3531 -0.6600 -0.1311
15773TIP3    H168734   4.884   1.262   0.920 -1.5567 -2.1827  1.0219
15773TIP3    H268735   5.005   1.284   1.008 -0.9778 -0.1412 -0.2624
15774TIP3   OH268736   2.638   5.360  11.836  0.0943  0.0810  0.0093
15774TIP3    H168737   2.679   5.364  11.922 -1.4189 -0.4725  0.7774
15774TIP3    H268738   2.683   5.289  11.791 -1.4983 -1.9960  1.6464
15775TIP3   OH268739   2.325   6.473  16.852 -0.4908 -0.6028  0.0025
15775TIP3    H168740   2.395   6.466  16.917 -1.0203  0.4534  0.7018
15775TIP3    H268741   2.306   6.567  16.847 -2.1782 -0.9138  0.1826
15776TIP3   OH268742   2.563   4.390  12.449 -0.1919 -0.3621  0.0097
15776TIP3    H168743   2.645   4.389  12.499 -0.4061  1.3832  0.4100
15776TIP3    H268744   2.494   4.381  12.515 -0.3158 -3.7137 -0.4706
15777TIP3   OH268745   1.643   3.205   5.945  0.4308 -0.1342  0.0647
15777TIP3    H168746   1.589   3.126   5.939  0.7572 -0.3506 -0.0217
15777TIP3    H268747   1.632   3.247   5.860  0.4091 -0.1867  0.0411
15778TIP3   OH268748   1.743   0.372   5.439 -0.0736  0.2161 -0.5009
15778TIP3    H168749   1.819   0.313   5.440  2.2090  3.0775  1.8468
15778TIP3    H268750   1.773   0.449   5.392 -1.9339  0.9507 -0.5304
15779TIP3   OH268751   5.876   2.437   5.232 -0.1309  0.2689 -0.4375
15779TIP3    H168752   5.854   2.381   5.158  2.7678  0.8153 -1.8022
15779TIP3    H268753   5.804   2.426   5.294 -1.6539 -1.6879 -2.5047
15780TIP3   OH268754   6.443   5.992  12.394 -0.4128  0.2883  0.3095
15780TIP3    H168755   6.387   5.921  12.362 -1.3560  1.3939 -0.5294
15780TIP3    H268756   6.389   6.070  12.387  1.3784  1.4414 -0.8542
15781TIP3   OH268757   4.357   0.082   4.974  0.1855  0.0554  0.7974
15781TIP3    H168758   4.407   0.115   5.048  1.0799  0.0478  0.1965
15781TIP3    H268759   4.272   0.059   5.011  0.3979  0.6885  1.6912
15782TIP3   OH268760   3.714   1.470  16.445  0.1832 -0.4032  0.2968
15782TIP3    H168761   3.638   1.423  16.478 -0.4828  0.1019 -0.4914
15782TIP3    H268762   3.785   1.407  16.450  0.0057 -0.4725  2.2416
15783TIP3   OH268763   4.767   2.411   4.597 -0.2682 -0.0439  0.1433
15783TIP3    H168764   4.713   2.491   4.602 -1.5023 -0.7868 -0.8637
15783TIP3    H268765   4.847   2.439   4.553 -0.5752  0.6981  0.0454
15784TIP3   OH268766   1.157   5.264   0.700 -0.1712  0.0152 -0.3451
15784TIP3    H168767   1.139   5.210   0.623 -1.5330 -0.4431  0.2875
15784TIP3    H268768   1.142   5.354   0.669 -3.0017 -0.2944 -0.0367
15785TIP3   OH268769   3.200   5.033   4.811 -0.1993 -0.5018  0.2521
15785TIP3    H168770   3.176   5.126   4.804  0.0678 -0.4949 -0.6474
15785TIP3    H268771   3.183   5.011   4.902  4.1980  1.6868  1.7579
15786TIP3   OH268772   5.174   2.480  15.427  0.4749 -0.1692 -0.1160
15786TIP3    H168773   5.225   2.484  15.508  1.7455 -0.7377 -0.8924
15786TIP3    H268774   5.166   2.386  15.408 -0.7224 -0.0853 -0.0999
15787TIP3   OH268775   1.251   3.857   4.014 -0.3484  0.0443  0.1077
15787TIP3    H168776   1.243   3.931   4.074  0.3188  0.3819 -0.2105
15787TIP3    H268777   1.343   3.857   3.989 -0.2992 -1.0223  0.2632
15788TIP3   OH268778   2.961   1.495  12.526 -0.5252  0.3347  0.3344
15788TIP3    H168779   2.998   1.491  12.437 -2.1987 -0.0988 -0.3541
15788TIP3    H268780   2.946   1.404  12.550  0.1459  0.4411  1.1628
15789TIP3   OH268781   6.540   1.896  13.399 -0.2675 -0.4221  0.3141
15789TIP3    H168782   6.472   1.881  13.334  0.6741 -1.8672 -0.3566
15789TIP3    H268783   6.520   1.982  13.435  1.2032  1.9414 -4.2991
15790TIP3   OH268784   5.406   4.597  11.229  0.0091  0.5134  0.1355
15790TIP3    H168785   5.419   4.502  11.219  3.3553  0.9693 -0.2181
15790TIP3    H268786   5.369   4.625  11.145 -0.4151 -0.3787  0.0169
15791TIP3   OH268787   3.614   1.080  15.305 -0.1603  0.2253  0.4474
15791TIP3    H168788   3.536   1.055  15.255  0.5711 -0.1505 -0.5101
15791TIP3    H268789   3.579   1.113  15.388 -1.3671  0.5961 -0.1945
15792TIP3   OH268790   1.364   6.192   3.784  0.0169  0.2119 -0.7070
15792TIP3    H168791   1.453   6.222   3.769 -0.1871 -0.1383 -2.7046
15792TIP3    H268792   1.328   6.254   3.848  1.2079  1.2269 -1.0068
15793TIP3   OH268793   4.868   6.177  15.078  0.4194 -0.0630  0.3213
15793TIP3    H168794   4.888   6.204  15.168  1.9241 -0.4387  0.1157
15793TIP3    H268795   4.860   6.259  15.029 -0.3978  0.1411  0.7874
15794TIP3   OH268796   0.417   5.281   0.843 -0.1366  0.1154 -0.3699
15794TIP3    H168797   0.349   5.221   0.874 -0.5405 -0.8577 -2.9882
15794TIP3    H268798   0.456   5.237   0.768  1.3858  1.9759 -0.7263
15795TIP3   OH268799   3.880   3.391  11.715 -0.4580 -0.3177  0.2686
15795TIP3    H168800   3.954   3.427  11.764 -0.7092  0.2073  0.2639
15795TIP3    H268801   3.808   3.451  11.733 -0.5224 -0.0526 -0.8407
15796TIP3   OH268802   3.896   3.630   5.072  0.0314 -0.1466 -0.2247
15796TIP3    H168803   3.975   3.655   5.120 -0.0768 -0.7988  0.3059
15796TIP3    H268804   3.921   3.638   4.980  1.0959 -1.4635 -0.0752
15797TIP3   OH268805   3.324   4.656   3.093  0.7595 -0.3407 -0.0739
15797TIP3    H168806   3.276   4.674   3.012  0.3860  1.7685  0.5698
15797TIP3    H268807   3.299   4.728   3.152  1.3647 -1.5940  1.7608
15798TIP3   OH268808   6.692   3.337   1.506  0.2431  0.2747  0.7390
15798TIP3    H168809   6.654   3.251   1.525  1.8743 -0.2735  1.6976
15798TIP3    H268810   6.715   3.333   1.413 -0.5387  0.0096  0.5571
15799TIP3   OH268811   3.361   6.456   3.631 -0.3774 -0.4533  0.1583
15799TIP3    H168812   3.357   6.517   3.705  0.2237  0.7613 -0.7962
15799TIP3    H268813   3.438   6.402   3.650 -1.4598 -1.5924  1.4905
15800TIP3   OH268814   5.933   5.374  17.034  0.7210  0.4655  0.2542
15800TIP3    H168815   5.991   5.318  16.982  0.0984 -0.2255  0.3035
15800TIP3    H268816   5.941   5.460  16.993 -0.5062 -0.2682 -1.5975
15801TIP3   OH268817   0.781   1.420   0.660  0.2632  0.3349 -0.4404
15801TIP3    H168818   0.799   1.364   0.585 -0.0248  1.4032 -1.3142
15801TIP3    H268819   0.865   1.425   0.706  0.6255  0.2635 -1.0817
15802TIP3   OH268820   6.309   0.981  14.802 -0.9523  0.2763  0.3594
15802TIP3    H168821   6.216   0.961  14.817 -1.1578 -0.7096 -2.0155
15802TIP3    H268822   6.342   1.005  14.888 -3.1297 -0.5301  1.4713
15803TIP3   OH268823   0.122   4.337  14.225  0.6983 -0.0266  0.0634
15803TIP3    H168824   0.179   4.268  14.260 -2.4761 -1.7846  2.0281
15803TIP3    H268825   0.156   4.418  14.262  3.0231 -0.7893 -0.3204
15804TIP3   OH268826   3.643   3.099  15.659  0.0101  0.3790 -0.1425
15804TIP3    H168827   3.657   3.005  15.651 -0.6206  0.2825 -0.1675
15804TIP3    H268828   3.677   3.121  15.745  1.1811  0.3283 -0.5801
15805TIP3   OH268829   4.399   0.413   4.333 -0.3662  0.0584  0.5281
15805TIP3    H168830   4.307   0.395   4.312 -0.7210  2.1970  0.1189
15805TIP3    H268831   4.448   0.374   4.261 -1.0452 -0.0847  0.1402
15806TIP3   OH268832   2.419   0.284  12.466 -0.2275  0.3267 -0.4173
15806TIP3    H168833   2.324   0.295  12.474 -0.1586  0.5096  0.1912
15806TIP3    H268834   2.452   0.374  12.460 -0.0202  0.3061  0.3128
15807TIP3   OH268835   2.201   4.385   4.754  0.2088  0.5020  0.7344
15807TIP3    H168836   2.208   4.417   4.664  1.5451  0.4801  0.8169
15807TIP3    H268837   2.179   4.462   4.805 -0.3111  0.5622  0.4229
15808TIP3   OH268838   5.809   0.162  16.960  0.7135 -0.2937 -0.3454
15808TIP3    H168839   5.789   0.076  16.924 -1.2765 -0.1155  0.2765
15808TIP3    H268840   5.828   0.146  17.052  2.7677 -0.3586 -0.7598
15809TIP3   OH268841   5.722   1.156   3.597  0.3296  0.5641  0.2421
15809TIP3    H168842   5.761   1.198   3.674 -2.2526  2.3663  0.6003
15809TIP3    H268843   5.723   1.062   3.618  0.1076  0.9889  2.2578
15810TIP3   OH268844   0.932   6.777  13.256  0.1816  0.5437 -0.1972
15810TIP3    H168845   0.880   6.857  13.252  0.5667  0.8193  0.2886
15810TIP3    H268846   0.926   6.749  13.347  0.2533  0.1584 -0.3105
15811TIP3   OH268847   0.548   2.370  14.248 -0.0656  0.4574 -0.1919
15811TIP3    H168848   0.632   2.416  14.245  0.7930 -1.1851 -2.2083
15811TIP3    H268849   0.485   2.433  14.214  0.3296  1.6548  1.2246
15812TIP3   OH268850   2.828   3.097  16.643 -0.5210 -0.4362  0.8460
15812TIP3    H168851   2.790   3.046  16.715 -2.1995 -1.6938 -0.8741
15812TIP3    H268852   2.837   3.034  16.572  1.5238  0.6888  0.0895
15813TIP3   OH268853   5.186   6.625  12.168 -0.1528  0.3317  0.2926
15813TIP3    H168854   5.221   6.544  12.131  0.8725  0.9692 -0.1339
15813TIP3    H268855   5.111   6.646  12.113  0.8389  0.8002 -0.8852
15814TIP3   OH268856   5.721   3.550   3.936 -0.3435  0.0322 -0.2866
15814TIP3    H168857   5.786   3.486   3.965  0.2375  0.3242 -0.9311
15814TIP3    H268858   5.739   3.562   3.843  1.1135  2.9539  0.3343
15815TIP3   OH268859   1.336   6.087   1.174 -0.2140 -0.5073  0.1128
15815TIP3    H168860   1.392   6.126   1.106  0.2316 -3.8034 -1.5176
15815TIP3    H268861   1.251   6.077   1.132 -0.2539 -1.4915  0.4133
15816TIP3   OH268862   3.424   3.240  15.179  0.4942 -0.1757 -0.3849
15816TIP3    H168863   3.447   3.147  15.185  0.7796 -0.0461  0.5246
15816TIP3    H268864   3.403   3.253  15.087 -0.8332 -1.4579 -0.2915
15817TIP3   OH268865   1.543   5.516  13.937 -0.1614 -0.3129  0.8474
15817TIP3    H168866   1.465   5.466  13.916  0.5336 -0.7365 -0.8862
15817TIP3    H268867   1.597   5.511  13.857  0.1349  2.7890  0.7622
15818TIP3   OH268868   0.914   6.250  11.637 -0.5695  0.0073  0.9074
15818TIP3    H168869   0.942   6.177  11.582 -0.7512 -0.6817  1.7283
15818TIP3    H268870   0.990   6.309  11.638 -0.7211  0.2462 -0.4350
15819TIP3   OH268871   1.926   0.006   1.279 -0.1948 -0.5976 -0.4565
15819TIP3    H168872   1.918   0.100   1.265  0.3525 -0.4199  0.4249
15819TIP3    H268873   1.835  -0.026   1.279 -0.4467  0.1045  0.4430
15820TIP3   OH268874   0.202   5.546  16.342 -0.1417 -0.0669  0.3142
15820TIP3    H168875   0.127   5.495  16.373 -0.6225  1.4222  1.7377
15820TIP3    H268876   0.182   5.636  16.371  1.1154  0.7424 -1.2841
15821TIP3   OH268877   5.019   0.548  14.540  0.2451  0.3941 -0.5032
15821TIP3    H168878   4.984   0.501  14.465  0.9270 -0.5500 -0.2421
15821TIP3    H268879   5.108   0.514  14.551 -0.2272 -0.3319  1.4098
15822TIP3   OH268880   4.961   5.587  14.618  0.3845 -0.0160  0.2729
15822TIP3    H168881   5.028   5.596  14.551  1.1776  1.0147  1.1805
15822TIP3    H268882   5.010   5.580  14.700 -0.5650 -1.3852  0.7350
15823TIP3   OH268883   4.611   1.126  13.520  0.0686  0.5559  0.4582
15823TIP3    H168884   4.524   1.085  13.525 -1.2190  3.0667 -0.4603
15823TIP3    H268885   4.670   1.054  13.497 -1.6437 -1.3230  1.7690
15824TIP3   OH268886   3.340   2.695   3.771 -0.0699  0.2439 -0.1249
15824TIP3    H168887   3.251   2.700   3.806  0.6877 -1.2739  2.1093
15824TIP3    H268888   3.331   2.646   3.689 -1.2925  0.1940  0.0381
15825TIP3   OH268889   5.743   4.577  10.989 -0.6828  0.6028  0.3331
15825TIP3    H168890   5.746   4.552  10.897  1.5982 -0.3394  0.6161
15825TIP3    H268891   5.826   4.623  11.003 -0.6997  0.1154  2.0945
15826TIP3   OH268892   2.677   0.766   0.799  0.0337  0.1200  0.4676
15826TIP3    H168893   2.743   0.761   0.869  0.2983 -0.6266  0.1768
15826TIP3    H268894   2.713   0.711   0.729 -0.6983  0.0556  0.1366
15827TIP3   OH268895   6.696   5.576  17.150  0.1562 -0.3274  0.1756
15827TIP3    H168896   6.668   5.543  17.235 -0.2868 -1.4760 -0.3944
15827TIP3    H268897   6.635   5.646  17.129 -0.0845 -0.4296  0.5436
15828TIP3   OH268898   0.447   1.395  13.880  0.1563 -0.1038 -0.2361
15828TIP3    H168899   0.366   1.346  13.896 -1.1080  1.8352 -0.5638
15828TIP3    H268900   0.439   1.473  13.935  1.0563  0.8856 -1.4847
15829TIP3   OH268901   5.597   5.069   5.775 -0.2133  0.2789  0.1690
15829TIP3    H168902   5.632   4.980   5.782  0.2641  0.4792  0.3232
15829TIP3    H268903   5.630   5.114   5.853 -0.8880  0.4427  0.3630
15830TIP3   OH268904   6.581   5.663   1.012 -0.3279  0.4872 -0.2704
15830TIP3    H168905   6.566   5.691   0.921 -1.4538  0.6533 -0.0360
15830TIP3    H268906   6.543   5.732   1.065 -0.2139  0.0855  0.3343
15831TIP3   OH268907   1.699   0.674  11.265  0.8177 -0.2947  0.0317
15831TIP3    H168908   1.786   0.702  11.237  1.1205 -1.3693 -0.1325
15831TIP3    H268909   1.662   0.631  11.187  1.3149 -2.5062  0.9680
15832TIP3   OH268910   0.050   5.065   4.922 -0.2951  0.1339 -0.1877
15832TIP3    H168911   0.038   5.107   4.836  1.0382  1.7621  0.4106
15832TIP3    H268912   0.144   5.064   4.935 -0.4330 -1.2076  0.7420
15833TIP3   OH268913   2.359   4.664   4.245 -0.6781 -0.0410 -0.4608
15833TIP3    H168914   2.277   4.712   4.234 -1.2627 -0.7600  0.6859
15833TIP3    H268915   2.414   4.693   4.171 -1.5321  1.3081 -0.5854
15834TIP3   OH268916   4.382   0.987   2.795  0.1396 -0.1116  0.3033
15834TIP3    H168917   4.325   0.933   2.850 -0.7015  1.9869  1.5519
15834TIP3    H268918   4.336   0.994   2.712 -0.7532  0.3616  0.8261
15835TIP3   OH268919   4.100   2.511  15.779 -0.1753  0.6938 -0.1637
15835TIP3    H168920   4.057   2.541  15.860 -1.1210 -2.8833  0.7558
15835TIP3    H268921   4.186   2.553  15.780 -0.6213  1.6216  2.1069
15836TIP3   OH268922   1.731   6.131  17.231 -0.6393 -0.6016 -0.2775
15836TIP3    H168923   1.812   6.118  17.278 -0.3816 -1.6201 -0.9801
15836TIP3    H268924   1.662   6.111  17.294 -0.3581  0.2130  0.3000
15837TIP3   OH268925   3.087   6.543   5.754  0.3258 -0.5263  1.0079
15837TIP3    H168926   3.054   6.628   5.782  2.2279  0.1102  1.4057
15837TIP3    H268927   3.115   6.500   5.835  1.0556 -0.7765  0.6341
15838TIP3   OH268928   5.022   0.190   5.652 -0.2871  1.0669  0.3198
15838TIP3    H168929   4.976   0.132   5.590  0.5295  0.2190  0.4965
15838TIP3    H268930   5.087   0.235   5.599  0.7812 -0.0634  0.6413
15839TIP3   OH268931   0.479   4.204   2.489 -0.4059 -0.1688 -0.1969
15839TIP3    H168932   0.391   4.212   2.453  0.2032  2.4730 -1.1710
15839TIP3    H268933   0.533   4.180   2.415  0.3609  2.3427 -0.4837
15840TIP3   OH268934   2.072   0.180   5.093 -0.4197 -0.2891 -0.3137
15840TIP3    H168935   2.119   0.255   5.129 -1.0598  0.5518 -1.1883
15840TIP3    H268936   1.985   0.184   5.133 -0.0138 -1.3850  0.7031
15841TIP3   OH268937   2.729   3.373  12.181  0.0327 -0.5272  0.4921
15841TIP3    H168938   2.820   3.369  12.152  0.2006  0.0505  0.9373
15841TIP3    H268939   2.678   3.356  12.101  0.5305 -1.0881  0.2874
15842TIP3   OH268940   2.196   0.574  16.147  0.4082  0.8805 -0.3348
15842TIP3    H168941   2.115   0.618  16.173  0.1163  1.3875 -2.0568
15842TIP3    H268942   2.205   0.501  16.209 -0.3054  1.9997  1.1122
15843TIP3   OH268943   4.771   4.103   5.028  0.1250  0.0439 -0.6142
15843TIP3    H168944   4.769   4.096   4.933 -1.1606  0.2918 -0.6115
15843TIP3    H268945   4.731   4.022   5.059  0.7718 -0.1502 -0.2802
15844TIP3   OH268946   5.350   1.447   4.811  0.0715  0.3749  0.2251
15844TIP3    H168947   5.292   1.377   4.782  0.8303 -0.8592  1.5956
15844TIP3    H268948   5.307   1.527   4.782 -0.7555 -0.6566 -1.4748
15845TIP3   OH268949   2.311   3.959   0.345 -0.1519  0.0053  0.2390
15845TIP3    H168950   2.352   3.877   0.373 -1.5360 -0.3948  1.1439
15845TIP3    H268951   2.269   3.937   0.261 -0.6589 -0.2606  0.5598
15846TIP3   OH268952   0.332   6.578  12.615 -0.1892 -0.0150  0.4572
15846TIP3    H168953   0.416   6.622  12.603  0.1904 -1.1453 -1.1661
15846TIP3    H268954   0.274   6.620  12.552 -0.4866 -0.1775  0.6193
15847TIP3   OH268955   4.464   6.363  13.326  0.1052 -0.6776  0.2928
15847TIP3    H168956   4.379   6.320  13.332 -0.5189  0.6335  1.4115
15847TIP3    H268957   4.495   6.368  13.416  1.7720 -1.8960 -0.1954
15848TIP3   OH268958   3.977   0.251  12.147  0.3635  0.1200  0.4090
15848TIP3    H168959   3.920   0.323  12.121 -0.3985 -0.1712  1.2724
15848TIP3    H268960   3.983   0.195  12.069  0.9184  1.0702 -0.2528
15849TIP3   OH268961   3.332   4.974  11.686  0.4302  0.2079 -0.3066
15849TIP3    H168962   3.241   4.945  11.678  0.9873 -1.5440 -0.5126
15849TIP3    H268963   3.384   4.894  11.672  2.0607  1.5475 -2.1737
15850TIP3   OH268964   1.052   5.337  16.310  0.1221  1.1291 -0.0157
15850TIP3    H168965   1.080   5.410  16.254  1.0361 -0.2738 -1.4624
15850TIP3    H268966   0.963   5.359  16.336  0.2849  2.6264 -0.6639
15851TIP3   OH268967   6.203   5.268   4.947  0.3444 -0.0836 -0.1365
15851TIP3    H168968   6.193   5.300   5.037 -1.5135  1.3747 -0.8166
15851TIP3    H268969   6.118   5.284   4.907  1.4062  0.0316 -2.4018
15852TIP3   OH268970   4.942   1.564  14.020 -0.5818 -0.3772  0.3451
15852TIP3    H168971   4.941   1.585  14.114  0.3267  0.6170  0.1483
15852TIP3    H268972   4.855   1.585  13.989 -0.7471 -0.2755  0.8775
15853TIP3   OH268973   3.527   4.426   4.195 -0.4004  0.5125  0.3010
15853TIP3    H168974   3.616   4.459   4.195 -0.8749  1.7988  0.5949
15853TIP3    H268975   3.530   4.349   4.253  1.2467 -1.5095 -2.3932
15854TIP3   OH268976   1.657   3.114   1.451  0.2948 -0.0517 -0.0424
15854TIP3    H168977   1.696   3.030   1.477  0.7305  0.3433  0.5910
15854TIP3    H268978   1.724   3.179   1.470 -0.3063  0.5247  0.1344
15855TIP3   OH268979   6.320   4.747   4.588 -0.7144 -0.0069 -0.1698
15855TIP3    H168980   6.226   4.764   4.593 -0.9351 -1.5710  1.5724
15855TIP3    H268981   6.360   4.815   4.642 -0.8479  0.5790 -0.8031
15856TIP3   OH268982   0.879   5.194  13.385  0.2638 -0.5139 -0.4896
15856TIP3    H168983   0.945   5.126  13.368 -0.8842 -1.2703 -2.0849
15856TIP3    H268984   0.828   5.161  13.459  1.6683  0.0908  0.7778
15857TIP3   OH268985   0.432   1.371   6.297  0.8569 -0.1029 -0.3446
15857TIP3    H168986   0.464   1.293   6.252  1.4349  0.6991 -1.3467
15857TIP3    H268987   0.511   1.422   6.315  0.5109  0.1268  0.5633
15858TIP3   OH268988   6.684   2.731   4.785 -0.0328  0.4522  0.0229
15858TIP3    H168989   6.625   2.695   4.851  0.9662 -0.5991  0.3551
15858TIP3    H268990   6.737   2.657   4.757 -0.1555  0.9784 -1.6657
15859TIP3   OH268991   1.423   0.035   4.298  0.3406  0.0686  0.0777
15859TIP3    H168992   1.349   0.025   4.237 -1.0625  1.3584  1.5040
15859TIP3    H268993   1.467   0.115   4.268  1.8225 -1.2671 -1.4081
15860TIP3   OH268994   6.065   1.956   2.274 -0.8128 -0.6978 -0.6435
15860TIP3    H168995   6.146   1.929   2.317 -1.1427 -0.4732  0.1410
15860TIP3    H268996   6.093   2.019   2.207 -0.4987  0.9231  0.9623
15861TIP3   OH268997   6.552   2.328  12.657  0.0340  0.5373 -0.0122
15861TIP3    H168998   6.538   2.401  12.717 -0.8660  0.3675 -0.0225
15861TIP3    H268999   6.466   2.290  12.644  1.0111 -2.9194  2.9485
15862TIP3   OH269000   2.617   5.856   3.241  0.8124 -0.0196 -0.0999
15862TIP3    H169001   2.590   5.914   3.171  1.7087  1.0163  0.3927
15862TIP3    H269002   2.698   5.895   3.275  2.0062 -2.1306 -0.4587
15863TIP3   OH269003   2.746   4.018   6.156 -0.3084 -0.3425 -0.0945
15863TIP3    H169004   2.656   4.046   6.176  0.3853  0.4065  2.0873
15863TIP3    H269005   2.776   4.080   6.090 -1.0119  0.1210  0.0130
15864TIP3   OH269006   1.686   0.523  13.036  0.4048 -0.1358 -0.7120
15864TIP3    H169007   1.598   0.559  13.025  0.5827  1.0822  1.5101
15864TIP3    H269008   1.687   0.488  13.125  2.1863 -0.0901 -0.6917
15865TIP3   OH269009   6.483   4.403  11.644  0.2181 -0.6522 -0.3571
15865TIP3    H169010   6.456   4.492  11.664  1.5066  0.1597 -2.1239
15865TIP3    H269011   6.576   4.409  11.623 -0.1091 -2.0682 -2.4504
15866TIP3   OH269012   5.610   5.549  10.945  0.2009 -0.1313  0.2307
15866TIP3    H169013   5.623   5.592  11.029  1.4471  0.0022 -0.0224
15866TIP3    H269014   5.599   5.621  10.883 -3.2034 -0.2283  0.6260
15867TIP3   OH269015   1.490   2.618  13.421 -0.5879 -0.4555 -0.0904
15867TIP3    H169016   1.573   2.659  13.445  0.4109 -2.1493 -0.5536
15867TIP3    H269017   1.464   2.662  13.341  0.1280 -0.2622 -0.2216
15868TIP3   OH269018   5.897   2.352   3.774 -0.3503 -0.2566  0.2092
15868TIP3    H169019   5.816   2.400   3.786  0.1738  0.7971 -0.3764
15868TIP3    H269020   5.874   2.261   3.791 -1.1865  0.2829  2.0760
15869TIP3   OH269021   4.347   5.060  14.008  0.1769 -0.0261  0.0235
15869TIP3    H169022   4.353   5.150  14.041 -3.5043  0.0413  0.7551
15869TIP3    H269023   4.309   5.070  13.920  0.7263 -0.8237 -0.3055
15870TIP3   OH269024   4.315   3.008  16.966  0.1018 -0.1822 -0.2625
15870TIP3    H169025   4.285   2.977  17.051  0.0238  0.8771  0.1030
15870TIP3    H269026   4.356   3.092  16.984  0.2905 -0.0553 -1.2434
15871TIP3   OH269027   5.711   1.399   1.484  0.4291  1.0354 -0.0738
15871TIP3    H169028   5.649   1.472   1.486  0.2257  0.8798 -0.5734
15871TIP3    H269029   5.658   1.323   1.461  0.1267  0.1806  3.1923
15872TIP3   OH269030   3.093   5.454   3.480 -0.3696  0.4092  0.1635
15872TIP3    H169031   3.067   5.497   3.399  0.7728  0.0159 -0.4319
15872TIP3    H269032   3.021   5.393   3.498 -0.2666 -0.0876 -1.0056
15873TIP3   OH269033   5.323   5.914  10.803 -0.0376  0.3712 -0.0071
15873TIP3    H169034   5.367   5.854  10.863  0.1999  0.8862  0.3323
15873TIP3    H269035   5.305   5.861  10.725  0.3562 -0.0848  0.2117
15874TIP3   OH269036   4.514   3.690  12.248 -0.6011 -0.0336  0.2520
15874TIP3    H169037   4.429   3.664  12.283 -0.9825 -0.8156 -1.2186
15874TIP3    H269038   4.553   3.609  12.215 -0.2470  0.6483 -1.0670
15875TIP3   OH269039   1.686   3.834   2.252  0.3192  0.3001  0.4532
15875TIP3    H169040   1.685   3.804   2.342  0.4069 -0.9006  0.0576
15875TIP3    H269041   1.761   3.790   2.212 -0.5812 -0.3038 -0.5819
15876TIP3   OH269042   6.010   0.026  13.456 -0.3666 -0.3340 -0.3036
15876TIP3    H169043   5.999   0.010  13.550 -1.5661  1.6205 -0.0754
15876TIP3    H269044   6.051  -0.054  13.423 -1.6145 -1.7988  1.5497
15877TIP3   OH269045   4.935   2.795  10.744 -0.5174  0.0400 -0.8288
15877TIP3    H169046   4.883   2.721  10.713 -1.6257  0.7222 -0.6272
15877TIP3    H269047   4.981   2.762  10.821 -1.7014 -0.1918 -0.2077
15878TIP3   OH269048   1.277   4.201  11.152  0.2626  0.0862 -0.2799
15878TIP3    H169049   1.181   4.200  11.153  0.2106 -3.0594 -0.6812
15878TIP3    H269050   1.301   4.108  11.151  3.3379  0.7704  2.0556
15879TIP3   OH269051   3.450   6.771   3.033 -0.5093  0.6275  0.6171
15879TIP3    H169052   3.358   6.746   3.027 -0.4112  0.8111 -1.9822
15879TIP3    H269053   3.456   6.856   2.989  1.0211  0.2580  0.0633
15880TIP3   OH269054   2.141   4.054  16.697  0.2026  0.3619 -0.4486
15880TIP3    H169055   2.222   4.025  16.739  0.2521  1.9198  0.5887
15880TIP3    H269056   2.168   4.127  16.641 -0.9210  3.2862  2.6116
15881TIP3   OH269057   6.362   2.477   4.375 -0.1213  0.5998  0.1939
15881TIP3    H169058   6.294   2.491   4.309  0.1098  1.0307  0.0443
15881TIP3    H269059   6.389   2.565   4.401  0.6280  0.4398 -0.0084
15882TIP3   OH269060   4.592   1.178   4.400  0.1411  0.1293 -0.1463
15882TIP3    H169061   4.499   1.156   4.389  0.2055  0.2062 -0.8329
15882TIP3    H269062   4.629   1.103   4.448  0.4413 -1.4419 -2.7583
15883TIP3   OH269063   5.794   6.565  12.726 -0.4688  0.1834  0.1328
15883TIP3    H169064   5.824   6.479  12.698 -0.4721  0.5737 -1.1006
15883TIP3    H269065   5.736   6.548  12.800 -0.5383 -0.8745 -0.1632
15884TIP3   OH269066   5.853   0.584   6.740 -0.1017  0.0046 -0.1480
15884TIP3    H169067   5.892   0.611   6.657 -1.3970 -0.6813 -1.0078
15884TIP3    H269068   5.776   0.640   6.749 -0.8136 -0.9502 -0.1762
15885TIP3   OH269069   1.826   6.496   5.028 -0.0369  0.0934 -0.1863
15885TIP3    H169070   1.915   6.462   5.034 -0.1134  0.0258  0.7219
15885TIP3    H269071   1.789   6.481   5.116 -0.1723  2.2275  0.1352
15886TIP3   OH269072   3.346   1.883  14.956 -0.1787 -0.0781  0.7527
15886TIP3    H169073   3.311   1.801  14.991 -0.6283 -0.0537  0.3753
15886TIP3    H269074   3.386   1.858  14.873 -0.9560  0.1992  0.2904
15887TIP3   OH269075   4.446   2.319  12.468  0.1221 -0.3849  0.0172
15887TIP3    H169076   4.433   2.239  12.418  1.1317 -1.0714  0.8153
15887TIP3    H269077   4.442   2.389  12.403  2.4430 -1.3332 -1.2228
15888TIP3   OH269078   2.055   3.520   6.175 -0.8612  0.7352 -0.2754
15888TIP3    H169079   2.117   3.496   6.244  0.1916 -0.1606 -1.5165
15888TIP3    H269080   2.095   3.488   6.094 -3.0340 -0.0426 -1.0867
15889TIP3   OH269081   1.594   2.454   1.336 -0.4075  0.0618 -0.1103
15889TIP3    H169082   1.638   2.538   1.329 -0.5658  0.1828  0.3071
15889TIP3    H269083   1.628   2.402   1.264  1.3165 -0.2627  0.9256
15890TIP3   OH269084   0.960   2.466   4.079 -0.3245 -0.0434  0.3027
15890TIP3    H169085   0.928   2.509   4.158  0.3196  0.9012  0.0704
15890TIP3    H269086   1.031   2.410   4.109 -0.7114 -0.4144  0.5215
15891TIP3   OH269087   4.529   0.070   4.013  0.0428 -0.3749 -0.2066
15891TIP3    H169088   4.533   0.001   4.079 -0.6072  1.2390  1.5884
15891TIP3    H269089   4.577   0.036   3.938  1.0920 -2.1274  1.2423
15892TIP3   OH269090   2.985   1.937   5.774 -0.0957  0.5061  0.5011
15892TIP3    H169091   3.079   1.919   5.770 -0.6610 -2.6325  0.3300
15892TIP3    H269092   2.962   1.927   5.866 -0.2404  1.4849  0.5764
15893TIP3   OH269093   3.389   6.114   0.411  0.1064 -0.2370 -0.6084
15893TIP3    H169094   3.481   6.094   0.432  0.4214  1.1571 -0.5802
15893TIP3    H269095   3.351   6.140   0.495 -0.8349 -2.6374 -0.2598
15894TIP3   OH269096   3.158   1.163   4.714  0.0354  0.9344  0.4155
15894TIP3    H169097   3.251   1.153   4.736  0.2900 -0.0499 -1.0024
15894TIP3    H269098   3.114   1.165   4.798  1.2991  0.8901  1.1003
15895TIP3   OH269099   0.393   0.698  12.036 -0.0061 -0.3214  0.2419
15895TIP3    H169100   0.313   0.656  12.003 -0.3777 -0.8103  1.7049
15895TIP3    H269101   0.379   0.791  12.021  0.4741 -0.6247 -2.2893
15896TIP3   OH269102   6.176   6.201  14.193  0.0707  0.4756  0.3177
15896TIP3    H169103   6.151   6.253  14.270 -0.4120 -1.1120  1.2699
15896TIP3    H269104   6.168   6.110  14.223 -3.3840 -0.2639 -2.6292
15897TIP3   OH269105   5.493   3.439  16.556  0.1931  0.2246 -0.4354
15897TIP3    H169106   5.562   3.373  16.559 -1.5409 -1.5791  3.4077
15897TIP3    H269107   5.422   3.397  16.507  0.1494  0.4098 -0.5359
15898TIP3   OH269108   2.071   6.380   3.315  0.3736 -0.3167 -0.6229
15898TIP3    H169109   2.127   6.302   3.316  3.3338  1.7283 -0.9399
15898TIP3    H269110   2.131   6.453   3.332 -2.6294  1.7478  1.5564
15899TIP3   OH269111   5.486   3.188  14.534 -0.1763 -0.2932  0.3189
15899TIP3    H169112   5.455   3.277  14.516 -0.2870 -0.4603 -0.3305
15899TIP3    H269113   5.581   3.194  14.526 -0.1952 -0.2698  0.1171
15900TIP3   OH269114   5.718   1.869  13.172 -0.0434  0.2143 -0.2598
15900TIP3    H169115   5.730   1.853  13.266  1.4683  0.1159 -0.4560
15900TIP3    H269116   5.783   1.813  13.130 -0.5593  0.4316 -1.3634
15901TIP3   OH269117   0.620   1.056   2.010  0.0109  0.2436  0.7391
15901TIP3    H169118   0.623   1.127   1.945 -1.6794  0.3102  0.7048
15901TIP3    H269119   0.622   1.101   2.095 -2.4186  0.4464  0.7241
15902TIP3   OH269120   6.665   0.477   6.768 -0.8959 -0.2200 -0.0054
15902TIP3    H169121   6.737   0.519   6.816  2.0240 -0.8611 -3.5623
15902TIP3    H269122   6.686   0.384   6.768 -2.8289 -0.6806  0.6081
15903TIP3   OH269123   4.003   1.958   5.111 -0.3233  0.0083  0.3673
15903TIP3    H169124   4.028   2.050   5.112 -0.0520 -0.0540 -0.3286
15903TIP3    H269125   3.939   1.949   5.182  0.0264  0.6224  0.7608
15904TIP3   OH269126   2.359   6.114   5.836 -0.0579 -0.3196  1.1111
15904TIP3    H169127   2.432   6.101   5.897  0.5627  1.3929  0.7518
15904TIP3    H269128   2.285   6.137   5.892  0.0581 -0.5510  1.3627
15905TIP3   OH269129   1.456   6.108  16.633 -0.0588 -0.3274  0.5484
15905TIP3    H169130   1.519   6.176  16.611  0.6609 -0.7468  1.2657
15905TIP3    H269131   1.373   6.154  16.647  0.0564  0.2157 -0.5135
15906TIP3   OH269132   2.043   4.228  14.584  0.9040 -0.8483  0.5544
15906TIP3    H169133   2.018   4.320  14.579 -3.0701 -1.8718  0.0386
15906TIP3    H269134   2.041   4.207  14.677  0.2987 -0.7925  0.5541
15907TIP3   OH269135   5.988   3.675   3.918  0.3226  0.5408 -0.4498
15907TIP3    H169136   6.040   3.755   3.922 -0.3902  1.0313 -0.8530
15907TIP3    H269137   5.917   3.689   3.980  1.1826 -0.5096  0.7887
15908TIP3   OH269138   5.817   0.772  16.619  0.4151 -0.1631 -0.1690
15908TIP3    H169139   5.782   0.769  16.708 -1.1364 -0.1946 -0.7734
15908TIP3    H269140   5.856   0.685  16.605 -0.0740 -0.4412  0.1893
15909TIP3   OH269141   4.098   6.440  13.216  0.0369  0.1522 -0.5483
15909TIP3    H169142   4.158   6.515  13.221  0.1809  0.0095 -0.1154
15909TIP3    H269143   4.122   6.386  13.291 -0.1479 -0.2676 -0.7923
15910TIP3   OH269144   2.770   4.634  11.402 -0.1642 -0.7269 -0.3083
15910TIP3    H169145   2.682   4.663  11.382 -0.4919 -1.0428  0.6555
15910TIP3    H269146   2.769   4.539  11.385  0.1534 -0.6375 -0.8534
15911TIP3   OH269147   5.953   0.042   2.024  0.5016  0.1388 -0.3353
15911TIP3    H169148   5.868   0.053   1.982 -0.6141 -1.8137  1.3389
15911TIP3    H269149   6.013   0.021   1.953 -0.5840  0.5909 -1.3994
15912TIP3   OH269150   1.953   0.866  15.710  0.3742 -0.4871  0.1372
15912TIP3    H169151   1.915   0.799  15.768 -2.9051  0.5235 -0.7567
15912TIP3    H269152   1.953   0.946  15.763 -0.6831 -0.0229 -0.5672
15913TIP3   OH269153   0.928   2.100   6.027  0.0262  0.5567  0.0879
15913TIP3    H169154   1.016   2.066   6.011 -0.5930  0.0270 -2.4788
15913TIP3    H269155   0.870   2.038   5.983 -1.4646  2.1486 -0.2317
15914TIP3   OH269156   2.694   5.706  15.747 -0.1804  0.0081  0.2722
15914TIP3    H169157   2.737   5.753  15.676  0.2831 -1.5318 -0.4941
15914TIP3    H269158   2.602   5.729  15.739 -0.0663  0.1823 -0.5485
15915TIP3   OH269159   5.358   5.356  16.119  0.4129 -0.2041  0.9543
15915TIP3    H169160   5.451   5.355  16.097  0.5221 -2.3770  1.4073
15915TIP3    H269161   5.313   5.359  16.034  0.8790 -0.1463  0.7076
15916TIP3   OH269162   5.456   6.217   5.755  0.5159  0.2308  0.2384
15916TIP3    H169163   5.432   6.297   5.709  1.3951  1.1727  1.3949
15916TIP3    H269164   5.388   6.207   5.823 -0.9745 -1.3374 -1.4100
15917TIP3   OH269165   2.006   3.434   3.831  0.0925 -0.0109  0.0509
15917TIP3    H169166   2.000   3.522   3.792 -1.2214  0.2333  0.7700
15917TIP3    H269167   2.020   3.377   3.756 -2.0323  0.5077 -0.7816
15918TIP3   OH269168   5.934   4.578   0.400  0.3089  0.0353  0.0888
15918TIP3    H169169   6.001   4.607   0.463 -0.3881 -0.4304  1.0624
15918TIP3    H269170   5.974   4.502   0.357  0.9462  0.5986 -0.3207
15919TIP3   OH269171   0.233   2.360  16.189 -0.4142  0.0152 -0.0629
15919TIP3    H169172   0.210   2.422  16.120 -2.0155 -0.7081 -0.1922
15919TIP3    H269173   0.251   2.415  16.265 -1.4671  0.6653 -0.2754
15920TIP3   OH269174   6.558   3.848   0.038 -0.1283  0.3242  0.1598
15920TIP3    H169175   6.500   3.912   0.080 -0.9694 -0.5648  0.3893
15920TIP3    H269176   6.568   3.779   0.104 -0.6159 -0.5864 -0.6974
15921TIP3   OH269177   4.505   4.577  10.483 -0.1370  0.3549 -0.6687
15921TIP3    H169178   4.594   4.590  10.515 -0.0452  0.4300 -0.9496
15921TIP3    H269179   4.467   4.665  10.483 -0.2099  0.3239 -0.5514
15922TIP3   OH269180   0.035   0.231   6.133 -0.9905 -0.4170  0.3964
15922TIP3    H169181   0.033   0.143   6.170  0.5850 -1.3380 -1.5809
15922TIP3    H269182  -0.055   0.248   6.106 -1.5849 -0.8329  2.0977
15923TIP3   OH269183   1.223   6.247  15.203  0.2813 -0.0495 -0.1577
15923TIP3    H169184   1.273   6.275  15.280  0.3162 -2.5995  0.7884
15923TIP3    H269185   1.284   6.195  15.152 -0.2844  0.0936 -0.9946
15924TIP3   OH269186   1.575   6.164  16.279  0.5205  0.3149 -0.4966
15924TIP3    H169187   1.578   6.216  16.359 -0.7696 -1.2699  0.6135
15924TIP3    H269188   1.666   6.138  16.264  0.5224 -0.8344  1.4360
15925TIP3   OH269189   5.235   5.781   0.468  0.0308  0.0996 -0.1627
15925TIP3    H169190   5.232   5.877   0.470  0.3011  0.1267 -0.9246
15925TIP3    H269191   5.179   5.757   0.395  1.0906 -0.2585 -0.8753
15926TIP3   OH269192   0.928   2.452  11.148  0.2323  0.0746  0.1149
15926TIP3    H169193   0.916   2.508  11.070  0.9967 -0.4745 -0.3948
15926TIP3    H269194   0.878   2.497  11.216 -1.3499  0.0066 -0.9506
15927TIP3   OH269195   0.869   3.157   4.365 -0.1956  0.3349  0.4469
15927TIP3    H169196   0.783   3.115   4.374  0.2470 -0.4617  1.0514
15927TIP3    H269197   0.931   3.088   4.388  0.6269  0.7620 -0.4819
15928TIP3   OH269198   1.310   4.658   3.594  0.0623 -0.0401  0.8683
15928TIP3    H169199   1.285   4.589   3.656 -1.0220 -1.0279 -0.6213
15928TIP3    H269200   1.233   4.667   3.537  0.3601  2.1004  0.7602
15929TIP3   OH269201   2.972   3.146  12.057 -0.6221  0.5273 -0.1408
15929TIP3    H169202   3.013   3.159  11.972 -1.2049  2.3159 -0.1575
15929TIP3    H269203   2.900   3.086  12.040  0.4117 -0.6257 -0.5538
15930TIP3   OH269204   6.633   2.687  10.596 -0.2023 -0.1675 -0.1621
15930TIP3    H169205   6.546   2.728  10.596 -0.6111 -0.9766  2.2007
15930TIP3    H269206   6.616   2.597  10.568  0.0249 -0.0976 -0.5367
15931TIP3   OH269207   5.797   4.660  13.280  0.2576 -0.1413 -0.1164
15931TIP3    H169208   5.845   4.706  13.211  0.2418  1.7197  1.0889
15931TIP3    H269209   5.857   4.592  13.309  0.3797 -0.7631 -1.7444
15932TIP3   OH269210   0.364   6.619  16.737  0.5677 -0.1408  0.0143
15932TIP3    H169211   0.452   6.582  16.735  0.7996  0.4332 -0.8308
15932TIP3    H269212   0.360   6.668  16.818  0.9436 -0.3651  0.1721
15933TIP3   OH269213   5.899   0.751  13.636 -0.3866 -0.0653  0.0202
15933TIP3    H169214   5.869   0.812  13.569  1.8457  1.0813 -0.0039
15933TIP3    H269215   5.855   0.669  13.616 -3.1495  1.4018 -0.1915
15934TIP3   OH269216   2.394   1.051   5.222 -0.4404  0.1919  0.2196
15934TIP3    H169217   2.319   1.092   5.265 -0.8163  0.8693 -1.0628
15934TIP3    H269218   2.466   1.062   5.285 -0.7533  2.0464  0.2955
15935TIP3   OH269219   4.780   4.733   0.603  0.6624  0.4661 -0.2611
15935TIP3    H169220   4.758   4.776   0.685  1.4348 -0.0937  0.2445
15935TIP3    H269221   4.695   4.714   0.563  0.1394 -2.2807  1.9970
15936TIP3   OH269222   4.406   5.930  11.688 -0.3756 -0.4357  0.4961
15936TIP3    H169223   4.367   6.016  11.707  1.0244  0.4030 -0.2757
15936TIP3    H269224   4.489   5.931  11.736 -0.8922 -1.8617  1.4591
15937TIP3   OH269225   6.705   1.158   4.398 -0.6657 -0.1095 -0.3366
15937TIP3    H169226   6.615   1.187   4.382 -0.4555  1.0303  0.4477
15937TIP3    H269227   6.707   1.136   4.491  0.1362  0.9069 -0.1033
15938TIP3   OH269228   4.536   5.819  14.524 -0.2809  0.0228  0.5961
15938TIP3    H169229   4.475   5.746  14.517  1.4690 -1.4660  0.4725
15938TIP3    H269230   4.602   5.790  14.587  0.2122  1.6641  0.8650
15939TIP3   OH269231   1.070   5.530   3.813  0.1567  0.1772  0.4957
15939TIP3    H169232   1.017   5.550   3.736 -0.6830 -1.6447  0.5882
15939TIP3    H269233   1.087   5.615   3.853 -0.0092  1.0737 -1.2945
15940TIP3   OH269234   3.225   0.904   5.075  0.2716  0.0903  0.2189
15940TIP3    H169235   3.235   0.817   5.038  0.2663  0.5418 -0.8422
15940TIP3    H269236   3.310   0.945   5.064  0.4482  0.0236  1.2483
15941TIP3   OH269237   1.178   4.924   0.300 -0.2583 -1.0682 -0.2267
15941TIP3    H169238   1.096   4.887   0.331 -0.9063  2.2486  2.2392
15941TIP3    H269239   1.152   4.986   0.232 -0.0804  1.6617  2.1194
15942TIP3   OH269240   5.158   4.173  13.120  0.0627 -0.5832  0.3093
15942TIP3    H169241   5.242   4.180  13.074  0.3441  0.7016  0.9742
15942TIP3    H269242   5.161   4.244  13.184 -1.0047 -1.3288  1.2016
15943TIP3   OH269243   2.708   3.710   6.194 -0.3407 -0.5013  0.0925
15943TIP3    H169244   2.706   3.803   6.214 -0.1857 -0.0701 -1.8413
15943TIP3    H269245   2.787   3.698   6.140 -1.5302 -1.3533 -1.4982
15944TIP3   OH269246   4.187   0.795  13.221 -0.4684 -0.2993  0.0045
15944TIP3    H169247   4.179   0.800  13.126  0.4516 -0.0962 -0.0670
15944TIP3    H269248   4.112   0.844  13.254  0.2926  1.3203 -0.6364
15945TIP3   OH269249   0.809   2.885  13.526 -0.7658 -0.7148 -0.5326
15945TIP3    H169250   0.780   2.794  13.540 -1.4294 -0.3623  0.4887
15945TIP3    H269251   0.819   2.920  13.615  2.5047 -0.6985 -0.8449
15946TIP3   OH269252   5.865   0.332   6.865  0.1721 -0.5637 -0.4489
15946TIP3    H169253   5.874   0.415   6.818  0.3628  0.1343  0.8131
15946TIP3    H269254   5.953   0.311   6.895 -0.1151 -0.5148  0.4296
15947TIP3   OH269255   1.269   2.495   0.043  0.2138 -0.5835 -0.3161
15947TIP3    H169256   1.345   2.438   0.037 -1.0425 -2.1945 -1.5178
15947TIP3    H269257   1.305   2.582   0.059  2.4318 -0.9032 -3.1431
15948TIP3   OH269258   5.323   2.588   3.916 -0.4165 -0.0019 -0.0695
15948TIP3    H169259   5.395   2.566   3.975 -1.3045  0.5051  1.2461
15948TIP3    H269260   5.365   2.628   3.841  0.6796  0.3623  0.7218
15949TIP3   OH269261   6.728   5.812   5.348  0.5212 -0.0364 -0.2307
15949TIP3    H169262   6.756   5.904   5.351 -2.2126  0.7844  2.1419
15949TIP3    H269263   6.784   5.768   5.412  1.5252  0.0353 -1.0414
15950TIP3   OH269264   4.992   2.044  12.929 -0.4279 -0.1149  0.3543
15950TIP3    H169265   5.003   2.111  12.997 -0.5370  1.4796 -1.1414
15950TIP3    H269266   5.065   2.058  12.869 -0.0932 -1.7768  0.3589
15951TIP3   OH269267   0.216   1.850   4.516  0.4018 -0.0097 -0.1879
15951TIP3    H169268   0.135   1.801   4.504 -0.4446  1.5047 -0.7339
15951TIP3    H269269   0.284   1.783   4.519 -0.7548 -1.2317 -0.7285
15952TIP3   OH269270   0.059   0.597   4.596  0.2644  0.4040 -0.4717
15952TIP3    H169271   0.008   0.528   4.640 -0.9593 -0.1474 -2.6932
15952TIP3    H269272   0.142   0.554   4.574 -0.5280 -0.4352 -1.9313
15953TIP3   OH269273   5.424   2.524  14.588  0.0845 -1.1716 -0.6757
15953TIP3    H169274   5.406   2.516  14.495  0.0811  1.2392 -0.9110
15953TIP3    H269275   5.440   2.434  14.617  0.9806 -1.8577 -3.1656
15954TIP3   OH269276   2.074   0.083  15.433 -0.5432 -0.2484 -0.4134
15954TIP3    H169277   2.125   0.003  15.448 -1.9188 -1.1885 -0.6739
15954TIP3    H269278   2.105   0.144  15.501  0.1199 -1.1917  0.1435
15955TIP3   OH269279   0.862   5.942  16.808  0.0676  0.5855  0.8391
15955TIP3    H169280   0.936   5.971  16.860  1.0074 -1.4608  0.6696
15955TIP3    H269281   0.894   5.942  16.718  0.0920 -0.9231  0.8290
15956TIP3   OH269282   3.036   4.305  15.549  0.1120  0.1846 -0.7569
15956TIP3    H169283   3.038   4.209  15.558  3.2804  0.2275 -0.5323
15956TIP3    H269284   3.026   4.338  15.638 -1.6385  0.0660 -0.9005
15957TIP3   OH269285   6.186   0.012  12.194 -0.0907 -1.0936  0.5929
15957TIP3    H169286   6.275   0.044  12.211 -0.4676  0.4363 -0.2021
15957TIP3    H269287   6.185  -0.009  12.101 -0.7775 -0.3183  0.4110
15958TIP3   OH269288   1.382   1.891   4.728  0.0892  0.0254  0.2714
15958TIP3    H169289   1.401   1.984   4.719  0.1749  0.0856  1.0390
15958TIP3    H269290   1.466   1.848   4.712 -0.1871 -0.0038 -1.2558
15959TIP3   OH269291   3.096   4.813  16.186  0.2611 -0.3844  0.2273
15959TIP3    H169292   3.021   4.764  16.150 -0.4804 -0.1338  1.4096
15959TIP3    H269293   3.134   4.754  16.251 -0.5927  0.5680  1.6058
15960TIP3   OH269294   2.287   3.958  12.781  0.1776 -0.1788 -0.1707
15960TIP3    H169295   2.269   3.865  12.770 -1.2640  0.0281  0.2727
15960TIP3    H269296   2.255   3.978  12.870  0.0023  0.8304 -0.4501
15961TIP3   OH269297   5.596   0.851  12.993  0.2257  0.1320 -0.6169
15961TIP3    H169298   5.507   0.886  12.998  0.2407  0.1793 -0.6783
15961TIP3    H269299   5.587   0.760  13.021  0.5907  0.8601  1.9081
15962TIP3   OH269300   2.954   4.432  15.776  0.3918 -0.1610  0.2096
15962TIP3    H169301   2.864   4.443  15.746  0.0703 -1.1386  0.7751
15962TIP3    H269302   2.946   4.403  15.867  1.2207 -1.8496 -0.2218
15963TIP3   OH269303   4.514   4.614  15.527  0.1456 -0.3890 -0.2952
15963TIP3    H169304   4.604   4.645  15.530  0.8642 -2.4816  0.8160
15963TIP3    H269305   4.516   4.540  15.467 -1.0914  0.2593 -1.1704
15964TIP3   OH269306   6.552   6.512  14.437  0.3637 -0.0404  0.1749
15964TIP3    H169307   6.574   6.600  14.469  2.4461  0.0215 -1.3112
15964TIP3    H269308   6.635   6.465  14.436 -0.5637 -1.7027 -0.0534
15965TIP3   OH269309   0.384   1.842   5.850 -0.0556  0.2532 -0.0678
15965TIP3    H169310   0.466   1.877   5.813 -1.2910  0.3506 -2.8038
15965TIP3    H269311   0.341   1.918   5.889 -0.3414  0.8469 -1.5009
15966TIP3   OH269312   4.766   6.734   2.413  0.2115  0.4524  0.3306
15966TIP3    H169313   4.797   6.726   2.323  1.7555  1.0320  0.7917
15966TIP3    H269314   4.672   6.719   2.407  0.3958 -0.1872 -1.2825
15967TIP3   OH269315   6.182   0.536  12.079 -0.1949  0.1043 -0.7409
15967TIP3    H169316   6.099   0.560  12.038  0.1541 -0.4656 -1.8172
15967TIP3    H269317   6.228   0.619  12.092 -1.7122  0.6234  1.6409
15968TIP3   OH269318   0.010   0.818  14.640 -0.3758 -0.7946  0.0516
15968TIP3    H169319   0.090   0.838  14.592 -1.0854 -0.8703 -1.1707
15968TIP3    H269320   0.022   0.727  14.669 -0.0872 -0.8536 -0.2553
15969TIP3   OH269321   5.277   2.527  13.965 -0.1259  0.0421  0.4437
15969TIP3    H169322   5.210   2.474  14.007  1.2711 -0.3782  2.2468
15969TIP3    H269323   5.346   2.465  13.942  0.4912  0.7279  0.4070
15970TIP3   OH269324   2.075   5.133   3.165 -0.5965 -0.3369 -0.3750
15970TIP3    H169325   2.139   5.133   3.094  0.2206  2.3220  0.3026
15970TIP3    H269326   2.119   5.089   3.238 -0.0172  0.3223 -0.3241
15971TIP3   OH269327   0.491   1.229   1.624  0.1698  0.6527  0.1238
15971TIP3    H169328   0.565   1.181   1.662 -1.1915 -3.4306 -2.1365
15971TIP3    H269329   0.516   1.242   1.532 -0.4218  2.4271  0.1999
15972TIP3   OH269330   1.224   0.966   2.318  0.1753  0.1829 -0.7172
15972TIP3    H169331   1.290   0.924   2.373  0.3395 -0.6285 -1.5140
15972TIP3    H269332   1.260   1.053   2.299  0.9395 -0.1905 -1.0024
15973TIP3   OH269333   4.659   1.857  11.394 -0.3511 -0.3607  0.4844
15973TIP3    H169334   4.566   1.869  11.375 -0.3845 -0.4651  0.5817
15973TIP3    H269335   4.673   1.904  11.476 -0.4675 -0.9082  0.8268
15974TIP3   OH269336   6.710   3.599  14.958  0.2016 -0.1355 -0.1582
15974TIP3    H169337   6.687   3.692  14.968 -0.5400 -0.2165 -0.9968
15974TIP3    H269338   6.746   3.593  14.870 -2.7065 -1.1888 -1.3327
15975TIP3   OH269339   4.613   0.279  11.564  0.5428 -0.0535  0.4476
15975TIP3    H169340   4.697   0.307  11.600  0.3713  0.7831  0.2165
15975TIP3    H269341   4.614   0.312  11.474  0.1770 -0.4735  0.2871
15976TIP3   OH269342   0.665   6.361  11.614  0.1103  0.2802  0.1793
15976TIP3    H169343   0.756   6.335  11.629 -0.3695 -1.8184 -0.4165
15976TIP3    H269344   0.648   6.428  11.681  2.3503  1.3611 -0.2744
15977TIP3   OH269345   3.118   4.974   1.489  0.4102 -0.0904 -0.4101
15977TIP3    H169346   3.125   4.885   1.524 -0.3861 -0.2924 -0.7638
15977TIP3    H269347   3.044   4.970   1.428 -2.4492  1.8443  2.7582
15978TIP3   OH269348   4.531   0.812   3.242  0.5740 -0.0805 -0.0711
15978TIP3    H169349   4.535   0.908   3.245  1.9649 -0.1191 -0.3789
15978TIP3    H269350   4.591   0.783   3.310  0.9111 -0.7315 -0.6359
15979TIP3   OH269351   4.507   1.849   1.316  0.7347 -0.2130  0.7808
15979TIP3    H169352   4.524   1.760   1.347  0.8649 -0.2046  0.7361
15979TIP3    H269353   4.522   1.845   1.221 -0.6288 -0.4643  0.5742
15980TIP3   OH269354   0.899   5.898   5.241 -0.3797 -0.0300 -0.1987
15980TIP3    H169355   0.863   5.985   5.228  1.3191  0.4150 -2.2047
15980TIP3    H269356   0.994   5.912   5.241 -0.1120 -1.6800  1.0552
15981TIP3   OH269357   0.576   3.957  10.849 -0.4585  0.0354  0.0154
15981TIP3    H169358   0.572   3.918  10.936 -1.7363 -1.4486 -0.6791
15981TIP3    H269359   0.644   4.024  10.856 -0.0584 -0.5293  1.9573
15982TIP3   OH269360   5.854   4.534   1.677  0.2173  0.1891  0.3666
15982TIP3    H169361   5.875   4.457   1.730 -1.5366 -0.2197  0.5042
15982TIP3    H269362   5.895   4.607   1.725  2.8689 -0.7434 -0.3715
15983TIP3   OH269363   3.765   6.286  13.504 -0.2438  0.0364 -0.6523
15983TIP3    H169364   3.768   6.283  13.409  2.3557 -0.8182 -0.5973
15983TIP3    H269365   3.850   6.322  13.529 -0.3503 -1.0607  1.3784
15984TIP3   OH269366   2.972   3.188  15.062  0.5301  0.4520 -0.0033
15984TIP3    H169367   2.994   3.167  14.971  0.7489  1.8414 -0.2747
15984TIP3    H269368   3.012   3.117  15.113  0.0130 -0.5890 -1.0127
15985TIP3   OH269369   4.888   3.978   2.241  0.9640 -0.2104 -0.7334
15985TIP3    H169370   4.949   3.905   2.247  1.5981  0.4208  0.6631
15985TIP3    H269371   4.935   4.053   2.278 -0.4290  0.4130 -0.1682
15986TIP3   OH269372   2.349   1.149  15.592  0.2656  0.0926  0.0240
15986TIP3    H169373   2.360   1.054  15.598  0.4122  0.2707  3.2319
15986TIP3    H269374   2.290   1.171  15.664 -0.5498  2.3527 -1.2724
15987TIP3   OH269375   0.892   0.448  13.712 -0.0765 -0.2805 -0.2255
15987TIP3    H169376   0.907   0.436  13.806 -1.3079 -3.1314 -0.3535
15987TIP3    H269377   0.803   0.483  13.705 -0.6894 -1.8396 -0.3974
15988TIP3   OH269378   1.965   4.374  13.235  0.3100  0.2510  0.4513
15988TIP3    H169379   2.013   4.437  13.182 -1.3252  1.6630  0.6275
15988TIP3    H269380   2.028   4.349  13.304  1.7174 -0.0289 -0.9071
15989TIP3   OH269381   1.048   2.599  12.351  0.1925  0.3013 -0.3254
15989TIP3    H169382   1.141   2.613  12.336  0.2469  1.8198  1.2022
15989TIP3    H269383   1.006   2.676  12.313 -0.3337  0.1429 -0.0683
15990TIP3   OH269384   3.848   0.708   2.994 -0.2602  0.1961  0.0919
15990TIP3    H169385   3.795   0.752   3.061 -1.3173 -0.3946 -0.3320
15990TIP3    H269386   3.891   0.636   3.040  0.1099  0.6320  0.4254
15991TIP3   OH269387   3.929   5.187  12.138 -0.2848  0.6404  0.3710
15991TIP3    H169388   3.939   5.282  12.129  3.3694  0.4768  1.8088
15991TIP3    H269389   3.873   5.176  12.214 -0.3607  1.6365  0.4706
15992TIP3   OH269390   6.472   4.513  16.007  0.1289  0.4719 -0.5159
15992TIP3    H169391   6.561   4.515  15.972  1.0201  1.2494  1.6751
15992TIP3    H269392   6.482   4.477  16.095 -1.3924  2.6244  0.5858
15993TIP3   OH269393   0.795   1.690  17.205 -0.2451 -0.4412  0.1310
15993TIP3    H169394   0.748   1.606  17.209 -0.4765 -0.3459 -0.4868
15993TIP3    H269395   0.824   1.706  17.295 -2.3043  0.0129  0.7256
15994TIP3   OH269396   0.326   4.677   4.220  0.4738 -0.3742  0.1843
15994TIP3    H169397   0.361   4.650   4.135  0.5799  1.4887 -0.4029
15994TIP3    H269398   0.231   4.674   4.208  0.4908  0.3215 -0.1569
15995TIP3   OH269399   1.609   1.636  11.441  0.3852  0.1439 -0.5684
15995TIP3    H169400   1.699   1.626  11.472  0.8091  0.0211 -1.8086
15995TIP3    H269401   1.569   1.550  11.456  1.3378 -0.7026 -2.6910
15996TIP3   OH269402   1.618   5.261  15.094  0.3375 -0.3216 -0.4505
15996TIP3    H169403   1.681   5.242  15.164 -2.2801 -0.7992  1.8705
15996TIP3    H269404   1.541   5.209  15.117 -2.5710  3.6753 -0.6854
15997TIP3   OH269405   1.784   4.616  13.853 -0.1949  0.1938 -0.1107
15997TIP3    H169406   1.857   4.579  13.803 -0.2754  1.2017 -0.9925
15997TIP3    H269407   1.820   4.695  13.894 -0.7149  0.5552 -0.3404
15998TIP3   OH269408   1.744   2.241   5.493 -0.1417 -0.1110  0.4708
15998TIP3    H169409   1.680   2.309   5.515 -1.1941 -0.3609 -1.6984
15998TIP3    H269410   1.695   2.159   5.503  0.2028 -0.3704  0.0424
15999TIP3   OH269411   1.412   5.944   4.446  0.2912 -0.6042 -0.1281
15999TIP3    H169412   1.468   5.868   4.429 -0.9722 -1.5355 -0.1867
15999TIP3    H269413   1.354   5.948   4.369 -0.1143 -0.0052  0.2065
16000TIP3   OH269414   3.282   2.395   3.103 -0.1419  0.5553  0.0339
16000TIP3    H169415   3.216   2.455   3.069 -0.3243  0.2373 -0.1846
16000TIP3    H269416   3.361   2.416   3.055 -0.6783 -0.6421 -1.4108
16001TIP3   OH269417   3.145   2.609  13.879 -0.1411  0.4455  0.3392
16001TIP3    H169418   3.063   2.578  13.918 -2.6447  4.5576 -1.3380
16001TIP3    H269419   3.145   2.703  13.895  3.2216  0.8455 -1.6377
16002TIP3   OH269420   0.158   5.799  14.089  0.2891 -0.2655  0.0144
16002TIP3    H169421   0.065   5.804  14.113  0.2747  1.2899 -0.3551
16002TIP3    H269422   0.195   5.741  14.156 -0.9158 -0.8044  0.2457
16003TIP3   OH269423   6.712   3.392  12.277 -0.2804  0.6002 -0.0223
16003TIP3    H169424   6.681   3.457  12.341  0.6646 -0.5341  1.6163
16003TIP3    H269425   6.732   3.315  12.329  0.9764 -0.1946 -1.6461
16004TIP3   OH269426   4.327   5.164   5.299  0.1374 -0.0752 -0.1099
16004TIP3    H169427   4.336   5.104   5.225 -0.4997  0.0592 -0.2981
16004TIP3    H269428   4.254   5.129   5.350  0.0488  0.2924  0.0160
16005TIP3   OH269429   3.842   4.309   4.513  0.3488  0.7497 -1.0646
16005TIP3    H169430   3.932   4.284   4.493 -0.0643 -2.7941  1.0710
16005TIP3    H269431   3.850   4.382   4.575  1.7728  0.0199 -0.3839
16006TIP3   OH269432   2.133   3.715   3.218  0.2984  0.1888 -0.0853
16006TIP3    H169433   2.135   3.697   3.312 -0.9553  1.1420  0.1440
16006TIP3    H269434   2.040   3.713   3.196  0.5385  0.7712 -1.1476
16007TIP3   OH269435   1.200   5.336   6.454  0.0198  0.1216 -0.5322
16007TIP3    H169436   1.193   5.240   6.455 -0.1982  0.1477  0.3856
16007TIP3    H269437   1.295   5.352   6.456  0.0811 -0.0777 -1.4275
16008TIP3   OH269438   4.249   0.248  13.558  0.2736  0.5426  0.7416
16008TIP3    H169439   4.244   0.257  13.462  0.9935 -2.4361  0.3751
16008TIP3    H269440   4.281   0.333  13.588 -1.2009  1.9679 -1.5308
16009TIP3   OH269441   0.808   3.209   3.077  0.6580 -0.4597  0.5451
16009TIP3    H169442   0.792   3.117   3.057  0.6397  0.0186 -1.7064
16009TIP3    H269443   0.900   3.224   3.053  0.3342  0.4003 -0.1742
16010TIP3   OH269444   3.381   5.954   4.731  0.0988  0.0889 -0.1970
16010TIP3    H169445   3.398   5.937   4.638 -1.9797  0.5488 -0.7038
16010TIP3    H269446   3.435   6.030   4.752 -0.7137  1.0504 -1.5130
16011TIP3   OH269447   5.698   0.377   2.780 -0.2613  0.4346  0.3525
16011TIP3    H169448   5.644   0.298   2.781 -1.3370  1.1711  1.3203
16011TIP3    H269449   5.770   0.356   2.720 -0.6468 -1.1963  0.4384
16012TIP3   OH269450   1.840   3.358  13.138  0.4264  0.9125  0.1904
16012TIP3    H169451   1.881   3.385  13.221  2.2756 -0.2771 -0.3031
16012TIP3    H269452   1.769   3.300  13.164  1.4496 -0.0343  0.9479
16013TIP3   OH269453   3.288   5.673  11.054 -0.3198  0.5416  0.2264
16013TIP3    H169454   3.228   5.731  11.006 -2.9280 -0.4057  2.1881
16013TIP3    H269455   3.293   5.594  11.000  0.4851  1.2544 -0.7549
16014TIP3   OH269456   4.262   1.802  14.079  0.3686 -0.2172 -0.8824
16014TIP3    H169457   4.253   1.756  13.996 -1.6778 -1.0536 -0.2474
16014TIP3    H269458   4.356   1.819  14.088  0.8686 -2.1160 -2.2873
16015TIP3   OH269459   3.007   2.191  14.128  0.0438  0.3347 -0.3912
16015TIP3    H169460   3.096   2.204  14.095  0.4530 -1.0234  0.1577
16015TIP3    H269461   2.976   2.112  14.083 -0.9692  0.9156 -0.7404
16016TIP3   OH269462   0.869   0.645  12.803 -0.3777  0.4389 -0.3057
16016TIP3    H169463   0.936   0.704  12.769  0.5260 -1.0459 -1.1229
16016TIP3    H269464   0.796   0.654  12.741  0.7337 -1.2105 -1.8903
16017TIP3   OH269465   1.529   1.549   3.841  0.5415  0.0277 -0.5605
16017TIP3    H169466   1.596   1.551   3.909  1.1394  0.0839 -1.1428
16017TIP3    H269467   1.462   1.489   3.874  2.2323 -2.2562 -1.2187
16018TIP3   OH269468   0.766   5.258  14.489 -0.3601  0.5265 -0.2229
16018TIP3    H169469   0.776   5.202  14.412 -2.1801  1.6211 -1.2968
16018TIP3    H269470   0.733   5.341  14.455 -0.0051  1.4518  1.6055
16019TIP3   OH269471   0.769   5.362  15.831 -0.2150 -0.3992  0.0754
16019TIP3    H169472   0.705   5.302  15.870 -0.3453 -1.4122 -1.6429
16019TIP3    H269473   0.815   5.309  15.766  0.3918  1.0884 -0.7306
16020TIP3   OH269474   3.738   4.960   6.435 -0.3691 -0.4197  0.1062
16020TIP3    H169475   3.666   4.909   6.472 -0.2189  0.8098  2.1619
16020TIP3    H269476   3.696   5.036   6.395 -0.1641  0.9647  2.4377
16021TIP3   OH269477   2.549   1.956   5.491  0.1216 -0.2799 -0.2177
16021TIP3    H169478   2.634   1.948   5.535 -0.1876  0.0551  0.4511
16021TIP3    H269479   2.538   1.872   5.446  0.7904 -0.3397 -0.2824
16022TIP3   OH269480   0.484   2.325   2.896 -0.4319 -0.1259  0.2584
16022TIP3    H169481   0.502   2.241   2.854  1.3874  0.5968 -0.4772
16022TIP3    H269482   0.483   2.388   2.824 -1.8840  0.4812  0.7885
16023TIP3   OH269483   0.791   1.761  13.212  0.0977 -0.5334 -0.4059
16023TIP3    H169484   0.761   1.803  13.131  0.1500  0.2528 -0.0253
16023TIP3    H269485   0.741   1.805  13.281  0.1298 -1.1277 -0.0028
16024TIP3   OH269486   5.490   0.672  14.889  0.2351 -0.0402  0.8640
16024TIP3    H169487   5.528   0.600  14.939 -0.6289 -0.2822  1.1831
16024TIP3    H269488   5.551   0.745  14.902  1.5878 -0.9502 -0.1768
16025TIP3   OH269489   6.713   5.768  15.874 -0.0548  0.5117  0.2755
16025TIP3    H169490   6.796   5.724  15.857 -1.3295 -2.0820  0.5483
16025TIP3    H269491   6.738   5.850  15.916  2.4532  0.8130 -1.6781
16026TIP3   OH269492   4.144   1.138  13.210 -0.4001  0.3423 -0.2818
16026TIP3    H169493   4.206   1.116  13.141  1.3401  1.0100  1.0418
16026TIP3    H269494   4.151   1.233  13.220 -0.2703  0.1912  1.1433
16027TIP3   OH269495   0.358   0.190  17.212 -0.1111 -0.1180 -0.3558
16027TIP3    H169496   0.421   0.259  17.189 -0.8914  0.8876  0.5335
16027TIP3    H269497   0.283   0.206  17.155 -0.3475 -0.1745 -0.0549
16028TIP3   OH269498   5.846   0.248  16.038  0.4906  0.1938 -0.1113
16028TIP3    H169499   5.853   0.198  15.956 -0.5957  0.9038 -0.6351
16028TIP3    H269500   5.752   0.258  16.052  0.6949  2.5096 -0.2644
16029TIP3   OH269501   4.341   4.786   5.952  0.0275 -0.4351  0.4396
16029TIP3    H169502   4.312   4.696   5.937  0.7780 -0.3535 -1.5760
16029TIP3    H269503   4.425   4.776   5.996 -0.9573 -0.6875  2.3210
16030TIP3   OH269504   3.506   3.542   1.493  0.1689  0.4295  0.8656
16030TIP3    H169505   3.505   3.567   1.400 -2.2161  1.2201  1.0616
16030TIP3    H269506   3.443   3.470   1.499  2.3635 -1.4744  1.4186
16031TIP3   OH269507   0.038   1.666   0.421 -1.2233  0.4169  0.2325
16031TIP3    H169508  -0.021   1.631   0.487 -1.6212  1.7870  0.6112
16031TIP3    H269509   0.019   1.760   0.418 -0.7502  0.4828 -1.3590
16032TIP3   OH269510   4.996   5.927   3.834 -0.1878 -0.4767 -0.3678
16032TIP3    H169511   5.029   5.973   3.756  1.4718 -0.8461  0.1080
16032TIP3    H269512   5.041   5.970   3.907 -0.3656 -1.3471  0.2487
16033TIP3   OH269513   3.496   2.226   0.914 -0.1297 -0.1823  0.3575
16033TIP3    H169514   3.455   2.302   0.872 -1.6789 -1.3875 -0.3848
16033TIP3    H269515   3.554   2.190   0.847 -0.8268 -0.7476  0.0572
16034TIP3   OH269516   5.853   5.116   2.990 -0.1426 -0.6117 -0.0449
16034TIP3    H169517   5.844   5.085   3.081  0.1044 -2.7498 -0.7081
16034TIP3    H269518   5.852   5.211   2.997 -3.4114 -0.7038  1.8894
16035TIP3   OH269519   3.779   1.888   5.904 -0.0413 -0.0110 -0.3621
16035TIP3    H169520   3.777   1.956   5.971 -0.4902  0.1796 -0.5667
16035TIP3    H269521   3.847   1.827   5.934 -0.7179 -0.3038  0.6346
16036TIP3   OH269522   6.782   1.361  15.244 -0.2150  0.8677 -0.1182
16036TIP3    H169523   6.724   1.303  15.294 -1.3774  1.1249 -1.1413
16036TIP3    H269524   6.863   1.311  15.234 -0.9094 -0.2449 -0.2574
16037TIP3   OH269525   0.823   6.128   5.860 -0.0249  0.0913  0.2595
16037TIP3    H169526   0.746   6.109   5.806 -0.4693  1.4515  0.4021
16037TIP3    H269527   0.863   6.042   5.876 -2.7765 -0.9203  2.0762
16038TIP3   OH269528   4.138   2.197   4.517  0.4108 -0.0670 -1.1006
16038TIP3    H169529   4.147   2.132   4.586  0.8048  0.9297 -0.2137
16038TIP3    H269530   4.200   2.169   4.450  0.1187 -0.9596 -1.0100
16039TIP3   OH269531   5.871   0.445  17.223 -0.0096 -0.1366  0.2479
16039TIP3    H169532   5.821   0.511  17.272 -1.0172 -0.1450 -0.7429
16039TIP3    H269533   5.958   0.447  17.262 -0.1602  1.4509  0.5536
16040TIP3   OH269534   0.477   3.933  14.877 -0.4269  0.1029 -0.9429
16040TIP3    H169535   0.562   3.888  14.871 -0.2129  0.3003  0.4778
16040TIP3    H269536   0.484   3.986  14.956 -1.5268  0.8828 -1.3612
16041TIP3   OH269537   6.750   5.730  13.773  0.0390  0.4404 -0.1920
16041TIP3    H169538   6.713   5.642  13.775  2.0582 -0.4232  0.7250
16041TIP3    H269539   6.843   5.717  13.790  0.1784  2.8700  1.1299
16042TIP3   OH269540   0.964   4.077  14.247 -0.1103 -0.1586 -0.1307
16042TIP3    H169541   1.008   3.996  14.273  0.6611  0.2664 -0.0981
16042TIP3    H269542   1.022   4.115  14.180 -1.1135 -0.2849 -1.0771
16043TIP3   OH269543   4.081   5.038   3.009 -0.9870  0.1798 -1.2646
16043TIP3    H169544   4.070   4.999   3.096  0.1307 -0.3264 -1.3478
16043TIP3    H269545   4.037   5.123   3.016 -0.6739  0.2621 -0.1153
16044TIP3   OH269546   1.546   3.424  15.190  0.5680 -0.1462 -0.7320
16044TIP3    H169547   1.484   3.491  15.219 -1.3414 -1.3918 -1.7925
16044TIP3    H269548   1.508   3.342  15.221  2.4584 -0.8127 -0.1593
16045TIP3   OH269549   0.346   2.440   1.347 -0.0643  0.2013  0.0361
16045TIP3    H169550   0.423   2.455   1.292 -0.0578  1.5045  0.3992
16045TIP3    H269551   0.301   2.524   1.350  0.2166  0.2941  2.4526
16046TIP3   OH269552   0.840   3.541  15.445  0.2585 -0.4019  0.1110
16046TIP3    H169553   0.840   3.613  15.508 -0.3798 -0.5898  0.3309
16046TIP3    H269554   0.912   3.561  15.385 -1.2773  1.5855 -1.1693
16047TIP3   OH269555   1.786   6.643   2.355  0.1872  0.2750 -0.1419
16047TIP3    H169556   1.825   6.679   2.276  0.5573  3.1142  1.2880
16047TIP3    H269557   1.860   6.613   2.407  0.1230  0.8233  0.2686
16048TIP3   OH269558   2.052   5.861   1.762  0.4736 -0.3229  0.1753
16048TIP3    H169559   2.095   5.891   1.682 -0.7937  2.4314  0.4793
16048TIP3    H269560   1.968   5.907   1.763  0.2058 -0.7844  2.7775
16049TIP3   OH269561   1.530   6.096   0.742  0.2927  0.0744 -0.7580
16049TIP3    H169562   1.505   6.005   0.722 -0.6596  0.1832 -0.1153
16049TIP3    H269563   1.625   6.097   0.733  0.3088 -0.9756 -0.8418
16050TIP3   OH269564   3.472   5.957  15.393 -0.2688 -0.4374  0.4747
16050TIP3    H169565   3.458   6.052  15.388  1.0045 -0.2201  0.7715
16050TIP3    H269566   3.471   5.937  15.486 -1.5526 -0.8858  0.3693
16051TIP3   OH269567   3.811   0.214  13.469  0.6508  0.2845 -0.4115
16051TIP3    H169568   3.820   0.292  13.415  0.1436  0.3648 -0.3799
16051TIP3    H269569   3.721   0.185  13.456  0.1306  1.0245  1.3525
16052TIP3   OH269570   2.732   1.587  12.346  0.1238 -0.0904 -0.2306
16052TIP3    H169571   2.771   1.587  12.433 -1.5502 -1.1683  0.5497
16052TIP3    H269572   2.671   1.661  12.346  0.0235 -0.1707 -0.4405
16053TIP3   OH269573   6.435   5.677   0.738  0.4352  0.3281  0.1137
16053TIP3    H169574   6.478   5.697   0.655  0.8197 -0.7121  0.0587
16053TIP3    H269575   6.341   5.675   0.717  0.5876 -0.9290 -0.5238
16054TIP3   OH269576   1.847   2.836   2.964  0.0115 -0.4490  0.2695
16054TIP3    H169577   1.938   2.847   2.937 -0.2499 -1.5868 -1.1270
16054TIP3    H269578   1.825   2.919   3.007  1.5171  0.0630  0.0929
16055TIP3   OH269579   4.106   3.155   2.976 -0.2710 -0.2542 -0.3231
16055TIP3    H169580   4.159   3.107   2.912  1.6766  0.0307  1.0339
16055TIP3    H269581   4.124   3.247   2.959 -0.4897 -0.1496 -0.0053
16056TIP3   OH269582   3.279   6.732  11.703  0.2084 -0.5488  0.0010
16056TIP3    H169583   3.254   6.819  11.670  1.8526  0.4597  1.2951
16056TIP3    H269584   3.306   6.684  11.625  3.3352  1.5491 -0.3316
16057TIP3   OH269585   0.268   6.467  13.227 -0.4154 -0.4177  0.5815
16057TIP3    H169586   0.265   6.544  13.170  0.3158 -1.3374 -0.7238
16057TIP3    H269587   0.316   6.402  13.176 -0.6052 -1.5758  1.8735
16058TIP3   OH269588   0.613   0.508   4.033  0.3910 -0.3266  0.5589
16058TIP3    H169589   0.594   0.522   3.940  2.4517 -1.4110 -0.0683
16058TIP3    H269590   0.621   0.413   4.042 -0.8440 -0.3080  2.0884
16059TIP3   OH269591   3.951   6.735  16.810  0.6884 -0.5650  0.0264
16059TIP3    H169592   4.046   6.729  16.798  0.7656  0.6625 -0.0637
16059TIP3    H269593   3.917   6.654  16.772  1.7598 -1.4061  0.8152
16060TIP3   OH269594   0.379   3.104  12.579  0.1763 -0.0685 -0.5438
16060TIP3    H169595   0.414   3.051  12.507 -2.6574  0.1769 -2.1917
16060TIP3    H269596   0.310   3.050  12.617 -0.0491  0.8373  0.3497
16061TIP3   OH269597   3.255   5.969  11.591  0.0542 -0.0917  0.2941
16061TIP3    H169598   3.277   6.015  11.510 -0.6707 -2.1384 -1.0902
16061TIP3    H269599   3.166   5.998  11.612  0.5808  1.1489  0.8991
16062TIP3   OH269600   1.770   5.192  15.324 -0.0928  0.3967  0.5585
16062TIP3    H169601   1.851   5.214  15.278 -1.1065  2.5493 -0.2394
16062TIP3    H269602   1.756   5.264  15.385 -0.8839 -0.4748  1.4402
16063TIP3   OH269603   5.165   3.958  10.853  0.2182  0.2278  0.0985
16063TIP3    H169604   5.180   3.907  10.933 -0.0608 -1.6350 -1.0035
16063TIP3    H269605   5.083   4.005  10.869 -1.4920 -2.5358 -0.2371
16064TIP3   OH269606   2.912   3.021   4.235 -0.3077  0.1833 -0.3290
16064TIP3    H169607   2.926   2.963   4.309  2.8286  1.4862  0.1955
16064TIP3    H269608   2.840   3.078   4.262 -1.3581 -1.4673  0.3657
16065TIP3   OH269609   2.798   3.624  13.008 -0.4278  0.8534  0.8606
16065TIP3    H169610   2.746   3.626  13.088 -0.5650 -2.9753  0.9735
16065TIP3    H269611   2.853   3.546  13.017 -1.2049 -0.3007 -3.2325
16066TIP3   OH269612   4.336   3.514  16.271  0.0409  0.0304 -0.0975
16066TIP3    H169613   4.256   3.473  16.238 -0.5251  1.0997 -0.1046
16066TIP3    H269614   4.319   3.527  16.365 -0.2319  1.2241 -0.3011
16067TIP3   OH269615   1.802   2.140   0.854  0.5219  0.2984  0.2895
16067TIP3    H169616   1.807   2.091   0.936 -0.2096  0.3908  0.3841
16067TIP3    H269617   1.739   2.092   0.801  2.4861 -0.9473 -1.0171
16068TIP3   OH269618   4.563   1.949  14.630 -0.1065 -1.0544  0.1583
16068TIP3    H169619   4.473   1.954  14.663 -0.0720 -0.1187  0.1153
16068TIP3    H269620   4.618   1.970  14.706  0.0901 -1.8623  0.2443
16069TIP3   OH269621   1.269   6.559  12.644 -0.0406  0.3378 -0.5612
16069TIP3    H169622   1.193   6.553  12.702 -0.0033  0.2993 -0.5159
16069TIP3    H269623   1.335   6.503  12.685 -0.2324 -0.2028 -0.9813
16070TIP3   OH269624   2.064   3.463  14.499 -0.2250 -0.2488 -0.5202
16070TIP3    H169625   2.119   3.465  14.577 -0.6798 -0.3153 -0.1964
16070TIP3    H269626   2.125   3.473  14.426  0.2811 -0.9391 -0.1942
16071TIP3   OH269627   5.262   2.255   4.058  0.6619  0.1269 -0.9459
16071TIP3    H169628   5.233   2.208   4.136 -0.2739 -0.4348 -1.6153
16071TIP3    H269629   5.205   2.332   4.054 -1.7374 -1.6492 -2.9857
16072TIP3   OH269630   6.101   6.009   2.667 -0.0676  0.1037 -0.4168
16072TIP3    H169631   6.131   5.986   2.579 -0.9032 -0.6310 -0.5270
16072TIP3    H269632   6.032   5.944   2.686  0.7369 -0.3252  1.1359
16073TIP3   OH269633   5.316   4.508   5.268 -0.2354 -0.4197  0.2187
16073TIP3    H169634   5.334   4.541   5.181 -0.7911  0.1468  0.3151
16073TIP3    H269635   5.298   4.586   5.321  0.7203 -0.7068  0.9933
16074TIP3   OH269636   3.412   4.611  14.380  0.3355 -0.8739  0.1449
16074TIP3    H169637   3.373   4.542  14.434  0.3383 -1.2931 -0.3852
16074TIP3    H269638   3.504   4.585  14.371  0.5494 -0.3149  0.7116
16075TIP3   OH269639   2.856   5.044  17.183  0.3846  0.0084 -0.3553
16075TIP3    H169640   2.840   4.952  17.165  0.8415  0.1337 -1.4530
16075TIP3    H269641   2.773   5.087  17.163 -0.8351 -0.5401  3.2246
16076TIP3   OH269642   1.268   4.186  16.491  0.1908 -0.3602 -0.5261
16076TIP3    H169643   1.295   4.202  16.582 -2.5958 -0.8163  0.4382
16076TIP3    H269644   1.203   4.254  16.474 -1.3739 -1.9768 -1.1883
16077TIP3   OH269645   1.992   6.731  17.217 -0.4414 -0.1774 -0.0145
16077TIP3    H169646   2.022   6.734  17.308 -0.8378  1.9497  0.0729
16077TIP3    H269647   2.073   6.730  17.165 -0.1712  1.8019  0.3105
16078TIP3   OH269648   2.114   2.162  11.744  0.1239  0.1724  0.1760
16078TIP3    H169649   2.144   2.235  11.689 -0.6212  0.5964  0.3251
16078TIP3    H269650   2.168   2.088  11.716 -0.8008  0.1787 -1.7128
16079TIP3   OH269651   4.178   2.273   1.284 -0.1147  0.9745  0.0391
16079TIP3    H169652   4.202   2.284   1.376 -3.4891  0.4669  1.0172
16079TIP3    H269653   4.163   2.179   1.274 -0.6324  1.1459 -0.8195
16080TIP3   OH269654   4.418   5.189   3.432 -0.4199 -0.5453  0.3603
16080TIP3    H169655   4.384   5.131   3.500  2.7433 -0.4673  2.1234
16080TIP3    H269656   4.459   5.130   3.369  0.8407 -0.3931  1.0151
16081TIP3   OH269657   1.764   4.163   4.099 -0.5684 -0.1717 -0.5765
16081TIP3    H169658   1.821   4.231   4.135 -0.3359 -0.9905  0.6078
16081TIP3    H269659   1.714   4.131   4.174 -1.7583 -0.2863 -1.3971
16082TIP3   OH269660   4.413   3.924   6.017  0.5127  0.0847  0.4505
16082TIP3    H169661   4.468   3.879   5.953  0.1816 -0.9146  0.8539
16082TIP3    H269662   4.474   3.951   6.086  0.4362 -1.5293  1.1778
16083TIP3   OH269663   5.808   3.603   3.669  0.1928  0.2805 -0.2101
16083TIP3    H169664   5.896   3.566   3.678  0.7007  0.6280 -3.4650
16083TIP3    H269665   5.823   3.698   3.661 -0.7793  0.7701  2.9061
16084TIP3   OH269666   0.750   4.391  14.042 -0.0763  0.1182 -0.5758
16084TIP3    H169667   0.755   4.484  14.061 -1.3631  0.3576 -1.3480
16084TIP3    H269668   0.661   4.377  14.011 -0.1750 -1.5310  0.3527
16085TIP3   OH269669   4.916   6.629  12.045 -0.6833 -0.3871 -0.2443
16085TIP3    H169670   4.956   6.621  11.958 -0.6069 -0.9768 -0.1580
16085TIP3    H269671   4.843   6.690  12.033 -0.1846  0.1454 -0.5540
16086TIP3   OH269672   6.296   4.758   5.994 -0.1749  0.3789 -0.6030
16086TIP3    H169673   6.272   4.668   6.016 -0.6085  0.0426 -2.4370
16086TIP3    H269674   6.345   4.789   6.071  0.2150 -1.5002 -0.0702
16087TIP3   OH269675   4.868   5.384  15.385  0.1016 -0.1940 -0.5437
16087TIP3    H169676   4.881   5.471  15.422  0.3321 -1.2395  1.9769
16087TIP3    H269677   4.843   5.330  15.460  0.1983 -2.3470 -2.0196
16088TIP3   OH269678   2.875   2.130  15.859 -0.0984 -0.0381  0.4829
16088TIP3    H169679   2.907   2.212  15.821 -0.0526 -0.9932 -1.6036
16088TIP3    H269680   2.912   2.129  15.947  0.1288  2.0422  0.4500
16089TIP3   OH269681   0.731   6.193  17.075  0.5464 -0.1063 -0.1605
16089TIP3    H169682   0.668   6.264  17.088  0.0342 -0.7722  1.0805
16089TIP3    H269683   0.814   6.237  17.059  0.0755  0.7675 -0.2146
16090TIP3   OH269684   4.518   2.290   4.504 -0.0970  0.2515  0.7030
16090TIP3    H169685   4.602   2.335   4.511  0.8911 -1.3629 -0.4328
16090TIP3    H269686   4.519   2.228   4.577  0.7189 -1.3657 -0.6559
16091TIP3   OH269687   1.116   0.056   2.779 -0.0259 -0.3664  0.7286
16091TIP3    H169688   1.081  -0.010   2.839 -0.0478  0.4594  1.6322
16091TIP3    H269689   1.163   0.117   2.836  0.1298  0.3050 -0.1201
16092TIP3   OH269690   6.324   0.849  14.541  0.2751 -0.5362  0.5032
16092TIP3    H169691   6.269   0.862  14.618 -0.3613  0.3282 -0.0858
16092TIP3    H269692   6.266   0.806  14.477  0.9414 -1.7170  0.6706
16093TIP3   OH269693   1.969   2.194   1.479  0.3466 -0.0754  0.2012
16093TIP3    H169694   1.979   2.115   1.426  0.5587  0.6674 -0.8657
16093TIP3    H269695   1.876   2.195   1.503  0.2680 -0.4422 -0.0858
16094TIP3   OH269696   4.481   5.783   4.011 -0.5884 -0.5825 -0.2558
16094TIP3    H169697   4.567   5.823   4.027 -0.6023 -0.0937 -1.3295
16094TIP3    H269698   4.498   5.717   3.944 -1.0832 -0.3437 -0.6167
16095TIP3   OH269699   0.620   6.016  15.188  0.9901  0.1099  0.3271
16095TIP3    H169700   0.652   6.063  15.265 -0.7046  0.9844  0.5256
16095TIP3    H269701   0.623   6.081  15.118 -0.2534  0.1920  0.3377
16096TIP3   OH269702   2.868   2.683  16.472  0.1562  0.2274  0.4315
16096TIP3    H169703   2.827   2.640  16.397 -0.5541 -0.1334  1.0161
16096TIP3    H269704   2.957   2.649  16.473 -0.0474 -0.3213  0.1763
16097TIP3   OH269705   5.302   1.934   1.366 -0.2498 -0.6927  0.5072
16097TIP3    H169706   5.324   1.910   1.276 -0.1779  2.8170 -0.4561
16097TIP3    H269707   5.385   1.962   1.404 -0.6083 -0.4878  1.1405
16098TIP3   OH269708   6.030   6.665   0.975 -0.4035  0.3607  0.2394
16098TIP3    H169709   6.119   6.630   0.976 -0.1936  0.8481 -0.8639
16098TIP3    H269710   6.031   6.736   1.040 -0.1313  0.0114  0.6123
16099TIP3   OH269711   3.554   0.106  13.472 -0.1409 -0.2136 -0.5221
16099TIP3    H169712   3.473   0.148  13.502  0.3931  1.0253 -0.7891
16099TIP3    H269713   3.567   0.034  13.533 -2.2113 -1.3082 -1.3260
16100TIP3   OH269714   5.010   1.068  14.755  0.0796  0.2805  0.5335
16100TIP3    H169715   5.054   0.984  14.768 -0.5476 -0.2924 -0.9949
16100TIP3    H269716   5.013   1.083  14.660 -2.7834  0.3614  0.4098
16101TIP3   OH269717   3.744   4.207   5.529 -0.4028 -0.7994 -0.1176
16101TIP3    H169718   3.727   4.177   5.619 -0.2838 -1.5554 -0.3436
16101TIP3    H269719   3.746   4.302   5.536 -0.8446 -0.8354  0.6052
16102TIP3   OH269720   4.509   1.968   0.769 -0.4655 -0.0819  0.1771
16102TIP3    H169721   4.471   1.928   0.691  0.8642 -1.4113  0.2003
16102TIP3    H269722   4.603   1.969   0.753 -0.1767 -0.4329  1.7980
16103TIP3   OH269723   5.676   4.491  16.016  0.5398  0.2928 -0.0281
16103TIP3    H169724   5.617   4.560  16.049 -0.6540  0.1938 -1.9015
16103TIP3    H269725   5.754   4.538  15.988  0.5820  0.6506  0.6753
16104TIP3   OH269726   1.197   3.126   5.076  0.1776 -0.4743  0.4680
16104TIP3    H169727   1.219   3.039   5.045  0.1363 -0.7165  1.0990
16104TIP3    H269728   1.260   3.184   5.034 -1.1733 -0.5135 -1.6713
16105TIP3   OH269729   5.400   0.346  12.489 -0.2769 -0.0657 -0.3608
16105TIP3    H169730   5.336   0.417  12.488 -0.4029 -0.1856 -0.7471
16105TIP3    H269731   5.371   0.290  12.562 -1.5606 -0.9771 -1.5391
16106TIP3   OH269732   6.236   3.663   2.542 -0.1096 -0.4967 -0.2003
16106TIP3    H169733   6.326   3.640   2.518 -0.1841 -0.1964 -0.7878
16106TIP3    H269734   6.189   3.665   2.458 -0.6829 -0.7432  0.1139
16107TIP3   OH269735   2.550   2.862   2.226  0.3329  0.4717 -0.3743
16107TIP3    H169736   2.472   2.909   2.255 -0.2246 -1.0518  0.6452
16107TIP3    H269737   2.581   2.816   2.304  2.4412  1.2854 -0.6827
16108TIP3   OH269738   2.283   0.566   0.074  0.5773  0.6075 -1.0514
16108TIP3    H169739   2.355   0.528   0.023 -0.9010 -0.6238 -2.2440
16108TIP3    H269740   2.207   0.562   0.016 -1.2954 -1.3772  1.4294
16109TIP3   OH269741   1.737   2.317  11.389 -0.1484  0.6993  0.0345
16109TIP3    H169742   1.826   2.313  11.356 -0.1879 -0.3642  0.0300
16109TIP3    H269743   1.689   2.369  11.324  0.4194  1.0814 -0.0748
16110TIP3   OH269744   4.252   4.741   4.402  0.4001  0.6226 -0.4158
16110TIP3    H169745   4.223   4.809   4.341 -1.1084 -0.8506 -1.4080
16110TIP3    H269746   4.270   4.665   4.346 -0.4940 -0.5891  0.8992
16111TIP3   OH269747   5.181   0.909   4.327  0.6015 -0.6020  0.0026
16111TIP3    H169748   5.265   0.954   4.313  0.4986 -0.1751  0.7352
16111TIP3    H269749   5.195   0.821   4.293  0.8907 -0.1020 -1.2226
16112TIP3   OH269750   2.091   1.434   6.678  0.4164  0.4919  0.2949
16112TIP3    H169751   2.064   1.502   6.616  1.1126 -1.5680 -2.3501
16112TIP3    H269752   2.125   1.482   6.754  1.2701  3.0781 -1.6714
16113TIP3   OH269753   2.543   4.626   6.086 -0.0616  0.4283 -0.2995
16113TIP3    H169754   2.543   4.531   6.097  0.0054  0.1715 -2.3266
16113TIP3    H269755   2.636   4.650   6.083 -0.0252  0.9839  3.3045
16114TIP3   OH269756   0.174   4.625  14.339 -0.4895  0.1532 -0.1154
16114TIP3    H169757   0.256   4.661  14.305  0.0385 -0.9992 -0.1094
16114TIP3    H269758   0.187   4.620  14.433 -0.6885  0.2578 -0.0811
16115TIP3   OH269759   6.030   3.188  14.716  0.3571 -0.5602 -0.0571
16115TIP3    H169760   6.031   3.107  14.665  0.3656 -1.2182  0.9619
16115TIP3    H269761   6.118   3.194  14.753  0.5136  0.1882 -0.5315
16116TIP3   OH269762   0.974   6.007   3.625  0.6174  0.5015  0.4900
16116TIP3    H169763   1.051   6.060   3.602  0.7835  0.1458  0.2144
16116TIP3    H269764   0.980   5.930   3.568 -0.0897  0.5978  0.2888
16117TIP3   OH269765   0.722   0.798   2.114 -0.1149 -0.2998  0.3678
16117TIP3    H169766   0.654   0.768   2.175 -1.0928 -1.5647 -1.2900
16117TIP3    H269767   0.679   0.864   2.060  0.0585 -0.8387 -0.4463
16118TIP3   OH269768   1.681   6.454   0.977  0.7700  0.2121 -0.0954
16118TIP3    H169769   1.762   6.422   0.937 -0.2556 -2.4214 -0.1703
16118TIP3    H269770   1.652   6.524   0.920  2.4343  0.4561 -0.6647
16119TIP3   OH269771   2.587   6.123  16.255 -0.1204 -0.3485 -0.1910
16119TIP3    H169772   2.581   6.218  16.241 -0.1108 -0.7220 -3.1035
16119TIP3    H269773   2.497   6.095  16.270 -0.1057  0.1343  0.8232
16120TIP3   OH269774   0.552   1.977  13.929  0.0429 -0.1114 -0.6751
16120TIP3    H169775   0.498   1.907  13.965 -0.7493  1.6238  1.6036
16120TIP3    H269776   0.642   1.951  13.948 -0.1631 -1.1980 -1.1583
16121TIP3   OH269777   3.377   1.945  14.167  0.1460 -0.3137 -0.1546
16121TIP3    H169778   3.319   1.875  14.199  2.2702 -2.0906 -0.0008
16121TIP3    H269779   3.447   1.949  14.232  0.0312  2.0552 -0.1353
16122TIP3   OH269780   3.298   3.435  12.267 -0.1210 -0.0865 -0.3969
16122TIP3    H169781   3.339   3.402  12.187  0.9784 -1.3300  0.6392
16122TIP3    H269782   3.309   3.363  12.330 -4.5832 -0.7745 -0.2664
16123TIP3   OH269783   5.673   2.097   5.226 -0.1892 -0.3279 -0.1520
16123TIP3    H169784   5.631   2.183   5.230 -2.2037 -1.2845 -0.3886
16123TIP3    H269785   5.713   2.086   5.313 -4.0355 -1.1620  1.6075
16124TIP3   OH269786   2.976   6.179   5.491  0.1528 -0.3406 -0.2440
16124TIP3    H169787   2.903   6.139   5.539  0.6831 -1.5893 -0.4660
16124TIP3    H269788   3.019   6.236   5.554 -2.2815  2.0883 -0.6607
16125TIP3   OH269789   6.719   2.858   5.724 -0.8902  0.4519  0.4451
16125TIP3    H169790   6.792   2.910   5.689 -1.3626 -0.3091 -1.7168
16125TIP3    H269791   6.732   2.861   5.819  0.5323  2.3984  0.2306
16126TIP3   OH269792   3.999   3.467  16.526 -0.3754 -0.1908  0.0691
16126TIP3    H169793   3.953   3.468  16.610  1.1880 -0.6492  0.9296
16126TIP3    H269794   3.984   3.555  16.491 -0.0806  0.3925  1.3596
16127TIP3   OH269795   0.224   2.918  16.850 -0.2590 -0.1629  1.0519
16127TIP3    H169796   0.303   2.969  16.837 -0.2157 -1.1396 -3.3820
16127TIP3    H269797   0.255   2.832  16.878  0.2289 -0.3654 -0.0878
16128TIP3   OH269798   6.027   5.308  11.002 -0.3894  0.6446  0.2160
16128TIP3    H169799   5.987   5.328  10.918 -0.9733 -1.5879 -0.0838
16128TIP3    H269800   6.120   5.297  10.983 -0.5430 -0.0109 -0.1873
16129TIP3   OH269801   3.390   2.583  13.201 -0.8249 -0.4828 -0.6087
16129TIP3    H169802   3.408   2.552  13.289  1.1361 -0.8317 -1.1017
16129TIP3    H269803   3.318   2.529  13.170 -1.9403  0.0539  0.9914
16130TIP3   OH269804   4.079   5.795  16.347  0.0352 -0.1647  0.3054
16130TIP3    H169805   4.030   5.830  16.272 -2.6729 -2.5808  0.8230
16130TIP3    H269806   4.118   5.714  16.314 -1.8077 -1.6418  1.6486
16131TIP3   OH269807   0.921   5.643   3.620  0.2386 -0.2248  0.6189
16131TIP3    H169808   0.999   5.697   3.615  0.1084 -0.0303  0.7041
16131TIP3    H269809   0.849   5.700   3.593  0.1816 -0.5261  0.1243
16132TIP3   OH269810   3.265   6.761  16.256  0.1153  0.4054 -0.2505
16132TIP3    H169811   3.289   6.682  16.305 -0.9360  0.6845  0.7285
16132TIP3    H269812   3.190   6.797  16.303  0.4412  1.8706 -0.8294
16133TIP3   OH269813   6.537   0.121   3.900  0.0783 -0.4208 -0.0075
16133TIP3    H169814   6.618   0.106   3.949  0.7289  0.9782 -0.6330
16133TIP3    H269815   6.549   0.207   3.860 -0.3988 -1.5634 -2.7014
16134TIP3   OH269816   2.157   4.762   1.210  0.0227 -0.1498  0.5167
16134TIP3    H169817   2.062   4.758   1.223 -0.6683  1.0615 -3.3040
16134TIP3    H269818   2.174   4.696   1.143  1.8120 -0.0301  0.8432
16135TIP3   OH269819   1.638   0.827  15.211 -0.0865 -0.0430  0.0394
16135TIP3    H169820   1.543   0.838  15.219 -0.1646 -1.1343  0.7637
16135TIP3    H269821   1.666   0.797  15.298  0.7737 -0.6956 -0.4545
16136TIP3   OH269822   5.141   4.730  15.617 -0.7409 -0.4217 -0.6117
16136TIP3    H169823   5.177   4.647  15.649  0.6419  0.8424  1.1350
16136TIP3    H269824   5.200   4.755  15.545 -0.9227 -0.7369 -0.8722
16137TIP3   OH269825   6.120   2.402   4.225  0.5703  0.2497 -1.3148
16137TIP3    H169826   6.121   2.316   4.185  3.3341  0.2517 -1.3654
16137TIP3    H269827   6.061   2.394   4.300  0.9025 -1.7281 -1.2449
16138TIP3   OH269828   6.761   1.560  13.134  0.3291 -0.1855  0.4022
16138TIP3    H169829   6.712   1.481  13.112 -2.1928  1.6335 -0.7722
16138TIP3    H269830   6.727   1.585  13.220  0.7229 -0.0853  0.5274
16139TIP3   OH269831   3.171   5.839  16.842  0.1112 -0.0463 -0.1642
16139TIP3    H169832   3.157   5.882  16.757  1.6460 -0.3110 -0.5651
16139TIP3    H269833   3.218   5.904  16.894 -0.0552 -0.2090  0.1920
16140TIP3   OH269834   3.100   1.236  10.703 -0.1902 -0.0565  0.1222
16140TIP3    H169835   3.063   1.148  10.710 -2.1452  0.6523 -1.1832
16140TIP3    H269836   3.185   1.222  10.660 -0.3030 -1.3477  0.2946
16141TIP3   OH269837   6.027   0.141   5.429  0.0523  0.4537 -0.4829
16141TIP3    H169838   6.089   0.180   5.367 -0.8528  2.6365 -0.0634
16141TIP3    H269839   5.941   0.162   5.392 -0.4630 -0.2739  0.2980
16142TIP3   OH269840   6.780   1.639  12.127  0.4058  0.3882  0.1199
16142TIP3    H169841   6.738   1.556  12.148 -0.7731  0.8429 -0.3746
16142TIP3    H269842   6.822   1.667  12.209 -2.7201  1.3324  1.4615
16143TIP3   OH269843   2.981   4.591   2.379 -0.0684  0.0354  0.1492
16143TIP3    H169844   3.070   4.558   2.371 -0.1514  0.1923 -1.6754
16143TIP3    H269845   2.927   4.513   2.392  0.2009 -0.1603  0.0840
16144TIP3   OH269846   6.303   5.596  11.054 -0.2627 -0.1548  0.1235
16144TIP3    H169847   6.360   5.557  11.119  1.7561 -0.8724 -2.0138
16144TIP3    H269848   6.346   5.678  11.030 -1.7388  0.8219  0.7098
16145TIP3   OH269849   4.431   5.910  15.874  0.3382  0.3476  0.0025
16145TIP3    H169850   4.365   5.907  15.804  0.7201  2.0944 -0.4701
16145TIP3    H269851   4.404   5.842  15.936 -2.3488  1.5227  0.1819
16146TIP3   OH269852   0.932   0.703  12.430 -0.5591  0.0486  0.5210
16146TIP3    H169853   0.921   0.798  12.439  0.0062  0.2631 -0.9774
16146TIP3    H269854   0.842   0.670  12.422 -0.9245  0.1770  3.3443
16147TIP3   OH269855   5.346   5.737   2.944 -0.0860  0.1160 -0.0604
16147TIP3    H169856   5.414   5.784   2.994 -0.4918 -0.8404  1.4241
16147TIP3    H269857   5.395   5.679   2.886  0.3799  0.2159  0.2282
16148TIP3   OH269858   0.187   0.313   1.515 -0.0239 -0.3036  0.1700
16148TIP3    H169859   0.098   0.342   1.493  1.2045  0.1223 -4.6594
16148TIP3    H269860   0.201   0.235   1.462  3.0845  0.5563 -0.3384
16149TIP3   OH269861   0.828   3.415  16.757  0.5197 -0.4843 -0.3850
16149TIP3    H169862   0.797   3.353  16.824 -1.6883 -0.2493 -1.1313
16149TIP3    H269863   0.898   3.369  16.711 -1.3421 -2.6299 -1.1852
16150TIP3   OH269864   1.308   2.631   4.885 -0.0725 -0.0107  0.1035
16150TIP3    H169865   1.398   2.656   4.866 -0.0524 -0.5088 -0.4808
16150TIP3    H269866   1.316   2.562   4.951  0.0612 -1.1316 -1.0521
16151TIP3   OH269867   0.744   2.477  12.481  0.0882  0.3802  0.2679
16151TIP3    H169868   0.739   2.385  12.457  0.9477  0.4534 -0.2132
16151TIP3    H269869   0.787   2.478  12.566  0.7533  0.3762 -0.0622
16152TIP3   OH269870   0.996   1.005   1.472 -0.0412  0.4401 -0.0047
16152TIP3    H169871   1.051   1.005   1.394 -0.9282 -0.1015 -0.6392
16152TIP3    H269872   0.907   1.015   1.439 -0.2394  2.6290  1.1011
16153TIP3   OH269873   0.658   2.698   3.924 -0.1363  0.2359  0.2229
16153TIP3    H169874   0.731   2.704   3.863  1.4855 -2.2310  1.7970
16153TIP3    H269875   0.686   2.747   4.001  0.0446 -0.9902  0.9602
16154TIP3   OH269876   4.739   1.269  11.347 -0.0865 -0.2355  0.5865
16154TIP3    H169877   4.830   1.297  11.332  0.0170 -0.7476  0.2572
16154TIP3    H269878   4.694   1.349  11.374  0.5036 -0.0158  0.9248
16155TIP3   OH269879   2.240   5.843  12.445  0.1237  0.1521 -0.2185
16155TIP3    H169880   2.182   5.787  12.496  0.7623 -0.5106 -0.2112
16155TIP3    H269881   2.217   5.933  12.470  0.3409 -0.1679  1.1311
16156TIP3   OH269882   2.066   2.583   5.791  0.2614  0.0819  0.2564
16156TIP3    H169883   1.971   2.570   5.798  0.0201  1.5791  0.0564
16156TIP3    H269884   2.103   2.525   5.857 -0.9651  1.5800  2.3400
16157TIP3   OH269885   3.596   3.550   5.485 -0.5704  0.0368  0.6176
16157TIP3    H169886   3.599   3.538   5.391 -0.0190  1.7075  0.4010
16157TIP3    H269887   3.519   3.605   5.501 -0.4660  0.0504  1.1080
16158TIP3   OH269888   4.280   2.021   1.339 -0.9270 -0.5864 -0.1152
16158TIP3    H169889   4.244   1.998   1.424 -1.0414 -0.6481 -0.1798
16158TIP3    H269890   4.365   1.977   1.336 -0.4578  0.2785  0.3920
16159TIP3   OH269891   4.859   6.470  17.239  0.3332  0.6384  0.0032
16159TIP3    H169892   4.927   6.477  17.172  0.7048 -1.6393  0.0754
16159TIP3    H269893   4.780   6.504  17.197  0.4360 -1.2708 -1.8182
16160TIP3   OH269894   4.674   2.875   3.706 -0.1142 -0.7494  0.3149
16160TIP3    H169895   4.687   2.808   3.773  0.0340 -0.9954  0.0437
16160TIP3    H269896   4.588   2.912   3.725 -0.8956 -2.0847 -0.4517
16161TIP3   OH269897   0.684   6.472  12.048  0.0974  0.4395 -0.1627
16161TIP3    H169898   0.619   6.421  12.000  0.5855 -2.0098  1.6433
16161TIP3    H269899   0.646   6.484  12.135  1.2827  0.4742  0.3751
16162TIP3   OH269900   4.139   0.765  11.984  0.0006 -0.1254  0.5605
16162TIP3    H169901   4.045   0.757  11.996 -0.0749  0.0384  0.0691
16162TIP3    H269902   4.154   0.858  11.970  0.0238 -0.3859 -1.1967
16163TIP3   OH269903   1.102   3.481  15.785  0.3483  0.1289  0.3666
16163TIP3    H169904   1.086   3.416  15.717 -1.5059 -1.0105  1.8007
16163TIP3    H269905   1.166   3.541  15.748 -0.7598 -0.3418 -2.4410
16164TIP3   OH269906   4.619   4.441   3.037  0.3435 -0.0443 -0.1430
16164TIP3    H169907   4.702   4.404   3.066 -0.8115 -0.0888  3.3452
16164TIP3    H269908   4.597   4.507   3.103 -1.3203  1.5556 -2.2137
16165TIP3   OH269909   3.692   3.739   4.780 -0.5457 -0.0135 -0.3431
16165TIP3    H169910   3.598   3.725   4.767 -0.3201 -1.1204 -0.8541
16165TIP3    H269911   3.734   3.679   4.718  0.5238 -1.4188  1.6873
16166TIP3   OH269912   0.123   4.746  11.733  0.7725  0.2110 -0.4401
16166TIP3    H169913   0.142   4.795  11.813  0.8879 -0.3135 -0.1463
16166TIP3    H269914   0.209   4.716  11.703  0.8350  1.1458 -1.2442
16167TIP3   OH269915   2.524   3.555  11.033  1.1160 -0.1558 -0.0370
16167TIP3    H169916   2.579   3.500  11.088  0.1369 -0.1579  0.9519
16167TIP3    H269917   2.486   3.495  10.969  1.8645 -0.2344 -0.4129
16168TIP3   OH269918   3.322   0.677  14.782  0.8012 -0.0459 -0.0031
16168TIP3    H169919   3.248   0.724  14.744 -0.0621  0.0232  1.7021
16168TIP3    H269920   3.289   0.645  14.866  2.8991  0.5525  1.0834
16169TIP3   OH269921   3.359   0.207   3.251 -0.0939 -0.0094 -1.0363
16169TIP3    H169922   3.387   0.117   3.267 -2.4245 -1.1918 -3.1723
16169TIP3    H269923   3.342   0.243   3.338  0.5842 -1.7231 -0.1685
16170TIP3   OH269924   1.543   2.443   4.638 -0.2416 -0.3221 -0.2946
16170TIP3    H169925   1.459   2.450   4.684  0.6847 -1.7068  1.7134
16170TIP3    H269926   1.601   2.502   4.687 -0.1972  1.1528 -2.0951
16171TIP3   OH269927   0.092   2.897   0.906 -0.3151 -0.5137  0.2748
16171TIP3    H169928   0.137   2.817   0.879 -0.3454 -0.5965  0.4721
16171TIP3    H269929   0.154   2.967   0.885 -0.4010 -0.5625 -0.1608
16172TIP3   OH269930   0.920   2.388   2.803 -0.2543 -0.0942 -0.1485
16172TIP3    H169931   0.994   2.430   2.846  0.3787 -2.1859  0.8487
16172TIP3    H269932   0.880   2.333   2.871 -3.2534  1.6612 -0.4290
16173TIP3   OH269933   2.084   0.238  11.143  0.0515 -0.3720 -0.4576
16173TIP3    H169934   2.098   0.296  11.068 -2.5015  1.8116  0.6667
16173TIP3    H269935   2.143   0.272  11.211 -1.8442  1.3725  0.3856
16174TIP3   OH269936   3.879   6.737  14.032 -0.0182  0.1298 -0.3688
16174TIP3    H169937   3.838   6.816  14.066 -0.4390 -0.1225 -0.2905
16174TIP3    H269938   3.957   6.768  13.986 -0.0192  0.5625 -0.0789
16175TIP3   OH269939   1.779   1.316  15.097  0.2462 -0.8115 -1.3108
16175TIP3    H169940   1.711   1.319  15.030  0.2788 -1.6054 -1.3869
16175TIP3    H269941   1.733   1.331  15.179 -0.0325 -1.4237 -1.3560
16176TIP3   OH269942   5.469   1.826  14.584 -0.6603 -0.3110  0.6197
16176TIP3    H169943   5.479   1.900  14.524  1.7806  0.2758  1.6918
16176TIP3    H269944   5.419   1.862  14.658 -0.3604  0.0096  0.6687
16177TIP3   OH269945   0.504   2.509   6.581  0.7092  0.0238  0.0943
16177TIP3    H169946   0.426   2.515   6.636 -0.8068  0.0437 -1.9551
16177TIP3    H269947   0.509   2.417   6.557  0.7229  0.1871 -0.5574
16178TIP3   OH269948   1.223   1.320  11.452  0.2644  0.4071 -0.8699
16178TIP3    H169949   1.281   1.305  11.527 -0.2934 -0.3629 -0.5897
16178TIP3    H269950   1.262   1.395  11.407  1.1911  0.2302 -0.3943
16179TIP3   OH269951   2.937   1.292   3.497 -0.1895 -0.2071  0.8223
16179TIP3    H169952   2.879   1.216   3.507 -0.8792  0.4101  1.6050
16179TIP3    H269953   3.022   1.262   3.530 -0.8769 -0.1336  2.6818
16180TIP3   OH269954   5.719   3.101   4.376 -0.0398 -0.4004 -0.4453
16180TIP3    H169955   5.662   3.040   4.329  0.3960  0.7271 -2.5019
16180TIP3    H269956   5.664   3.178   4.391  0.4072  0.0114 -0.8889
16181TIP3   OH269957   2.535   4.592  14.808  0.9293  0.1060  0.0046
16181TIP3    H169958   2.497   4.644  14.737  1.9009 -1.2732 -1.5807
16181TIP3    H269959   2.615   4.639  14.832  0.1933  0.9968  0.7530
16182TIP3   OH269960   3.921   3.861  14.441 -0.0035  0.5190  0.3453
16182TIP3    H169961   3.871   3.917  14.381 -1.0331 -0.5583  0.1654
16182TIP3    H269962   3.994   3.828  14.389  0.3902  1.4008  0.3437
16183TIP3   OH269963   2.887   0.172   3.290 -0.2770 -0.0595 -0.0361
16183TIP3    H169964   2.917   0.249   3.242 -1.9713  0.3075 -0.5277
16183TIP3    H269965   2.968   0.125   3.312  0.7455  1.6245 -0.0869
16184TIP3   OH269966   4.553   2.364   2.896 -0.2638 -0.0717  0.0995
16184TIP3    H169967   4.634   2.365   2.946 -0.1678  0.7895 -0.0627
16184TIP3    H269968   4.509   2.283   2.922 -0.3065  0.4737  1.7231
16185TIP3   OH269969   1.285   1.908   5.043  1.1322 -0.3930  0.3667
16185TIP3    H169970   1.241   1.871   4.967  1.1690  0.7155 -0.2181
16185TIP3    H269971   1.220   1.904   5.113 -0.0898  1.6403 -0.6025
16186TIP3   OH269972   5.747   2.867   5.585 -0.3787 -0.3206 -0.0054
16186TIP3    H169973   5.825   2.867   5.641 -1.1240  1.0521  1.0743
16186TIP3    H269974   5.746   2.781   5.544  0.3602 -1.2432  1.8842
16187TIP3   OH269975   6.497   1.842  16.213  0.1520 -0.4627  0.0947
16187TIP3    H169976   6.575   1.799  16.248 -0.3069 -0.0787  1.6254
16187TIP3    H269977   6.424   1.795  16.252 -0.3746 -0.0287 -0.3597
16188TIP3   OH269978   3.650   6.615   2.351 -0.4858 -0.4977 -0.2258
16188TIP3    H169979   3.578   6.561   2.320  0.3461 -1.1571 -1.0484
16188TIP3    H269980   3.712   6.553   2.391 -0.3942  0.0659  0.5344
16189TIP3   OH269981   2.306   3.073   5.892  0.7655 -0.2055 -0.2985
16189TIP3    H169982   2.376   3.014   5.868  1.3552  1.0605 -1.7874
16189TIP3    H269983   2.256   3.086   5.812  0.6361  1.2817  0.0010
16190TIP3   OH269984   1.301   3.419   1.155 -0.4117  0.7702  0.3189
16190TIP3    H169985   1.248   3.386   1.226 -0.7463 -0.8041 -0.6501
16190TIP3    H269986   1.391   3.419   1.189 -0.6095  0.3008  0.8227
16191TIP3   OH269987   1.243   6.044   6.069 -0.1547  0.5800 -0.3848
16191TIP3    H169988   1.240   5.948   6.071 -0.5760  0.5189 -2.4460
16191TIP3    H269989   1.171   6.071   6.127  0.6000 -0.3237  1.0046
16192TIP3   OH269990   2.800   6.206   2.209  0.1505  0.6804 -0.2545
16192TIP3    H169991   2.854   6.221   2.286  1.0477  0.1054 -0.7595
16192TIP3    H269992   2.710   6.207   2.242  0.4585  1.7155  0.5805
16193TIP3   OH269993   2.853   0.318  14.030 -0.1841  0.3715  0.0494
16193TIP3    H169994   2.928   0.309  13.971  0.4750  2.1337  0.5571
16193TIP3    H269995   2.781   0.346  13.974 -0.6427 -1.8875 -0.5337
16194TIP3   OH269996   6.728   3.190   5.898 -0.2963  0.1358  0.5293
16194TIP3    H169997   6.664   3.171   5.967 -0.3847 -0.1391  0.3726
16194TIP3    H269998   6.803   3.227   5.944 -0.3182 -0.1342  0.7843
16195TIP3   OH269999   6.331   1.087   4.835  0.1470 -0.1432  0.0576
16195TIP3    H170000   6.301   1.090   4.926 -1.7187  0.6380 -0.5626
16195TIP3    H270001   6.284   1.157   4.791 -0.3895 -1.6831 -1.9392
16196TIP3   OH270002   1.365   5.266  13.948  0.3432  0.1120 -0.5164
16196TIP3    H170003   1.325   5.179  13.952  1.1953 -0.2367  0.4315
16196TIP3    H270004   1.379   5.291  14.039  0.8339  0.9169 -0.8049
16197TIP3   OH270005   5.607   6.373  11.257  0.0710 -0.2457  0.4357
16197TIP3    H170006   5.611   6.393  11.164  1.5411 -0.2469  0.4784
16197TIP3    H270007   5.606   6.458  11.300 -4.1353 -0.1824  0.3501
16198TIP3   OH270008   5.408   6.462   3.857 -0.1372  0.0000  0.0080
16198TIP3    H170009   5.436   6.521   3.927 -0.9697  0.3656  0.0431
16198TIP3    H270010   5.486   6.411   3.836 -0.3624 -1.4753  2.5387
16199TIP3   OH270011   3.095   6.205  16.441 -0.8139 -0.3987  0.2736
16199TIP3    H170012   3.072   6.212  16.349 -0.5266  0.3065  0.2591
16199TIP3    H270013   3.011   6.207  16.487 -0.9274 -0.2668  0.0605
16200TIP3   OH270014   5.787   1.713   5.420  0.7824  0.1532  0.1800
16200TIP3    H170015   5.858   1.659   5.385  0.6376 -0.7112  1.2046
16200TIP3    H270016   5.824   1.754   5.498  0.4651  0.4774  0.1613
16201TIP3   OH270017   3.550   0.120   6.289 -0.4339  0.1687  0.5482
16201TIP3    H170018   3.500   0.202   6.285 -1.2946 -0.4054 -1.1663
16201TIP3    H270019   3.486   0.056   6.320 -0.0040 -0.0281  1.0215
16202TIP3   OH270020   1.466   6.578  13.080  0.1512 -0.2074 -0.1053
16202TIP3    H170021   1.450   6.539  13.166  1.1131 -1.7693 -0.6267
16202TIP3    H270022   1.462   6.505  13.019 -0.8064  0.9361 -1.4396
16203TIP3   OH270023   0.513   0.598   2.459  0.0294  0.4320 -0.2357
16203TIP3    H170024   0.604   0.585   2.433 -0.2998 -0.5078 -0.9629
16203TIP3    H270025   0.469   0.628   2.379 -0.3947  0.4291 -0.0074
16204TIP3   OH270026   5.239   2.468  13.205 -0.1661 -0.3544  0.0513
16204TIP3    H170027   5.171   2.534  13.187 -0.7331 -1.3225 -1.4970
16204TIP3    H270028   5.317   2.519  13.226 -0.9876  0.7914  0.3993
16205TIP3   OH270029   4.070   6.294  14.904  0.6431  0.2866  0.2510
16205TIP3    H170030   4.118   6.276  14.823 -1.6564 -0.6056 -0.9588
16205TIP3    H270031   4.028   6.379  14.888  1.1569  0.6785  0.9750
16206TIP3   OH270032   4.166   3.552  14.008  0.0986  0.2321  0.0284
16206TIP3    H170033   4.219   3.473  13.996 -1.1209 -0.1252 -3.3603
16206TIP3    H270034   4.076   3.520  14.016  0.0508  0.9919  3.6977
16207TIP3   OH270035   2.890   2.205  12.245 -0.1798  0.5098  0.7987
16207TIP3    H170036   2.901   2.231  12.154  1.2858  1.6174  1.2785
16207TIP3    H270037   2.832   2.129  12.241  0.4583  0.0910 -1.1071
16208TIP3   OH270038   0.799   1.737  15.648  0.2351 -0.0145  0.9275
16208TIP3    H170039   0.847   1.806  15.601  1.0486 -0.1226  1.6095
16208TIP3    H270040   0.736   1.704  15.583  1.0406  0.1566  0.0517
16209TIP3   OH270041   2.835   3.378   5.790 -0.6472  0.1240 -0.1283
16209TIP3    H170042   2.822   3.466   5.826 -1.6459 -0.1158  0.1005
16209TIP3    H270043   2.755   3.331   5.811 -0.2956 -0.7157 -0.6421
16210TIP3   OH270044   4.795   5.923  16.740  0.3441  0.2508 -0.5055
16210TIP3    H170045   4.874   5.869  16.738  0.0539 -0.1442 -1.5488
16210TIP3    H270046   4.725   5.862  16.763  0.2430  0.4874 -0.1764
16211TIP3   OH270047   2.650   5.260  13.358  0.4238 -0.1952 -0.0720
16211TIP3    H170048   2.623   5.327  13.421 -0.0465 -2.4445  2.2038
16211TIP3    H270049   2.607   5.180  13.389  3.4084 -2.1956 -0.9442
16212TIP3   OH270050   0.204   1.577  14.939 -0.1413 -0.5449  0.0206
16212TIP3    H170051   0.138   1.588  15.007  0.7784  2.4284  0.5032
16212TIP3    H270052   0.284   1.613  14.978  1.5454 -3.0961 -0.9385
16213TIP3   OH270053   2.453   1.238   0.493  0.0322  0.2734 -0.2681
16213TIP3    H170054   2.475   1.153   0.454 -0.0780  1.0929 -2.1883
16213TIP3    H270055   2.538   1.281   0.505  0.0317  0.2130 -0.0494
16214TIP3   OH270056   1.920   3.919   1.603 -0.3739  0.2409 -0.2981
16214TIP3    H170057   2.001   3.958   1.571 -1.1598  2.1830 -0.0158
16214TIP3    H270058   1.925   3.828   1.576  2.5242 -0.0078  0.9444
16215TIP3   OH270059   4.745   4.097  13.367  0.5412  0.0956  0.1435
16215TIP3    H170060   4.663   4.056  13.396  0.3332 -0.3125 -1.0106
16215TIP3    H270061   4.768   4.156  13.438 -0.7283  0.1623  0.5133
16216TIP3   OH270062   1.722   4.068  15.717 -0.0066 -0.0051 -0.1271
16216TIP3    H170063   1.647   4.037  15.768  0.0830  0.7876  0.5028
16216TIP3    H270064   1.798   4.023  15.756 -0.0865 -0.4075 -0.4274
16217TIP3   OH270065   1.002   6.020   0.344  0.0964 -0.6082 -0.2534
16217TIP3    H170066   0.940   6.090   0.366  0.6579  0.0970 -0.8729
16217TIP3    H270067   1.030   6.040   0.255  2.8029  0.3286  0.7282
16218TIP3   OH270068   6.485   3.114   3.455  0.0571 -0.6171  0.1759
16218TIP3    H170069   6.441   3.144   3.535  2.6935 -1.8106  2.1205
16218TIP3    H270070   6.524   3.194   3.418  0.9351 -0.4420  1.4453
16219TIP3   OH270071   1.949   5.270   4.591  0.7028 -0.1865 -0.1384
16219TIP3    H170072   2.016   5.319   4.543  1.9987 -1.3663  0.4050
16219TIP3    H270073   1.950   5.307   4.679  0.9511 -0.4720 -0.0176
16220TIP3   OH270074   0.616   6.185  14.125  0.1334  0.4413 -0.0108
16220TIP3    H170075   0.574   6.119  14.179 -0.6684 -0.1332 -1.3165
16220TIP3    H270076   0.552   6.257  14.121  0.1287  0.4203 -0.3219
16221TIP3   OH270077   1.282   5.522  12.603  0.0476 -0.6956  0.1028
16221TIP3    H170078   1.261   5.484  12.688 -1.2030 -1.9604 -0.7674
16221TIP3    H270079   1.198   5.535  12.560  0.5294  1.7907 -0.1813
16222TIP3   OH270080   5.856   5.626   4.866 -0.6177 -0.2356 -0.4421
16222TIP3    H170081   5.809   5.709   4.878 -3.7666 -2.0464  0.3047
16222TIP3    H270082   5.792   5.559   4.889  2.3923 -2.8483  0.5888
16223TIP3   OH270083   5.103   4.081   6.731 -0.1143  0.0094  0.4320
16223TIP3    H170084   5.068   4.082   6.642  2.1052 -0.0202 -0.4746
16223TIP3    H270085   5.111   3.988   6.753  0.3526  0.0070  0.2504
16224TIP3   OH270086   2.199   5.872  16.662  0.1100  0.0279  0.0491
16224TIP3    H170087   2.135   5.821  16.613 -0.5652  0.0792  0.8825
16224TIP3    H270088   2.174   5.862  16.753  1.3026  0.0380  0.3781
16225TIP3   OH270089   0.567   4.528  11.232  0.0837  0.2869  0.1615
16225TIP3    H170090   0.593   4.594  11.295 -0.1421  1.5392 -1.0383
16225TIP3    H270091   0.649   4.502  11.189 -0.0567  1.1494 -0.6539
16226TIP3   OH270092   2.100   3.414   1.336  0.2363  0.0294 -0.6552
16226TIP3    H170093   2.109   3.465   1.256  2.4215  0.6203 -0.0725
16226TIP3    H270094   2.187   3.418   1.377 -0.6386 -0.8738  1.3638
16227TIP3   OH270095   5.903   4.298   3.125 -0.2683  0.0022 -0.1152
16227TIP3    H170096   5.842   4.334   3.190  0.0580  0.8354 -0.2552
16227TIP3    H270097   5.982   4.353   3.134 -0.1596  0.0077 -1.0860
16228TIP3   OH270098   3.175   1.224  15.424  0.0211 -0.0271 -0.0924
16228TIP3    H170099   3.257   1.248  15.468 -0.0534  0.3323 -0.1434
16228TIP3    H270100   3.201   1.165  15.354  0.2596  0.2283 -0.2220
16229TIP3   OH270101   3.730   6.412   0.663  0.2476 -0.3353  0.7567
16229TIP3    H170102   3.815   6.384   0.628  1.0807 -0.8714  3.1297
16229TIP3    H270103   3.670   6.341   0.638  0.5867 -0.1785 -0.5337
16230TIP3   OH270104   3.671   3.812   2.392 -0.0359 -0.3790 -0.1823
16230TIP3    H170105   3.681   3.899   2.353 -0.9608 -0.0247  0.3631
16230TIP3    H270106   3.703   3.752   2.324  1.5014  0.4251 -0.2037
16231TIP3   OH270107   0.806   4.550   0.727 -0.6650  0.4349  0.5025
16231TIP3    H170108   0.872   4.545   0.796 -0.8590 -0.2997  0.6385
16231TIP3    H270109   0.727   4.514   0.766 -0.8879  0.4086  0.0313
16232TIP3   OH270110   5.577   5.784  12.167 -0.3695 -0.4299 -0.3520
16232TIP3    H170111   5.605   5.693  12.173 -1.7864 -0.8760 -0.3429
16232TIP3    H270112   5.562   5.799  12.074 -2.2220 -0.8737 -0.1558
16233TIP3   OH270113   3.110   5.677  14.687  0.2174 -0.1612  0.6503
16233TIP3    H170114   3.024   5.702  14.722 -0.0010 -0.8187  0.6041
16233TIP3    H270115   3.094   5.659  14.595  0.4479 -0.0830  0.5957
16234TIP3   OH270116   3.744   0.128  16.864  0.1645 -0.5060 -0.0469
16234TIP3    H170117   3.822   0.077  16.844  0.3070 -0.1948 -0.2972
16234TIP3    H270118   3.746   0.139  16.959  0.3462 -0.6244 -0.0377
16235TIP3   OH270119   5.464   5.779  16.438 -0.7198 -0.5277  0.0111
16235TIP3    H170120   5.529   5.819  16.495  0.5169 -2.2951 -0.1369
16235TIP3    H270121   5.405   5.733  16.498 -1.5235  0.5999  0.1032
16236TIP3   OH270122   4.919   1.876   5.625 -0.1124  0.1975  0.3884
16236TIP3    H170123   4.869   1.847   5.701 -0.5145 -0.4669 -0.1339
16236TIP3    H270124   4.985   1.807   5.612 -0.7305 -0.2253 -0.5239
16237TIP3   OH270125   1.828   5.240   1.225  0.3213 -0.3488  0.5226
16237TIP3    H170126   1.776   5.225   1.146 -0.1765 -0.7555  0.9174
16237TIP3    H270127   1.849   5.333   1.223 -0.8007 -0.0895  0.5760
16238TIP3   OH270128   6.080   2.872  12.797 -0.1866  0.1035  0.0284
16238TIP3    H170129   5.986   2.882  12.790 -0.1272  1.2447  0.8420
16238TIP3    H270130   6.100   2.796  12.741 -1.8179 -1.3810  1.4012
16239TIP3   OH270131   2.718   0.934  15.960  0.0993 -0.1121 -0.3771
16239TIP3    H170132   2.770   0.977  15.891  0.6930  0.1899  0.2494
16239TIP3    H270133   2.781   0.915  16.029 -0.7737  1.0263  0.7574
16240TIP3   OH270134   5.577   0.695   5.709  0.4804 -0.4343  0.3088
16240TIP3    H170135   5.615   0.783   5.720  0.5512 -0.4786  0.4221
16240TIP3    H270136   5.561   0.687   5.615 -0.4098  0.0765  0.4010
16241TIP3   OH270137   2.817   3.982  14.925 -0.0003 -0.3923 -0.1189
16241TIP3    H170138   2.746   3.947  14.872  0.4333 -0.7559 -0.4658
16241TIP3    H270139   2.781   3.990  15.013 -0.8452  0.5699 -0.5443
16242TIP3   OH270140   3.970   5.561  13.414 -0.3333 -0.7219  0.4786
16242TIP3    H170141   3.892   5.543  13.467  0.1828  0.1730  1.5505
16242TIP3    H270142   4.043   5.525  13.465  0.1712  0.2204  0.4339
16243TIP3   OH270143   5.571   3.388  17.056 -0.0032  0.1915  0.4322
16243TIP3    H170144   5.585   3.366  17.148  0.1928  2.6509  1.0216
16243TIP3    H270145   5.478   3.413  17.051 -0.0962 -0.2502 -0.1101
16244TIP3   OH270146   6.321   3.995  16.543  0.7093  0.0080 -0.3962
16244TIP3    H170147   6.322   3.954  16.457 -1.2262  0.4649 -0.6678
16244TIP3    H270148   6.284   3.929  16.601  0.1910  0.3701 -0.3036
16245TIP3   OH270149   6.249   4.735  15.536  0.2091 -0.6209 -0.6959
16245TIP3    H170150   6.163   4.731  15.494  0.3611  0.8874 -1.1707
16245TIP3    H270151   6.257   4.651  15.581 -0.0131 -2.2515 -3.5875
16246TIP3   OH270152   6.215   6.713   3.519 -0.1570  0.3442  0.8900
16246TIP3    H170153   6.255   6.633   3.486 -1.9619 -1.0249  1.9530
16246TIP3    H270154   6.282   6.753   3.573  0.9930 -0.0864 -0.2024
16247TIP3   OH270155   2.561   2.737   4.662 -0.1632  0.0533  0.1563
16247TIP3    H170156   2.583   2.806   4.725  0.0483  0.8502 -0.7744
16247TIP3    H270157   2.555   2.783   4.578 -0.9508 -0.9103 -0.3235
16248TIP3   OH270158   1.538   1.129   0.992 -0.0919  0.0916  0.2213
16248TIP3    H170159   1.592   1.190   1.043 -0.3890  1.5764 -1.2191
16248TIP3    H270160   1.496   1.075   1.058  0.6135  1.0778  1.5134
16249TIP3   OH270161   4.282   0.987   5.391  0.0842  0.2775 -0.0810
16249TIP3    H170162   4.270   0.906   5.439 -0.0784  0.0345 -0.5229
16249TIP3    H270163   4.302   0.959   5.302 -0.2222  0.7195 -0.2925
16250TIP3   OH270164   5.509   6.524   3.355 -0.4523 -0.7041 -0.4644
16250TIP3    H170165   5.448   6.596   3.345  1.2490  0.8836  0.3307
16250TIP3    H270166   5.474   6.473   3.429 -1.5154 -0.5583 -0.8613
16251TIP3   OH270167   5.958   1.611  14.157 -0.3310 -0.6008 -0.1272
16251TIP3    H170168   5.924   1.660  14.232  2.0371 -0.6879  1.0627
16251TIP3    H270169   6.017   1.673  14.113  0.8337 -1.5845  0.0192
16252TIP3   OH270170   2.644   5.239  14.427  0.4162 -0.0092 -0.7580
16252TIP3    H170171   2.664   5.146  14.421 -0.9012 -0.6160  3.1459
16252TIP3    H270172   2.722   5.279  14.465  0.0347  0.0867 -0.0702
16253TIP3   OH270173   0.663   1.755   4.932  0.1513 -0.0432 -0.1394
16253TIP3    H170174   0.723   1.785   5.000 -0.4266  2.2609 -0.6079
16253TIP3    H270175   0.579   1.744   4.976  0.2577 -0.5468 -0.0612
16254TIP3   OH270176   5.238   1.165  15.167  0.0679  0.0419  0.6440
16254TIP3    H170177   5.235   1.255  15.135  0.4319 -0.3335 -0.4886
16254TIP3    H270178   5.280   1.116  15.096  1.0870 -0.7882  1.7996
16255TIP3   OH270179   1.471   0.672  11.412 -0.0682 -0.2253  0.0441
16255TIP3    H170180   1.554   0.660  11.366 -0.6098 -1.8662 -0.5513
16255TIP3    H270181   1.410   0.614  11.367 -0.9133 -0.9634  2.0823
16256TIP3   OH270182   5.735   6.628   4.701 -0.0022  0.0181 -0.3990
16256TIP3    H170183   5.796   6.636   4.627 -0.2463 -1.5150 -0.7763
16256TIP3    H270184   5.649   6.617   4.660 -0.4128  1.1955  0.1341
16257TIP3   OH270185   6.677   0.393  13.180  0.5068 -0.1991  0.2510
16257TIP3    H170186   6.605   0.440  13.223 -1.0162  1.1477 -3.5954
16257TIP3    H270187   6.754   0.446  13.197 -0.3591  1.1497 -0.0039
16258TIP3   OH270188   3.725   5.219  15.564 -0.5821  0.3026  0.0121
16258TIP3    H170189   3.637   5.228  15.528 -0.1929 -0.5981 -1.1751
16258TIP3    H270190   3.765   5.148  15.515  0.4152 -0.0881  1.3389
16259TIP3   OH270191   2.168   5.480  13.150  0.4138  0.0343 -0.1352
16259TIP3    H170192   2.209   5.413  13.205 -1.7689 -0.8524  0.4931
16259TIP3    H270193   2.132   5.543  13.213  1.4510  1.1824 -0.6919
16260TIP3   OH270194   0.724   6.294  13.549  0.1848 -0.1957  0.2545
16260TIP3    H170195   0.789   6.364  13.541 -0.5365  0.2570 -2.0421
16260TIP3    H270196   0.734   6.262  13.639  1.5832  1.8125  0.8527
16261TIP3   OH270197   2.809   1.159  11.705 -0.1984  0.4458 -0.1370
16261TIP3    H170198   2.780   1.206  11.628  0.8430  1.6130  0.1753
16261TIP3    H270199   2.896   1.127  11.683  0.2067  0.9946  0.6273
16262TIP3   OH270200   0.110   1.727   5.059 -0.4663 -0.4012  0.0737
16262TIP3    H170201   0.093   1.637   5.032 -0.2214 -0.7427  1.0525
16262TIP3    H270202   0.159   1.765   4.986  0.2993 -1.3564  0.0829
16263TIP3   OH270203   3.071   2.829   0.361  0.7856 -0.6358 -0.5281
16263TIP3    H170204   3.078   2.823   0.266 -1.9620 -1.6295 -0.7209
16263TIP3    H270205   3.015   2.905   0.376  1.3797 -0.3572  0.3183
16264TIP3   OH270206   0.916   4.878   4.893  0.8548 -0.5077  0.7150
16264TIP3    H170207   0.914   4.785   4.871  2.4891 -0.2813 -0.5260
16264TIP3    H270208   0.931   4.922   4.809 -1.5586  0.9971  1.0339
16265TIP3   OH270209   2.501   5.035  12.695  0.0470  0.0806  0.0684
16265TIP3    H170210   2.475   4.943  12.698  0.1643  0.0723  1.1064
16265TIP3    H270211   2.596   5.034  12.696  0.0474  0.2202  0.2251
16266TIP3   OH270212   1.475   6.180   0.351 -0.4041  0.1741 -0.2725
16266TIP3    H170213   1.531   6.117   0.305 -1.1821 -1.1572  0.5575
16266TIP3    H270214   1.482   6.156   0.443 -1.0922  1.0023  0.0042
16267TIP3   OH270215   4.097   4.240  13.948  0.1923  0.0657 -0.1729
16267TIP3    H170216   4.112   4.323  13.903 -2.0378  0.5731 -0.0104
16267TIP3    H270217   4.109   4.174  13.880  0.5422  0.5956 -0.6373
16268TIP3   OH270218   0.784   3.493   4.937 -0.0674 -0.6196  0.2792
16268TIP3    H170219   0.865   3.543   4.947 -0.1720 -0.2020 -0.9108
16268TIP3    H270220   0.740   3.533   4.862 -1.5891 -0.5474  1.1873
16269TIP3   OH270221   4.764   0.938   1.231 -0.2143 -0.2091  0.2354
16269TIP3    H170222   4.716   0.928   1.313  0.2767  1.3095  0.7194
16269TIP3    H270223   4.726   0.872   1.173 -0.7842 -1.0804  1.5742
16270TIP3   OH270224   2.001   6.757  12.114  0.0975  0.1169  0.1477
16270TIP3    H170225   2.040   6.675  12.082  0.4832  0.0627  0.7546
16270TIP3    H270226   2.067   6.793  12.173 -1.0139 -0.2704  1.6443
16271TIP3   OH270227   0.238   4.956   4.576 -0.1990  0.3204  0.5160
16271TIP3    H170228   0.159   5.006   4.552  0.4117  0.6324 -0.8825
16271TIP3    H270229   0.260   4.987   4.664 -1.2802  0.6822  0.6693
16272TIP3   OH270230   4.560   4.635   4.224 -0.3083 -0.0630  0.8112
16272TIP3    H170231   4.492   4.579   4.263 -0.0914 -2.0437 -1.5075
16272TIP3    H270232   4.641   4.584   4.233  0.3961  1.0903  1.0931
16273TIP3   OH270233   2.025   6.741  13.503 -0.4865 -0.4958  0.0205
16273TIP3    H170234   1.972   6.747  13.424  0.5626 -1.8273 -0.8177
16273TIP3    H270235   2.071   6.657  13.495  1.4758  0.4545  0.8622
16274TIP3   OH270236   0.263   4.319   4.227 -0.1541 -0.9804 -0.2647
16274TIP3    H170237   0.338   4.310   4.169 -0.9137  0.2925 -1.4677
16274TIP3    H270238   0.299   4.357   4.307  0.3214  0.7189 -1.2554
16275TIP3   OH270239   4.629   1.504  15.594  0.0829 -0.2439 -0.0494
16275TIP3    H170240   4.633   1.591  15.554 -0.9949 -0.5844 -0.9364
16275TIP3    H270241   4.655   1.518  15.685  1.6032  0.7120 -0.6048
16276TIP3   OH270242   2.933   1.072   4.601 -0.4855  0.2731  0.0353
16276TIP3    H170243   2.865   1.079   4.669 -0.6544  3.2571 -0.3765
16276TIP3    H270244   3.015   1.090   4.647 -0.5882  2.1818 -0.4822
16277TIP3   OH270245   6.274   4.580  10.813 -0.1441 -0.0025  0.3719
16277TIP3    H170246   6.187   4.550  10.785  1.0253 -1.5051 -1.8484
16277TIP3    H270247   6.320   4.599  10.731  1.9176 -0.0706  1.4873
16278TIP3   OH270248   1.328   6.153   2.203 -0.4240  0.1939  0.6003
16278TIP3    H170249   1.355   6.125   2.116 -0.5449  0.6963  0.3948
16278TIP3    H270250   1.233   6.166   2.195 -0.3316  0.9225  0.6070
16279TIP3   OH270251   2.366   4.036  14.947  0.2698  0.2469 -0.1633
16279TIP3    H170252   2.284   4.059  14.990 -0.4732 -3.6809  0.6831
16279TIP3    H270253   2.430   4.097  14.983 -1.2084 -0.1550  3.2785
16280TIP3   OH270254   4.268   1.256  14.347 -0.3330 -0.7694  0.3899
16280TIP3    H170255   4.255   1.331  14.289  2.1019 -0.9531 -0.4541
16280TIP3    H270256   4.336   1.285  14.408 -0.4586 -1.7831  1.0245
16281TIP3   OH270257   5.308   5.872   1.896 -0.4158 -0.3612 -0.1794
16281TIP3    H170258   5.362   5.950   1.887  1.5315 -1.6737 -0.1458
16281TIP3    H270259   5.319   5.846   1.988 -1.7504 -0.1816  0.0391
16282TIP3   OH270260   3.302   4.885   2.779  0.2843 -0.5366 -0.9695
16282TIP3    H170261   3.233   4.837   2.826  2.4737 -2.7848  0.0949
16282TIP3    H270262   3.293   4.858   2.688  0.7769 -2.1095 -0.5616
16283TIP3   OH270263   3.548   0.713  15.042 -0.1391  0.0978 -0.4209
16283TIP3    H170264   3.556   0.685  14.951 -2.5506 -0.5266 -0.4881
16283TIP3    H270265   3.566   0.807  15.040 -2.3572  0.5557 -1.9664
16284TIP3   OH270266   2.844   2.927   0.977  0.1918 -0.1173  0.9878
16284TIP3    H170267   2.870   2.965   1.061  1.2200  0.4222  0.4317
16284TIP3    H270268   2.842   2.832   0.994  0.5727 -0.0257  1.5750
16285TIP3   OH270269   5.553   5.276  15.147 -0.0433 -0.4306 -0.2926
16285TIP3    H170270   5.483   5.324  15.104 -0.6397 -0.8656  0.1797
16285TIP3    H270271   5.631   5.296  15.096 -0.2885  1.0227 -0.1158
16286TIP3   OH270272   4.204   1.449  14.157  0.1394 -0.1684 -0.5370
16286TIP3    H170273   4.110   1.434  14.149  0.1107 -0.7180  0.6772
16286TIP3    H270274   4.237   1.444  14.068 -0.9089 -0.4952 -0.9130
16287TIP3   OH270275   5.310   6.340   4.593 -0.0597 -0.0502 -0.2901
16287TIP3    H170276   5.235   6.329   4.534 -0.0930 -0.8056 -0.1159
16287TIP3    H270277   5.311   6.260   4.646  2.3372 -1.1890 -1.9625
16288TIP3   OH270278   2.997   2.015   4.855  0.0007 -0.6445  0.1031
16288TIP3    H170279   3.042   2.080   4.802 -1.4246  3.5909  3.7533
16288TIP3    H270280   2.908   2.012   4.820 -0.6427  1.3397  1.5345
16289TIP3   OH270281   3.399   5.351   0.312  0.2976 -0.5172  0.0379
16289TIP3    H170282   3.351   5.366   0.394 -1.6270 -0.3409 -1.1014
16289TIP3    H270283   3.480   5.401   0.323 -1.2632  1.9627  0.6432
16290TIP3   OH270284   1.874   5.254   1.661 -1.2135 -0.2310  0.1378
16290TIP3    H170285   1.868   5.163   1.634  0.0068  0.1157 -1.3595
16290TIP3    H270286   1.914   5.251   1.748 -1.9302 -1.1564  0.4419
16291TIP3   OH270287   1.724   5.872   5.520 -0.5994 -0.1493  0.0222
16291TIP3    H170288   1.817   5.891   5.527 -0.7614 -0.2252  2.7572
16291TIP3    H270289   1.695   5.858   5.610 -3.4926  1.0100 -0.6763
16292TIP3   OH270290   1.266   4.825   4.757  0.9312 -0.2255 -0.0810
16292TIP3    H170291   1.243   4.817   4.665 -0.8159  0.0810  0.3041
16292TIP3    H270292   1.185   4.802   4.804  2.0892 -1.4292  1.3959
16293TIP3   OH270293   4.548   4.176  16.311 -0.1435  0.3389 -0.3239
16293TIP3    H170294   4.571   4.100  16.258 -1.8690  0.0206 -0.6428
16293TIP3    H270295   4.527   4.140  16.397  0.2800  0.5984 -0.1082
16294TIP3   OH270296   4.972   3.052   2.420 -0.2038  0.1324 -0.2621
16294TIP3    H170297   5.065   3.067   2.437 -0.2575  0.8534 -0.5843
16294TIP3    H270298   4.971   2.978   2.359  0.1433 -0.1255  0.0442
16295TIP3   OH270299   0.334   3.798  12.342 -0.2303  0.0163  0.2479
16295TIP3    H170300   0.300   3.747  12.269 -0.0879 -1.1506  0.9707
16295TIP3    H270301   0.284   3.880  12.340  0.7846  0.6041 -2.0067
16296TIP3   OH270302   1.544   3.346   6.459  0.2559  0.0624  0.5159
16296TIP3    H170303   1.541   3.262   6.505 -0.6058  0.8701  1.9617
16296TIP3    H270304   1.498   3.330   6.376 -0.4223 -0.7416  1.0380
16297TIP3   OH270305   1.298   2.959  17.067 -0.3341  0.2358  0.3561
16297TIP3    H170306   1.329   2.871  17.086 -0.4735 -0.2737 -1.6299
16297TIP3    H270307   1.300   2.965  16.971 -3.0827  1.3791  0.3094
16298TIP3   OH270308   2.399   3.374  16.056  0.2040  0.7607  0.1244
16298TIP3    H170309   2.326   3.403  16.002 -0.5287  0.3583  0.9016
16298TIP3    H270310   2.462   3.338  15.993 -0.7042  0.1630 -0.4470
16299TIP3   OH270311   4.627   1.368   2.209 -0.3405  0.1874 -0.4578
16299TIP3    H170312   4.692   1.308   2.171  1.2557 -0.0818  2.5372
16299TIP3    H270313   4.677   1.420   2.272 -2.6517  1.5119  0.3305
16300TIP3   OH270314   0.575   1.115   0.400 -0.0841  0.9663  0.2133
16300TIP3    H170315   0.537   1.155   0.322 -1.2182  0.9242  0.7382
16300TIP3    H270316   0.565   1.180   0.469 -2.4330 -0.3508  1.2030
16301TIP3   OH270317   3.888   5.761  14.237 -0.4702  0.4728 -0.4194
16301TIP3    H170318   3.858   5.689  14.293 -0.3472  0.7236 -0.0337
16301TIP3    H270319   3.831   5.835  14.260 -0.3805  0.5942 -0.5803
16302TIP3   OH270320   4.272   1.768   1.806 -0.2160  0.7679  0.2447
16302TIP3    H170321   4.367   1.754   1.806 -0.5501 -1.5710  0.4923
16302TIP3    H270322   4.235   1.685   1.834 -2.4540  1.0842 -1.6541
16303TIP3   OH270323   3.582   4.982   2.802 -0.4876 -0.2505 -0.1522
16303TIP3    H170324   3.502   4.930   2.789 -0.5431 -0.8009  2.0807
16303TIP3    H270325   3.568   5.025   2.887  1.2075  0.3873 -0.1903
16304TIP3   OH270326   4.999   3.186  16.904 -0.1656 -0.9187  0.4842
16304TIP3    H170327   5.071   3.123  16.913  2.0037  1.5886  1.4277
16304TIP3    H270328   5.030   3.246  16.836 -2.1074 -0.7160 -0.2338
16305TIP3   OH270329   5.238   3.120  14.158 -0.5422  0.1692 -0.1231
16305TIP3    H170330   5.238   3.115  14.063 -0.5139 -0.2920 -0.0980
16305TIP3    H270331   5.146   3.134  14.181 -0.6993 -0.7531 -0.1653
16306TIP3   OH270332   0.156   3.633   6.198  0.0115 -0.4273 -0.3202
16306TIP3    H170333   0.124   3.723   6.186 -0.1269 -0.3204  0.7952
16306TIP3    H270334   0.080   3.584   6.226  0.7382 -0.2350  2.0571
16307TIP3   OH270335   0.744   2.813  11.137  0.5750  0.0775 -0.0022
16307TIP3    H170336   0.650   2.833  11.134  0.8400  1.4592  0.2352
16307TIP3    H270337   0.777   2.867  11.209  1.3727 -1.2007  0.6103
16308TIP3   OH270338   5.266   5.637  16.578 -0.0019  0.2077 -0.1669
16308TIP3    H170339   5.308   5.557  16.548 -1.0628 -0.0650 -0.9649
16308TIP3    H270340   5.182   5.638  16.533 -0.1920  1.5357  0.1977
16309TIP3   OH270341   3.507   5.936  16.924 -0.3485  0.7112 -0.2633
16309TIP3    H170342   3.593   5.954  16.885  0.1278  0.4177  0.6347
16309TIP3    H270343   3.447   5.991  16.875  0.2725  0.5312 -1.2577
16310TIP3   OH270344   0.158   5.036   3.177 -0.2664 -0.0621  0.8226
16310TIP3    H170345   0.166   4.997   3.263  0.7608 -1.6931  0.0095
16310TIP3    H270346   0.214   4.983   3.120  0.1266  1.7773 -0.5935
16311TIP3   OH270347   1.511   1.582   0.655 -0.1732 -0.2124  0.1240
16311TIP3    H170348   1.463   1.502   0.635  0.0366 -0.3986  0.3750
16311TIP3    H270349   1.442   1.647   0.674 -0.3226 -0.5053  0.5927
16312TIP3   OH270350   4.402   0.276   2.858 -0.0946 -0.2613  0.5939
16312TIP3    H170351   4.484   0.227   2.853  1.5558  2.3627  0.5712
16312TIP3    H270352   4.370   0.260   2.947  1.5786  0.3482  1.3388
16313TIP3   OH270353   5.760   2.661   0.556 -0.5150  0.4952  0.3242
16313TIP3    H170354   5.763   2.741   0.503 -0.9711  0.2466 -0.0911
16313TIP3    H270355   5.736   2.592   0.493 -1.2035  0.2189  0.8752
16314TIP3   OH270356   1.059   3.728   3.870  0.0252 -0.0989  0.0498
16314TIP3    H170357   1.120   3.779   3.923 -2.0935  1.0704  1.4803
16314TIP3    H270358   1.113   3.688   3.802  2.3890  0.6550  1.4252
16315TIP3   OH270359   2.510   4.489   1.125  0.4179 -0.1744  0.8517
16315TIP3    H170360   2.554   4.411   1.157  1.0914  0.4378  1.4548
16315TIP3    H270361   2.575   4.559   1.133 -0.4248  0.6046  1.0839
16316TIP3   OH270362   1.483   3.081   4.335  0.5037  0.3501 -0.0350
16316TIP3    H170363   1.527   3.048   4.256 -0.1145  0.9011 -0.6176
16316TIP3    H270364   1.389   3.068   4.317  0.4515 -2.0079  1.7142
16317TIP3   OH270365   1.346   1.119   3.071 -0.6644 -0.0928  0.1159
16317TIP3    H170366   1.313   1.031   3.089 -0.8980  0.0014  0.1488
16317TIP3    H270367   1.438   1.106   3.049 -0.1578 -0.1363  2.1677
16318TIP3   OH270368   3.911   4.413  14.679  0.4248 -0.1030  0.3149
16318TIP3    H170369   3.955   4.465  14.612  1.0107  0.3192  1.0298
16318TIP3    H270370   3.982   4.375  14.731 -0.0466  1.4384  2.1290
16319TIP3   OH270371   5.210   5.753   1.499  0.0727  0.2590 -0.2472
16319TIP3    H170372   5.282   5.691   1.501  1.1398  1.4953  0.5802
16319TIP3    H270373   5.206   5.783   1.408  0.9071  0.5217 -0.1999
16320TIP3   OH270374   3.317   3.846   2.747 -0.1815 -0.5791 -0.6535
16320TIP3    H170375   3.300   3.897   2.826  0.0439 -0.5434 -0.6268
16320TIP3    H270376   3.368   3.771   2.777 -2.5318 -2.0916 -0.3297
16321TIP3   OH270377   3.024   5.651   0.302  0.3762  0.3211  0.4749
16321TIP3    H170378   2.931   5.667   0.319  0.2139  0.9085 -0.9060
16321TIP3    H270379   3.054   5.601   0.378 -0.4195  2.4339  2.2372
16322TIP3   OH270380   1.278   6.635  13.908 -0.0112  0.2378 -0.8382
16322TIP3    H170381   1.201   6.587  13.881 -0.6855  1.3628 -0.9622
16322TIP3    H270382   1.351   6.575  13.892 -1.0699 -1.7825  1.7349
16323TIP3   OH270383   4.813   0.393  17.158  0.3182 -0.0077 -0.3107
16323TIP3    H170384   4.893   0.443  17.175  0.3966  0.2567 -1.3995
16323TIP3    H270385   4.753   0.456  17.119 -0.4135 -0.2184  0.4533
16324TIP3   OH270386   0.846   2.454   1.071 -0.4414 -0.5201  0.2480
16324TIP3    H170387   0.782   2.520   1.043  0.0053 -0.2948 -0.2424
16324TIP3    H270388   0.924   2.504   1.093 -0.4394 -0.7951  0.8844
16325TIP3   OH270389   5.823   1.400   2.333  0.1302  0.0610 -0.2109
16325TIP3    H170390   5.742   1.441   2.302 -0.0702  0.0931  0.3554
16325TIP3    H270391   5.867   1.469   2.382  0.9860  0.3484 -1.3626
16326TIP3   OH270392   6.084   5.824   1.142  0.0817  0.0836  0.0009
16326TIP3    H170393   6.009   5.883   1.133  0.1717  0.2227  0.1636
16326TIP3    H270394   6.135   5.861   1.213  1.1260  0.8723 -1.1335
16327TIP3   OH270395   5.656   3.675  15.689 -0.0227 -0.1931  0.0427
16327TIP3    H170396   5.693   3.744  15.634  0.0329  0.0564  0.3980
16327TIP3    H270397   5.565   3.669  15.662  0.7139 -2.1452 -2.2185
16328TIP3   OH270398   3.148   3.308   5.323 -0.0758  0.0706  0.2896
16328TIP3    H170399   3.065   3.327   5.368 -0.5875  0.7257 -0.8861
16328TIP3    H270400   3.121   3.257   5.246  0.6755 -0.2321  0.2325
16329TIP3   OH270401   2.566   5.647  16.996  0.2007 -0.3586  0.0221
16329TIP3    H170402   2.661   5.652  16.995  0.3285 -1.8315  1.8918
16329TIP3    H270403   2.542   5.619  16.908  1.6920 -2.6198  0.2918
16330TIP3   OH270404   1.980   2.493   2.605  0.5967 -0.2920  0.2709
16330TIP3    H170405   1.933   2.552   2.664  2.1461  0.5206  0.7185
16330TIP3    H270406   2.024   2.551   2.543 -0.6640 -1.1259 -1.4325
16331TIP3   OH270407   6.230   5.810  12.456  0.3584  0.1989  0.0456
16331TIP3    H170408   6.175   5.854  12.521  0.9295 -0.7736  1.2027
16331TIP3    H270409   6.191   5.834  12.371  0.3055  2.4175  0.6719
16332TIP3   OH270410   6.501   4.323  13.719  0.0675 -0.0604  0.0653
16332TIP3    H170411   6.435   4.357  13.780 -0.7728 -1.7086  0.1134
16332TIP3    H270412   6.577   4.379  13.732 -1.5158  2.2591 -0.4170
16333TIP3   OH270413   1.974   0.246  14.108  0.3886  0.0580 -0.1783
16333TIP3    H170414   2.069   0.242  14.100  0.3706  0.4440 -0.5932
16333TIP3    H270415   1.942   0.218  14.022  0.0881 -2.2423  0.6231
16334TIP3   OH270416   2.812   0.839   3.599  0.2677  0.0298 -0.1424
16334TIP3    H170417   2.735   0.814   3.651 -0.4801 -1.4130 -1.8796
16334TIP3    H270418   2.887   0.809   3.650 -0.3050  1.4148  1.5567
16335TIP3   OH270419   1.853   2.870   1.121 -0.0187 -0.1805  0.5744
16335TIP3    H170420   1.790   2.800   1.140 -1.4608  1.2750  1.3070
16335TIP3    H270421   1.802   2.950   1.130  1.1975  0.9084 -1.8344
16336TIP3   OH270422   6.029   0.284  16.825 -0.2520 -0.1046  0.1468
16336TIP3    H170423   5.955   0.256  16.880 -1.5540 -1.2800 -2.1244
16336TIP3    H270424   6.058   0.366  16.864 -1.6360 -0.5006  2.1142
16337TIP3   OH270425   6.431   3.149   5.406  0.1986  0.0857 -0.3752
16337TIP3    H170426   6.430   3.084   5.336 -2.0730  0.8179 -1.0818
16337TIP3    H270427   6.491   3.113   5.472  1.5468 -1.1142 -2.2033
16338TIP3   OH270428   4.023   1.900   0.755 -0.0537 -0.3405 -0.4317
16338TIP3    H170429   4.066   1.976   0.715  0.4055 -0.0206  0.6502
16338TIP3    H270430   3.973   1.861   0.684  0.4046  0.4728 -1.2146
16339TIP3   OH270431   1.510   5.534  11.825 -0.1906 -0.0147  0.5530
16339TIP3    H170432   1.575   5.499  11.886 -0.4607  1.1830  1.5486
16339TIP3    H270433   1.430   5.486  11.845  0.1225 -0.8016 -0.0166
16340TIP3   OH270434   3.131   1.718  12.114 -0.0243  0.1968 -0.0136
16340TIP3    H170435   3.140   1.655  12.186 -0.8229 -0.0488 -0.1199
16340TIP3    H270436   3.039   1.710  12.087  0.4897 -0.4074 -1.6964
16341TIP3   OH270437   2.567   0.143   5.875  0.0794 -0.0134  0.1969
16341TIP3    H170438   2.483   0.128   5.832  0.2715  0.4513 -0.3454
16341TIP3    H270439   2.630   0.152   5.804  0.2709  1.5197  0.5299
16342TIP3   OH270440   2.830   1.710  11.667  0.0811 -0.1987 -0.1669
16342TIP3    H170441   2.820   1.623  11.629  0.8139 -0.2302 -0.2970
16342TIP3    H270442   2.917   1.709  11.709  0.1688  0.5173 -0.3140
16343TIP3   OH270443   6.053   2.489   5.669  0.0864 -0.3466 -0.0636
16343TIP3    H170444   5.964   2.456   5.675 -0.0931  0.0126 -0.7396
16343TIP3    H270445   6.101   2.421   5.621 -0.1812  0.1607 -1.0608
16344TIP3   OH270446   0.966   4.956  15.012  0.1954  0.0306  0.2619
16344TIP3    H170447   0.946   4.905  15.091  2.0581  0.6527  1.1777
16344TIP3    H270448   1.056   4.933  14.991 -0.2704 -0.0593 -1.6524
16345TIP3   OH270449   2.867   0.702   1.727 -0.1518 -0.0981  0.2254
16345TIP3    H170450   2.824   0.696   1.642 -0.0805 -0.1975  0.1955
16345TIP3    H270451   2.928   0.774   1.719 -0.5493  0.2582  0.3743
16346TIP3   OH270452   1.332   6.070   2.472 -0.2218  0.4591  0.0383
16346TIP3    H170453   1.407   6.060   2.532 -0.0582 -1.8005 -0.4935
16346TIP3    H270454   1.372   6.079   2.386 -0.5402 -0.2810 -0.1893
16347TIP3   OH270455   5.868   6.001   1.391 -0.0826 -0.0596 -0.3414
16347TIP3    H170456   5.894   5.934   1.454 -0.7167 -0.8850 -0.9569
16347TIP3    H270457   5.951   6.036   1.357  0.2455 -0.4422  0.0692
16348TIP3   OH270458   0.278   2.275  16.999 -0.1074 -0.6331  0.1006
16348TIP3    H170459   0.202   2.284  17.056  0.1684 -0.8019  0.5031
16348TIP3    H270460   0.353   2.293  17.057  0.1686 -0.7338 -0.2243
16349TIP3   OH270461   6.294   6.224  11.946  0.2902  0.7586 -0.0476
16349TIP3    H170462   6.347   6.304  11.942  1.0173  0.3169  0.6784
16349TIP3    H270463   6.327   6.170  11.874  1.4976  0.0853  0.9853
16350TIP3   OH270464   5.878   2.085   5.449 -0.1715 -0.2911  0.3004
16350TIP3    H170465   5.870   2.177   5.477 -3.0764 -0.2600 -0.4514
16350TIP3    H270466   5.850   2.035   5.525  0.0808 -0.5079  0.2496
16351TIP3   OH270467   5.248   0.754   2.732  0.3888  0.0675  0.6316
16351TIP3    H170468   5.322   0.722   2.681  0.7626  2.2878 -0.2354
16351TIP3    H270469   5.283   0.827   2.782 -0.6117 -0.4733  2.1519
16352TIP3   OH270470   5.989   2.476  11.455 -0.0833  0.8578  0.4003
16352TIP3    H170471   6.018   2.404  11.511  2.7840  1.9493  0.4338
16352TIP3    H270472   5.923   2.437  11.398 -0.1580 -1.2462  1.8826
16353TIP3   OH270473   5.420   1.700  15.391 -0.5985  0.2116 -0.4774
16353TIP3    H170474   5.427   1.715  15.485 -0.0995 -1.0703 -0.3099
16353TIP3    H270475   5.505   1.727  15.357 -0.4111 -0.3177 -0.4283
16354TIP3   OH270476   0.849   6.754  14.060  0.0462  0.2824 -0.5874
16354TIP3    H170477   0.932   6.793  14.034  0.5828  0.5384  1.5072
16354TIP3    H270478   0.804   6.823  14.109 -0.7383 -0.3687 -0.3797
16355TIP3   OH270479   3.679   4.405  16.590 -0.0664 -0.0978 -0.0249
16355TIP3    H170480   3.735   4.388  16.665 -2.5521 -0.8363  1.7350
16355TIP3    H270481   3.608   4.459  16.625 -0.9544  0.0195 -1.9585
16356TIP3   OH270482   2.243   1.182  11.803 -0.0955 -0.0660 -0.0974
16356TIP3    H170483   2.162   1.148  11.764  0.0359  0.9714 -1.3234
16356TIP3    H270484   2.246   1.143  11.890 -2.7980  1.2336  0.6452
16357TIP3   OH270485   4.286   1.758   3.789  1.1066 -0.4652 -0.0929
16357TIP3    H170486   4.197   1.727   3.774  1.1560 -1.0652  0.8627
16357TIP3    H270487   4.285   1.849   3.758 -0.0606 -0.2042  0.6912
16358TIP3   OH270488   0.806   2.342  13.291 -0.4084 -0.3204 -0.3461
16358TIP3    H170489   0.833   2.385  13.210 -0.2700 -1.7664 -1.0868
16358TIP3    H270490   0.843   2.254  13.285 -1.9258 -1.0357  0.4475
16359TIP3   OH270491   4.366   1.576  12.886  0.2998 -0.3227  0.0910
16359TIP3    H170492   4.440   1.574  12.948  0.2090 -1.5804  0.1817
16359TIP3    H270493   4.391   1.641  12.821  1.4015 -0.5901  0.2364
16360TIP3   OH270494   4.849   0.992  13.030  0.3454  0.3133  0.1590
16360TIP3    H170495   4.800   1.028  13.104 -2.0159 -2.1973 -0.1117
16360TIP3    H270496   4.847   1.062  12.964  2.5379  2.6053  2.3727
16361TIP3   OH270497   6.759   0.924  13.499  0.5191 -0.2446 -0.5539
16361TIP3    H170498   6.851   0.932  13.473  0.5687  0.0434 -0.2836
16361TIP3    H270499   6.733   0.837  13.468  0.8501 -0.2810 -0.7290
16362TIP3   OH270500   4.439   2.672  12.670 -0.0392  0.3079 -0.2499
16362TIP3    H170501   4.515   2.730  12.667 -1.0037  1.7001  1.2875
16362TIP3    H270502   4.448   2.625  12.753  0.5563 -1.5399 -1.3322
16363TIP3   OH270503   4.302   6.197   2.373 -0.5901 -0.1831 -0.1374
16363TIP3    H170504   4.317   6.103   2.373  1.2772  0.0760 -2.0573
16363TIP3    H270505   4.348   6.229   2.451 -0.4665 -0.7402  0.0171
16364TIP3   OH270506   6.666   5.155  11.446  0.0476 -0.3188  0.1319
16364TIP3    H170507   6.705   5.145  11.533 -1.3709 -0.0501  0.8259
16364TIP3    H270508   6.587   5.206  11.462  0.4439  0.8218 -1.5168
16365TIP3   OH270509   5.968   5.204  15.785  0.2904 -0.0048 -0.3228
16365TIP3    H170510   5.950   5.153  15.706  1.7781  1.6833 -1.7841
16365TIP3    H270511   5.892   5.261  15.794  0.2571  0.0180 -0.7247
16366TIP3   OH270512   1.275   3.646  16.713  0.4834  0.2805  0.3963
16366TIP3    H170513   1.247   3.651  16.805  2.5702 -0.4654  1.0918
16366TIP3    H270514   1.316   3.731  16.696 -0.8177  0.8086 -0.1745
16367TIP3   OH270515   0.681   5.938  15.619  0.4583  0.0131 -0.4965
16367TIP3    H170516   0.658   6.004  15.685 -0.0278 -0.4111 -0.2402
16367TIP3    H270517   0.682   5.855  15.667  0.9282 -0.1864 -0.8480
16368TIP3   OH270518   5.429   4.634  15.744 -0.5050 -0.4429 -0.0635
16368TIP3    H170519   5.421   4.540  15.727 -0.8724 -0.5735  0.8390
16368TIP3    H270520   5.485   4.666  15.673 -1.5446 -1.0924 -1.2171
16369TIP3   OH270521   4.944   0.726  14.979 -0.6637 -0.3639 -0.1433
16369TIP3    H170522   4.904   0.711  14.894 -0.2466 -0.8447 -0.2629
16369TIP3    H270523   5.024   0.774  14.959  0.0576 -1.5373 -0.1507
16370TIP3   OH270524   2.949   2.559  14.505  0.6708 -0.4024  0.4749
16370TIP3    H170525   2.904   2.576  14.588 -2.1677  1.1092 -1.2789
16370TIP3    H270526   2.977   2.468  14.511 -0.1702 -0.5596  2.7591
16371TIP3   OH270527   3.004   5.773   4.742 -0.4269  0.1851 -0.1784
16371TIP3    H170528   3.041   5.785   4.830 -1.4528  0.0382  0.2789
16371TIP3    H270529   2.936   5.840   4.736  1.0692  1.6152 -1.6714
16372TIP3   OH270530   1.489   4.889  16.440 -0.2036 -0.0890 -0.1223
16372TIP3    H170531   1.472   4.941  16.361  0.1558  3.5950  2.1061
16372TIP3    H270532   1.580   4.861  16.432  0.3048  1.5803 -0.3288
16373TIP3   OH270533   3.659   2.248   0.232 -0.9020 -0.2118  0.4777
16373TIP3    H170534   3.644   2.200   0.313 -0.6099 -3.1008 -1.1155
16373TIP3    H270535   3.728   2.310   0.253  1.4631 -3.1483  1.6310
16374TIP3   OH270536   3.319   1.427   0.547  0.0042  0.3886  0.5596
16374TIP3    H170537   3.393   1.447   0.490  0.1078 -0.7094  0.2863
16374TIP3    H270538   3.255   1.496   0.529  0.8744  1.2333  0.6521
16375TIP3   OH270539   3.367   3.829   4.673  0.0291 -0.3532 -0.1048
16375TIP3    H170540   3.320   3.901   4.633 -1.2674 -1.3058 -0.2984
16375TIP3    H270541   3.411   3.868   4.748 -2.0284  0.3126  0.7768
16376TIP3   OH270542   4.859   3.745  10.940 -0.3103  0.0575 -0.1965
16376TIP3    H170543   4.863   3.746  10.844 -0.5673  0.9174 -0.1973
16376TIP3    H270544   4.868   3.837  10.966 -0.4184 -0.1516  0.5976
16377TIP3   OH270545   4.417   3.154   0.724  0.1607  0.2513 -0.0571
16377TIP3    H170546   4.482   3.085   0.712  0.2962  0.4974 -0.7500
16377TIP3    H270547   4.458   3.232   0.687 -0.3448  0.5091 -0.0767
16378TIP3   OH270548   0.903   0.194  11.001  0.6170  0.1637  0.0722
16378TIP3    H170549   0.815   0.217  10.970  0.3242  1.1744  1.5635
16378TIP3    H270550   0.962   0.243  10.945  0.1847  0.2858 -0.2822
16379TIP3   OH270551   2.445   2.262   0.861  0.4454  0.1428 -0.7962
16379TIP3    H170552   2.525   2.308   0.837  0.0630  0.9277 -0.5721
16379TIP3    H270553   2.390   2.328   0.903  0.5008 -0.8434  0.9030
16380TIP3   OH270554   3.814   4.909   2.682 -0.2314  0.0418  0.3673
16380TIP3    H170555   3.749   4.944   2.742 -0.0885  0.1101  0.4843
16380TIP3    H270556   3.789   4.942   2.596 -0.8781 -0.6749  0.2697
16381TIP3   OH270557   2.633   3.591   4.789 -0.4134  0.1651  0.7862
16381TIP3    H170558   2.543   3.591   4.755 -1.6516 -0.6628  3.8641
16381TIP3    H270559   2.683   3.544   4.723 -2.6894 -1.3488  0.0690
16382TIP3   OH270560   5.404   2.728   3.666  0.2521  0.3735 -0.2361
16382TIP3    H170561   5.465   2.793   3.702 -0.3909  0.3642  0.8867
16382TIP3    H270562   5.458   2.676   3.606  1.0332  1.2217 -0.2806
16383TIP3   OH270563   0.528   1.665  16.049 -0.0110 -0.0515  0.5948
16383TIP3    H170564   0.527   1.685  15.955 -0.8973 -1.5100  0.2805
16383TIP3    H270565   0.516   1.750  16.091  1.2981  0.7353 -0.5868
16384TIP3   OH270566   2.394   3.894   3.955  0.2637  0.2675  0.1676
16384TIP3    H170567   2.331   3.833   3.915 -0.8277  0.2731  1.7990
16384TIP3    H270568   2.373   3.979   3.918 -1.1180  0.3713  1.1417
16385TIP3   OH270569   1.580   1.170  13.332  0.0761 -0.0236  0.1073
16385TIP3    H170570   1.573   1.202  13.421  0.5550 -0.6148  0.3579
16385TIP3    H270571   1.516   1.099  13.327  1.2450 -1.0986  0.4717
16386TIP3   OH270572   5.849   5.150  11.195  0.1143 -0.0153  0.5912
16386TIP3    H170573   5.815   5.143  11.106  1.2018 -2.8544  0.3393
16386TIP3    H270574   5.883   5.239  11.200 -1.1024  0.6084 -1.3988
16387TIP3   OH270575   0.319   1.743  17.089  0.1559  0.0323  0.2042
16387TIP3    H170576   0.401   1.700  17.066  0.4374 -0.8098  2.6975
16387TIP3    H270577   0.339   1.837  17.088  0.3647 -0.0030 -2.0404
16388TIP3   OH270578   0.845   1.498   3.076 -0.1500  0.2227  0.2473
16388TIP3    H170579   0.793   1.433   3.029 -0.1922  0.2463  0.2606
16388TIP3    H270580   0.795   1.515   3.156 -1.3141  1.9610 -0.8155
16389TIP3   OH270581   3.601   6.771  13.910 -0.3019 -0.4228 -0.1330
16389TIP3    H170582   3.637   6.830  13.976 -0.7188  1.8385 -1.8487
16389TIP3    H270583   3.525   6.730  13.952  0.3020 -0.1254  1.2597
16390TIP3   OH270584   1.012   0.132   1.842  0.1808 -0.0896  0.1525
16390TIP3    H170585   1.020   0.052   1.790 -1.3415 -0.9170  1.1482
16390TIP3    H270586   0.960   0.191   1.788 -1.4924 -0.9881  0.7539
16391TIP3   OH270587   2.577   6.210  14.831 -0.1762 -0.0628  0.3163
16391TIP3    H170588   2.586   6.282  14.770 -0.8094 -1.1347 -1.0690
16391TIP3    H270589   2.495   6.228  14.878 -1.1430 -0.6476 -1.1050
16392TIP3   OH270590   2.237   4.416   3.623 -0.2779 -0.4367 -0.0865
16392TIP3    H170591   2.149   4.411   3.585 -0.8035  1.4914  0.8363
16392TIP3    H270592   2.280   4.486   3.574  0.3508 -0.5661  0.2805
16393TIP3   OH270593   4.247   3.548  14.347 -0.3766  0.2598 -0.1899
16393TIP3    H170594   4.300   3.529  14.424 -0.5217  1.7792  0.3081
16393TIP3    H270595   4.234   3.463  14.305  0.9725 -0.3668  0.6337
16394TIP3   OH270596   3.396   2.782   3.455  0.3482  0.1792  0.0347
16394TIP3    H170597   3.395   2.835   3.376 -0.3462  0.8676  0.5075
16394TIP3    H270598   3.467   2.819   3.508 -1.5047  2.0382  1.3055
16395TIP3   OH270599   6.501   3.988  13.835  0.0728  0.6600 -0.4214
16395TIP3    H170600   6.467   3.959  13.920 -0.0269 -0.2830 -0.7810
16395TIP3    H270601   6.514   4.082  13.846 -0.2836  0.6077  0.5266
16396TIP3   OH270602   6.763   5.918  12.773 -0.0231  0.2389 -0.2382
16396TIP3    H170603   6.745   5.920  12.679 -3.0350 -2.7089  0.1751
16396TIP3    H270604   6.750   6.008  12.802 -0.3462  0.9213 -2.4248
16397TIP3   OH270605   2.717   5.783   4.883 -0.3642 -0.8559  0.5646
16397TIP3    H170606   2.639   5.811   4.834  0.3305  1.9133  0.9997
16397TIP3    H270607   2.748   5.706   4.835 -3.1496 -1.8093  0.1807
16398TIP3   OH270608   4.074   5.915   5.004  0.3446  0.2787  0.9698
16398TIP3    H170609   4.024   5.896   5.084  1.0606 -0.9621  1.1431
16398TIP3    H270610   4.039   5.998   4.973 -2.8152 -1.2048  0.3300
16399TIP3   OH270611   2.568   6.748   2.877  0.0489 -0.4985 -0.1279
16399TIP3    H170612   2.540   6.807   2.947 -2.0506 -0.1502 -1.2292
16399TIP3    H270613   2.664   6.747   2.884  0.1064  2.5502  0.3010
16400TIP3   OH270614   6.138   2.007  13.084  0.3889  0.0053  0.0239
16400TIP3    H170615   6.199   2.024  13.156 -0.7131  0.2970  0.9106
16400TIP3    H270616   6.138   1.912  13.075 -0.3693 -0.1258  1.2334
16401TIP3   OH270617   5.924   1.423  11.573  0.0597  0.1751  0.3694
16401TIP3    H170618   5.926   1.518  11.564 -0.2184  0.2131  0.7091
16401TIP3    H270619   5.910   1.407  11.666  0.5078 -0.2030  0.3766
16402TIP3   OH270620   5.427   3.630  11.150 -0.3676 -0.3627 -0.3180
16402TIP3    H170621   5.417   3.539  11.122  2.6826 -0.9652  0.3439
16402TIP3    H270622   5.470   3.673  11.076 -0.0000  0.0418  0.1251
16403TIP3   OH270623   0.976   6.304  17.122  0.0162 -0.7818 -0.3649
16403TIP3    H170624   0.979   6.399  17.127 -1.6885 -0.6230 -1.7641
16403TIP3    H270625   1.061   6.275  17.154  0.2215  1.1713  0.9271
16404TIP3   OH270626   3.656   2.619  16.539 -0.1025 -0.4191 -0.0808
16404TIP3    H170627   3.678   2.543  16.485 -0.7992 -0.6665 -0.0293
16404TIP3    H270628   3.663   2.694  16.479 -2.5118 -0.8688 -0.9894
16405TIP3   OH270629   1.273   5.403  16.813  0.5683  0.0667  0.1425
16405TIP3    H170630   1.184   5.420  16.784  0.6052 -1.7230 -1.1140
16405TIP3    H270631   1.298   5.322  16.768  3.1419  1.0114 -0.2617
16406TIP3   OH270632   6.188   2.160   2.123 -0.8700  0.2686  0.4622
16406TIP3    H170633   6.283   2.175   2.126 -0.7575 -0.0366 -0.9170
16406TIP3    H270634   6.151   2.225   2.183  0.1908  0.6693  0.6914
16407TIP3   OH270635   2.313   0.302   0.167  0.4448 -0.1082 -0.0410
16407TIP3    H170636   2.342   0.305   0.258  4.7569 -0.0991 -1.3003
16407TIP3    H270637   2.289   0.393   0.146 -1.4558 -0.2764  1.2963
16408TIP3   OH270638   2.267   1.592  14.288  0.1829  0.1046 -0.4598
16408TIP3    H170639   2.185   1.622  14.327  0.9514 -0.8928  2.0539
16408TIP3    H270640   2.328   1.665  14.300  0.5539 -0.3830  0.6970
16409TIP3   OH270641   2.705   5.005  12.300  0.1131 -0.3457  0.4395
16409TIP3    H170642   2.787   4.987  12.346  1.0646 -1.0300 -1.4891
16409TIP3    H270643   2.728   5.002  12.208 -2.2300 -1.1748 -0.1346
16410TIP3   OH270644   2.791   1.747   2.639 -0.3316 -0.2505  0.2699
16410TIP3    H170645   2.825   1.668   2.597  0.8096  0.4977 -0.2553
16410TIP3    H270646   2.866   1.807   2.640 -1.0881  0.6906  0.9858
16411TIP3   OH270647   0.136   0.200  16.374 -0.4108 -0.4080 -0.3661
16411TIP3    H170648   0.067   0.173  16.313  0.0100 -0.8573 -0.6579
16411TIP3    H270649   0.172   0.117  16.407 -0.3111 -0.1722  0.1209
16412TIP3   OH270650   0.053   0.409   2.538 -0.2836  0.2109 -0.5029
16412TIP3    H170651   0.009   0.355   2.473  1.0992 -0.1054 -1.1999
16412TIP3    H270652   0.039   0.363   2.621  0.3052 -0.8680 -0.9880
16413TIP3   OH270653   0.184   3.689  17.196  0.0178 -0.0900 -0.4799
16413TIP3    H170654   0.180   3.618  17.260 -0.2690  0.5261  0.2051
16413TIP3    H270655   0.184   3.769  17.250  0.9885  0.4141 -1.2109
16414TIP3   OH270656   5.368   1.193   0.560 -0.6597 -0.1087 -0.1857
16414TIP3    H170657   5.459   1.216   0.542 -0.2596 -1.8311 -0.5347
16414TIP3    H270658   5.317   1.252   0.506  0.2626  0.5525 -0.3575
16415TIP3   OH270659   0.943   4.930  11.500 -1.2571 -1.0165  0.2998
16415TIP3    H170660   0.894   4.856  11.465 -2.9566  0.4847 -0.5687
16415TIP3    H270661   0.886   5.006  11.485  1.1911  0.7409 -0.4629
16416TIP3   OH270662   3.158   5.014  13.764  0.2444 -0.1738  0.7616
16416TIP3    H170663   3.073   5.005  13.807 -1.3798 -1.1502 -2.5022
16416TIP3    H270664   3.215   4.953  13.811 -1.0797 -0.1979  2.3848
16417TIP3   OH270665   5.473   1.610  16.806 -0.0017  0.3118  0.6320
16417TIP3    H170666   5.557   1.617  16.759 -0.4551 -0.6750 -0.3332
16417TIP3    H270667   5.474   1.684  16.866  0.2726  2.0733 -1.4661
16418TIP3   OH270668   0.085   4.672   5.962  0.1173 -0.6803 -0.1839
16418TIP3    H170669   0.068   4.646   6.052 -0.3838 -0.3961 -0.1974
16418TIP3    H270670   0.179   4.659   5.950  0.6788  1.8067  1.1930
16419TIP3   OH270671   5.492   3.747   1.594  0.1172  0.0907 -0.3700
16419TIP3    H170672   5.563   3.706   1.642 -2.1743 -0.7307  2.4948
16419TIP3    H270673   5.481   3.693   1.515  1.1548 -1.1213  0.3053
16420TIP3   OH270674   6.133   6.731  16.589  0.5616 -0.8923 -0.8856
16420TIP3    H170675   6.202   6.787  16.556  0.1067  0.0730 -0.2160
16420TIP3    H270676   6.066   6.732  16.520  0.3364 -0.2173 -0.6548
16421TIP3   OH270677   4.132   4.855  14.876 -0.2753 -0.3021  0.1630
16421TIP3    H170678   4.049   4.897  14.855 -1.8573 -2.8908  0.9782
16421TIP3    H270679   4.176   4.843  14.791 -0.6138  1.2957 -0.2386
16422TIP3   OH270680   1.043   2.478   1.878  0.3562  0.2649  0.2729
16422TIP3    H170681   1.004   2.454   1.794 -0.0900  0.7469  0.3453
16422TIP3    H270682   1.133   2.503   1.857 -0.1319  1.6034 -0.2268
16423TIP3   OH270683   5.731   4.329  11.068  0.1601 -0.6655 -0.0609
16423TIP3    H170684   5.731   4.424  11.051  3.3950 -0.7390 -0.9123
16423TIP3    H270685   5.737   4.290  10.981  1.4972 -1.5552  0.4190
16424TIP3   OH270686   2.465   5.455  14.939 -0.3875  0.0271  0.2325
16424TIP3    H170687   2.542   5.423  14.891  0.1570 -0.5034  1.4276
16424TIP3    H270688   2.472   5.550  14.934  0.9501  0.0016  1.2240
16425TIP3   OH270689   4.868   5.688   5.800  0.1539  0.0414  0.5162
16425TIP3    H170690   4.892   5.769   5.755  0.6281 -1.0944 -1.3465
16425TIP3    H270691   4.775   5.677   5.783  0.8657 -1.7928 -2.6179
16426TIP3   OH270692   5.778   5.892   4.680 -0.5340  0.1800  0.2178
16426TIP3    H170693   5.755   5.853   4.595  1.2242  0.4527 -0.3990
16426TIP3    H270694   5.755   5.984   4.670 -0.3549  0.2066  0.0383
16427TIP3   OH270695   3.274   2.553  14.485  0.0073  0.0551  0.2573
16427TIP3    H170696   3.259   2.597  14.401  1.1275 -2.5599 -1.3698
16427TIP3    H270697   3.364   2.576  14.508 -0.3522  0.9033  0.8606
16428TIP3   OH270698   6.154   5.087  11.276  0.4265 -0.3104 -0.6743
16428TIP3    H170699   6.170   5.053  11.188 -1.9775  0.2056 -1.3542
16428TIP3    H270700   6.061   5.111  11.276  0.6712  0.8034  1.6285
16429TIP3   OH270701   6.443   4.615  16.533 -0.7564 -0.4329  0.2439
16429TIP3    H170702   6.504   4.542  16.533 -0.2291 -0.0076  0.7166
16429TIP3    H270703   6.365   4.582  16.578 -1.3599 -1.3599 -1.4820
16430TIP3   OH270704   1.832   2.669  14.243 -0.5031  0.2949  0.2034
16430TIP3    H170705   1.865   2.741  14.189 -0.4009  0.8983  1.0393
16430TIP3    H270706   1.870   2.590  14.206 -1.4383  0.5649 -1.3641
16431TIP3   OH270707   6.195   0.355   3.791 -0.0665 -0.1438 -0.1420
16431TIP3    H170708   6.212   0.393   3.704  0.7205 -0.7495 -0.2565
16431TIP3    H270709   6.118   0.300   3.778  0.4636 -0.7830 -0.6238
16432TIP3   OH270710   3.744   1.028   1.762  0.0906  0.2742  0.3500
16432TIP3    H170711   3.822   1.042   1.708  0.6216 -0.2613  0.9651
16432TIP3    H270712   3.763   1.074   1.843  0.1961 -0.7202  0.8897
16433TIP3   OH270713   5.777   5.400   2.956 -0.1842  0.1524 -0.5735
16433TIP3    H170714   5.849   5.461   2.940  1.1132 -1.2071 -0.0578
16433TIP3    H270715   5.743   5.380   2.868  0.8718 -0.1464 -0.9238
16434TIP3   OH270716   2.388   3.762  11.604 -0.2389  0.3348 -0.0313
16434TIP3    H170717   2.422   3.706  11.674  0.1848  2.4561  1.5199
16434TIP3    H270718   2.427   3.848  11.621  1.7045  0.3938 -4.2349
16435TIP3   OH270719   2.847   4.476  14.807  0.0229 -0.1481 -0.1262
16435TIP3    H170720   2.782   4.506  14.744  0.4363  1.9759  0.4132
16435TIP3    H270721   2.847   4.543  14.876  2.1370 -0.5573  0.3191
16436TIP3   OH270722   5.958   6.743  16.066 -0.5433  0.0008 -0.3402
16436TIP3    H170723   5.868   6.770  16.086 -0.5056 -1.6409  2.2618
16436TIP3    H270724   5.948   6.669  16.006 -1.0008 -0.8235  0.7243
16437TIP3   OH270725   6.282   6.009   0.144  0.3574  0.0900 -0.3315
16437TIP3    H170726   6.374   5.999   0.119  1.6335  2.1745  3.0894
16437TIP3    H270727   6.248   6.076   0.085  1.7285  0.9838 -0.1342
16438TIP3   OH270728   1.106   5.738   4.690 -0.0858  0.7638  0.0234
16438TIP3    H170729   1.199   5.752   4.668 -0.3945  2.4794 -0.2702
16438TIP3    H270730   1.079   5.820   4.731 -1.0492 -0.3420  1.6271
16439TIP3   OH270731   2.319   1.755   4.295  0.2276  0.2852 -0.6619
16439TIP3    H170732   2.313   1.697   4.219  1.0627 -0.8556  0.1453
16439TIP3    H270733   2.324   1.697   4.370  0.4424  1.4074  0.2066
16440TIP3   OH270734   5.671   6.492  13.897 -0.0196 -0.1740 -0.0515
16440TIP3    H170735   5.731   6.560  13.927  0.2175 -0.9907  1.3832
16440TIP3    H270736   5.729   6.419  13.873 -0.3635 -0.5550  0.2690
16441TIP3   OH270737   1.379   0.462   4.139 -0.1306  0.1948 -0.1314
16441TIP3    H170738   1.388   0.520   4.215 -1.2146  0.3339 -0.1079
16441TIP3    H270739   1.285   0.446   4.131 -0.1192  0.8942 -1.9669
16442TIP3   OH270740   5.221   4.408   5.010 -0.0850  0.5248  0.5095
16442TIP3    H170741   5.218   4.406   4.914  1.0182  2.0648  0.4092
16442TIP3    H270742   5.236   4.500   5.030  0.7495  0.0361  2.1348
16443TIP3   OH270743   5.097   0.882  13.087 -0.1003  0.3310  0.2792
16443TIP3    H170744   5.027   0.945  13.103  0.1829  0.6485  0.2771
16443TIP3    H270745   5.074   0.840  13.004 -0.1573  0.6126  0.1540
16444TIP3   OH270746   2.777   0.494  15.368 -0.2113  0.1487 -0.7593
16444TIP3    H170747   2.709   0.546  15.325 -1.2679 -1.5662 -1.2484
16444TIP3    H270748   2.748   0.403  15.355  0.1262 -0.4709  2.4401
16445TIP3   OH270749   1.114   1.935  13.789  0.2459 -0.4626  0.8012
16445TIP3    H170750   1.023   1.924  13.761  0.8898  0.2638 -1.6245
16445TIP3    H270751   1.107   1.959  13.882 -1.9244 -2.5532  1.2223
16446TIP3   OH270752   2.907   2.774   2.813  0.3750  0.3855  0.4606
16446TIP3    H170753   2.953   2.785   2.729 -0.7853 -0.9337 -0.3714
16446TIP3    H270754   2.816   2.792   2.792 -0.0994 -1.1250  1.1654
16447TIP3   OH270755   0.782   1.921   6.342  0.1238 -0.3684  0.2024
16447TIP3    H170756   0.742   1.938   6.427  0.2759 -0.9728  0.3958
16447TIP3    H270757   0.800   1.827   6.342  0.9447 -0.2110 -0.1469
16448TIP3   OH270758   0.108   3.842   5.458  0.6041 -0.3851 -0.5482
16448TIP3    H170759   0.014   3.840   5.446  0.5162  1.1031 -0.1779
16448TIP3    H270760   0.121   3.813   5.549  0.4563  0.0965 -0.3737
16449TIP3   OH270761   5.444   2.305   2.459 -0.0275 -0.4773 -0.0540
16449TIP3    H170762   5.532   2.332   2.434 -0.4441  1.4888  0.4727
16449TIP3    H270763   5.454   2.216   2.492  1.7643 -0.2331  0.1031
16450TIP3   OH270764   1.831   0.686   2.083  0.0987  0.3693  0.4906
16450TIP3    H170765   1.808   0.607   2.132 -0.7312  0.0161 -0.4562
16450TIP3    H270766   1.748   0.719   2.050  0.5302  1.2100  0.2351
16451TIP3   OH270767   6.051   1.527  16.038  0.1383  0.0697  1.0070
16451TIP3    H170768   6.087   1.443  16.008 -1.5044 -0.1221 -0.5169
16451TIP3    H270769   6.076   1.532  16.130  3.2172 -0.4980  0.2685
16452TIP3   OH270770   4.104   3.079  15.701 -0.4055  0.1449 -0.3532
16452TIP3    H170771   4.107   3.108  15.610  2.4348 -1.3373 -0.7893
16452TIP3    H270772   4.055   2.996  15.697 -1.4200  0.7356 -0.3199
16453TIP3   OH270773   2.387   5.029  15.800 -0.6716 -0.1979  0.3614
16453TIP3    H170774   2.334   5.009  15.723 -2.4187  1.2821  1.1437
16453TIP3    H270775   2.426   5.114  15.781  2.0450 -1.5879 -0.5023
16454TIP3   OH270776   2.979   6.396   4.487  0.0671 -0.6800  0.2345
16454TIP3    H170777   2.971   6.410   4.582 -0.5079  2.9371 -0.2747
16454TIP3    H270778   2.889   6.392   4.456  0.2546 -1.5206 -0.2078
16455TIP3   OH270779   5.563   6.462  11.916  0.2320  0.1343 -0.2000
16455TIP3    H170780   5.622   6.396  11.952  0.5155 -0.1072 -1.0811
16455TIP3    H270781   5.591   6.545  11.956 -0.7276 -0.4072  1.6253
16456TIP3   OH270782   0.870   1.986   2.091 -0.4199 -0.4291 -0.2837
16456TIP3    H170783   0.855   2.076   2.062  0.3992 -0.0812  0.3482
16456TIP3    H270784   0.887   1.994   2.185  3.6927 -0.7652 -0.9105
16457TIP3   OH270785   2.841   5.043  10.890 -0.1387  0.4502 -0.4190
16457TIP3    H170786   2.783   5.117  10.870  1.6149  2.4008  1.4817
16457TIP3    H270787   2.907   5.044  10.821 -0.6745  0.0183 -0.9484
16458TIP3   OH270788   5.305   3.234  13.531  0.5328 -0.5857 -0.1199
16458TIP3    H170789   5.259   3.210  13.451 -0.7157 -1.4200  0.8200
16458TIP3    H270790   5.289   3.328  13.541  2.5773 -0.0054 -2.0131
16459TIP3   OH270791   5.254   0.860  14.261 -0.8685 -0.3168 -0.0429
16459TIP3    H170792   5.332   0.882  14.210  0.0380  0.4631  1.6454
16459TIP3    H270793   5.183   0.909  14.219 -0.5962 -1.5259 -1.9664
16460TIP3   OH270794   3.430   0.327  11.026 -0.6604 -0.6935 -0.0748
16460TIP3    H170795   3.409   0.416  11.052 -2.9052 -1.1883 -0.1307
16460TIP3    H270796   3.467   0.336  10.938 -2.1686  0.0540 -0.6392
16461TIP3   OH270797   4.660   5.454   5.567  0.4321 -0.0522  0.0302
16461TIP3    H170798   4.625   5.520   5.627  3.2822  0.7152  0.9307
16461TIP3    H270799   4.693   5.385   5.625  2.5152  0.3503 -0.6372
16462TIP3   OH270800   6.111   0.402  14.357 -0.5634 -0.1816  0.3716
16462TIP3    H170801   6.039   0.397  14.420 -0.9143 -1.8005 -0.1563
16462TIP3    H270802   6.188   0.421  14.410 -1.2476  0.8343  1.0187
16463TIP3   OH270803   3.619   3.471  15.679 -0.2336 -0.4621  0.2266
16463TIP3    H170804   3.603   3.475  15.585 -0.9214  1.7329  0.4028
16463TIP3    H270805   3.692   3.531  15.694  0.9548 -2.0375  0.9018
16464TIP3   OH270806   4.721   1.830  14.389  0.5347  0.7944  0.1304
16464TIP3    H170807   4.755   1.823  14.478 -0.1209  2.4563  0.5416
16464TIP3    H270808   4.654   1.898  14.395 -2.5870 -2.0638 -0.7398
16465TIP3   OH270809   6.540   2.981  16.920  0.2477 -0.5625 -0.2982
16465TIP3    H170810   6.486   3.060  16.925 -0.1234 -0.8580  0.5130
16465TIP3    H270811   6.630   3.013  16.910  0.1037 -0.0437  0.0953
16466TIP3   OH270812   1.179   3.472  11.130 -0.0983 -0.8170 -0.0060
16466TIP3    H170813   1.084   3.481  11.136  0.1134  1.1500  1.0307
16466TIP3    H270814   1.201   3.511  11.045 -0.0239  0.8884  0.7663
16467TIP3   OH270815   1.711   0.656   2.512 -0.0896 -1.0539  0.1041
16467TIP3    H170816   1.803   0.637   2.494  0.8411  2.2913  0.9765
16467TIP3    H270817   1.709   0.680   2.605 -1.9581 -1.6991  0.2483
16468TIP3   OH270818   0.822   3.081  16.131  0.3480  0.1756 -0.0549
16468TIP3    H170819   0.793   3.015  16.194  0.7263 -0.1398 -0.2109
16468TIP3    H270820   0.844   3.031  16.053  0.8879  0.4582 -0.0843
16469TIP3   OH270821   5.944   5.531  13.451 -0.1946 -0.0215 -0.4667
16469TIP3    H170822   5.953   5.576  13.535 -0.4575  1.0958 -1.0298
16469TIP3    H270823   5.858   5.558  13.418 -0.3834 -0.9796 -0.8033
16470TIP3   OH270824   6.277   1.506   2.160  0.0585 -0.3487  0.3463
16470TIP3    H170825   6.221   1.578   2.132  1.8482  2.0067  2.6039
16470TIP3    H270826   6.216   1.435   2.180 -2.0496  1.7529  1.5901
16471TIP3   OH270827   0.570   1.729  16.991  0.2474  0.2802  0.1055
16471TIP3    H170828   0.639   1.730  17.057 -0.1260  0.5597  0.4946
16471TIP3    H270829   0.579   1.812  16.944  1.3376 -0.4751 -1.0658
16472TIP3   OH270830   4.031   2.787  15.115  0.1433 -0.4060 -0.5464
16472TIP3    H170831   4.053   2.802  15.024 -1.7482 -0.5028 -1.0364
16472TIP3    H270832   3.947   2.740  15.113 -2.2948  3.5702  1.2996
16473TIP3   OH270833   5.794   3.307  14.643 -0.1737 -0.1713  0.3055
16473TIP3    H170834   5.754   3.343  14.722 -1.4957 -1.7629  0.4030
16473TIP3    H270835   5.886   3.295  14.664 -0.1457  1.1676  0.9603
16474TIP3   OH270836   0.710   0.826  13.045  0.1120 -0.0484 -0.1469
16474TIP3    H170837   0.729   0.828  12.951  0.7080 -3.1227 -0.1424
16474TIP3    H270838   0.769   0.891  13.082  0.3119  0.7622 -1.7929
16475TIP3   OH270839   1.221   3.625  17.235 -0.3455 -0.3326 -0.2635
16475TIP3    H170840   1.188   3.560  17.297  1.6745 -0.8631  0.2678
16475TIP3    H270841   1.316   3.615  17.237 -0.1398  1.0839 -1.8840
16476TIP3   OH270842   5.834   3.185   1.160 -0.1562  0.2098  0.0661
16476TIP3    H170843   5.907   3.133   1.127 -0.4345 -0.0739 -0.1082
16476TIP3    H270844   5.875   3.257   1.208  0.2340 -0.0538  0.1274
16477TIP3   OH270845   3.928   6.141  14.671  0.2477  0.3893 -0.0381
16477TIP3    H170846   4.004   6.198  14.664  0.4929  0.0157 -0.4446
16477TIP3    H270847   3.963   6.053  14.656 -0.4698  0.3333 -1.4848
16478TIP3   OH270848   3.800   2.619  15.679  0.0632  0.0113 -0.1151
16478TIP3    H170849   3.740   2.690  15.700  0.7365  1.0023 -1.5213
16478TIP3    H270850   3.815   2.575  15.763 -1.6694  0.4816  0.4661
16479TIP3   OH270851   5.827   5.912  12.828 -0.2779  0.3078  0.0636
16479TIP3    H170852   5.744   5.921  12.780 -0.8331 -0.8273  0.7728
16479TIP3    H270853   5.826   5.984  12.890 -0.2744  0.8776 -0.5907
16480TIP3   OH270854   2.999   2.853  17.049 -0.3728  0.6526 -0.7388
16480TIP3    H170855   2.951   2.776  17.080 -0.3400  1.3120  1.0201
16480TIP3    H270856   2.964   2.926  17.101  0.7873  1.5414 -1.1706
16481TIP3   OH270857   0.940   4.068  12.982  0.3100 -0.1752  0.3905
16481TIP3    H170858   0.899   4.016  13.052  1.6826 -0.0094  1.3416
16481TIP3    H270859   0.988   4.137  13.029 -0.1980  1.0014 -0.7969
16482TIP3   OH270860   6.761   3.466  15.365  0.4229  0.0190  0.0082
16482TIP3    H170861   6.759   3.435  15.456 -0.7119 -0.5818 -0.2138
16482TIP3    H270862   6.721   3.553  15.368 -1.4057 -0.7948 -0.2009
16483TIP3   OH270863   1.313   4.071   6.104 -0.1185  0.4915 -0.0018
16483TIP3    H170864   1.404   4.054   6.127 -0.2579 -1.0379 -0.5327
16483TIP3    H270865   1.317   4.124   6.025  0.3101  1.3652  0.5966
16484TIP3   OH270866   4.554   6.079   5.318 -0.5026  0.1896 -0.6368
16484TIP3    H170867   4.531   5.999   5.271 -0.6299 -0.2069  0.0944
16484TIP3    H270868   4.479   6.097   5.374  0.3866 -0.3574  0.7475
16485TIP3   OH270869   0.410   0.539  14.115 -0.6242 -0.6389 -0.1406
16485TIP3    H170870   0.323   0.502  14.126 -0.6544 -0.6293 -0.3472
16485TIP3    H270871   0.421   0.548  14.020 -0.3432 -0.7762 -0.1221
16486TIP3   OH270872   0.089   2.083  11.694  0.2114 -0.3567 -0.0523
16486TIP3    H170873   0.168   2.081  11.747  0.8770  0.6274 -0.9824
16486TIP3    H270874   0.038   2.008  11.724  1.4772 -0.9784  0.5816
16487TIP3   OH270875   2.148   3.391   4.851  0.2271  0.0633  0.2262
16487TIP3    H170876   2.211   3.431   4.790 -0.6328 -0.1332 -0.8155
16487TIP3    H270877   2.071   3.447   4.845 -0.5038 -0.9799 -0.2309
16488TIP3   OH270878   3.387   5.498   3.924 -0.0866  0.2377  0.0167
16488TIP3    H170879   3.327   5.540   3.986 -2.1429 -2.4944 -0.0122
16488TIP3    H270880   3.343   5.504   3.840  1.1481  0.9364 -0.5951
16489TIP3   OH270881   1.338   5.732  13.337 -0.8112 -0.2715 -0.3677
16489TIP3    H170882   1.243   5.739  13.351 -0.9421  1.3313 -1.9173
16489TIP3    H270883   1.354   5.782  13.257  1.2779 -1.0071 -0.4247
16490TIP3   OH270884   0.731   5.881  11.976 -0.1825 -0.1822  0.4727
16490TIP3    H170885   0.700   5.967  11.948 -0.6534  0.1410  1.9699
16490TIP3    H270886   0.779   5.847  11.900 -3.5099 -0.3629 -1.6258
16491TIP3   OH270887   2.591   2.764  13.185 -0.2462  0.0701 -0.3164
16491TIP3    H170888   2.571   2.858  13.186  0.4497  0.2319 -1.3006
16491TIP3    H270889   2.573   2.735  13.274  0.5386  1.3464  0.2706
16492TIP3   OH270890   2.839   1.475   5.013 -1.1769  0.4592  0.2955
16492TIP3    H170891   2.917   1.470   4.958 -0.3655  1.3584  1.3418
16492TIP3    H270892   2.865   1.530   5.087 -2.4027 -0.3280  1.3324
16493TIP3   OH270893   4.061   0.200  14.403  0.0019  0.2268 -0.4674
16493TIP3    H170894   4.077   0.182  14.495 -3.2904  0.0521  0.1424
16493TIP3    H270895   4.027   0.290  14.402 -0.2036  0.1435 -1.4740
16494TIP3   OH270896   5.245   6.024  12.985 -0.2164  0.1869  0.0817
16494TIP3    H170897   5.270   5.932  12.974  1.7418  0.8516 -1.3310
16494TIP3    H270898   5.328   6.070  12.997 -1.2537  1.6414  1.9539
16495TIP3   OH270899   5.505   2.502   2.756 -0.2635 -0.6623  0.4355
16495TIP3    H170900   5.465   2.475   2.838  0.0361  1.3261  1.2536
16495TIP3    H270901   5.433   2.498   2.692 -0.0259 -4.2374  0.2787
16496TIP3   OH270902   0.295   2.339   4.458 -0.4850 -0.1867  0.4848
16496TIP3    H170903   0.229   2.313   4.522 -0.6789 -0.3261  0.2219
16496TIP3    H270904   0.366   2.376   4.512 -1.4664  1.4882  0.6736
16497TIP3   OH270905   2.106   5.016  12.238  0.3641 -0.0011 -0.3053
16497TIP3    H170906   2.123   5.103  12.274 -3.9267  0.9675 -0.2624
16497TIP3    H270907   2.094   5.031  12.144 -0.0384 -0.5696 -0.3493
16498TIP3   OH270908   1.635   0.335  11.318 -0.1148 -0.1735  0.4826
16498TIP3    H170909   1.686   0.256  11.298 -1.6310 -1.0088 -0.1592
16498TIP3    H270910   1.645   0.390  11.240 -0.7782 -0.6543  0.0523
16499TIP3   OH270911   3.459   1.581   6.134  0.5030 -0.5413 -0.2857
16499TIP3    H170912   3.405   1.581   6.213  1.4430  2.9615  0.4409
16499TIP3    H270913   3.486   1.489   6.124 -0.0065 -1.1716  3.1994
16500TIP3   OH270914   4.004   1.367   5.317 -0.3816  0.6458 -0.3754
16500TIP3    H170915   4.052   1.347   5.236 -1.8520  0.0811 -1.1235
16500TIP3    H270916   3.947   1.291   5.330 -2.1609  1.9725 -0.3356
16501TIP3   OH270917   1.194   3.924  15.251 -0.4387  0.7874  0.4341
16501TIP3    H170918   1.160   3.835  15.242 -0.0823  0.8398 -1.6326
16501TIP3    H270919   1.154   3.957  15.331 -2.0518 -0.5593  0.1996
16502TIP3   OH270920   4.275   4.862   3.822  0.2358 -0.4279 -0.4698
16502TIP3    H170921   4.333   4.848   3.897  2.1179  3.2986 -1.1311
16502TIP3    H270922   4.205   4.917   3.857  0.3759  0.1625 -1.1197
16503TIP3   OH270923   2.550   3.733   0.140  0.9424  0.2672 -0.1576
16503TIP3    H170924   2.469   3.717   0.092  1.7255  0.0426 -1.4119
16503TIP3    H270925   2.616   3.748   0.072  2.1168 -0.3251  0.8327
16504TIP3   OH270926   1.383   2.984   3.383  0.1469  0.3715  0.2038
16504TIP3    H170927   1.465   2.934   3.383 -0.8755 -1.3294  0.4427
16504TIP3    H270928   1.324   2.934   3.440 -0.8924  1.8817  0.4935
16505TIP3   OH270929   6.102   5.646  12.909 -0.3895 -0.3108 -0.1664
16505TIP3    H170930   6.044   5.581  12.949  0.1097 -0.1703  0.7907
16505TIP3    H270931   6.053   5.677  12.832 -3.4210  2.7602  2.7928
16506TIP3   OH270932   6.686   4.864   5.891  0.0114 -0.0820  0.2571
16506TIP3    H170933   6.757   4.809   5.921  1.1380  0.6500 -1.0039
16506TIP3    H270934   6.698   4.947   5.938 -0.7177 -0.3521  0.9311
16507TIP3   OH270935   6.741   6.228   4.619 -0.4894  0.6897  0.2846
16507TIP3    H170936   6.797   6.273   4.683  1.5649 -2.6360  0.9610
16507TIP3    H270937   6.802   6.199   4.551 -1.7106 -1.3085  0.0259
16508TIP3   OH270938   4.597   0.214   2.323  0.2238  0.1923  0.3736
16508TIP3    H170939   4.597   0.201   2.228 -2.4994 -0.9179  0.4855
16508TIP3    H270940   4.682   0.182   2.352  0.1503 -1.7020 -1.4164
16509TIP3   OH270941   2.270   1.545   4.480 -0.2002 -0.0173  1.2898
16509TIP3    H170942   2.322   1.491   4.420  0.3962  1.7002  0.2168
16509TIP3    H270943   2.185   1.502   4.484 -0.4760  0.1954 -1.3671
16510TIP3   OH270944   5.088   6.532   4.638 -0.1997 -0.0032  0.2643
16510TIP3    H170945   5.119   6.607   4.588 -0.6469 -0.1887 -0.3063
16510TIP3    H270946   5.164   6.474   4.645 -0.3394 -0.3400 -0.9012
16511TIP3   OH270947   5.737   6.543   3.094 -0.1634 -0.0632 -0.0352
16511TIP3    H170948   5.676   6.502   3.156  0.6557 -1.4550 -0.1087
16511TIP3    H270949   5.822   6.536   3.136  0.1084  0.8814 -0.4121
16512TIP3   OH270950   5.847   2.368  11.254  0.2474 -0.3965 -0.3749
16512TIP3    H170951   5.781   2.308  11.221  0.2697 -0.0141 -1.1299
16512TIP3    H270952   5.842   2.444  11.195  0.4455  0.1964  0.3614
16513TIP3   OH270953   5.362   2.300   5.668  0.1167 -0.1450 -0.0591
16513TIP3    H170954   5.349   2.284   5.762 -1.3664 -0.6281 -0.3245
16513TIP3    H270955   5.369   2.213   5.630 -0.5797  0.0193 -0.5644
16514TIP3   OH270956   0.611   2.154   4.039 -0.1757  0.6862  0.3530
16514TIP3    H170957   0.688   2.135   4.093  0.1938 -0.6303 -0.6165
16514TIP3    H270958   0.560   2.073   4.042 -1.1929  1.3222  0.4209
16515TIP3   OH270959   3.268   0.093  13.638 -0.4934  0.0048 -0.2348
16515TIP3    H170960   3.244   0.085  13.545 -1.2074  1.0388 -0.1402
16515TIP3    H270961   3.206   0.156  13.674  0.0554 -0.0637  0.8573
16516TIP3   OH270962   4.741   1.220   6.081 -0.4704  0.2287  0.1790
16516TIP3    H170963   4.808   1.152   6.085 -2.0994 -1.4202  0.2422
16516TIP3    H270964   4.703   1.221   6.168 -0.3563  1.3468  0.2233
16517TIP3   OH270965   2.186   0.760   0.637 -0.6789 -0.0563 -0.3904
16517TIP3    H170966   2.199   0.830   0.574 -2.5039 -1.3773 -2.2929
16517TIP3    H270967   2.139   0.801   0.710 -0.8622  0.9135 -1.0517
16518TIP3   OH270968   0.987   4.195  12.322  0.6477  0.1304 -0.5609
16518TIP3    H170969   1.059   4.158  12.270 -0.6003 -1.1363 -1.4093
16518TIP3    H270970   0.986   4.142  12.401 -0.8034 -1.3836 -1.5503
16519TIP3   OH270971   4.823   5.108   2.915  0.0536  0.1172 -0.6203
16519TIP3    H170972   4.862   5.084   2.999  0.7169  0.9212 -0.6915
16519TIP3    H270973   4.882   5.175   2.880 -1.3289  1.2702 -0.7944
16520TIP3   OH270974   4.068   6.139   1.119  0.1559 -0.3093  0.5656
16520TIP3    H170975   4.109   6.089   1.048  0.2017  0.0266  0.3601
16520TIP3    H270976   3.997   6.082   1.150 -0.2136 -0.2137 -0.1101
16521TIP3   OH270977   4.772   2.186   5.468 -0.2870  0.1721  0.4272
16521TIP3    H170978   4.738   2.261   5.419 -0.8004 -0.2012  0.2165
16521TIP3    H270979   4.828   2.139   5.406  1.6329  1.4719  1.1238
16522TIP3   OH270980   6.705   1.607  14.729  0.0197 -0.6244  0.1715
16522TIP3    H170981   6.635   1.646  14.676 -1.5513 -2.4418  0.8617
16522TIP3    H270982   6.785   1.629  14.681 -1.0904  0.5507 -1.2197
16523TIP3   OH270983   2.626   1.261  12.948 -0.3554  0.3781 -0.3105
16523TIP3    H170984   2.641   1.239  12.856  0.2720  1.1168 -0.3895
16523TIP3    H270985   2.537   1.231  12.966  0.3337 -1.8800 -0.5154
16524TIP3   OH270986   5.710   6.249   1.724 -0.2062  0.0740 -0.1834
16524TIP3    H170987   5.763   6.258   1.644  0.5535  0.4543  0.3523
16524TIP3    H270988   5.691   6.155   1.730  2.4069 -0.4350  0.8592
16525TIP3   OH270989   2.318   4.339  14.794  0.2798 -0.8149  0.0521
16525TIP3    H170990   2.384   4.295  14.848  0.5928 -0.3402  0.0627
16525TIP3    H270991   2.234   4.313  14.832  0.5245  0.4371  1.4893
16526TIP3   OH270992   4.603   1.513  11.370 -0.3094 -0.2066  0.3657
16526TIP3    H170993   4.512   1.538  11.382 -0.6877 -1.3938 -0.0131
16526TIP3    H270994   4.634   1.567  11.297 -0.9838 -0.4813 -0.1257
16527TIP3   OH270995   5.335   1.825   1.129  0.2489  0.6315 -0.1701
16527TIP3    H170996   5.413   1.790   1.085  0.0438 -0.2645  0.1813
16527TIP3    H270997   5.264   1.768   1.101  0.3287 -0.7486  2.3331
16528TIP3   OH270998   5.527   3.434   4.348 -0.5671  0.0234  0.2380
16528TIP3    H170999   5.485   3.460   4.266  2.1386  1.1352 -0.8452
16528TIP3    H271000   5.522   3.512   4.403 -0.5163 -0.0556  0.3543
16529TIP3   OH271001   6.291   4.018  14.362  0.3913  0.0218 -0.3789
16529TIP3    H171002   6.328   3.965  14.433  0.8777 -1.5601 -1.7836
16529TIP3    H271003   6.197   3.998  14.365  0.2472  0.7722  0.4718
16530TIP3   OH271004   4.534   0.570   1.865 -0.0518 -0.1514  0.3584
16530TIP3    H171005   4.540   0.474   1.865  1.5788 -0.0662  1.3874
16530TIP3    H271006   4.446   0.588   1.898  0.6591 -1.2902  3.0365
16531TIP3   OH271007   4.626   6.528  17.112 -0.1906 -0.0076 -0.7100
16531TIP3    H171008   4.602   6.436  17.098  0.3535 -0.2569 -0.0409
16531TIP3    H271009   4.561   6.577  17.061 -2.0221 -0.6802  0.8964
16532TIP3   OH271010   2.530   2.332   0.232 -0.1873 -0.0056 -0.4753
16532TIP3    H171011   2.464   2.323   0.163  0.6417  1.2186 -1.4541
16532TIP3    H271012   2.496   2.280   0.305 -2.3164  0.7419 -0.8916
16533TIP3   OH271013   2.354   6.083  16.806  0.1089  0.2019  0.0802
16533TIP3    H171014   2.260   6.092  16.790  0.1850  0.6354 -0.1157
16533TIP3    H271015   2.391   6.064  16.720  0.2769  0.5981  0.0684
16534TIP3   OH271016   2.424   0.746   1.931  0.1657  0.2520  0.2872
16534TIP3    H171017   2.379   0.802   1.994  0.7299  0.4238  0.5357
16534TIP3    H271018   2.441   0.803   1.856  2.3549  0.9130  1.2542
16535TIP3   OH271019   1.567   6.480   1.211 -0.5967 -0.7625  0.5232
16535TIP3    H171020   1.511   6.557   1.213 -0.0546 -0.3974  2.5173
16535TIP3    H271021   1.618   6.489   1.130 -0.8784  0.7222  0.4953
16536TIP3   OH271022   4.764   5.113   1.278 -0.4574  0.7875  0.6598
16536TIP3    H171023   4.680   5.150   1.306 -0.4869 -0.4485  2.3527
16536TIP3    H271024   4.753   5.018   1.291  0.2363  0.3240 -1.7987
16537TIP3   OH271025   5.772   6.025   5.139 -0.7755 -0.1248 -0.2580
16537TIP3    H171026   5.816   6.046   5.221  0.0449 -0.3313 -0.6358
16537TIP3    H271027   5.750   5.932   5.146  1.0519 -0.6510 -1.0479
16538TIP3   OH271028   4.946   2.752   0.795 -0.0526 -0.2508  0.2966
16538TIP3    H171029   4.997   2.674   0.771  2.0356  1.4376 -0.9300
16538TIP3    H271030   4.967   2.766   0.888 -1.3599 -1.8141  0.8391
16539TIP3   OH271031   5.620   6.469   0.170 -0.4653  0.2096  0.3124
16539TIP3    H171032   5.588   6.380   0.155  0.0661  0.0431  0.1845
16539TIP3    H271033   5.542   6.524   0.159 -0.7913 -0.2350  0.3802
16540TIP3   OH271034   0.162   4.517  10.932 -0.0246  0.4168  0.1602
16540TIP3    H171035   0.095   4.461  10.972 -0.9710  1.4034 -0.0135
16540TIP3    H271036   0.136   4.523  10.840 -0.4435  1.8524  0.3598
16541TIP3   OH271037   4.202   2.357   0.528 -0.3612 -0.7239 -0.1546
16541TIP3    H171038   4.151   2.284   0.563  0.2685 -1.8834 -1.5868
16541TIP3    H271039   4.203   2.342   0.433  0.6678  0.5718 -0.3681
16542TIP3   OH271040   6.711   0.887   3.183 -0.2273 -0.3845 -0.0792
16542TIP3    H171041   6.765   0.922   3.111  1.0652 -0.8650  0.6355
16542TIP3    H271042   6.732   0.794   3.185 -1.1537 -0.5869  0.1610
16543TIP3   OH271043   0.183   1.337  13.918 -0.0775  0.3281  0.2757
16543TIP3    H171044   0.151   1.278  13.987  0.8953  0.9883  1.3045
16543TIP3    H271045   0.134   1.418  13.931  0.2654  0.5267  0.3345
16544TIP3   OH271046   2.456   3.873   4.921  0.0802 -0.4111  0.1848
16544TIP3    H171047   2.550   3.853   4.925 -0.4110 -2.6510  0.7029
16544TIP3    H271048   2.438   3.917   5.005  0.9543  1.4857 -0.5720
16545TIP3   OH271049   5.631   4.470  16.332 -0.3232 -0.3818 -0.1841
16545TIP3    H171050   5.552   4.496  16.285  0.2546  0.1664 -0.8553
16545TIP3    H271051   5.652   4.545  16.387  0.6321  0.0922 -1.1883
16546TIP3   OH271052   0.850   1.367   0.338 -0.2685  0.3653  0.1786
16546TIP3    H171053   0.855   1.271   0.343  0.2864  0.3870  0.0261
16546TIP3    H271054   0.766   1.383   0.293 -1.1776 -0.0002  1.7099
16547TIP3   OH271055   2.381   4.230  16.688 -0.0975 -0.4782  0.5790
16547TIP3    H171056   2.380   4.320  16.719  2.3154 -0.6301  1.2386
16547TIP3    H271057   2.403   4.237  16.595  1.4457 -0.4131  0.9276
16548TIP3   OH271058   3.202   0.118   4.614  0.4520 -0.2407 -0.0035
16548TIP3    H171059   3.228   0.208   4.595 -0.8058 -0.0174 -0.7530
16548TIP3    H271060   3.202   0.074   4.529  0.6474 -0.8368  0.3003
16549TIP3   OH271061   1.359   1.189  12.493  0.0365  0.4550 -0.2655
16549TIP3    H171062   1.418   1.264  12.495  0.7193 -0.0391 -1.4305
16549TIP3    H271063   1.350   1.168  12.400 -0.9764 -0.2542 -0.0157
16550TIP3   OH271064   1.797   1.452  12.674 -0.5051 -0.5130 -0.0351
16550TIP3    H171065   1.748   1.371  12.688 -2.1522  0.5617  0.4563
16550TIP3    H271066   1.872   1.445  12.733 -0.4326 -1.8504 -0.2792
16551TIP3   OH271067   5.465   5.950  14.906 -0.8250 -0.0577 -0.1298
16551TIP3    H171068   5.504   5.863  14.919 -1.6069 -0.5566 -1.0305
16551TIP3    H271069   5.445   5.953  14.812  1.1321  1.9186 -0.5259
16552TIP3   OH271070   1.021   6.273  13.676  0.1253 -0.7100 -0.7927
16552TIP3    H171071   0.969   6.347  13.646  1.4561  0.9166  0.7888
16552TIP3    H271072   1.107   6.285  13.636  0.0217 -2.0754 -1.4793
16553TIP3   OH271073   1.525   4.793   2.804  0.4577  0.1019  0.0352
16553TIP3    H171074   1.541   4.717   2.747  2.2376  1.3505 -1.1640
16553TIP3    H271075   1.482   4.756   2.881  0.8244 -2.0666 -0.7639
16554TIP3   OH271076   5.319   1.665  13.326 -0.3278 -0.2761  0.3103
16554TIP3    H171077   5.286   1.584  13.287  2.6601 -1.7170  0.6327
16554TIP3    H271078   5.356   1.714  13.252 -1.5740  0.5355  0.2103
16555TIP3   OH271079   0.815   3.914  11.818  0.1187  0.3363  0.5103
16555TIP3    H171080   0.725   3.885  11.801  0.5567 -1.1070  0.5897
16555TIP3    H271081   0.811   3.952  11.905 -0.5254  0.7512  0.3064
16556TIP3   OH271082   0.348   4.811  12.389  0.0897  0.0382 -0.0311
16556TIP3    H171083   0.314   4.898  12.369 -1.0580 -0.3204  0.3108
16556TIP3    H271084   0.307   4.754  12.324  2.3432  0.0258 -1.4890
16557TIP3   OH271085   1.557   1.862   5.073  0.3587  0.0260  0.1733
16557TIP3    H171086   1.613   1.882   4.998  0.9591  1.8095  1.0557
16557TIP3    H271087   1.469   1.888   5.046  0.8540  2.3554  0.6755
16558TIP3   OH271088   3.047   0.681  13.745  0.6790  0.5116 -0.8849
16558TIP3    H171089   2.984   0.679  13.816  1.0668  2.3274 -0.4732
16558TIP3    H271090   3.127   0.643  13.783  0.5552  0.4297 -0.7045
16559TIP3   OH271091   5.255   3.405   1.006  0.3081  0.1026 -0.0777
16559TIP3    H171092   5.208   3.413   0.923 -0.5530 -1.1121  0.2799
16559TIP3    H271093   5.219   3.474   1.062  0.1499  0.2540 -0.3647
16560TIP3   OH271094   5.192   2.215  15.348  0.1457 -0.4880  0.2021
16560TIP3    H171095   5.227   2.246  15.265 -1.0318 -1.5361 -0.7190
16560TIP3    H271096   5.262   2.163  15.386  1.1729  1.1117  0.5012
16561TIP3   OH271097   6.281   2.034  12.365  0.1581 -0.2672  0.2878
16561TIP3    H171098   6.234   1.957  12.395  0.8902 -0.9101 -0.1726
16561TIP3    H271099   6.288   2.022  12.270  1.3863 -0.2822  0.3659
16562TIP3   OH271100   3.441   4.262   4.869 -0.5700  0.1131  0.3264
16562TIP3    H171101   3.375   4.325   4.839  1.1782  0.9745 -1.9312
16562TIP3    H271102   3.472   4.297   4.952 -2.5360 -0.0021  1.1261
16563TIP3   OH271103   1.652   5.333   3.235  0.5780  0.3976  0.3481
16563TIP3    H171104   1.712   5.277   3.186  1.3306  1.0708  0.4786
16563TIP3    H271105   1.666   5.421   3.199  0.8048  0.8194  1.4321
16564TIP3   OH271106   1.994   4.004  11.463 -0.3185  0.1109 -0.0241
16564TIP3    H171107   2.028   3.967  11.545  1.3234  1.0504 -0.2552
16564TIP3    H271108   2.069   4.047  11.423 -1.7463  2.1052 -0.6569
16565TIP3   OH271109   4.801   2.293   5.744 -0.2185 -0.5181  0.0826
16565TIP3    H171110   4.845   2.258   5.666 -0.7863 -0.2314 -0.3736
16565TIP3    H271111   4.772   2.216   5.792 -0.9075 -0.6814 -0.5918
16566TIP3   OH271112   4.473   2.343   5.298  0.8040  0.0461  0.3576
16566TIP3    H171113   4.558   2.383   5.279  1.0499 -1.7746 -2.6011
16566TIP3    H271114   4.491   2.249   5.304 -1.0389 -0.3961 -0.6899
16567TIP3   OH271115   2.265   4.706  11.323 -0.1292  0.1661 -0.0611
16567TIP3    H171116   2.255   4.686  11.416  1.4430  1.2934  0.3787
16567TIP3    H271117   2.192   4.662  11.281 -0.2736 -1.2163  1.5865
16568TIP3   OH271118   2.469   4.424  15.744  0.2966  0.1758  0.6602
16568TIP3    H171119   2.495   4.435  15.836 -1.0328  1.5823  0.8817
16568TIP3    H271120   2.375   4.439  15.744 -0.1483 -2.3942 -0.5481
16569TIP3   OH271121   2.205   6.109   4.390 -0.1990  0.1890  0.1885
16569TIP3    H171122   2.177   6.041   4.451 -1.1587  0.1780 -0.2575
16569TIP3    H271123   2.233   6.181   4.446  0.1724 -0.3189  0.6576
16570TIP3   OH271124   5.001   1.738  14.664  0.0709  0.1045  0.0382
16570TIP3    H171125   5.071   1.732  14.599  0.1670 -0.3259  0.1820
16570TIP3    H271126   4.973   1.829  14.660  0.6362  0.2781 -0.0218
16571TIP3   OH271127   2.222   1.437   4.897 -0.4204  0.2608 -0.1737
16571TIP3    H171128   2.226   1.528   4.925 -1.5610 -0.0480  1.0486
16571TIP3    H271129   2.165   1.437   4.820 -1.8927  0.3511  0.8924
16572TIP3   OH271130   0.322   4.782   6.178 -0.1441 -0.3535 -0.0569
16572TIP3    H171131   0.287   4.696   6.158  0.1337 -0.8804  1.5949
16572TIP3    H271132   0.411   4.765   6.210  0.0269  0.5586 -0.0318
16573TIP3   OH271133   2.141   5.918   6.544 -0.1837  0.0300  0.3820
16573TIP3    H171134   2.232   5.944   6.559  0.0249  0.7010 -1.8114
16573TIP3    H271135   2.089   5.984   6.589  0.4102  0.8764 -0.1585
16574TIP3   OH271136   6.383   5.445   0.863 -0.3463 -0.5418 -0.9646
16574TIP3    H171137   6.294   5.479   0.856 -0.1475  0.0429 -0.7183
16574TIP3    H271138   6.439   5.518   0.834  0.1039 -0.5080 -0.0382
16575TIP3   OH271139   1.811   4.564  12.291 -0.3852 -0.1828  0.1870
16575TIP3    H171140   1.872   4.554  12.364 -0.0011  1.0436  0.0584
16575TIP3    H271141   1.856   4.624  12.231 -0.4919 -1.5269 -1.2729
16576TIP3   OH271142   4.929   2.796   1.079  0.8033 -0.1714  0.4668
16576TIP3    H171143   4.852   2.741   1.067  0.6812 -0.1131  0.9688
16576TIP3    H271144   4.893   2.884   1.090  1.1050  0.4803 -3.0814
16577TIP3   OH271145   0.263   3.575  16.936 -0.1939 -0.1345  0.0387
16577TIP3    H171146   0.355   3.551  16.946 -0.9220 -2.5770  1.2474
16577TIP3    H271147   0.241   3.619  17.017 -0.2381 -0.0990  0.0073
16578TIP3   OH271148   4.902   0.003   5.466  0.7927 -0.6861  0.5839
16578TIP3    H171149   4.897  -0.078   5.415 -2.1888  0.6294 -1.3074
16578TIP3    H271150   4.811   0.029   5.480  1.6587  1.3825  2.7696
16579TIP3   OH271151   0.304   1.690   2.139  0.0917 -0.0147  0.4557
16579TIP3    H171152   0.233   1.627   2.148  0.9200 -0.8793  1.0397
16579TIP3    H271153   0.274   1.768   2.184 -0.0672 -0.7376  1.6035
16580TIP3   OH271154   0.680   4.712  10.382 -0.4040  0.9458 -0.0772
16580TIP3    H171155   0.770   4.743  10.373  0.1194 -1.0970 -2.6455
16580TIP3    H271156   0.641   4.770  10.446  2.9622  1.4141  1.6796
16581TIP3   OH271157   6.409   5.700  15.329 -0.0690  0.5731  0.2405
16581TIP3    H171158   6.330   5.693  15.383  0.2759  1.1343  0.8363
16581TIP3    H271159   6.377   5.699  15.239 -0.6655 -0.2588  0.4599
16582TIP3   OH271160   4.608   4.866   1.350  0.7394  0.4554  0.3524
16582TIP3    H171161   4.574   4.777   1.347  1.9041 -0.0565  1.9952
16582TIP3    H271162   4.537   4.917   1.388 -0.4830  0.5247 -1.9357
16583TIP3   OH271163   4.579   3.842  14.716  0.0335 -0.0183  0.0445
16583TIP3    H171164   4.593   3.823  14.623 -0.1747 -0.4223  0.0948
16583TIP3    H271165   4.492   3.806  14.735  1.0202 -2.0077  0.9544
16584TIP3   OH271166   1.859   2.242  15.097 -0.3070  0.0640 -0.3459
16584TIP3    H171167   1.943   2.196  15.098 -0.7277 -0.7670 -1.6086
16584TIP3    H271168   1.853   2.284  15.183  0.2302 -1.9910  0.7248
16585TIP3   OH271169   5.300   5.462  14.057 -0.2450 -0.4898  0.4135
16585TIP3    H171170   5.338   5.387  14.012 -0.1186  0.1027 -0.4873
16585TIP3    H271171   5.233   5.425  14.114 -0.1405 -1.2925  0.0214
16586TIP3   OH271172   4.397   6.478  11.614  0.3731  0.4281 -0.4838
16586TIP3    H171173   4.335   6.490  11.542 -1.1734 -1.1558  0.5413
16586TIP3    H271174   4.431   6.389  11.601  0.8087  0.4953  0.1925
16587TIP3   OH271175   3.676   1.522   0.354  0.1891  0.5889  0.2688
16587TIP3    H171176   3.592   1.480   0.336 -0.1935  0.9653  1.1921
16587TIP3    H271177   3.655   1.613   0.371  0.6065  0.3555  2.1035
16588TIP3   OH271178   3.095   1.106  14.051  0.0544 -0.3792 -0.4041
16588TIP3    H171179   3.112   1.033  13.991 -0.1890 -0.9912  0.2616
16588TIP3    H271180   3.000   1.105  14.063  0.0247  0.2063 -0.5915
16589TIP3   OH271181   0.046   5.249  14.159  0.0712  0.0960 -0.5883
16589TIP3    H171182  -0.023   5.302  14.199  0.2886  1.1192 -1.5422
16589TIP3    H271183   0.000   5.173  14.125 -0.0258 -1.1241  2.1519
16590TIP3   OH271184   1.565   2.987  16.716 -0.4284 -0.2749  0.1527
16590TIP3    H171185   1.596   3.057  16.773 -0.6116 -0.5161  0.5536
16590TIP3    H271186   1.614   2.998  16.635  2.2229 -1.9247  1.4915
16591TIP3   OH271187   6.246   4.349   6.247 -0.4076 -0.1057  0.8749
16591TIP3    H171188   6.295   4.296   6.185 -0.2082  0.4928  0.5181
16591TIP3    H271189   6.303   4.424   6.265 -0.9772  0.3385  0.8435
16592TIP3   OH271190   1.076   6.441  13.923  0.4122  0.0154  0.1272
16592TIP3    H171191   0.991   6.398  13.925 -0.0946  0.9484 -0.9949
16592TIP3    H271192   1.138   6.371  13.941 -0.5508 -0.8011  0.3209
16593TIP3   OH271193   3.396   2.189  15.506 -0.3137  0.1526  0.6166
16593TIP3    H171194   3.334   2.127  15.468  0.6631  0.2530 -1.1834
16593TIP3    H271195   3.477   2.139  15.517 -1.2241 -0.5591  4.8646
16594TIP3   OH271196   0.202   6.103   6.272  0.2204 -0.2287 -0.3998
16594TIP3    H171197   0.165   6.101   6.360  0.7599 -2.2294 -0.2014
16594TIP3    H271198   0.247   6.019   6.262  2.6471  1.1468 -1.5351
16595TIP3   OH271199   5.108   0.285  13.570  0.5864  0.0007 -0.4170
16595TIP3    H171200   5.121   0.345  13.644  0.0842  0.1297 -0.4259
16595TIP3    H271201   5.195   0.270  13.535  1.2989 -2.7335  2.2734
16596TIP3   OH271202   2.060   5.544  15.528 -0.5901  0.0659  0.3621
16596TIP3    H171203   2.007   5.472  15.563  0.1845 -0.5372  0.2993
16596TIP3    H271204   2.125   5.501  15.473 -2.0892  1.0426 -2.2190
16597TIP3   OH271205   0.002   4.203   4.304 -0.2464 -0.1390 -0.0954
16597TIP3    H171206   0.089   4.231   4.274 -0.2890 -0.0805 -0.1667
16597TIP3    H271207   0.012   4.190   4.398 -0.3784  0.7082  0.0390
16598TIP3   OH271208   5.552   3.326   0.076  0.3472  1.0502  0.2349
16598TIP3    H171209   5.481   3.264   0.059  0.3619  1.5929 -2.0195
16598TIP3    H271210   5.631   3.271   0.078 -0.0061  0.5740  1.7558
16599TIP3   OH271211   4.065   6.504  15.143  0.5377  0.4621 -0.8055
16599TIP3    H171212   4.151   6.522  15.104  0.3283 -0.1515 -1.5544
16599TIP3    H271213   4.083   6.495  15.236  1.4285 -0.5446 -1.0664
16600TIP3   OH271214   5.194   2.237  12.045  0.1143 -0.2518  0.5016
16600TIP3    H171215   5.134   2.182  11.994 -0.0006 -0.6337  1.0501
16600TIP3    H271216   5.247   2.282  11.979  0.5644 -1.4188  0.0625
16601TIP3   OH271217   0.167   6.626  12.393 -0.1061 -0.6492  0.1044
16601TIP3    H171218   0.257   6.638  12.363  0.4756  1.0283  2.3014
16601TIP3    H271219   0.114   6.637  12.315  1.5921 -1.6381 -1.2232
16602TIP3   OH271220   4.280   3.273   0.126  0.1622 -0.0219  0.1688
16602TIP3    H171221   4.215   3.230   0.181  0.3564  0.3960  0.7338
16602TIP3    H271222   4.232   3.297   0.047 -0.4972  0.7194  0.7846
16603TIP3   OH271223   2.910   1.166  12.069  0.2377  0.3109 -0.0583
16603TIP3    H171224   2.975   1.123  12.013  0.1566  0.4631 -0.2663
16603TIP3    H271225   2.826   1.136  12.035  0.1707  0.9712 -0.4673
16604TIP3   OH271226   1.942   6.112  11.662  0.5522  0.0944 -0.0305
16604TIP3    H171227   1.894   6.089  11.742 -0.4933 -0.8852 -0.9148
16604TIP3    H271228   1.945   6.208  11.663 -0.1745  0.1162  0.7720
16605TIP3   OH271229   0.040   1.045   6.043 -0.2688 -0.0413  0.3321
16605TIP3    H171230   0.007   1.108   5.980 -0.8308  0.3450  1.0029
16605TIP3    H271231   0.129   1.075   6.063  0.0245 -0.3398 -0.4875
16606TIP3   OH271232   0.639   0.281   5.988 -0.7194 -0.1242  0.2545
16606TIP3    H171233   0.692   0.322   5.919  0.7477 -1.3978  0.5980
16606TIP3    H271234   0.627   0.351   6.052 -1.3382  0.8133 -0.8518
16607TIP3   OH271235   3.306   5.003   1.986  0.0244 -0.1551 -0.4802
16607TIP3    H171236   3.382   4.946   1.974  1.9077  2.4778 -1.5059
16607TIP3    H271237   3.245   4.977   1.916  0.4781 -1.4683 -0.3977
16608TIP3   OH271238   1.278   5.843   1.695  0.5799  0.8016 -0.3677
16608TIP3    H171239   1.243   5.755   1.707 -0.9033  1.3467 -0.5104
16608TIP3    H271240   1.213   5.900   1.737  1.6869  1.8004  0.0196
16609TIP3   OH271241   6.465   2.112  11.669  0.0706  0.1198 -0.5865
16609TIP3    H171242   6.549   2.117  11.622  1.2732 -0.4747  1.4541
16609TIP3    H271243   6.461   2.194  11.719  0.1746 -0.5374  0.5131
16610TIP3   OH271244   4.406   2.124   2.996  0.0718 -0.0542 -0.2463
16610TIP3    H171245   4.356   2.070   2.935  0.2695  0.7204 -1.0967
16610TIP3    H271246   4.340   2.156   3.058 -0.0693 -1.1446  0.1821
16611TIP3   OH271247   1.715   6.772   4.257  0.1541  0.7135 -0.2288
16611TIP3    H171248   1.666   6.701   4.217 -0.2694 -0.7066  2.6284
16611TIP3    H271249   1.658   6.849   4.246 -0.5940  0.0592 -1.0166
16612TIP3   OH271250   6.316   2.569   1.570  0.2719  0.8218  0.0722
16612TIP3    H171251   6.370   2.513   1.626 -0.0716  1.6230  1.2095
16612TIP3    H271252   6.379   2.613   1.512  0.6031 -0.1922 -0.3475
16613TIP3   OH271253   0.992   1.883   0.714 -0.1887 -0.3070 -0.0424
16613TIP3    H171254   1.018   1.820   0.647 -2.0857 -0.8555 -0.3150
16613TIP3    H271255   1.001   1.835   0.797  2.0082  0.3223  0.0984
16614TIP3   OH271256   3.805   1.468   6.156  0.6621  0.3274 -0.1422
16614TIP3    H171257   3.748   1.408   6.108  1.1737  0.0875 -0.4618
16614TIP3    H271258   3.791   1.445   6.248  0.0292  0.4699 -0.2016
16615TIP3   OH271259   2.064   4.006  12.001  0.5308  0.3191 -0.3524
16615TIP3    H171260   2.064   4.007  12.096  0.1553  1.1822 -0.3646
16615TIP3    H271261   2.073   4.098  11.975  0.9887  0.0614 -1.1476
16616TIP3   OH271262   0.693   3.796   3.279  0.3679  0.0060 -0.2787
16616TIP3    H171263   0.683   3.732   3.349  1.5304  0.4026  0.2639
16616TIP3    H271264   0.770   3.766   3.231  1.1149  1.1780  0.1747
16617TIP3   OH271265   2.274   3.192  11.368  0.2620  0.0053 -0.1151
16617TIP3    H171266   2.311   3.104  11.367 -2.0383 -0.9983 -2.2314
16617TIP3    H271267   2.216   3.193  11.444  2.2940  0.6483  1.5018
16618TIP3   OH271268   3.821   3.394  13.730  0.2423  0.4430 -0.2794
16618TIP3    H171269   3.811   3.477  13.776 -1.0789  1.0330 -1.5837
16618TIP3    H271270   3.812   3.328  13.798  1.0376  1.3606  0.7334
16619TIP3   OH271271   0.266   0.430   5.349  0.2887  0.5310 -1.1818
16619TIP3    H171272   0.170   0.428   5.343  0.2322  0.9103 -0.4731
16619TIP3    H271273   0.294   0.350   5.305 -0.4039 -0.0746 -0.5438
16620TIP3   OH271274   3.548   6.340  10.846 -0.1367  0.2360  0.5559
16620TIP3    H171275   3.618   6.288  10.804 -2.1899 -2.4276  0.2774
16620TIP3    H271276   3.502   6.381  10.773 -0.5986 -0.3211  0.5276
16621TIP3   OH271277   1.129   5.694  14.122 -0.1244 -0.3070 -0.0749
16621TIP3    H171278   1.074   5.770  14.106 -0.1129 -0.1216  0.7476
16621TIP3    H271279   1.095   5.656  14.203 -0.0030 -1.0615 -0.3687
16622TIP3   OH271280   2.513   6.432  13.512  0.2245  0.2926  0.2831
16622TIP3    H171281   2.473   6.496  13.452  0.9337  0.5307  0.0595
16622TIP3    H271282   2.565   6.485  13.573  2.3746 -0.1776 -1.0779
16623TIP3   OH271283   1.487   2.393   3.879 -0.1609  0.0690  0.1068
16623TIP3    H171284   1.403   2.354   3.904 -1.3168  0.5133 -2.8781
16623TIP3    H271285   1.534   2.323   3.835 -0.2685  0.6773 -0.9966
16624TIP3   OH271286   4.158   0.281   0.081  0.0266  0.1572  0.8512
16624TIP3    H171287   4.209   0.200   0.085 -0.8361 -0.4805 -0.4992
16624TIP3    H271288   4.167   0.320   0.168  1.6100 -0.6687  1.0816
16625TIP3   OH271289   5.442   0.125   1.142 -0.1986  0.0986 -0.2388
16625TIP3    H171290   5.437   0.031   1.129 -0.3722 -0.0017  0.4999
16625TIP3    H271291   5.460   0.135   1.236  1.1053  0.7601 -0.5443
16626TIP3   OH271292   3.617   1.675   4.347 -0.1052 -0.3022 -0.7072
16626TIP3    H171293   3.649   1.681   4.437  1.0246  1.1938 -1.1924
16626TIP3    H271294   3.673   1.610   4.306 -0.3669 -0.6983 -0.4430
16627TIP3   OH271295   3.000   5.331  11.879 -0.0938 -0.1127 -0.9022
16627TIP3    H171296   3.081   5.283  11.862  0.6089  0.4880  0.7443
16627TIP3    H271297   2.939   5.297  11.813  0.9383 -1.9050 -0.9805
16628TIP3   OH271298   5.120   2.977  16.132 -0.1140  0.0731 -0.0217
16628TIP3    H171299   5.142   2.975  16.225 -0.3207 -0.8020  0.0149
16628TIP3    H271300   5.192   2.930  16.090 -1.3905 -1.9628 -0.0047
16629TIP3   OH271301   3.249   1.390   5.435  0.1060  0.0052  0.1309
16629TIP3    H171302   3.293   1.421   5.356  0.3524 -2.9092 -0.9180
16629TIP3    H271303   3.157   1.381   5.409  0.2732 -1.4461 -0.0010
16630TIP3   OH271304   0.716   4.584   4.831 -0.0302 -0.0945 -0.1467
16630TIP3    H171305   0.680   4.653   4.775  0.5144  3.3325  3.4869
16630TIP3    H271306   0.646   4.519   4.838 -2.1388  2.0742 -0.4218
16631TIP3   OH271307   2.435   2.577  11.521  0.0894  0.0335  0.0540
16631TIP3    H171308   2.487   2.557  11.443 -1.0063  0.4347 -0.7874
16631TIP3    H271309   2.495   2.623  11.579  0.0915  2.5150 -1.8451
16632TIP3   OH271310   5.066   1.667   2.874  0.8660 -0.6180  0.0472
16632TIP3    H171311   5.145   1.620   2.900  0.8198  0.3598  2.0589
16632TIP3    H271312   5.005   1.654   2.947 -0.8726 -1.3840 -1.4835
16633TIP3   OH271313   5.976   5.362  12.359 -0.3524  0.2268 -0.0670
16633TIP3    H171314   5.965   5.445  12.313 -1.1603  0.1799  0.0207
16633TIP3    H271315   6.007   5.301  12.292  0.5183  0.6621 -0.0666
16634TIP3   OH271316   6.376   0.851  15.637 -0.0874  0.2274 -0.8285
16634TIP3    H171317   6.468   0.832  15.620 -0.0720 -1.0581  0.6133
16634TIP3    H271318   6.375   0.893  15.723 -1.0019 -1.5194  0.0515
16635TIP3   OH271319   5.617   1.778  13.438  0.5022 -0.2531  0.8182
16635TIP3    H171320   5.578   1.762  13.524  1.6042 -1.0642  1.1776
16635TIP3    H271321   5.600   1.698  13.388  0.0240  0.1441  0.3320
16636TIP3   OH271322   0.822   1.841  16.646  0.2778 -0.3471 -0.8457
16636TIP3    H171323   0.906   1.855  16.690 -0.4180 -0.7032  0.5858
16636TIP3    H271324   0.846   1.794  16.566  1.4252 -0.6661 -0.3265
16637TIP3   OH271325   2.479   6.549  16.577  0.4397  0.1755  0.0519
16637TIP3    H171326   2.428   6.468  16.582 -1.3460  1.1999 -0.9603
16637TIP3    H271327   2.547   6.538  16.643 -0.9027 -1.3735  1.2404
16638TIP3   OH271328   0.672   6.430   3.615  0.1796 -0.0869 -0.7671
16638TIP3    H171329   0.756   6.467   3.644 -0.7486  1.1829  0.3564
16638TIP3    H271330   0.620   6.506   3.591 -1.0361 -0.8027 -0.4092
16639TIP3   OH271331   1.714   3.372   5.414  0.4361  0.1501  0.0838
16639TIP3    H171332   1.798   3.416   5.406 -0.2749  1.5873  0.3037
16639TIP3    H271333   1.674   3.380   5.327  0.7430 -1.0062 -0.1747
16640TIP3   OH271334   3.219   6.447  14.888 -0.3725 -0.1522  0.9336
16640TIP3    H171335   3.260   6.386  14.948  1.8743  1.9668  1.6298
16640TIP3    H271336   3.261   6.531  14.905 -1.9431  1.2020 -1.3827
16641TIP3   OH271337   5.793   4.277  12.147  0.2073 -0.4706 -0.4932
16641TIP3    H171338   5.810   4.213  12.078  1.7616 -3.0927  2.1988
16641TIP3    H271339   5.713   4.246  12.189  1.8720 -1.6718  1.8805
16642TIP3   OH271340   2.568   4.353  14.023  0.3238  0.0901  0.0540
16642TIP3    H171341   2.528   4.270  13.996  1.5634 -0.2244 -0.8947
16642TIP3    H271342   2.495   4.408  14.049 -0.7007 -0.5998 -1.2791
16643TIP3   OH271343   3.233   2.087  10.940  0.0833  0.2172 -0.2303
16643TIP3    H171344   3.201   2.143  10.870 -0.5826  1.8244  1.3137
16643TIP3    H271345   3.210   2.134  11.021  1.5447 -1.1920  1.0411
16644TIP3   OH271346   1.537   0.540   0.518 -0.1928 -0.3224 -0.2814
16644TIP3    H171347   1.587   0.521   0.597  0.4415 -0.3385 -0.6833
16644TIP3    H271348   1.593   0.511   0.446 -0.7358 -0.2446 -0.7418
16645TIP3   OH271349   1.897   5.289  12.484 -0.1486 -0.2889  0.0452
16645TIP3    H171350   1.919   5.342  12.408  0.1776 -1.7167 -0.8694
16645TIP3    H271351   1.925   5.341  12.559 -0.9796  1.3611 -0.7787
16646TIP3   OH271352   5.263   1.328   6.610  0.3678  0.1911 -0.2305
16646TIP3    H171353   5.296   1.392   6.547  0.7918  0.4081  0.2199
16646TIP3    H271354   5.187   1.289   6.565  0.7419  0.2549 -0.9288
16647TIP3   OH271355   3.255   3.116   0.888  0.4132 -0.4349 -0.6276
16647TIP3    H171356   3.289   3.197   0.851  0.2913  0.5191  1.3207
16647TIP3    H271357   3.322   3.086   0.949 -1.2783  0.4067  1.7411
16648TIP3   OH271358   1.114   2.518  16.121 -0.1732  0.0322  0.1778
16648TIP3    H171359   1.207   2.510  16.101 -0.2041  0.1085 -0.0072
16648TIP3    H271360   1.101   2.467  16.200  0.0328  0.0524  0.2239
16649TIP3   OH271361   3.366   3.184  15.601 -0.0190 -0.1904  0.4542
16649TIP3    H171362   3.380   3.202  15.508 -0.3879  0.3765  0.5065
16649TIP3    H271363   3.441   3.131  15.627 -0.1175 -0.6693 -0.2580
16650TIP3   OH271364   6.271   4.781  14.277  0.0579 -0.0916  0.0291
16650TIP3    H171365   6.341   4.833  14.316 -0.5662  1.2144 -0.5505
16650TIP3    H271366   6.309   4.694  14.265  1.4085  0.4675  0.1954
16651TIP3   OH271367   5.219   2.852   4.825 -0.1769  0.6389 -0.2151
16651TIP3    H171368   5.165   2.775   4.807  1.1845 -0.5376  0.6879
16651TIP3    H271369   5.309   2.821   4.821  0.3763  2.0383  0.7934
16652TIP3   OH271370   2.651   5.415   1.699 -0.1491  0.6939 -0.3980
16652TIP3    H171371   2.610   5.418   1.785 -1.8439 -0.5556 -1.1216
16652TIP3    H271372   2.728   5.359   1.711  0.1085  1.2279  0.4830
16653TIP3   OH271373   4.606   2.059  13.226 -0.8692  0.0583  0.3107
16653TIP3    H171374   4.574   2.143  13.193 -3.4978 -1.5038 -1.2622
16653TIP3    H271375   4.656   2.023  13.153 -1.5971 -0.7026  0.1818
16654TIP3   OH271376   0.963   2.444  11.792 -0.0654 -0.3427  0.4863
16654TIP3    H171377   0.914   2.428  11.872 -0.7923  0.6739  0.2570
16654TIP3    H271378   1.052   2.415  11.812 -0.8325 -2.5587  0.7737
16655TIP3   OH271379   3.595   5.886  12.556 -0.0778  0.0896 -0.3330
16655TIP3    H171380   3.636   5.969  12.531 -0.6901  0.6370  0.4674
16655TIP3    H271381   3.558   5.852  12.475  0.2624  0.5470 -0.6813
16656TIP3   OH271382   4.917   3.295   2.978  0.2375  0.2220 -0.9527
16656TIP3    H171383   4.890   3.371   3.029 -1.8286 -0.3125 -1.1773
16656TIP3    H271384   4.880   3.220   3.025 -1.4175 -0.3063 -2.9635
16657TIP3   OH271385   2.567   1.589   5.920 -0.7489  0.4309  0.0867
16657TIP3    H171386   2.609   1.668   5.886 -0.1937  0.3715  0.6171
16657TIP3    H271387   2.604   1.578   6.008 -0.6883 -0.5182 -0.0476
16658TIP3   OH271388   5.705   2.995   2.643  0.4659 -0.2994 -0.0011
16658TIP3    H171389   5.757   2.924   2.605  0.6823  0.3547 -0.9515
16658TIP3    H271390   5.635   2.951   2.690  1.0338 -1.1628  0.0442
16659TIP3   OH271391   2.397   4.233  16.402  0.5936  0.0439  0.3712
16659TIP3    H171392   2.438   4.151  16.427  0.8295  0.4460  1.3639
16659TIP3    H271393   2.329   4.209  16.340  0.4017 -0.9316  0.9650
16660TIP3   OH271394   3.233   3.084   1.881 -0.2407  0.4947  0.3516
16660TIP3    H171395   3.280   3.077   1.964 -0.7628 -0.6721  0.5610
16660TIP3    H271396   3.269   3.014   1.827 -0.3297  0.8632 -0.1837
16661TIP3   OH271397   3.895   3.078  14.541 -0.2330  0.1810  0.1733
16661TIP3    H171398   3.805   3.066  14.572 -0.7725 -1.2842 -1.8878
16661TIP3    H271399   3.889   3.144  14.472 -0.0125 -1.2903 -1.2624
16662TIP3   OH271400   1.341   0.736   3.854  0.0278  0.8389  0.1905
16662TIP3    H171401   1.299   0.812   3.814  0.0223  0.8220  0.1642
16662TIP3    H271402   1.433   0.760   3.862  0.0574  0.7827  0.0246
16663TIP3   OH271403   4.503   1.213  16.892 -0.4359  0.5349  0.2100
16663TIP3    H171404   4.443   1.169  16.831  2.0399 -0.2872 -1.6994
16663TIP3    H271405   4.453   1.219  16.974 -0.7399 -6.3116  0.7732
16664TIP3   OH271406   3.354   1.947   2.937  0.1927 -0.0099 -0.2527
16664TIP3    H171407   3.364   1.960   3.031  1.0377 -0.7657 -0.2374
16664TIP3    H271408   3.291   1.875   2.929  0.7503 -0.4968 -0.2561
16665TIP3   OH271409   3.706   5.577  13.489  0.4999 -0.1476  0.2064
16665TIP3    H171410   3.708   5.599  13.396  0.0435 -1.7809 -0.2199
16665TIP3    H271411   3.637   5.511  13.496  2.4202 -2.1424  1.1984
16666TIP3   OH271412   5.253   5.187   4.430 -0.1344 -0.1580 -0.0727
16666TIP3    H171413   5.171   5.197   4.479 -0.8839 -1.4469 -1.0181
16666TIP3    H271414   5.229   5.205   4.339  1.4519  3.1966  0.1143
16667TIP3   OH271415   2.529   5.933   2.921 -0.2612  0.4436 -0.5597
16667TIP3    H171416   2.485   5.849   2.935  1.4008 -0.1255  1.5258
16667TIP3    H271417   2.538   5.940   2.826  0.2771 -2.0990 -0.7364
16668TIP3   OH271418   4.337   1.476   0.115 -0.1047  0.6540  0.3758
16668TIP3    H171419   4.297   1.493   0.200  0.9884  1.4172  0.7431
16668TIP3    H271420   4.365   1.384   0.119 -3.4331 -0.4963 -0.5631
16669TIP3   OH271421   0.839   3.019  11.270  0.4977 -0.4660 -0.8553
16669TIP3    H171422   0.824   3.017  11.365 -2.0084  0.5560 -1.1940
16669TIP3    H271423   0.903   3.089  11.257 -0.4279  0.5340 -0.0639
16670TIP3   OH271424   2.786   2.996   0.732 -0.1120  0.1483  0.0994
16670TIP3    H171425   2.787   2.994   0.828  0.7490  2.1018  0.1643
16670TIP3    H271426   2.873   2.966   0.707  0.0131  0.6104 -0.0281
16671TIP3   OH271427   3.893   4.968  14.860 -0.0752  0.1610  0.0190
16671TIP3    H171428   3.841   4.931  14.788  0.2111  1.0823 -0.6610
16671TIP3    H271429   3.883   5.063  14.851 -2.1720  0.2590  2.7529
16672TIP3   OH271430   1.510   6.030   2.678 -0.4629 -0.0684 -0.2048
16672TIP3    H171431   1.560   5.950   2.697 -1.2973 -0.2862  1.0973
16672TIP3    H271432   1.577   6.098   2.669  0.1735 -0.6623 -0.0197
16673TIP3   OH271433   1.011   0.286  13.147  0.6475 -0.0091  0.0631
16673TIP3    H171434   0.990   0.367  13.100  0.7082 -0.0651 -0.0613
16673TIP3    H271435   1.105   0.293  13.166  0.5526  0.1639  0.4681
16674TIP3   OH271436   4.720   6.735   3.875  0.1965  0.4967 -0.2607
16674TIP3    H171437   4.816   6.735   3.885  0.1252 -1.4317  0.7166
16674TIP3    H271438   4.698   6.642   3.863 -1.6690  0.7974  0.7780
16675TIP3   OH271439   5.483   4.680   4.807 -0.0104 -0.0276 -0.5380
16675TIP3    H171440   5.512   4.697   4.897 -2.2963  1.4122 -0.0472
16675TIP3    H271441   5.544   4.730   4.753  0.9420 -0.3332  0.2196
16676TIP3   OH271442   2.346   6.190  16.088 -0.1343 -0.3060 -0.6065
16676TIP3    H171443   2.417   6.194  16.024 -0.6800 -0.6241 -1.2524
16676TIP3    H271444   2.303   6.276  16.082  2.3781  1.2531  2.4078
16677TIP3   OH271445   6.675   1.802  16.435  1.0409  0.0300 -0.1433
16677TIP3    H171446   6.770   1.806  16.431  1.0454 -1.4048 -2.0403
16677TIP3    H271447   6.646   1.888  16.406  1.7321 -0.2445 -1.6933
16678TIP3   OH271448   5.224   6.265  13.279  0.5954 -0.5795  0.4038
16678TIP3    H171449   5.184   6.347  13.305  3.1603  0.5540  0.9751
16678TIP3    H271450   5.164   6.197  13.309  0.2398  0.9490  3.2897
16679TIP3   OH271451   0.824   2.502   6.418 -0.2112  0.5881  0.0966
16679TIP3    H171452   0.799   2.572   6.478  0.3521  1.0002 -0.1477
16679TIP3    H271453   0.866   2.546   6.345 -1.5504  0.1488 -0.9554
16680TIP3   OH271454   5.839   5.407   1.404  0.7727  0.4026  0.5419
16680TIP3    H171455   5.851   5.354   1.325  0.9413  0.9674  0.1868
16680TIP3    H271456   5.747   5.396   1.426  0.0655  2.3585 -1.2634
16681TIP3   OH271457   0.769   4.579  12.763  0.4481  0.0977  0.0318
16681TIP3    H171458   0.722   4.529  12.695 -0.8698 -1.7253  2.2110
16681TIP3    H271459   0.700   4.611  12.821  1.6186  0.7373  1.0899
16682TIP3   OH271460   1.787   6.224  11.999  0.1695  0.3119  0.3207
16682TIP3    H171461   1.751   6.291  11.942 -0.4911 -0.8350 -0.6305
16682TIP3    H271462   1.741   6.235  12.082 -0.9499  0.1283 -0.2756
16683TIP3   OH271463   4.516   2.132  16.660 -0.7338  0.3034 -0.3154
16683TIP3    H171464   4.438   2.082  16.639 -0.3665  0.1089 -1.2194
16683TIP3    H271465   4.570   2.128  16.581  0.0755  0.6461  0.2127
16684TIP3   OH271466   0.525   1.926   3.778  0.7056  0.7368  0.0472
16684TIP3    H171467   0.534   2.020   3.762  0.0211  1.1384  1.9224
16684TIP3    H271468   0.462   1.919   3.850 -0.7415 -1.2614 -1.3629
16685TIP3   OH271469   5.113   3.655   1.054  0.0787 -0.2640 -0.3790
16685TIP3    H171470   5.025   3.639   1.023  0.1248  1.6046 -1.5362
16685TIP3    H271471   5.157   3.699   0.982  0.7765  2.3682  1.5644
16686TIP3   OH271472   4.724   1.541   1.975  0.2215 -0.1056  0.2261
16686TIP3    H171473   4.795   1.570   1.918  0.7902  0.9745  1.4466
16686TIP3    H271474   4.755   1.561   2.063 -1.7935  0.8148  0.7535
16687TIP3   OH271475   3.187   3.351   1.804 -0.4244  0.7521  0.0519
16687TIP3    H171476   3.200   3.268   1.850  0.0174  0.9879  0.3583
16687TIP3    H271477   3.095   3.350   1.777 -0.4941  0.2912  0.3063
16688TIP3   OH271478   1.045   3.802   1.121  0.7787  0.2488 -0.3778
16688TIP3    H171479   1.048   3.785   1.027  0.2566 -2.0477 -0.0059
16688TIP3    H271480   1.137   3.804   1.147  0.9114  0.3730 -0.8500
16689TIP3   OH271481   0.961   3.819  10.799 -0.2809 -0.4828 -0.2418
16689TIP3    H171482   0.978   3.725  10.794  0.2615 -0.3609 -0.7620
16689TIP3    H271483   0.897   3.836  10.730 -0.1870 -0.4327 -0.3183
16690TIP3   OH271484   3.207   6.058   4.429  0.0936 -0.0561 -0.1013
16690TIP3    H171485   3.161   5.974   4.421 -0.6882  0.4400 -0.7378
16690TIP3    H271486   3.190   6.085   4.519 -3.7053  1.7759 -1.2924
16691TIP3   OH271487   2.652   4.275  13.298  0.1508 -0.2539  0.0328
16691TIP3    H171488   2.560   4.280  13.273  0.1941 -0.3546 -0.1459
16691TIP3    H271489   2.699   4.310  13.222  0.1505  1.7106  0.8897
16692TIP3   OH271490   4.217   6.020   4.366  0.6884 -0.6025 -0.4348
16692TIP3    H171491   4.224   5.961   4.441 -0.4907 -2.2311 -1.5620
16692TIP3    H271492   4.226   5.962   4.290  1.7912  1.0017 -1.5684
16693TIP3   OH271493   5.245   4.704  10.948 -0.1063 -0.6480 -0.1291
16693TIP3    H171494   5.268   4.795  10.968  0.7315 -1.3435  2.1362
16693TIP3    H271495   5.328   4.661  10.928 -0.3747 -1.1945 -0.0929
16694TIP3   OH271496   2.033   4.302   5.291  0.6039 -0.4061  0.0301
16694TIP3    H171497   2.062   4.382   5.335  0.5788 -0.2804 -0.1790
16694TIP3    H271498   1.956   4.274   5.340  0.8247 -0.4998  0.3230
16695TIP3   OH271499   0.151   3.288   1.621 -0.1655  0.0485  0.1593
16695TIP3    H171500   0.206   3.288   1.542  0.0249 -0.9982  0.2855
16695TIP3    H271501   0.062   3.297   1.588  0.0884  1.9180 -0.0403
16696TIP3   OH271502   0.228   5.855  16.163  0.5252  0.7469 -0.5845
16696TIP3    H171503   0.187   5.836  16.247  0.4657 -1.4643 -1.0585
16696TIP3    H271504   0.308   5.802  16.163  1.3509  1.9795 -1.2599
16697TIP3   OH271505   1.104   3.337   3.253  0.0592  0.4405 -0.1628
16697TIP3    H171506   1.097   3.327   3.348 -0.2910  0.0540 -0.2295
16697TIP3    H271507   1.159   3.265   3.225  0.0502  0.4742 -0.2680
16698TIP3   OH271508   2.210   3.964   5.365 -0.2273 -0.5022 -0.4032
16698TIP3    H171509   2.211   3.869   5.353  1.1404 -0.3907 -1.2182
16698TIP3    H271510   2.167   3.976   5.450 -0.6970 -1.8250 -0.4287
16699TIP3   OH271511   5.163   1.543  15.052 -0.0247 -0.3748  0.4079
16699TIP3    H171512   5.133   1.605  15.118  1.1022  1.8119 -1.0902
16699TIP3    H271513   5.225   1.593  14.998  0.2115 -2.5374 -1.3865
16700TIP3   OH271514   5.324   3.080   1.661 -0.2019 -0.5463 -0.2083
16700TIP3    H171515   5.353   3.160   1.705 -0.9828 -0.0669 -0.5654
16700TIP3    H271516   5.242   3.057   1.704  1.3239 -2.6272  1.6789
16701TIP3   OH271517   5.984   4.892   3.203  0.0908 -0.5813 -0.5647
16701TIP3    H171518   6.048   4.902   3.273  0.7272 -0.1868 -1.2044
16701TIP3    H271519   5.900   4.910   3.245  0.3779 -1.2145  0.3019
16702TIP3   OH271520   0.400   3.563  11.534  0.4025 -0.4823  0.4526
16702TIP3    H171521   0.383   3.493  11.472  0.3674 -0.8116  0.8334
16702TIP3    H271522   0.319   3.614  11.535  1.1418  0.7808 -1.3818
16703TIP3   OH271523   3.180   3.426  12.665  0.0027 -0.2879 -0.3592
16703TIP3    H171524   3.188   3.520  12.682 -0.9655 -0.0238 -1.2858
16703TIP3    H271525   3.091   3.415  12.631  0.5707 -1.3283 -1.5706
16704TIP3   OH271526   5.932   3.570   0.138  0.5171  0.6567 -0.3039
16704TIP3    H171527   5.928   3.560   0.042  0.4776 -1.4281 -0.1127
16704TIP3    H271528   5.862   3.631   0.158  0.5459  1.1491 -1.6186
16705TIP3   OH271529   5.192   5.171   1.906 -0.2110 -0.2826 -0.2807
16705TIP3    H171530   5.131   5.238   1.874  2.4258  2.0800 -0.5847
16705TIP3    H271531   5.187   5.178   2.001  0.2162  0.5089 -0.3127
16706TIP3   OH271532   5.667   4.432   0.331 -0.0495  0.0699 -0.7156
16706TIP3    H171533   5.622   4.514   0.311 -1.2396 -0.4137 -0.1006
16706TIP3    H271534   5.757   4.445   0.301 -1.0212  0.4245 -3.6154
16707TIP3   OH271535   3.133   1.742  12.793 -0.4077  0.0201 -0.4808
16707TIP3    H171536   3.148   1.761  12.701 -0.9155  2.6071 -0.0512
16707TIP3    H271537   3.206   1.784  12.839 -0.6246 -0.5073  0.3655
16708TIP3   OH271538   0.998   1.716   5.990 -0.2352  0.8380 -0.0088
16708TIP3    H171539   0.915   1.746   6.028  0.4967 -0.0745  2.4008
16708TIP3    H271540   0.973   1.647   5.929 -1.2944  0.9021  0.3475
16709TIP3   OH271541   3.034   3.942   3.878  0.1322 -0.3424  0.2326
16709TIP3    H171542   3.108   3.910   3.928 -0.1884  1.8805  2.1931
16709TIP3    H271543   2.957   3.915   3.928 -0.2320  0.9393  0.3706
16710TIP3   OH271544   2.255   3.192  11.974 -0.0459 -0.0772  0.0925
16710TIP3    H171545   2.314   3.188  11.899  0.9925  0.6641  0.8598
16710TIP3    H271546   2.263   3.106  12.016 -1.5536 -0.9441 -1.3084
16711TIP3   OH271547   2.232   1.957  16.738 -0.3293 -0.1863 -0.1260
16711TIP3    H171548   2.233   2.030  16.676 -1.5033  0.2027  0.2964
16711TIP3    H271549   2.139   1.937  16.750 -0.1037 -0.5438  1.1483
16712TIP3   OH271550   2.391   2.057   0.243 -0.1399  0.1260  0.3862
16712TIP3    H171551   2.405   2.003   0.165 -0.2405 -0.4351  0.7507
16712TIP3    H271552   2.296   2.067   0.248 -0.1056  0.5579  0.1715
16713TIP3   OH271553   4.085   0.118  14.652  0.1075 -0.4331  0.4299
16713TIP3    H171554   4.142   0.134  14.727  2.4761  1.5494 -1.6777
16713TIP3    H271555   3.997   0.139  14.683  1.1479  1.1642  2.4287
16714TIP3   OH271556   5.785   5.493  12.656  0.2360 -0.1346 -0.5745
16714TIP3    H171557   5.748   5.529  12.576 -1.7304 -0.5515  0.1122
16714TIP3    H271558   5.761   5.555  12.725  0.8253 -0.4213 -0.0958
16715TIP3   OH271559   0.255   0.695  12.669  0.1639 -0.5013  0.3380
16715TIP3    H171560   0.184   0.647  12.711 -0.0656  0.3148  0.9097
16715TIP3    H271561   0.252   0.668  12.577 -0.7074 -0.6881  0.4220
16716TIP3   OH271562   3.239   0.825   3.493  0.0208  0.0422 -0.2404
16716TIP3    H171563   3.193   0.897   3.450 -0.2790 -0.3493 -0.5821
16716TIP3    H271564   3.246   0.852   3.585 -0.5488  0.2762 -0.2661
16717TIP3   OH271565   5.439   1.419  16.988  0.7489 -0.8140 -0.4919
16717TIP3    H171566   5.524   1.399  17.027  0.1151  0.1196  1.4644
16717TIP3    H271567   5.459   1.476  16.914  1.9584 -2.2419 -1.2892
16718TIP3   OH271568   3.435   1.702  12.392 -0.3665  0.3940  0.2478
16718TIP3    H171569   3.495   1.747  12.451  0.3896  0.7239 -0.7561
16718TIP3    H271570   3.371   1.768  12.366 -0.9304  0.1497  0.9873
16719TIP3   OH271571   2.813   1.039   2.922  0.3000 -0.1639  0.2982
16719TIP3    H171572   2.902   1.003   2.932  0.6577  0.2283 -1.2218
16719TIP3    H271573   2.826   1.120   2.872 -0.8373  0.3009  0.7537
16720TIP3   OH271574   3.277   2.775  15.858  0.2550 -0.4368  0.5901
16720TIP3    H171575   3.288   2.823  15.940  0.3831 -0.0771  0.3648
16720TIP3    H271576   3.193   2.730  15.867  0.8703 -1.4367  1.4462
16721TIP3   OH271577   2.523   5.592   1.217  0.3204 -0.2272  0.3009
16721TIP3    H171578   2.544   5.526   1.283  0.9787  0.3425  0.6631
16721TIP3    H271579   2.434   5.570   1.189 -0.0235 -0.3708  1.4929
16722TIP3   OH271580   3.834   4.515  10.890  0.2166  0.0297  0.1437
16722TIP3    H171581   3.928   4.494  10.891  0.5021  1.2925  1.8274
16722TIP3    H271582   3.792   4.431  10.874  1.5485 -1.0440  1.9856
16723TIP3   OH271583   5.034   6.025  13.537 -0.3232 -0.5143  0.3353
16723TIP3    H171584   5.094   6.020  13.462 -0.6919 -3.6695  0.1781
16723TIP3    H271585   4.949   6.046  13.499 -0.0305  0.3600  0.1584
16724TIP3   OH271586   0.505   2.314  11.108  0.1464 -1.0788  0.1143
16724TIP3    H171587   0.559   2.382  11.069 -0.0915 -0.5151  0.7539
16724TIP3    H271588   0.465   2.269  11.034  0.9361 -1.0437 -0.3378
16725TIP3   OH271589   3.515   5.768  12.139  0.4916 -0.6391 -0.2278
16725TIP3    H171590   3.562   5.686  12.149  0.2151 -0.8492 -0.6279
16725TIP3    H271591   3.467   5.759  12.056  0.3836 -0.1168 -0.2277
16726TIP3   OH271592   0.343   4.372   0.941 -0.1606 -0.4030  0.3393
16726TIP3    H171593   0.354   4.466   0.957 -1.4810 -0.2507  0.3651
16726TIP3    H271594   0.386   4.330   1.015 -1.2761  0.2175  1.3448
16727TIP3   OH271595   0.145   5.319   6.783  0.1638  0.4367 -0.1569
16727TIP3    H171596   0.195   5.396   6.806  2.4776 -1.1093  0.1113
16727TIP3    H271597   0.210   5.253   6.760 -1.6153 -2.2696  2.2150
16728TIP3   OH271598   1.895   2.334   0.623  0.3022 -0.0674  0.1384
16728TIP3    H171599   1.838   2.265   0.658 -0.2476 -0.3890 -1.3221
16728TIP3    H271600   1.983   2.296   0.624 -0.0391 -0.9114 -0.9143
16729TIP3   OH271601   1.781   6.213  10.463  0.3738  0.2787  0.0359
16729TIP3    H171602   1.868   6.180  10.485 -0.0722 -1.2003 -0.3290
16729TIP3    H271603   1.785   6.307  10.480  3.2873  0.9468 -3.7887
16730TIP3   OH271604   1.480   4.771   3.068  0.0488 -0.4461  0.2947
16730TIP3    H171605   1.425   4.710   3.117 -2.9557 -0.0996 -2.4448
16730TIP3    H271606   1.457   4.857   3.104  0.8122 -0.5347  0.9917
16731TIP3   OH271607   2.978   3.153  16.923 -0.4310  0.3179  0.5889
16731TIP3    H171608   2.975   3.119  17.012  1.3887 -2.3728 -0.3299
16731TIP3    H271609   2.943   3.082  16.869 -0.2895  1.4117 -0.9907
16732TIP3   OH271610   5.210   0.509  12.923  0.5412  0.3830  0.0571
16732TIP3    H171611   5.275   0.565  12.882  1.9326 -1.5964 -0.4848
16732TIP3    H271612   5.138   0.505  12.859  0.2403  1.8466  0.2821
16733TIP3   OH271613   2.474   5.032   3.117 -0.0253  0.3576  0.2328
16733TIP3    H171614   2.402   4.973   3.092  0.8959 -0.2206 -1.1220
16733TIP3    H271615   2.498   5.004   3.205 -1.2961  0.4017  0.6119
16734TIP3   OH271616   4.345   3.646  13.774 -0.1382  0.5901  0.4014
16734TIP3    H171617   4.322   3.553  13.763  1.3850  0.3870 -1.5297
16734TIP3    H271618   4.298   3.674  13.852 -2.9988 -1.0279 -0.6838
16735TIP3   OH271619   1.835   2.047   3.718  0.7427  0.2233 -0.2884
16735TIP3    H171620   1.811   1.975   3.776  1.5368  1.6536  1.9101
16735TIP3    H271621   1.880   2.005   3.645  0.6655 -1.5641  0.6576
16736TIP3   OH271622   2.153   2.417   5.983  0.1861 -0.3173  0.3839
16736TIP3    H171623   2.202   2.364   5.920 -0.4391 -0.7868  0.2878
16736TIP3    H271624   2.171   2.376   6.067  0.7089  0.0773  0.4686
16737TIP3   OH271625   5.983   4.819  14.739  0.8846  0.3252 -0.2889
16737TIP3    H171626   6.000   4.788  14.651  2.6312  1.1108 -0.2354
16737TIP3    H271627   5.923   4.754  14.776  0.9966 -0.5783 -1.6668
16738TIP3   OH271628   2.730   2.458  11.632 -0.3665  0.2059 -0.0906
16738TIP3    H171629   2.720   2.550  11.606  1.9882  0.1593 -1.3360
16738TIP3    H271630   2.717   2.408  11.551  1.1797 -0.3325 -0.0351
16739TIP3   OH271631   0.798   1.595  16.112  0.2560 -0.9717  0.1543
16739TIP3    H171632   0.784   1.511  16.068 -0.3590 -0.0227 -1.5165
16739TIP3    H271633   0.718   1.645  16.095  1.7822  1.0110 -1.3814
16740TIP3   OH271634   4.370   5.953   6.743 -0.4136  0.2443 -0.1633
16740TIP3    H171635   4.356   5.947   6.649 -1.9532  0.7400  0.0330
16740TIP3    H271636   4.295   5.910   6.782  0.3572 -0.2110  0.8493
16741TIP3   OH271637   5.456   1.382   6.029  0.1681 -0.5249 -0.5033
16741TIP3    H171638   5.454   1.308   5.969  0.1423  0.4412 -1.7345
16741TIP3    H271639   5.517   1.444   5.989 -0.6579  0.5868 -0.0993
16742TIP3   OH271640   4.552   2.214  16.923  0.0335  0.3310  0.0643
16742TIP3    H171641   4.540   2.186  16.832  0.7693  2.3694 -0.6996
16742TIP3    H271642   4.629   2.166  16.953 -0.8842 -1.2164  0.0017
16743TIP3   OH271643   4.384   3.160  16.478 -0.3425 -0.1557 -0.1196
16743TIP3    H171644   4.448   3.132  16.412 -1.1491 -0.0309 -0.9605
16743TIP3    H271645   4.412   3.248  16.502 -1.0169  0.4809 -1.5677
16744TIP3   OH271646   0.270   3.970   1.382  0.2579 -0.1957 -0.0861
16744TIP3    H171647   0.190   4.022   1.375  1.0467  1.0205 -0.3268
16744TIP3    H271648   0.271   3.939   1.472 -0.2034  0.2634  0.0821
16745TIP3   OH271649   4.198   3.652   3.555 -0.4269 -0.1691  0.3377
16745TIP3    H171650   4.140   3.577   3.549 -1.2385  0.5168 -0.5370
16745TIP3    H271651   4.200   3.688   3.466  1.6965 -0.4488  0.2253
16746TIP3   OH271652   5.171   4.411  13.294 -0.0695  0.2074  0.4273
16746TIP3    H171653   5.165   4.489  13.349 -1.8749  0.4524 -0.0922
16746TIP3    H271654   5.189   4.340  13.356  1.5158  1.0060  0.9124
16747TIP3   OH271655   3.751   4.817  14.306 -0.0459  0.5064  0.4144
16747TIP3    H171656   3.718   4.729  14.325  0.0842  0.5772  0.9490
16747TIP3    H271657   3.694   4.876  14.356  0.0105  0.7142  0.2362
16748TIP3   OH271658   6.148   5.836  13.952 -0.3509  0.0385 -0.4862
16748TIP3    H171659   6.209   5.818  13.880 -1.1865 -0.9852 -0.9630
16748TIP3    H271660   6.116   5.750  13.978 -0.1423  0.4146  1.0570
16749TIP3   OH271661   3.030   4.800   3.804  0.3844  0.0452 -0.0454
16749TIP3    H171662   2.967   4.872   3.813 -0.1030 -0.3205 -0.4646
16749TIP3    H271663   3.114   4.838   3.829  0.1153  0.7335 -0.1737
16750TIP3   OH271664   2.629   2.161  15.977  0.0328  0.4307 -0.2550
16750TIP3    H171665   2.706   2.161  15.920 -0.1211 -1.1091 -0.4734
16750TIP3    H271666   2.608   2.069  15.989  0.8859  0.6303  3.3911
16751TIP3   OH271667   5.941   3.017   3.471  0.7636 -0.9377  0.0263
16751TIP3    H171668   6.022   3.064   3.453  0.5905  0.1741  1.8700
16751TIP3    H271669   5.948   2.993   3.564 -1.1156 -0.5609  0.2867
16752TIP3   OH271670   3.634   6.485   3.269  0.1163 -0.2352 -0.2306
16752TIP3    H171671   3.552   6.437   3.262  0.8898 -1.4383 -1.1582
16752TIP3    H271672   3.684   6.438   3.335 -0.0533  0.6780  0.5562
16753TIP3   OH271673   4.663   5.721  16.194  0.7248  0.2630  0.5304
16753TIP3    H171674   4.608   5.690  16.122  2.0628 -2.7431  0.7442
16753TIP3    H271675   4.605   5.775  16.247 -1.3103 -0.6946 -0.6701
16754TIP3   OH271676   1.776   5.974   0.757  0.0347  0.1630 -0.0702
16754TIP3    H171677   1.833   6.050   0.768  1.2965 -0.7962  0.1902
16754TIP3    H271678   1.836   5.902   0.737 -1.0466 -0.9771  0.6857
16755TIP3   OH271679   3.121   5.060   2.192 -0.2470 -0.6739 -0.6270
16755TIP3    H171680   3.054   4.996   2.169 -0.2108 -1.8014  2.1871
16755TIP3    H271681   3.191   5.045   2.129 -0.9119 -2.3252 -1.0032
16756TIP3   OH271682   2.605   1.372  13.793  0.1340  0.6454  0.3157
16756TIP3    H171683   2.561   1.342  13.714  1.7059 -2.5315  0.5986
16756TIP3    H271684   2.697   1.380  13.768  0.4633  0.7276  1.5202
16757TIP3   OH271685   0.448   5.717   4.401  0.2669 -0.6076  0.0182
16757TIP3    H171686   0.540   5.740   4.407 -0.2843  1.6645  0.2111
16757TIP3    H271687   0.401   5.800   4.411 -1.7779 -1.6116 -0.7934
16758TIP3   OH271688   4.291   6.015   3.286 -0.0980  0.5418  0.3930
16758TIP3    H171689   4.262   6.053   3.369 -0.8037 -0.2416  0.5196
16758TIP3    H271690   4.386   6.017   3.290 -0.1231 -0.0405  1.4949
16759TIP3   OH271691   0.347   3.616  11.813  0.4547  0.1527 -0.8162
16759TIP3    H171692   0.259   3.650  11.796  2.1154  4.2186 -1.9637
16759TIP3    H271693   0.385   3.606  11.726  0.5343 -3.3911 -0.4087
16760TIP3   OH271694   4.544   3.851   4.119  0.4499 -0.4621  0.0076
16760TIP3    H171695   4.567   3.867   4.027 -0.6775  0.3550 -0.1500
16760TIP3    H271696   4.501   3.932   4.147 -1.3251 -1.5568  0.5574
16761TIP3   OH271697   0.953   3.650   0.852 -0.3570 -0.2468 -0.1779
16761TIP3    H171698   0.984   3.605   0.931  0.2295  1.8754  0.8424
16761TIP3    H271699   0.955   3.582   0.784  0.3805 -1.7893  1.3256
16762TIP3   OH271700   1.711   4.274  15.163  0.3531 -0.2142 -0.2537
16762TIP3    H171701   1.667   4.295  15.245  0.6688  0.4515 -0.2430
16762TIP3    H271702   1.764   4.352  15.145 -0.5021  0.0547 -1.6191
16763TIP3   OH271703   2.737   0.874  11.720 -0.3319 -0.4675 -0.3581
16763TIP3    H171704   2.739   0.964  11.687  1.4651 -0.9312 -1.5488
16763TIP3    H271705   2.650   0.841  11.694 -0.4809  0.4814 -1.0934
16764TIP3   OH271706   6.320   2.398   0.844 -0.5815 -0.1612 -0.4502
16764TIP3    H171707   6.412   2.380   0.821 -1.0020 -1.2388 -1.3168
16764TIP3    H271708   6.297   2.328   0.904 -0.4271  0.9033  0.8678
16765TIP3   OH271709   3.360   1.132  11.335 -0.3084 -0.3997  0.2930
16765TIP3    H171710   3.374   1.192  11.408 -1.0817  1.3052 -0.9307
16765TIP3    H271711   3.441   1.135  11.285 -0.4322 -0.2034  0.1052
16766TIP3   OH271712   1.018   6.680   3.995 -0.4728  0.4583 -0.1171
16766TIP3    H171713   0.955   6.733   4.044 -0.8875  0.1696 -0.3438
16766TIP3    H271714   0.968   6.605   3.963  0.3264 -0.5841  1.0308
16767TIP3   OH271715   2.647   4.012  14.147  0.1791  0.2654 -0.2129
16767TIP3    H171716   2.599   4.049  14.073 -1.4886 -1.5443 -0.0760
16767TIP3    H271717   2.626   4.070  14.220  0.1468  0.8571 -0.6803
16768TIP3   OH271718   4.105   2.996  12.503 -0.0716 -0.0212 -0.1099
16768TIP3    H171719   4.154   3.064  12.550 -0.8290  0.1368  0.4552
16768TIP3    H271720   4.128   2.915  12.547  0.6323 -0.1140 -0.6223
16769TIP3   OH271721   5.457   2.656   3.081 -0.1787  0.2312 -0.2199
16769TIP3    H171722   5.530   2.629   3.025  0.1230 -1.3644  0.8874
16769TIP3    H271723   5.500   2.699   3.156 -0.4554  0.6366 -0.2970
16770TIP3   OH271724   2.938   6.488   3.998 -0.1977 -0.1724  0.6214
16770TIP3    H171725   2.852   6.531   3.999  0.3390  0.9899 -0.6482
16770TIP3    H271726   2.935   6.430   3.922  0.2607  0.1830  0.3215
16771TIP3   OH271727   6.181   3.095  13.267 -0.0205  0.3515  0.7335
16771TIP3    H171728   6.111   3.058  13.320  1.8714 -2.4705  1.4406
16771TIP3    H271729   6.150   3.088  13.177 -0.6726 -0.8750  1.0438
16772TIP3   OH271730   1.943   0.117   1.819  0.2119 -0.3346  0.5997
16772TIP3    H171731   1.934   0.079   1.732 -0.2865  0.4559  0.2944
16772TIP3    H271732   1.891   0.060   1.876 -0.8776  0.1214  0.0713
16773TIP3   OH271733   5.395   6.030  15.545 -0.5518 -0.3642 -0.0083
16773TIP3    H171734   5.450   6.053  15.619  0.2052  0.2694 -0.7627
16773TIP3    H271735   5.446   5.964  15.497 -1.1231 -0.9178  0.1358
16774TIP3   OH271736   4.417   4.360  12.913 -0.2559  0.5460  0.6222
16774TIP3    H171737   4.511   4.378  12.920  0.0478 -1.4551  2.2193
16774TIP3    H271738   4.393   4.394  12.827  2.3866 -0.7392 -0.7032
16775TIP3   OH271739   2.205   3.902   5.081 -0.0018  0.1688  0.0561
16775TIP3    H171740   2.161   3.850   5.014 -1.6934 -0.8578  1.9203
16775TIP3    H271741   2.276   3.845   5.112 -0.0788  0.0909  0.0907
16776TIP3   OH271742   2.160   1.390   2.039  0.4118 -0.3589  0.2003
16776TIP3    H171743   2.178   1.484   2.051  0.8872 -0.3648 -0.4300
16776TIP3    H271744   2.174   1.352   2.126 -3.0747  0.6453  1.2578
16777TIP3   OH271745   4.658   5.354   3.480  0.0654 -0.0707  0.1488
16777TIP3    H171746   4.586   5.295   3.460  1.3949 -1.9641  0.7376
16777TIP3    H271747   4.700   5.371   3.396  0.1866 -0.6788  0.0832
16778TIP3   OH271748   5.038   6.030   3.532  0.6265  0.2532  0.3780
16778TIP3    H171749   4.957   6.052   3.578  0.2797 -1.3090  0.5667
16778TIP3    H271750   5.063   6.110   3.487 -0.9101  0.8212  0.4984
16779TIP3   OH271751   6.742   1.988  14.678 -0.0476  0.3442  0.5784
16779TIP3    H171752   6.741   1.918  14.612  1.9317  1.1639 -0.3411
16779TIP3    H271753   6.776   1.947  14.757  0.0310 -0.0052  0.3626
16780TIP3   OH271754   4.657   3.136  13.247 -0.0530  0.3882 -0.7321
16780TIP3    H171755   4.697   3.181  13.172 -0.2576 -1.0654 -1.7340
16780TIP3    H271756   4.721   3.147  13.317  1.9307 -1.4530 -2.1683
16781TIP3   OH271757   2.970   5.036  16.291 -0.3326  0.0674 -0.1541
16781TIP3    H171758   2.932   4.994  16.368 -1.2408 -0.1749 -0.7176
16781TIP3    H271759   3.047   4.982  16.269 -1.7322 -1.6083 -1.1274
16782TIP3   OH271760   2.051   5.203  14.769 -0.0380 -0.0652  0.3577
16782TIP3    H171761   1.990   5.232  14.702 -0.1037 -0.7109  0.1333
16782TIP3    H271762   2.075   5.282  14.816  0.5829  0.5092 -0.8996
16783TIP3   OH271763   6.554   6.395  15.935  0.0232  0.3970  0.5139
16783TIP3    H171764   6.546   6.318  15.991 -0.7736  1.4247  1.8471
16783TIP3    H271765   6.643   6.390  15.900 -0.1345 -1.2979  0.3160
16784TIP3   OH271766   3.584   4.753   0.833 -0.4988  0.0796  0.1397
16784TIP3    H171767   3.616   4.814   0.900 -1.1001 -0.8369  1.2981
16784TIP3    H271768   3.646   4.680   0.834 -1.9304 -1.1821  1.6139
16785TIP3   OH271769   0.811   4.829  15.457 -0.1879 -0.0876 -0.1332
16785TIP3    H171770   0.834   4.865  15.543  1.5440  1.7110 -1.3013
16785TIP3    H271771   0.879   4.763  15.441 -0.0126  0.1759 -0.4788
16786TIP3   OH271772   5.165   1.479  13.211 -0.5785 -0.0570 -0.0902
16786TIP3    H171773   5.238   1.456  13.153 -1.1502 -0.5657 -0.6111
16786TIP3    H271774   5.090   1.431  13.176 -1.0503  0.0607  0.7507
16787TIP3   OH271775   4.430   0.648  10.886 -0.5420 -0.0832 -0.5059
16787TIP3    H171776   4.521   0.625  10.864 -0.5069 -0.3283 -0.1066
16787TIP3    H271777   4.382   0.632  10.805 -0.1647  0.4061 -0.8342
16788TIP3   OH271778   3.353   2.829   2.682  0.0106 -0.3498 -0.0293
16788TIP3    H171779   3.435   2.801   2.643 -0.6156 -0.1513 -1.5095
16788TIP3    H271780   3.305   2.748   2.699 -0.1301 -0.3812 -0.5864
16789TIP3   OH271781   3.488   6.329   2.453  0.3018 -0.1707  0.1305
16789TIP3    H171782   3.458   6.415   2.482  1.0734 -0.4436  1.8042
16789TIP3    H271783   3.537   6.346   2.373  1.1970  1.0859  0.9240
16790TIP3   OH271784   1.561   4.094  15.033 -0.3232  0.3969  0.3644
16790TIP3    H171785   1.618   4.154  15.082  0.6181  0.7187 -1.1123
16790TIP3    H271786   1.537   4.142  14.954 -2.9358  0.3903  1.1068
16791TIP3   OH271787   0.476   2.416  10.617 -0.4459  0.4260  0.1093
16791TIP3    H171788   0.504   2.408  10.526 -0.3038  0.0251  0.1897
16791TIP3    H271789   0.399   2.360  10.624 -0.4989  0.5116  0.2202
16792TIP3   OH271790   5.257   6.395   1.798 -0.3922  0.2623  0.9620
16792TIP3    H171791   5.287   6.344   1.723 -2.5989  0.9993 -0.4556
16792TIP3    H271792   5.170   6.360   1.817 -0.0315  0.3703  2.9306
16793TIP3   OH271793   6.602   3.998   2.957 -0.6149 -0.1668 -0.1671
16793TIP3    H171794   6.670   3.930   2.956  0.0180  0.4567  0.0288
16793TIP3    H271795   6.523   3.952   2.985  0.2395 -0.4491  1.9191
16794TIP3   OH271796   0.499   3.439  12.251  1.0946  0.0284 -0.8006
16794TIP3    H171797   0.511   3.450  12.156 -0.8395 -1.1241 -1.1983
16794TIP3    H271798   0.405   3.425  12.262  1.4328 -0.8321  1.1899
16795TIP3   OH271799   6.058   3.415   4.494 -0.1725  0.1020 -0.2893
16795TIP3    H171800   6.096   3.503   4.495 -2.2127  0.9975 -0.5285
16795TIP3    H271801   6.106   3.370   4.424  1.1005  0.9035  0.0347
16796TIP3   OH271802   2.393   5.913  14.762  0.6556 -0.1570 -0.4908
16796TIP3    H171803   2.405   5.985  14.824 -0.4273  0.2979 -0.8020
16796TIP3    H271804   2.309   5.931  14.721  1.6702 -0.0576 -2.5965
16797TIP3   OH271805   3.795   6.086  11.593  0.7236 -0.1126 -0.2677
16797TIP3    H171806   3.771   6.123  11.678  0.2596  0.7121 -0.7547
16797TIP3    H271807   3.818   5.995  11.612  1.3349  0.2726  0.8555
16798TIP3   OH271808   6.581   6.023   3.898  0.4130  0.4040  0.0280
16798TIP3    H171809   6.662   5.986   3.934  0.5323  1.1904  0.5907
16798TIP3    H271810   6.573   5.985   3.811  1.3747  0.3056 -0.0156
16799TIP3   OH271811   4.650   2.106  14.855 -0.0166  0.4836 -0.5650
16799TIP3    H171812   4.712   2.093  14.927 -0.3373  0.3417 -0.3124
16799TIP3    H271813   4.577   2.155  14.895  0.5640  1.8899 -1.1741
16800TIP3   OH271814   2.880   2.458   0.094 -0.2022  0.0858  0.1230
16800TIP3    H171815   2.847   2.454   0.184 -1.0953  0.8207 -0.1540
16800TIP3    H271816   2.853   2.545   0.063 -0.6150 -0.4675 -1.1111
16801TIP3   OH271817   3.211   0.492  13.566  0.2326  0.8098  0.2557
16801TIP3    H171818   3.195   0.586  13.557  1.2182  0.8737 -0.9357
16801TIP3    H271819   3.303   0.486  13.590  0.2404  0.1350  0.0638
16802TIP3   OH271820   6.033   0.885  15.356 -0.1506  0.5221 -0.2852
16802TIP3    H171821   5.963   0.937  15.395 -0.7971  0.4490 -1.3430
16802TIP3    H271822   6.033   0.803  15.406 -1.0708  0.3739 -0.5247
16803TIP3   OH271823   1.694   2.654  11.676 -0.3588 -0.3613 -0.3385
16803TIP3    H171824   1.732   2.609  11.752 -1.8269 -1.7489 -0.3846
16803TIP3    H271825   1.697   2.589  11.606 -0.0192  0.5435 -1.1663
16804TIP3   OH271826   3.596   1.220   0.516  0.5945  0.3896 -0.6032
16804TIP3    H171827   3.589   1.266   0.432  0.2572  1.9237  0.2630
16804TIP3    H271828   3.571   1.130   0.495  2.0693  0.3916 -2.4782
16805TIP3   OH271829   5.829   0.588  14.441  0.7813 -0.0454  0.0064
16805TIP3    H171830   5.877   0.670  14.431  1.4630 -0.2750  1.3464
16805TIP3    H271831   5.773   0.584  14.363  1.4189  1.2265 -0.5372
16806TIP3   OH271832   5.042   1.835  16.141 -0.1203  0.0382 -0.1837
16806TIP3    H171833   5.094   1.755  16.133  0.1117  0.1899 -0.1948
16806TIP3    H271834   5.052   1.879  16.057 -1.4601 -0.6476 -0.7119
16807TIP3   OH271835   3.405   3.030   4.236  0.2528  0.2881 -0.4656
16807TIP3    H171836   3.405   3.026   4.331 -2.1267 -0.2556 -0.4679
16807TIP3    H271837   3.317   3.061   4.213  0.1179 -1.5397 -2.5431
16808TIP3   OH271838   1.438   5.130  12.914  0.0688  0.5496 -0.2823
16808TIP3    H171839   1.444   5.131  12.819  0.5558  1.8977 -0.2402
16808TIP3    H271840   1.524   5.099  12.944  1.1464  3.4734 -0.1973
16809TIP3   OH271841   0.052   2.545   2.343 -0.0771  0.4221 -0.0336
16809TIP3    H171842   0.027   2.460   2.306 -2.7179  1.1077  0.1072
16809TIP3    H271843   0.053   2.604   2.267 -1.4803  0.9467  0.3365
16810TIP3   OH271844   2.026   2.244  17.229  0.1874  0.0179 -0.0418
16810TIP3    H171845   1.955   2.304  17.210 -1.3344 -1.1012  1.9557
16810TIP3    H271846   2.011   2.170  17.170  0.9077  0.6920 -1.0825
16811TIP3   OH271847   0.961   6.581   0.227  0.1228 -0.3595 -0.2700
16811TIP3    H171848   0.926   6.635   0.156 -0.6274  0.2600  0.5551
16811TIP3    H271849   1.040   6.628   0.255  0.4337 -0.6180 -0.7062
16812TIP3   OH271850   2.658   5.478  14.733  0.3399 -0.3797  0.2715
16812TIP3    H171851   2.678   5.515  14.647  0.6434 -1.4725 -0.1381
16812TIP3    H271852   2.732   5.505  14.788  0.1115  0.3756  0.2075
16813TIP3   OH271853   0.992   1.212  10.901 -0.1958 -0.2334  0.6914
16813TIP3    H171854   0.948   1.282  10.852 -0.5523 -1.1837 -0.3488
16813TIP3    H271855   1.001   1.248  10.989 -1.1759  0.7918  0.3922
16814TIP3   OH271856   1.874   5.355  15.679  0.6663  0.0112 -0.5695
16814TIP3    H171857   1.941   5.326  15.617  0.5028 -1.5353 -0.0252
16814TIP3    H271858   1.803   5.291  15.670  0.2686  0.2864  0.5819
16815TIP3   OH271859   4.666   5.495   0.854 -0.1446  0.0013 -0.0469
16815TIP3    H171860   4.599   5.495   0.923  1.3271  1.5327  1.4322
16815TIP3    H271861   4.727   5.564   0.880  1.6084 -0.8518 -1.7662
16816TIP3   OH271862   4.546   2.578  11.488  0.0597  0.0535  0.4891
16816TIP3    H171863   4.479   2.642  11.467 -1.7616 -1.7020  0.7200
16816TIP3    H271864   4.627   2.628  11.494 -1.7538  2.7951  3.5778
16817TIP3   OH271865   3.360   2.104   5.891  0.3627  0.4237 -0.1821
16817TIP3    H171866   3.302   2.042   5.848  2.6469 -3.2351  1.7619
16817TIP3    H271867   3.329   2.108   5.982  1.6737  0.2781  0.2859
16818TIP3   OH271868   0.112   5.334  14.468  0.3650  0.5688  0.3398
16818TIP3    H171869   0.186   5.383  14.432 -0.0749  0.8828 -0.1376
16818TIP3    H271870   0.135   5.242  14.453  0.4433  0.6786 -0.2301
16819TIP3   OH271871   5.959   3.813   2.165 -0.2526  0.3231 -0.2152
16819TIP3    H171872   5.985   3.899   2.131  0.0705  0.1373 -0.4302
16819TIP3    H271873   5.937   3.762   2.087 -1.8729  0.6744 -0.0167
16820TIP3   OH271874   5.044   1.117   4.523  0.1202  0.3659 -0.4466
16820TIP3    H171875   5.056   1.022   4.529  1.6656  0.6839  2.5247
16820TIP3    H271876   5.118   1.148   4.471 -0.0888 -0.0139 -0.9654
16821TIP3   OH271877   3.622   4.484  15.005 -0.2708 -0.2155  0.2271
16821TIP3    H171878   3.627   4.551  14.936  0.1412 -1.0356 -0.5477
16821TIP3    H271879   3.641   4.531  15.086 -0.6699  0.7430 -0.2264
16822TIP3   OH271880   3.191   0.039   0.036  0.1452  1.0260 -0.1365
16822TIP3    H171881   3.103   0.045   0.072  0.0072 -0.5277 -0.1913
16822TIP3    H271882   3.248   0.063   0.109 -0.3253  2.4709 -0.2226
16823TIP3   OH271883   3.073   0.150  12.069  0.2869 -0.4118 -0.2729
16823TIP3    H171884   3.134   0.204  12.020  0.3375 -0.3396 -0.1325
16823TIP3    H271885   3.128   0.102  12.131  0.4409 -1.8710 -1.5056
16824TIP3   OH271886   1.660   2.017  13.922  0.4870 -0.0258  0.4357
16824TIP3    H171887   1.632   2.033  13.832  0.2658  1.2532  0.7246
16824TIP3    H271888   1.752   1.990  13.914  0.5289  0.2906 -0.1582
16825TIP3   OH271889   0.852   6.283   4.129 -0.1088  0.1507 -0.0730
16825TIP3    H171890   0.844   6.353   4.065 -0.6738  0.5228  0.4093
16825TIP3    H271891   0.763   6.266   4.159  0.0015 -0.8705 -0.2903
16826TIP3   OH271892   6.302   0.105   0.992 -0.3900  0.0301  0.5087
16826TIP3    H171893   6.244   0.028   0.987  0.4885 -0.7707  2.1484
16826TIP3    H271894   6.292   0.136   1.082 -0.2009  1.4371  0.0513
16827TIP3   OH271895   4.720   4.298   2.124 -0.3251 -0.1241  0.3868
16827TIP3    H171896   4.684   4.387   2.128 -2.2024 -0.9203  2.1397
16827TIP3    H271897   4.643   4.241   2.126  0.8746 -1.8098 -0.3605
16828TIP3   OH271898   4.757   5.732   6.279  0.0754  0.3574 -0.1326
16828TIP3    H171899   4.805   5.798   6.229 -0.4055  1.3526  0.7087
16828TIP3    H271900   4.667   5.763   6.280 -0.4982 -1.2355 -1.2456
16829TIP3   OH271901   2.815   6.184  16.875  0.0993 -0.3749 -0.0367
16829TIP3    H171902   2.749   6.216  16.936 -0.4529  0.0188 -0.8405
16829TIP3    H271903   2.823   6.091  16.896 -2.4795 -0.9926 -1.5215
16830TIP3   OH271904   2.833   4.737  13.904 -0.9328  0.3292 -0.7007
16830TIP3    H171905   2.818   4.655  13.856  1.6898 -0.3409 -0.5012
16830TIP3    H271906   2.840   4.804  13.836  0.3844 -0.2195 -1.1260
16831TIP3   OH271907   6.709   2.949   4.968  0.2514  0.7545  0.7628
16831TIP3    H171908   6.727   2.867   4.923  0.0613  1.3203 -0.3758
16831TIP3    H271909   6.795   2.989   4.981  0.1540  1.7190 -1.3182
16832TIP3   OH271910   3.830   6.377  15.207  0.0013 -0.3223 -0.0090
16832TIP3    H171911   3.897   6.399  15.142 -0.9788 -2.5841 -1.8091
16832TIP3    H271912   3.873   6.313  15.264 -0.5556 -1.7108 -1.1147
16833TIP3   OH271913   6.669   4.445  12.189 -0.2218  0.0317 -0.3472
16833TIP3    H171914   6.577   4.419  12.178 -0.3247  0.0827  0.3665
16833TIP3    H271915   6.681   4.516  12.126 -0.3153 -0.8148 -1.3541
16834TIP3   OH271916   3.710   0.925  14.619 -0.2922  0.1638 -0.4079
16834TIP3    H171917   3.752   0.998  14.573  0.3245  0.4531  0.5929
16834TIP3    H271918   3.779   0.891  14.676 -1.1597  0.0539  0.5795
16835TIP3   OH271919   3.819   5.184   3.757  0.1649  0.5318 -0.3235
16835TIP3    H171920   3.856   5.134   3.684 -1.7573 -1.9819  0.3687
16835TIP3    H271921   3.737   5.219   3.723  0.3042  1.1604 -0.0226
16836TIP3   OH271922   0.468   2.707  13.460  0.5730 -0.2162  0.3898
16836TIP3    H171923   0.470   2.641  13.529 -1.9636 -0.8410 -0.0906
16836TIP3    H271924   0.403   2.771  13.489  3.2080  2.3052  0.9993
16837TIP3   OH271925   2.918   4.207   2.172  0.1347 -0.5543  0.2465
16837TIP3    H171926   2.847   4.230   2.112  0.3084 -0.6622 -0.0015
16837TIP3    H271927   2.998   4.229   2.123  0.2826 -1.0240  0.2825
16838TIP3   OH271928   4.123   5.648  12.365 -0.2477 -0.3582 -0.1554
16838TIP3    H171929   4.122   5.553  12.357 -3.5158 -0.3420 -0.3764
16838TIP3    H271930   4.061   5.667  12.436  0.4983  1.5980  0.0037
16839TIP3   OH271931   4.456   3.266   3.622  0.2928 -0.0857  0.2313
16839TIP3    H171932   4.453   3.291   3.530 -2.1272 -0.9451  0.0494
16839TIP3    H271933   4.546   3.239   3.636  1.0341  1.3361 -1.5258
16840TIP3   OH271934   6.671   2.857   2.106  0.1465  0.3118 -0.1865
16840TIP3    H171935   6.607   2.899   2.164 -0.6875  1.9782 -2.2668
16840TIP3    H271936   6.628   2.777   2.076 -0.0880  0.3229  0.1159
16841TIP3   OH271937   0.556   5.452  13.300  0.2297 -0.8085 -0.4497
16841TIP3    H171938   0.535   5.541  13.271 -0.7047 -0.6346  0.7405
16841TIP3    H271939   0.578   5.405  13.219  0.3464  0.3944 -1.1228
16842TIP3   OH271940   0.155   2.083   2.832 -0.8987  0.5855  0.3525
16842TIP3    H171941   0.082   2.099   2.892 -1.2232 -1.3367  0.5297
16842TIP3    H271942   0.226   2.051   2.889 -1.4646 -2.0162 -0.3121
16843TIP3   OH271943   2.759   4.944  16.496 -0.3547  0.0694  0.6359
16843TIP3    H171944   2.725   4.923  16.409  1.3054 -0.7266  0.1602
16843TIP3    H271945   2.754   5.039  16.501  2.2531  0.3810 -1.5049
16844TIP3   OH271946   1.172   5.258  14.346 -0.3753  0.0230  0.5212
16844TIP3    H171947   1.219   5.298  14.272 -0.1034 -0.7265  0.2829
16844TIP3    H271948   1.146   5.172  14.314  0.3421 -0.5771  1.5450
16845TIP3   OH271949   1.633   3.535   4.079 -0.6201 -0.0422 -0.8345
16845TIP3    H171950   1.713   3.584   4.060  0.1662 -0.0922  2.0210
16845TIP3    H271951   1.648   3.448   4.043  0.6644 -0.0727 -0.2341
16846TIP3   OH271952   6.238   6.183  12.297 -0.2469 -0.2694 -0.0806
16846TIP3    H171953   6.193   6.242  12.357 -0.1647 -0.4094  0.1205
16846TIP3    H271954   6.168   6.147  12.242 -0.3413 -0.2485  0.0248
16847TIP3   OH271955   0.904   4.391  13.159 -0.0893 -0.1450  0.2912
16847TIP3    H171956   0.850   4.406  13.082 -0.1275 -1.1439  0.1161
16847TIP3    H271957   0.895   4.297  13.177 -1.5122  0.3990  2.5854
16848TIP3   OH271958   5.395   1.128   0.246 -0.6050  0.2876  0.1560
16848TIP3    H171959   5.364   1.213   0.215  1.1891  0.5025 -1.1112
16848TIP3    H271960   5.460   1.148   0.314  1.2210  0.0157 -1.4603
16849TIP3   OH271961   0.011   3.390   4.945 -0.2466  0.0756 -0.0207
16849TIP3    H171962   0.003   3.312   5.001  1.0099  0.3883  0.5994
16849TIP3    H271963   0.047   3.457   5.003  0.3203  0.6239 -1.0052
16850TIP3   OH271964   1.481   3.482  12.993  0.0860 -0.2878 -0.1051
16850TIP3    H171965   1.393   3.445  12.979 -0.5636  0.8314  0.9479
16850TIP3    H271966   1.507   3.514  12.906 -0.7780 -0.1408 -0.3190
16851TIP3   OH271967   2.036   3.450  10.810  0.2409  0.5167 -0.9143
16851TIP3    H171968   1.990   3.482  10.732  0.3313  1.9803 -0.3887
16851TIP3    H271969   1.975   3.388  10.849 -1.2423  2.2403 -0.3718
16852TIP3   OH271970   0.340   3.675  15.033 -0.1677  0.0732 -0.1407
16852TIP3    H171971   0.300   3.725  14.962 -1.2022  0.6401  0.8327
16852TIP3    H271972   0.292   3.592  15.033 -0.6953  0.3761  0.3965
16853TIP3   OH271973   0.613   4.759   6.187 -0.3096 -0.3899 -0.2310
16853TIP3    H171974   0.650   4.675   6.214 -0.0395 -0.3981 -0.6290
16853TIP3    H271975   0.688   4.819   6.185 -0.7213  0.1996  1.4046
16854TIP3   OH271976   3.999   4.776  12.422  0.1063 -0.1049  0.3776
16854TIP3    H171977   3.992   4.827  12.341 -0.8470 -0.3155  0.3315
16854TIP3    H271978   4.051   4.699  12.397 -0.0227 -0.0749  0.0117
16855TIP3   OH271979   5.358   1.082  15.738  0.2221  0.4565 -0.1516
16855TIP3    H171980   5.320   1.095  15.650 -0.4410 -0.3013  0.0181
16855TIP3    H271981   5.407   1.162  15.754 -0.9404  1.2807 -0.5733
16856TIP3   OH271982   0.266   4.592   2.942 -0.3537  0.1118  0.1910
16856TIP3    H171983   0.328   4.566   2.874  0.3158  0.5053  0.6400
16856TIP3    H271984   0.180   4.576   2.904  0.0072  0.5588 -0.8429
16857TIP3   OH271985   4.443   3.552   2.109 -0.0550 -0.2883  0.4864
16857TIP3    H171986   4.490   3.471   2.127  0.2680  0.2357  2.1759
16857TIP3    H271987   4.361   3.525   2.069  1.5370 -1.2422 -2.2560
16858TIP3   OH271988   3.162   1.371  14.814 -0.1186  0.2000 -0.3689
16858TIP3    H171989   3.124   1.429  14.748  0.2383  1.2417  0.3225
16858TIP3    H271990   3.256   1.382  14.804 -0.0531 -0.2288 -0.2061
16859TIP3   OH271991   3.329   0.686   1.527 -0.3818  0.8773  0.2745
16859TIP3    H171992   3.346   0.615   1.588 -2.5292  1.9088  2.1195
16859TIP3    H271993   3.415   0.724   1.510  0.3139  0.2367  2.2521
16860TIP3   OH271994   2.071   0.187   2.763  0.6427 -0.8053  0.0564
16860TIP3    H171995   2.092   0.129   2.836  3.7079  1.0591  0.7498
16860TIP3    H271996   2.105   0.273   2.790 -4.3048  1.5213 -0.6691
16861TIP3   OH271997   1.011   0.860   0.452 -0.4422  0.1076  0.2163
16861TIP3    H171998   0.933   0.835   0.502 -0.3164 -0.9391 -0.1116
16861TIP3    H271999   0.982   0.934   0.398 -1.2415 -0.3811 -0.0201
16862TIP3   OH272000   2.072   1.362  16.836 -0.2455  0.0669 -0.4032
16862TIP3    H172001   1.992   1.414  16.831 -0.0919  0.2859 -0.5932
16862TIP3    H272002   2.083   1.344  16.929 -1.3908 -1.3419 -0.5144
16863TIP3   OH272003   6.733   4.005  12.527  0.3522 -0.0488  0.2792
16863TIP3    H172004   6.728   3.941  12.598  1.1066 -1.4835 -0.9242
16863TIP3    H272005   6.700   4.086  12.565 -4.7180 -2.1241  0.6114
16864TIP3   OH272006   0.946   5.844   2.414  0.4969  0.2072 -0.1958
16864TIP3    H172007   0.913   5.787   2.484  0.6404  0.2674 -0.0794
16864TIP3    H272008   0.887   5.828   2.341 -0.7885  1.5541  0.5352
16865TIP3   OH272009   3.506   0.761  11.661  0.4976  0.6905 -0.2966
16865TIP3    H172010   3.490   0.803  11.746 -0.2538  0.1848 -0.1825
16865TIP3    H272011   3.449   0.683  11.662 -1.5264  2.0794 -2.3435
16866TIP3   OH272012   6.140   3.655  15.613 -0.0553 -0.3939  1.1678
16866TIP3    H172013   6.097   3.702  15.685 -0.2180 -1.0324  1.4874
16866TIP3    H272014   6.203   3.718  15.578 -0.5955  0.2262  1.2985
16867TIP3   OH272015   0.720   0.458  11.609  0.3725 -0.5440 -0.2054
16867TIP3    H172016   0.694   0.391  11.672 -0.6748 -1.1450 -1.2403
16867TIP3    H272017   0.646   0.519  11.606  0.9414  0.1645  0.0654
16868TIP3   OH272018   1.017   3.428  14.408  0.2528  0.0868 -0.1349
16868TIP3    H172019   0.962   3.451  14.333 -1.3305 -0.9827  0.6657
16868TIP3    H272020   0.961   3.373  14.463  2.1564 -1.1466  0.6498
16869TIP3   OH272021   1.978   2.486  11.465 -0.2123 -0.5582 -0.5546
16869TIP3    H172022   2.038   2.472  11.538  1.1645  1.7439 -1.2096
16869TIP3    H272023   1.980   2.404  11.415  1.5026 -0.8970  0.0597
16870TIP3   OH272024   6.345   0.446   0.557  0.1199  0.7131 -0.0682
16870TIP3    H172025   6.285   0.470   0.486 -0.3230  0.9744  0.3938
16870TIP3    H272026   6.372   0.357   0.536  0.4524  0.9914 -0.8830
16871TIP3   OH272027   3.136   5.894   0.813  0.2031  0.3431 -0.0740
16871TIP3    H172028   3.105   5.985   0.803 -2.4626 -0.6181 -1.1994
16871TIP3    H272029   3.133   5.859   0.724  0.3665 -1.1005  0.4880
16872TIP3   OH272030   0.258   0.350  14.818  0.4751  0.4795  0.2222
16872TIP3    H172031   0.318   0.424  14.807  2.1146 -1.0977 -1.8579
16872TIP3    H272032   0.178   0.377  14.774  1.9081  0.0931 -2.7183
16873TIP3   OH272033   1.647   2.982  16.373 -0.9058 -1.1825  0.2989
16873TIP3    H172034   1.661   2.889  16.355 -3.0593 -1.1172 -1.9861
16873TIP3    H272035   1.573   3.006  16.317  0.8215  2.3622 -0.5768
16874TIP3   OH272036   0.481   3.215   1.080 -0.1571 -0.3412 -0.6697
16874TIP3    H172037   0.530   3.268   1.017  2.1533 -1.8133 -0.1778
16874TIP3    H272038   0.519   3.237   1.165  0.7212 -2.5638 -0.4351
16875TIP3   OH272039   0.490   1.027  16.848  0.1033  0.7427 -0.1820
16875TIP3    H172040   0.468   0.976  16.926  0.8469 -1.3950 -1.3363
16875TIP3    H272041   0.578   1.061  16.864  0.7490 -0.7077 -0.5713
16876TIP3   OH272042   3.640   4.995  14.651 -0.4215  0.2616 -0.4025
16876TIP3    H172043   3.571   5.000  14.717  1.1391 -1.1465  1.3572
16876TIP3    H272044   3.600   4.946  14.579 -1.0015 -1.2264  0.9214
16877TIP3   OH272045   2.486   1.265  13.579  0.4187  0.0709  0.2993
16877TIP3    H172046   2.409   1.302  13.536  0.0764 -0.7960  0.1557
16877TIP3    H272047   2.540   1.232  13.508  1.7249  2.1558  0.2834
16878TIP3   OH272048   5.196   0.378  11.551 -0.5530 -0.2433  0.0784
16878TIP3    H172049   5.239   0.366  11.466 -2.1734  1.1466 -0.9754
16878TIP3    H272050   5.267   0.398  11.612  0.4803  0.1848 -1.2490
16879TIP3   OH272051   0.887   4.203   3.863 -0.5007  0.1750  0.0150
16879TIP3    H172052   0.795   4.188   3.841 -0.4537  1.2397 -0.9171
16879TIP3    H272053   0.902   4.295   3.844  1.0782 -0.2580 -0.9608
16880TIP3   OH272054   4.231   3.037   2.748  0.2037 -0.0806  0.2779
16880TIP3    H172055   4.225   2.942   2.763  1.4711 -0.1788  0.1788
16880TIP3    H272056   4.314   3.049   2.703 -0.2679  1.0142 -0.3196
16881TIP3   OH272057   2.654   0.835  14.214  0.1207 -0.3673 -0.1487
16881TIP3    H172058   2.665   0.742  14.192 -0.3972 -0.6133  0.6311
16881TIP3    H272059   2.722   0.852  14.279  1.1167  0.1576 -1.2990
16882TIP3   OH272060   1.618   4.091  16.703  0.0415  0.3225  0.1616
16882TIP3    H172061   1.708   4.064  16.725 -0.6516 -1.1427  1.2947
16882TIP3    H272062   1.615   4.088  16.607  0.5099 -1.9850  0.1896
16883TIP3   OH272063   6.670   6.678   0.779  0.1654  0.3764 -0.2606
16883TIP3    H172064   6.748   6.727   0.755  1.1876 -0.7708  0.6668
16883TIP3    H272065   6.665   6.608   0.713  0.2809  0.0736  0.0490
16884TIP3   OH272066   0.244   4.001   4.344  0.5268  0.0338  0.1604
16884TIP3    H172067   0.251   3.998   4.440  0.6983 -2.7858  0.0915
16884TIP3    H272068   0.327   3.965   4.313 -0.8214 -2.1370 -1.0050
16885TIP3   OH272069   1.404   2.678  15.473 -1.1896  0.5233 -1.1718
16885TIP3    H172070   1.415   2.674  15.568 -2.0868 -0.7213 -1.1006
16885TIP3    H272071   1.321   2.722  15.459 -1.9873 -0.9656 -1.2959
16886TIP3   OH272072   1.476   3.943  12.331  0.4222  0.3544 -0.4769
16886TIP3    H172073   1.418   3.867  12.323 -1.9125  2.1484 -0.7932
16886TIP3    H272074   1.527   3.942  12.250  0.2650 -0.7407 -0.5755
16887TIP3   OH272075   4.648   1.700  16.907 -0.5569  0.3097  0.3486
16887TIP3    H172076   4.736   1.735  16.893  0.0754 -1.5097 -0.2912
16887TIP3    H272077   4.647   1.675  16.999 -0.1009 -0.4935  0.1370
16888TIP3   OH272078   3.788   2.831   5.728 -0.1887 -0.0103  0.4345
16888TIP3    H172079   3.726   2.808   5.798 -1.3392 -0.2380 -0.6443
16888TIP3    H272080   3.788   2.755   5.670  1.8276 -0.3978  0.9220
16889TIP3   OH272081   3.576   1.589   2.309  0.5001 -0.6195 -0.5052
16889TIP3    H172082   3.613   1.594   2.397 -1.5632 -2.3717  0.4860
16889TIP3    H272083   3.524   1.509   2.309 -0.2026 -0.2060 -3.0720
16890TIP3   OH272084   0.935   0.717   1.252 -0.0501 -0.2664  0.5032
16890TIP3    H172085   0.878   0.737   1.178  0.5979  0.7745  0.2847
16890TIP3    H272086   0.986   0.797   1.266 -0.0241 -0.5256  1.9394
16891TIP3   OH272087   4.490   0.876   2.535  0.3581 -0.3101 -0.1042
16891TIP3    H172088   4.423   0.943   2.549  0.6028 -0.0635 -0.1058
16891TIP3    H272089   4.490   0.824   2.615 -0.1060 -0.5515 -0.2595
16892TIP3   OH272090   5.767   2.472  15.166  0.5078 -0.1062  0.3914
16892TIP3    H172091   5.723   2.409  15.223  0.6333  1.5579  2.3796
16892TIP3    H272092   5.696   2.522  15.126  0.4683 -0.3114  0.2034
16893TIP3   OH272093   4.586   4.648  11.872 -0.1673  0.2298  0.0392
16893TIP3    H172094   4.556   4.683  11.788  0.2029  0.1100 -0.1509
16893TIP3    H272095   4.616   4.724  11.921  0.4877  0.2063 -0.3091
16894TIP3   OH272096   5.818   4.203  13.987 -0.2179  0.4335 -0.5731
16894TIP3    H172097   5.773   4.163  14.061  0.3815  0.0166 -0.4248
16894TIP3    H272098   5.804   4.142  13.915 -0.9630  0.9345 -0.8574
16895TIP3   OH272099   4.388   5.279   0.102  0.2873 -0.2863 -0.3900
16895TIP3    H172100   4.395   5.184   0.104 -1.8966 -0.4721  0.7652
16895TIP3    H272101   4.296   5.296   0.081  0.0196  1.5190  1.9303
16896TIP3   OH272102   1.964   5.002  11.292 -0.2193  0.1201 -0.4409
16896TIP3    H172103   1.975   4.911  11.265  0.2349 -0.3718  1.3601
16896TIP3    H272104   2.026   5.051  11.238  0.9956 -0.8942  0.0298
16897TIP3   OH272105   6.249   4.532   5.476 -0.0048  0.6376 -1.0252
16897TIP3    H172106   6.232   4.459   5.416 -0.6722  0.1768 -0.2792
16897TIP3    H272107   6.229   4.611   5.424  0.1889  0.2747 -1.6560
16898TIP3   OH272108   6.297   1.324   5.027  0.1394  0.2101 -0.2749
16898TIP3    H172109   6.285   1.386   4.955 -0.0373 -1.1334 -1.4238
16898TIP3    H272110   6.388   1.336   5.054  0.5960 -0.2324 -1.6208
16899TIP3   OH272111   4.612   4.697   5.345 -0.3664  0.2291 -0.2392
16899TIP3    H172112   4.621   4.750   5.266  0.0704 -1.9047 -1.6838
16899TIP3    H272113   4.526   4.656   5.337  0.0997 -0.7808 -0.1138
16900TIP3   OH272114   0.213   2.021  15.241 -0.0513  0.7614 -0.1583
16900TIP3    H172115   0.264   1.964  15.183  1.0324  0.1174  1.3747
16900TIP3    H272116   0.150   2.064  15.183  0.7701 -0.1067 -1.7487
16901TIP3   OH272117   1.827   1.267   1.501  0.3344  0.0620 -0.2155
16901TIP3    H172118   1.787   1.280   1.415 -0.4260 -0.5153  0.0462
16901TIP3    H272119   1.852   1.175   1.502 -0.4944 -0.1562  0.5303
16902TIP3   OH272120   4.060   1.855  12.861  0.1254  0.5350  0.2934
16902TIP3    H172121   4.119   1.790  12.823 -1.2012 -0.7656  0.4035
16902TIP3    H272122   4.107   1.938  12.854  0.2609  0.2179 -3.4548
16903TIP3   OH272123   6.759   3.335   2.884 -0.4598 -0.0492  0.0669
16903TIP3    H172124   6.829   3.346   2.948 -0.7571  0.5789  0.2885
16903TIP3    H272125   6.796   3.276   2.818  0.2331  0.1727  0.2481
16904TIP3   OH272126   0.647   5.083   3.856  0.1474  0.9211  0.1429
16904TIP3    H172127   0.608   5.072   3.769 -2.7829 -0.2036  1.5387
16904TIP3    H272128   0.700   5.004   3.868  2.1546  1.9843 -1.3554
16905TIP3   OH272129   6.531   2.780   0.353 -0.1688  0.3217  0.1007
16905TIP3    H172130   6.516   2.866   0.313  1.5441  0.1955 -0.8394
16905TIP3    H272131   6.572   2.728   0.284 -0.9546 -1.1806  0.7508
16906TIP3   OH272132   2.508   2.029   5.184  0.5272  0.5613 -0.6411
16906TIP3    H172133   2.484   2.115   5.150  0.7936  0.2850 -1.5291
16906TIP3    H272134   2.533   2.046   5.275  0.1789  1.3576 -0.6922
16907TIP3   OH272135   4.523   4.751  16.275  0.1597 -0.4459 -0.7169
16907TIP3    H172136   4.499   4.659  16.269 -1.5803  0.0129 -1.2684
16907TIP3    H272137   4.461   4.795  16.217  0.8668  1.0852 -0.3353
16908TIP3   OH272138   4.846   1.203  11.899  0.3910 -0.2640 -0.0060
16908TIP3    H172139   4.768   1.164  11.939  1.8060 -1.2132  1.9344
16908TIP3    H272140   4.820   1.221  11.809 -1.0723 -3.5681 -0.3309
16909TIP3   OH272141   4.990   0.879   7.043  0.2235  0.1047 -0.4353
16909TIP3    H172142   5.080   0.885   7.076  0.6730  0.9662 -1.8232
16909TIP3    H272143   4.994   0.813   6.974 -0.0614  0.6733 -0.9993
16910TIP3   OH272144   3.474   1.258   1.983  0.4724 -0.1977  0.1134
16910TIP3    H172145   3.402   1.240   2.043  0.3704  0.4213  0.1820
16910TIP3    H272146   3.522   1.176   1.977 -0.1409 -0.5640  0.2039
16911TIP3   OH272147   1.115   2.567  12.635  0.0130 -0.5385  0.7235
16911TIP3    H172148   1.206   2.562  12.662 -0.2769 -0.1318  1.8049
16911TIP3    H272149   1.118   2.574  12.539  1.1061 -0.5714  0.7554
16912TIP3   OH272150   2.744   0.869  15.398  0.8558  0.3130  0.1013
16912TIP3    H172151   2.794   0.914  15.330  1.5258  0.8545  0.9321
16912TIP3    H272152   2.807   0.858  15.470 -0.4802  1.9550  1.5754
16913TIP3   OH272153   0.528   5.011   0.958  0.2448 -0.3834  0.0503
16913TIP3    H172154   0.471   5.055   1.021  0.6511 -0.3860  0.4173
16913TIP3    H272155   0.613   5.007   1.001  0.3776 -0.9083 -0.2633
16914TIP3   OH272156   6.110   6.422  13.152 -0.8620 -0.9185  0.3096
16914TIP3    H172157   6.200   6.393  13.140 -0.2708  1.0040 -0.2031
16914TIP3    H272158   6.067   6.403  13.069 -0.5574 -0.6336  0.0830
16915TIP3   OH272159   0.202   5.479   4.851 -0.6210  0.9496 -0.3568
16915TIP3    H172160   0.259   5.506   4.922 -0.5834  0.2937 -0.1346
16915TIP3    H272161   0.255   5.490   4.772 -0.5334  1.3051 -0.2509
16916TIP3   OH272162   2.689   5.820   5.924 -0.0244 -0.4774 -0.4889
16916TIP3    H172163   2.749   5.830   5.850 -1.3819  0.9560 -1.4479
16916TIP3    H272164   2.722   5.745   5.972  0.9508 -1.3830 -2.5004
16917TIP3   OH272165   3.530   0.247   0.816  0.2164  0.8041  0.3272
16917TIP3    H172166   3.437   0.232   0.832  0.4589 -0.4388  0.6444
16917TIP3    H272167   3.535   0.337   0.784 -1.1098  0.8255  0.1588
16918TIP3   OH272168   3.897   1.773   2.639  0.0015  0.2464  0.0009
16918TIP3    H172169   3.954   1.842   2.603 -0.1265  0.5604  0.3935
16918TIP3    H272170   3.890   1.795   2.732 -0.7498  0.2042 -0.0459
16919TIP3   OH272171   5.003   4.026   6.481 -0.0386 -0.1242 -0.3638
16919TIP3    H172172   4.908   4.025   6.469 -0.0524 -0.9907 -0.2252
16919TIP3    H272173   5.038   4.033   6.393 -0.2560  2.4269 -0.2687
16920TIP3   OH272174   2.435   4.560  13.450 -0.4323 -0.6413  0.1306
16920TIP3    H172175   2.404   4.612  13.375  0.1671 -0.8851 -0.2974
16920TIP3    H272176   2.383   4.591  13.524  1.0316  1.7436  0.2306
16921TIP3   OH272177   5.926   6.326  13.562 -0.1343 -0.3135  0.3579
16921TIP3    H172178   5.861   6.287  13.621 -0.3975 -1.9235 -0.9586
16921TIP3    H272179   5.972   6.251  13.525  0.5409  0.7172 -0.9122
16922TIP3   OH272180   4.271   4.993  14.597 -0.3743  0.1337 -0.2095
16922TIP3    H172181   4.301   5.002  14.507 -0.0255  0.4202 -0.0678
16922TIP3    H272182   4.271   4.898  14.613  1.6464  0.1725  0.1616
16923TIP3   OH272183   6.566   5.260  11.761  0.5861  0.0558 -0.2249
16923TIP3    H172184   6.487   5.260  11.815  1.5145  0.7728  1.1589
16923TIP3    H272185   6.592   5.168  11.757 -0.2827 -0.1798 -0.6526
16924TIP3   OH272186   1.682   2.393   5.068  0.1321 -0.0616 -0.0552
16924TIP3    H172187   1.589   2.382   5.085  0.4401  0.4124  2.0324
16924TIP3    H272188   1.721   2.307   5.083 -0.1282 -0.5589 -2.1317
16925TIP3   OH272189   0.448   4.412  15.703  0.4756  0.1998 -0.3421
16925TIP3    H172190   0.498   4.365  15.637 -0.5883 -1.4745  0.0107
16925TIP3    H272191   0.360   4.373  15.699  0.6216 -0.5831  2.6603
16926TIP3   OH272192   1.915   1.903   5.493 -0.1625 -0.6082  0.0377
16926TIP3    H172193   1.838   1.912   5.436 -0.7649  0.0631  0.9348
16926TIP3    H272194   1.987   1.883   5.434 -0.8426 -0.2364 -0.9304
16927TIP3   OH272195   3.715   6.380   2.703 -0.4766 -0.3727  0.0317
16927TIP3    H172196   3.744   6.428   2.625  0.1529 -0.9587 -0.1006
16927TIP3    H272197   3.790   6.383   2.762 -1.1376  0.5382  0.8541
16928TIP3   OH272198   4.428   0.694  11.955 -0.1146  0.7174 -0.0725
16928TIP3    H172199   4.349   0.725  11.998 -0.4309  1.8421 -1.4444
16928TIP3    H272200   4.493   0.761  11.973 -0.2203  1.1415 -1.2508
16929TIP3   OH272201   0.141   5.390  13.525 -0.6463 -0.4274  0.1438
16929TIP3    H172202   0.211   5.327  13.509  3.4910  4.1772 -0.6350
16929TIP3    H272203   0.110   5.415  13.438 -0.5762  0.4264  0.3620
16930TIP3   OH272204   3.683   5.663  13.219  0.2511  0.1747 -0.3186
16930TIP3    H172205   3.764   5.660  13.168  0.0192 -0.3979 -0.6644
16930TIP3    H272206   3.656   5.754  13.216 -0.8279 -0.1789 -2.9103
16931TIP3   OH272207   3.908   6.497  11.208 -0.6908 -0.5730 -0.6670
16931TIP3    H172208   3.934   6.490  11.300  0.7041  1.0308 -0.9155
16931TIP3    H272209   3.932   6.413  11.170  2.2637  0.1069 -0.3969
16932TIP3   OH272210   0.488   5.282  15.513  0.2859  0.1015 -0.2163
16932TIP3    H172211   0.535   5.198  15.514 -0.7785 -0.5924 -3.1147
16932TIP3    H272212   0.400   5.261  15.543  0.1128  0.2341 -0.6264
16933TIP3   OH272213   5.133   6.090   0.447 -0.2453 -0.5057 -0.7656
16933TIP3    H172214   5.151   6.179   0.415 -0.2673 -0.3101 -0.2417
16933TIP3    H272215   5.145   6.096   0.542 -1.2549 -0.8233 -0.6151
16934TIP3   OH272216   2.019   0.479   5.199  0.1278 -0.2306  0.3716
16934TIP3    H172217   1.998   0.415   5.268 -0.2052 -1.8072 -1.1722
16934TIP3    H272218   1.937   0.488   5.150  0.3950  0.8225  0.1318
16935TIP3   OH272219   5.828   3.429   5.964 -0.4481  0.0514  0.0644
16935TIP3    H172220   5.858   3.425   6.055  1.0083 -1.0938 -0.4464
16935TIP3    H272221   5.736   3.454   5.970 -0.4264 -0.2450  1.8715
16936TIP3   OH272222   6.532   2.235   2.414  0.3053 -0.1413 -0.2952
16936TIP3    H172223   6.495   2.187   2.488  2.2341 -0.0869  0.7378
16936TIP3    H272224   6.500   2.325   2.424 -0.5363 -0.4389 -0.3057
16937TIP3   OH272225   3.136   3.433  16.929  0.0498  0.8127  0.5013
16937TIP3    H172226   3.080   3.358  16.949 -0.1111  0.2248 -1.9001
16937TIP3    H272227   3.103   3.503  16.984 -2.2079  0.0895  0.1176
16938TIP3   OH272228   4.724   5.571   4.874 -0.0739 -0.2432 -0.2817
16938TIP3    H172229   4.693   5.659   4.894  0.4413  0.4635 -2.4310
16938TIP3    H272230   4.660   5.536   4.812 -0.0492 -1.2378  0.2393
16939TIP3   OH272231   1.829   3.077   5.637  0.1979 -0.3474 -0.2691
16939TIP3    H172232   1.825   3.077   5.542 -1.1554 -1.2822 -0.2266
16939TIP3    H272233   1.782   3.156   5.663  1.7249  0.6243 -0.3967
16940TIP3   OH272234   5.202   2.399  15.988  0.2644  0.2799  0.0634
16940TIP3    H172235   5.276   2.453  16.016  0.6245  0.6541 -1.5918
16940TIP3    H272236   5.223   2.311  16.019  0.5608  0.7100  1.1247
16941TIP3   OH272237   5.551   3.464   1.174 -0.4705  0.3003  0.3493
16941TIP3    H172238   5.500   3.509   1.241  1.1596  2.0992  0.4426
16941TIP3    H272239   5.639   3.500   1.184  0.1558 -0.6164 -1.6806
16942TIP3   OH272240   5.571   6.479   5.033 -0.1390 -0.0503 -0.3756
16942TIP3    H172241   5.579   6.574   5.035  2.4065 -0.2117 -1.0121
16942TIP3    H272242   5.484   6.461   5.069 -0.7969  2.5205 -0.5975
16943TIP3   OH272243   3.968   6.584  12.575 -0.1926 -0.4059 -0.0567
16943TIP3    H172244   3.946   6.669  12.538  1.3944  0.3523  0.6941
16943TIP3    H272245   3.885   6.550  12.609 -0.8203  0.8535 -0.3214
16944TIP3   OH272246   4.344   5.871  15.548  0.3775 -0.3426 -0.0408
16944TIP3    H172247   4.314   5.865  15.458 -1.5185  0.7637  0.4865
16944TIP3    H272248   4.277   5.923  15.593  1.5978 -0.3341  1.8628
16945TIP3   OH272249   6.631   2.876  17.157 -0.5679  0.0557  0.0046
16945TIP3    H172250   6.590   2.890  17.072  0.1038  0.5057 -0.2529
16945TIP3    H272251   6.707   2.820  17.138 -0.0476  0.6767  0.2032
16946TIP3   OH272252   6.595   3.513   0.874  0.1014  0.4627  0.1877
16946TIP3    H172253   6.500   3.525   0.870 -0.0884 -1.2190 -0.6511
16946TIP3    H272254   6.631   3.589   0.829 -0.8128  1.4367  1.0665
16947TIP3   OH272255   0.823   4.882  14.247  0.2657  0.1704  0.0234
16947TIP3    H172256   0.818   4.926  14.162  0.5533  0.1130 -0.0221
16947TIP3    H272257   0.835   4.790  14.226 -4.1802 -0.5257  0.0310
16948TIP3   OH272258   4.848   1.889   1.405 -0.1275  0.2725  0.2083
16948TIP3    H172259   4.832   1.901   1.312  1.2979  1.4362  0.0828
16948TIP3    H272260   4.906   1.962   1.429 -0.7263  0.1783  2.0669
16949TIP3   OH272261   3.219   5.086   6.615 -0.2450  0.1615 -0.3670
16949TIP3    H172262   3.224   5.064   6.708 -0.2981 -1.4053 -0.7295
16949TIP3    H272263   3.126   5.094   6.596 -0.2853 -0.9089 -0.6105
16950TIP3   OH272264   2.411   5.318  11.022  0.1511 -0.4535 -0.0404
16950TIP3    H172265   2.458   5.401  11.035  0.9311 -0.8498 -0.3094
16950TIP3    H272266   2.419   5.301  10.928  1.5542 -1.7527  0.2973
16951TIP3   OH272267   3.513   3.999   4.881  0.5924 -0.0347  0.1556
16951TIP3    H172268   3.604   3.976   4.861  0.0316 -1.0017 -1.4083
16951TIP3    H272269   3.509   4.094   4.869  1.5128  0.1011  0.7960
16952TIP3   OH272270   6.630   1.459  15.869  0.4530 -0.1681 -0.0958
16952TIP3    H172271   6.661   1.440  15.957 -0.4522  0.0907  0.2867
16952TIP3    H272272   6.536   1.441  15.873  0.3127  0.4065 -0.8549
16953TIP3   OH272273   4.274   1.865   4.980  0.2369  0.3250 -0.4133
16953TIP3    H172274   4.324   1.838   5.057 -0.0069 -0.6136 -0.5691
16953TIP3    H272275   4.193   1.901   5.015 -0.2958 -0.9900 -0.2318
16954TIP3   OH272276   3.551   2.978   5.383 -0.1538 -0.0711 -0.2470
16954TIP3    H172277   3.486   2.918   5.346 -1.4093  1.4084 -0.4655
16954TIP3    H272278   3.551   2.958   5.476 -0.2245 -0.7256 -0.3794
16955TIP3   OH272279   4.921   6.703   4.311 -0.4051 -0.5214  0.1002
16955TIP3    H172280   4.878   6.780   4.274 -0.4956 -0.4113  0.4327
16955TIP3    H272281   4.862   6.673   4.380 -0.8852 -1.5184 -0.7286
16956TIP3   OH272282   6.349   2.348  11.732 -0.4091  0.3156 -0.4089
16956TIP3    H172283   6.347   2.421  11.670 -2.3171 -0.3063 -1.1244
16956TIP3    H272284   6.278   2.366  11.793 -0.3536 -0.5203 -0.0820
16957TIP3   OH272285   0.629   5.033  15.457 -0.4220  0.0145 -0.2123
16957TIP3    H172286   0.658   4.950  15.420 -0.3187 -0.3722  0.7147
16957TIP3    H272287   0.579   5.008  15.535 -0.1464  0.8330  0.2315
16958TIP3   OH272288   3.024   0.182   1.995  0.1881 -0.4045  0.1244
16958TIP3    H172289   2.931   0.190   1.973 -0.4809 -1.7563  2.2769
16958TIP3    H272290   3.064   0.144   1.916 -1.1315 -0.0705 -0.7224
16959TIP3   OH272291   0.354   2.074   4.228  0.5147 -0.1660  0.1013
16959TIP3    H172292   0.409   2.032   4.293 -0.2659 -0.6060  0.4826
16959TIP3    H272293   0.359   2.168   4.249  1.3773 -0.1664 -0.0795
16960TIP3   OH272294   6.744   2.930  12.814 -0.3706  0.1491  0.4147
16960TIP3    H172295   6.810   2.923  12.745  0.0496  1.9750  0.5931
16960TIP3    H272296   6.667   2.965  12.770 -0.9811 -1.2387  0.3621
16961TIP3   OH272297   1.295   5.879   3.367 -0.3620  0.4133  0.3433
16961TIP3    H172298   1.329   5.834   3.290  1.2849  1.7809  0.2609
16961TIP3    H272299   1.365   5.872   3.432 -1.7550 -0.7828  1.7571
16962TIP3   OH272300   0.361   0.634  13.438  0.0737 -0.0275  0.3386
16962TIP3    H172301   0.412   0.707  13.472 -1.4852  0.3813  1.8699
16962TIP3    H272302   0.290   0.675  13.389 -0.5956 -0.5094  0.8990
16963TIP3   OH272303   2.359   2.114  17.027  0.2523  0.1206  0.2744
16963TIP3    H172304   2.363   2.018  17.020 -0.7694  0.1413 -0.7436
16963TIP3    H272305   2.265   2.134  17.020  0.4463  1.1834  0.6905
16964TIP3   OH272306   3.469   2.458  16.976  0.0291  0.4882 -0.2631
16964TIP3    H172307   3.514   2.536  17.009  0.3665  0.4053 -0.5317
16964TIP3    H272308   3.431   2.418  17.055  0.3332  0.6149 -0.0509
16965TIP3   OH272309   1.135   5.274  13.131  0.1935 -0.7577  0.5866
16965TIP3    H172310   1.041   5.292  13.137  0.0149 -1.6620  0.6085
16965TIP3    H272311   1.172   5.311  13.211  0.3854  2.7466 -1.0620
16966TIP3   OH272312   0.385   3.039  13.886  0.3401 -0.1256 -0.1991
16966TIP3    H172313   0.358   3.039  13.795  1.5422 -2.5987 -0.5771
16966TIP3    H272314   0.372   3.130  13.915 -0.8388  0.4828 -2.5608
16967TIP3   OH272315   5.313   1.862   3.691  0.3400  0.2586  0.1196
16967TIP3    H172316   5.318   1.907   3.606 -1.0659  1.6120  0.7217
16967TIP3    H272317   5.275   1.927   3.750 -1.1596 -1.5415  1.1820
16968TIP3   OH272318   5.328   1.613  16.443 -0.2832  0.7039  0.1446
16968TIP3    H172319   5.371   1.580  16.523  1.5088  2.7626  0.0777
16968TIP3    H272320   5.235   1.602  16.460  0.1006  0.4694  2.2475
16969TIP3   OH272321   0.490   4.438  11.524 -0.3543  0.8388  0.4252
16969TIP3    H172322   0.564   4.402  11.475 -0.4406 -0.0097  0.9165
16969TIP3    H272323   0.418   4.378  11.507 -0.6563  1.0972  0.7874
16970TIP3   OH272324   0.179   1.702  11.070  0.6640  0.5023  0.1803
16970TIP3    H172325   0.273   1.713  11.084  0.5687 -0.0093  1.2188
16970TIP3    H272326   0.170   1.613  11.037  0.5908  0.7190 -0.3885
16971TIP3   OH272327   1.948   1.570   6.237 -0.2256  0.1440 -0.0223
16971TIP3    H172328   1.856   1.548   6.222 -0.3866 -1.4631  2.9524
16971TIP3    H272329   1.991   1.486   6.250  1.1516  1.0035  1.1611
16972TIP3   OH272330   3.466   2.433  14.071 -0.5247 -0.0364  0.2833
16972TIP3    H172331   3.487   2.527  14.069 -1.1364  0.1144  0.6694
16972TIP3    H272332   3.478   2.409  14.163 -1.1334 -0.1610  0.3277
16973TIP3   OH272333   0.064   6.648   1.270  0.2991  0.2419 -0.7549
16973TIP3    H172334   0.025   6.664   1.356  0.4584 -2.5378 -0.1375
16973TIP3    H272335   0.080   6.736   1.235 -2.3586  1.4275  0.8420
16974TIP3   OH272336   2.631   6.154   0.454 -0.2875  0.5993 -0.0649
16974TIP3    H172337   2.706   6.111   0.495  0.4796  2.2089  0.2902
16974TIP3    H272338   2.581   6.083   0.413  0.8686 -0.6094  0.5846
16975TIP3   OH272339   5.400   5.455  16.404 -0.2913 -0.0527 -0.0306
16975TIP3    H172340   5.474   5.400  16.428  0.9366  1.1685 -0.9527
16975TIP3    H272341   5.385   5.437  16.311  0.2496  1.2935 -0.3910
16976TIP3   OH272342   2.798   5.952  11.841  0.2723 -0.1574  0.7475
16976TIP3    H172343   2.718   5.903  11.861  0.5780 -0.2710  1.7024
16976TIP3    H272344   2.825   5.989  11.925  1.9283 -1.1548  0.6661
16977TIP3   OH272345   1.211   5.049   3.460 -0.2849 -0.6484  0.2270
16977TIP3    H172346   1.164   5.080   3.537  0.2244  0.5084  0.0839
16977TIP3    H272347   1.278   5.115   3.444 -1.8109  0.3173 -2.5789
16978TIP3   OH272348   1.261   4.886  15.852  0.2335  0.2598 -0.1172
16978TIP3    H172349   1.334   4.839  15.892 -0.5816 -0.9379 -0.0225
16978TIP3    H272350   1.188   4.875  15.913 -0.4448  0.1647 -0.9284
16979TIP3   OH272351   4.707   0.601   4.907  0.2884  0.3315 -0.3652
16979TIP3    H172352   4.781   0.628   4.852 -0.4348  1.4695 -0.8053
16979TIP3    H272353   4.632   0.647   4.869 -0.3076  0.7279  1.2834
16980TIP3   OH272354   3.932   4.673   2.914 -0.3479 -0.2705 -0.0062
16980TIP3    H172355   3.974   4.749   2.873 -0.3140 -0.0472  0.4315
16980TIP3    H272356   3.933   4.605   2.847 -2.0844  0.7034 -1.0427
16981TIP3   OH272357   5.591   6.255  11.516 -0.3364 -0.5400  0.0195
16981TIP3    H172358   5.682   6.238  11.542 -0.0705 -0.5779 -0.9238
16981TIP3    H272359   5.598   6.290  11.427 -1.0107  2.5080  1.1078
16982TIP3   OH272360   4.209   5.927   2.413 -0.1284 -0.1236  0.1802
16982TIP3    H172361   4.139   5.894   2.470  0.5499 -1.0205  0.5031
16982TIP3    H272362   4.290   5.909   2.461  0.3556  0.5394 -0.3730
16983TIP3   OH272363   1.332   3.476   4.457  0.1732  0.0549  0.1871
16983TIP3    H172364   1.331   3.541   4.386 -0.4462 -0.6884 -0.4872
16983TIP3    H272365   1.242   3.447   4.464  0.0862  0.7166  1.8434
16984TIP3   OH272366   5.211   6.103   5.241  0.1587  0.3903  0.1420
16984TIP3    H172367   5.300   6.087   5.271 -0.3746 -0.1165  1.5139
16984TIP3    H272368   5.173   6.016   5.228 -0.7639  0.5525  1.5556
16985TIP3   OH272369   3.044   2.281  17.203 -0.4240  0.6966 -0.1824
16985TIP3    H172370   3.040   2.185  17.208 -0.2359  0.7691  1.6801
16985TIP3    H272371   2.954   2.309  17.217 -0.2556  0.8342  0.6491
16986TIP3   OH272372   0.581   5.461  16.948  0.1087  0.4371 -0.6110
16986TIP3    H172373   0.598   5.550  16.977  0.8792  0.3093 -0.6743
16986TIP3    H272374   0.544   5.418  17.026 -2.8456  1.5287 -1.3460
16987TIP3   OH272375   6.780   5.867   4.195 -0.0857  0.2552  0.1575
16987TIP3    H172376   6.732   5.837   4.272  0.0595 -1.4028 -0.3715
16987TIP3    H272377   6.827   5.789   4.164 -1.0902  0.5624 -2.2921
16988TIP3   OH272378   3.545   5.503   5.495 -0.3262  0.4642 -0.7630
16988TIP3    H172379   3.567   5.417   5.460  0.1718  0.7406 -1.1233
16988TIP3    H272380   3.449   5.504   5.497 -0.3439  0.1405 -1.3468
16989TIP3   OH272381   0.079   3.506   3.421 -0.1216  0.7531 -0.2737
16989TIP3    H172382   0.060   3.442   3.351 -1.7327  1.0175 -0.0944
16989TIP3    H272383   0.167   3.537   3.401 -0.1175 -0.0194 -1.5475
16990TIP3   OH272384   5.021   2.385  16.670  0.1071  0.9224  0.0957
16990TIP3    H172385   4.938   2.417  16.706 -1.4741 -2.4286 -0.3768
16990TIP3    H272386   4.998   2.354  16.582  2.0317  0.6405 -0.3197
16991TIP3   OH272387   4.986   6.222   5.142 -0.4401 -0.2968 -0.3236
16991TIP3    H172388   5.075   6.198   5.170  0.7824  1.7022 -2.3783
16991TIP3    H272389   4.929   6.162   5.191  1.9090 -0.4350  2.3965
16992TIP3   OH272390   4.648   0.769  11.316 -0.9402 -0.3937 -0.0115
16992TIP3    H172391   4.688   0.743  11.233 -0.9029  0.3586 -0.2367
16992TIP3    H272392   4.636   0.863  11.307 -0.4247 -0.2245  1.0687
16993TIP3   OH272393   4.267   1.731  14.665  0.2909  0.8929  0.1951
16993TIP3    H172394   4.308   1.645  14.678 -0.3060  0.8669  1.9662
16993TIP3    H272395   4.270   1.745  14.570 -2.4824 -2.5126 -0.4886
16994TIP3   OH272396   3.607   1.959   1.185 -0.0627 -0.1307 -0.1253
16994TIP3    H172397   3.517   1.927   1.190  0.5974 -1.8075  2.0803
16994TIP3    H272398   3.603   2.046   1.224 -0.4687 -0.8924  1.5916
16995TIP3   OH272399   3.875   5.974   2.184 -0.3907  0.0056  0.0946
16995TIP3    H172400   3.897   6.041   2.120 -0.6014  0.4599  0.4913
16995TIP3    H272401   3.930   5.900   2.161 -2.1845 -0.7176 -2.0909
16996TIP3   OH272402   0.099   1.941  11.434 -0.3981  0.4675 -0.4491
16996TIP3    H172403   0.079   1.986  11.352 -1.5519  0.9774  0.0963
16996TIP3    H272404   0.101   2.012  11.499 -2.0947 -0.2370  0.3962
16997TIP3   OH272405   1.124   4.312   5.179 -0.2072  0.2941  0.2127
16997TIP3    H172406   1.087   4.335   5.264  0.8545  0.5049  0.6315
16997TIP3    H272407   1.051   4.274   5.130 -0.6538 -0.5274  1.4920
16998TIP3   OH272408   1.290   3.900  13.313 -0.2620  0.3753 -0.4801
16998TIP3    H172409   1.269   3.993  13.324  3.4291  1.1455  0.7700
16998TIP3    H272410   1.320   3.871  13.399 -2.5896 -2.3665 -0.5216
16999TIP3   OH272411   6.047   2.132  12.782  0.2809 -0.0828 -0.0958
16999TIP3    H172412   6.031   2.103  12.693  3.4257 -0.3461 -0.6271
16999TIP3    H272413   5.991   2.210  12.792 -1.0798 -0.8059 -1.8100
17000TIP3   OH272414   5.619   2.515  14.053 -0.4276 -0.1194 -0.3442
17000TIP3    H172415   5.695   2.565  14.022 -0.4433  0.8008  1.0532
17000TIP3    H272416   5.548   2.578  14.055 -0.4163 -0.1315  1.5636
17001TIP3   OH272417   0.407   6.721   0.072 -0.3347  0.5001  0.1595
17001TIP3    H172418   0.394   6.813   0.052 -1.5783  0.4075  0.4769
17001TIP3    H272419   0.392   6.714   0.167  2.0172  0.3508  0.5503
17002TIP3   OH272420   3.607   2.359  17.234  0.6626 -0.2037  0.0594
17002TIP3    H172421   3.649   2.310  17.305  1.1120  1.5532  1.0361
17002TIP3    H272422   3.679   2.379  17.174  0.7067  0.3189  0.2847
17003TIP3   OH272423   4.105   3.525   4.078 -0.4739  0.6761 -0.4742
17003TIP3    H172424   4.086   3.431   4.079  0.6109  0.4188 -2.5070
17003TIP3    H272425   4.146   3.541   4.163 -0.2847 -0.7759 -0.2710
17004TIP3   OH272426   5.741   4.144  12.839  0.5817  0.2855  0.2481
17004TIP3    H172427   5.649   4.164  12.857  0.1677 -1.1027 -0.2752
17004TIP3    H272428   5.788   4.175  12.917 -0.3915  0.5337  0.7411
17005TIP3   OH272429   3.939   4.076  16.400  0.0873  0.0081  0.1531
17005TIP3    H172430   3.974   4.045  16.483 -0.0446  0.2968  0.3206
17005TIP3    H272431   3.861   4.126  16.425 -1.0237 -1.4717 -0.2837
17006TIP3   OH272432   2.760   0.510   0.036 -0.5855  0.2009 -0.7846
17006TIP3    H172433   2.829   0.566   0.072 -0.6333 -0.5848  0.5526
17006TIP3    H272434   2.789   0.491  -0.054  0.6637  0.3471 -0.4197
17007TIP3   OH272435   2.438   3.475  14.097  0.0856  0.1388  0.2162
17007TIP3    H172436   2.519   3.430  14.076 -0.0837 -0.5916  1.0727
17007TIP3    H272437   2.458   3.568  14.087  1.3078  0.0147  1.3312
17008TIP3   OH272438   3.811   5.635  13.928 -0.4712  0.0020 -0.5781
17008TIP3    H172439   3.880   5.605  13.987 -0.8107  0.3277 -0.0171
17008TIP3    H272440   3.738   5.657  13.985 -0.0196  2.5302 -0.9097
17009TIP3   OH272441   5.866   0.008  12.839  0.0014  0.3289 -0.4553
17009TIP3    H172442   5.841  -0.067  12.785 -1.4341 -0.5206  1.3267
17009TIP3    H272443   5.892  -0.031  12.923  0.6093  1.7295  0.0155
17010TIP3   OH272444   2.982   5.346   2.898 -0.3321 -0.1888 -0.0247
17010TIP3    H172445   2.977   5.300   2.814  0.9299 -2.3738  1.0406
17010TIP3    H272446   3.073   5.338   2.924 -0.7742  0.2225  1.6978
17011TIP3   OH272447   2.853   0.604   6.026 -0.2956 -0.2938 -0.2259
17011TIP3    H172448   2.763   0.623   6.001 -0.7079 -1.4003  0.3579
17011TIP3    H272449   2.854   0.509   6.041  0.1199  0.1396  3.0643
17012TIP3   OH272450   6.657   4.723   5.655  0.5944  0.1993 -0.0942
17012TIP3    H172451   6.745   4.721   5.617  0.7263  0.4149  0.1990
17012TIP3    H272452   6.665   4.780   5.732  0.5918 -1.1429  0.9225
17013TIP3   OH272453   5.179   2.103   4.979 -0.3004 -0.0873  0.7311
17013TIP3    H172454   5.088   2.113   4.950 -0.8023 -0.6132  2.0990
17013TIP3    H272455   5.192   2.008   4.985  0.4324 -0.0166  0.2326
17014TIP3   OH272456   4.467   4.686  15.789  0.0472 -0.0740 -0.7598
17014TIP3    H172457   4.517   4.758  15.826 -0.5688 -0.0777  0.0983
17014TIP3    H272458   4.471   4.699  15.694  0.2128  0.8947 -0.6206
17015TIP3   OH272459   3.360   2.581   4.987  0.5474  0.2634 -0.1384
17015TIP3    H172460   3.324   2.670   4.985 -0.7363 -0.2092  0.8692
17015TIP3    H272461   3.364   2.554   4.895  0.1600  1.0485 -0.3891
17016TIP3   OH272462   2.095   1.165   0.735 -0.0851 -0.4073  0.1312
17016TIP3    H172463   2.163   1.202   0.678 -1.3534  0.5556 -0.8026
17016TIP3    H272464   2.041   1.112   0.676 -0.4281 -0.7585  0.7631
17017TIP3   OH272465   5.445   3.416   0.313  0.2145 -0.5241  0.6038
17017TIP3    H172466   5.499   3.370   0.249  0.3441 -1.2979  1.2669
17017TIP3    H272467   5.355   3.399   0.285  0.2749 -0.6487  0.4899
17018TIP3   OH272468   5.157   3.299   4.821  0.1508  0.1817 -0.5280
17018TIP3    H172469   5.211   3.232   4.863  0.9169  1.3141  0.3283
17018TIP3    H272470   5.216   3.341   4.758  0.9463  2.8708  1.9335
17019TIP3   OH272471   3.832   6.459   5.552  0.0180 -0.2358  0.1160
17019TIP3    H172472   3.897   6.524   5.524 -0.4958  0.5817  0.7970
17019TIP3    H272473   3.863   6.376   5.515 -0.4683  0.7458 -2.6049
17020TIP3   OH272474   6.521   5.221  12.693  0.3836  0.1258  0.9199
17020TIP3    H172475   6.531   5.145  12.751  0.3541 -0.7433 -0.1969
17020TIP3    H272476   6.426   5.234  12.688  0.3890  0.2461  1.1239
17021TIP3   OH272477   1.449   3.874   4.520  0.5802 -0.0883  0.6528
17021TIP3    H172478   1.455   3.819   4.442  0.5740  1.3887 -0.4147
17021TIP3    H272479   1.370   3.926   4.507  2.6369  2.9539 -0.2395
17022TIP3   OH272480   0.241   4.130   5.246 -0.3314  0.4076  1.0830
17022TIP3    H172481   0.160   4.174   5.272 -0.4536  0.0572  1.2950
17022TIP3    H272482   0.243   4.050   5.298 -1.2140 -0.9319 -0.8702
17023TIP3   OH272483   0.649   2.362   4.370  0.2434  0.2885  0.6582
17023TIP3    H172484   0.662   2.270   4.348  1.0107  0.2579  1.2598
17023TIP3    H272485   0.644   2.406   4.285  0.6368 -0.2005  0.3808
17024TIP3   OH272486   1.001   5.216  14.654 -0.1120 -0.3272  0.2800
17024TIP3    H172487   0.925   5.204  14.597  0.5313  0.8046 -0.8362
17024TIP3    H272488   0.964   5.217  14.742 -1.2562 -0.8925 -0.1712
17025TIP3   OH272489   0.059   3.841  10.499 -0.3161  0.1005 -0.4530
17025TIP3    H172490   0.034   3.760  10.456  0.0597 -0.7411  0.8813
17025TIP3    H272491  -0.019   3.868  10.547  0.4426 -1.0622  1.4879
17026TIP3   OH272492   2.125   6.201  15.866  0.0600  0.0538 -0.0188
17026TIP3    H172493   2.214   6.167  15.879 -0.4440 -1.5586 -0.6374
17026TIP3    H272494   2.105   6.181  15.775 -1.4031 -0.7378  0.4581
17027TIP3   OH272495   2.992   0.669   1.164  0.2006  0.2239  0.1811
17027TIP3    H172496   3.007   0.575   1.155 -0.6775  0.1442 -0.4621
17027TIP3    H272497   2.968   0.699   1.076 -1.3361  0.7164  0.7508
17028TIP3   OH272498   6.015   0.507  16.988  0.1953  0.3121 -0.0167
17028TIP3    H172499   5.967   0.454  17.052  0.0615  0.3156 -0.1102
17028TIP3    H272500   5.951   0.572  16.959 -0.3697 -0.9214 -1.6231
17029TIP3   OH272501   2.792   5.022   0.254 -0.1735  0.0500 -0.4236
17029TIP3    H172502   2.806   5.071   0.173  0.2763  0.7521  0.0726
17029TIP3    H272503   2.730   5.076   0.304 -0.7176 -0.5508 -0.4481
17030TIP3   OH272504   3.939   1.994  16.082  0.1343  0.6224 -0.0684
17030TIP3    H172505   3.970   1.907  16.055  1.5402  0.9877  0.2845
17030TIP3    H272506   3.874   1.976  16.150  0.8272 -0.1594  0.4070
17031TIP3   OH272507   6.325   0.778  11.782 -0.6980 -0.0854 -0.4087
17031TIP3    H172508   6.245   0.729  11.762 -0.1951 -0.6302 -1.0912
17031TIP3    H272509   6.294   0.855  11.831 -1.7708  0.4175 -1.8362
17032TIP3   OH272510   2.228   6.786   2.176 -0.1639  1.1643  0.0617
17032TIP3    H172511   2.209   6.758   2.086 -1.3998  2.4265 -0.1041
17032TIP3    H272512   2.183   6.871   2.184 -0.0826  1.0593  1.8700
17033TIP3   OH272513   0.055   6.258  16.560  0.5447  0.1006 -0.1792
17033TIP3    H172514   0.060   6.332  16.620  0.0361 -0.3316  0.3944
17033TIP3    H272515   0.094   6.291  16.479  2.0672  0.4107  0.6539
17034TIP3   OH272516   5.877   2.576   2.685  0.6117  0.1720  0.2421
17034TIP3    H172517   5.966   2.545   2.702  0.1169 -0.9648  0.8209
17034TIP3    H272518   5.822   2.517   2.737 -0.6139 -0.3896 -1.6715
17035TIP3   OH272519   4.423   6.216   3.652 -0.5194  0.2299  0.1189
17035TIP3    H172520   4.419   6.121   3.665  1.1771  0.0798 -0.3537
17035TIP3    H272521   4.339   6.248   3.687 -0.9136 -1.3799  0.7170
17036TIP3   OH272522   3.569   4.591   1.476 -0.0055 -0.0573 -0.2761
17036TIP3    H172523   3.535   4.679   1.456 -0.2386  0.4130  2.0406
17036TIP3    H272524   3.513   4.532   1.425 -0.4575  1.0746 -1.1260
17037TIP3   OH272525   0.528   0.423   3.277 -0.4152  0.0404  0.7380
17037TIP3    H172526   0.541   0.458   3.188  0.4785 -0.8090  0.5274
17037TIP3    H272527   0.573   0.339   3.276 -2.2904 -0.9855  1.3459
17038TIP3   OH272528   4.960   4.266  12.980  0.1175  0.2472  0.3672
17038TIP3    H172529   4.917   4.303  13.057 -1.3797 -1.8865  0.5952
17038TIP3    H272530   5.027   4.208  13.015 -0.6283 -0.8007  0.0659
17039TIP3   OH272531   1.737   1.666  13.866  0.0821 -0.6145 -0.5468
17039TIP3    H172532   1.782   1.631  13.943  0.1990  1.7855  0.5239
17039TIP3    H272533   1.799   1.728  13.829 -1.1321  0.4518 -0.8301
17040TIP3   OH272534   1.353   4.337  13.577 -0.0703  0.1920 -0.1812
17040TIP3    H172535   1.395   4.251  13.576  1.7995  1.0564  1.0169
17040TIP3    H272536   1.306   4.340  13.660  0.8566  0.7600  0.3369
17041TIP3   OH272537   5.360   4.624   2.297 -0.0741  0.3000  0.6345
17041TIP3    H172538   5.292   4.691   2.306 -0.3256  0.2231 -0.5908
17041TIP3    H272539   5.431   4.668   2.251 -0.7348 -0.5926 -1.2988
17042TIP3   OH272540   5.248   0.434   5.994  0.4020  0.0206  0.3895
17042TIP3    H172541   5.247   0.396   6.082  1.9643 -1.7927 -0.3495
17042TIP3    H272542   5.339   0.459   5.980  0.5691 -1.4937 -1.4469
17043TIP3   OH272543   0.730   1.235  14.316 -0.1905  0.0029  0.2717
17043TIP3    H172544   0.678   1.210  14.392 -0.0489  0.7072  0.5949
17043TIP3    H272545   0.821   1.232  14.346 -0.1688  0.8725  0.3013
17044TIP3   OH272546   1.176   1.116  12.688 -0.2993  0.3235  0.2966
17044TIP3    H172547   1.220   1.126  12.603 -1.2734  0.6210 -0.1824
17044TIP3    H272548   1.243   1.077  12.745 -0.2547 -1.8684 -1.1809
17045TIP3   OH272549   2.542   0.681  13.285  0.4098  0.5748 -0.0490
17045TIP3    H172550   2.611   0.646  13.342 -0.9610 -0.4729  1.0200
17045TIP3    H272551   2.575   0.767  13.258  2.0842  0.1419  0.5152
17046TIP3   OH272552   2.996   4.203  17.132 -0.6413 -0.2881 -0.2958
17046TIP3    H172553   3.017   4.263  17.061  2.1908 -0.4705  0.3327
17046TIP3    H272554   2.973   4.259  17.206 -1.0875 -0.0646 -0.5984
17047TIP3   OH272555   5.970   4.057  12.372  0.0479  0.8393 -0.0062
17047TIP3    H172556   5.961   4.073  12.466  0.6614 -2.1138  0.6125
17047TIP3    H272557   5.882   4.031  12.344 -0.0133  1.1905 -0.1403
17048TIP3   OH272558   0.543   4.812   5.065 -0.8442 -0.1170  0.7452
17048TIP3    H172559   0.559   4.882   5.001  0.0212 -1.2014 -0.2417
17048TIP3    H272560   0.485   4.751   5.019 -0.2028 -0.9092  0.9912
17049TIP3   OH272561   1.811   2.595  15.586 -0.3713 -0.2684  0.1800
17049TIP3    H172562   1.755   2.641  15.523 -0.3223  1.4508  1.3932
17049TIP3    H272563   1.823   2.508  15.547 -1.2690  0.3992 -1.6418
17050TIP3   OH272564   2.715   4.099   2.948 -0.4792  0.1002  0.3006
17050TIP3    H172565   2.718   4.118   2.854 -0.3340 -1.5684 -0.0503
17050TIP3    H272566   2.635   4.049   2.960  0.9803 -2.2666  0.5438
17051TIP3   OH272567   3.057   3.304  11.239 -0.0317 -0.2557  0.4232
17051TIP3    H172568   3.048   3.354  11.158  1.4657  0.3777  0.6250
17051TIP3    H272569   3.023   3.361  11.307  1.2879  0.3469  0.5963
17052TIP3   OH272570   6.034   2.932  12.482  0.0110  0.0860 -0.0374
17052TIP3    H172571   6.012   3.019  12.447 -0.1855  0.3644  0.7816
17052TIP3    H272572   6.069   2.949  12.569 -0.9079 -0.7359  0.4988
17053TIP3   OH272573   4.410   4.095   4.221 -0.2903 -0.2608 -0.3230
17053TIP3    H172574   4.454   4.177   4.243 -2.7080  0.7329  0.9561
17053TIP3    H272575   4.317   4.118   4.216 -0.6734 -2.1862 -3.4827
17054TIP3   OH272576   1.080   4.403   2.564  0.3922  0.5133  0.2781
17054TIP3    H172577   1.037   4.356   2.636  0.8442  0.0367  0.2435
17054TIP3    H272578   1.126   4.334   2.515  0.6524  0.9307 -0.0651
17055TIP3   OH272579   5.862   0.639   5.012 -0.0509  0.1679  0.1556
17055TIP3    H172580   5.934   0.699   5.031  0.0054 -0.2629  1.3547
17055TIP3    H272581   5.796   0.658   5.079 -0.1195 -0.9599  0.4163
17056TIP3   OH272582   3.277   1.616  15.017 -0.8611  0.3195 -0.2044
17056TIP3    H172583   3.361   1.596  15.060  1.8918 -0.1875 -5.3760
17056TIP3    H272584   3.214   1.559  15.061  1.8259 -0.6199  2.6870
17057TIP3   OH272585   4.641   2.544  15.727  0.0794 -0.5644  0.0412
17057TIP3    H172586   4.565   2.562  15.672 -0.9484 -1.4168  1.1536
17057TIP3    H272587   4.641   2.449  15.737  1.2659 -0.5691  0.1080
17058TIP3   OH272588   1.615   4.676  14.815  0.2018 -0.1775 -0.2247
17058TIP3    H172589   1.618   4.621  14.737  2.6444  0.0257 -0.3052
17058TIP3    H272590   1.627   4.765  14.783 -0.5161  0.0778  0.2092
17059TIP3   OH272591   5.499   1.069  12.662  0.2995  0.4601 -0.5716
17059TIP3    H172592   5.566   1.003  12.642  2.3339  1.7556  1.7422
17059TIP3    H272593   5.548   1.151  12.672 -1.8924  1.8496 -0.8147
17060TIP3   OH272594   3.797   3.432  12.443  0.3487 -0.3163  0.0407
17060TIP3    H172595   3.831   3.473  12.363 -1.3641 -0.2977 -0.7037
17060TIP3    H272596   3.840   3.347  12.446  0.0907 -0.4992 -1.1494
17061TIP3   OH272597   6.304   4.991   2.653 -0.3497  0.8760  0.1462
17061TIP3    H172598   6.333   4.903   2.675 -0.6940  0.8907  0.6817
17061TIP3    H272599   6.223   5.002   2.703  0.2748  1.8948  0.9554
17062TIP3   OH272600   6.085   1.387  10.757  0.9855 -0.0546 -0.1458
17062TIP3    H172601   6.076   1.321  10.688  1.3574 -0.1714 -0.0785
17062TIP3    H272602   5.996   1.423  10.767  1.1886  0.9104 -1.6386
17063TIP3   OH272603   5.463   4.107  16.898 -0.6897 -0.0829 -0.2870
17063TIP3    H172604   5.464   4.159  16.979 -0.8258  0.0986 -0.4022
17063TIP3    H272605   5.374   4.072  16.894 -1.1223  1.0874 -1.1087
17064TIP3   OH272606   5.250   5.640  16.150  0.5781  0.1505 -0.3760
17064TIP3    H172607   5.175   5.584  16.171 -0.6048  2.4083  1.5699
17064TIP3    H272608   5.314   5.580  16.112 -0.7089 -2.4994  1.5011
17065TIP3   OH272609   4.224   0.374  11.613  0.2001 -0.3442  0.1021
17065TIP3    H172610   4.221   0.280  11.594 -0.1916 -0.1067 -1.0607
17065TIP3    H272611   4.184   0.382  11.700 -2.5390 -0.9436 -1.0384
17066TIP3   OH272612   6.034   0.200  12.346 -0.3156 -0.4745 -0.4175
17066TIP3    H172613   6.080   0.160  12.272 -1.1717 -0.7435 -0.7988
17066TIP3    H272614   5.951   0.231  12.310  0.4027  1.8194 -0.1574
17067TIP3   OH272615   1.964   3.944   4.177  0.2586 -0.3212 -0.1208
17067TIP3    H172616   1.961   3.900   4.263  0.1586 -1.3346 -0.6361
17067TIP3    H272617   1.875   3.972   4.162  0.1802 -0.5484 -0.0921
17068TIP3   OH272618   5.774   0.509  13.574  0.2130  0.1501 -0.3855
17068TIP3    H172619   5.813   0.425  13.551  1.2805  0.9591 -1.6293
17068TIP3    H272620   5.699   0.487  13.630 -0.4295 -1.7006 -1.9330
17069TIP3   OH272621   3.735   4.906   2.379 -0.2210 -0.2233  0.0584
17069TIP3    H172622   3.708   4.815   2.362 -0.9605 -0.1121  0.6187
17069TIP3    H272623   3.653   4.955   2.383  0.1502  0.3892  0.2740
17070TIP3   OH272624   1.136   4.510   3.264  0.4629  0.4500  0.1495
17070TIP3    H172625   1.142   4.598   3.300 -0.0272 -0.4626  2.5701
17070TIP3    H272626   1.157   4.452   3.337 -0.4824 -1.4840 -1.0483
17071TIP3   OH272627   6.672   5.936   3.654 -0.2487  0.8629 -0.2756
17071TIP3    H172628   6.694   5.843   3.648 -2.0134  0.4477 -0.5705
17071TIP3    H272629   6.645   5.960   3.566 -2.4710  0.9397  0.3895
17072TIP3   OH272630   3.361   3.768  12.563  0.3832  0.0566 -0.4369
17072TIP3    H172631   3.380   3.769  12.657  0.4988  1.7729 -0.4697
17072TIP3    H272632   3.355   3.860  12.538 -0.9775 -0.3884 -1.8560
17073TIP3   OH272633   3.693   6.669   6.116  0.5981 -0.1024 -0.9802
17073TIP3    H172634   3.606   6.631   6.130  0.5784  0.3251  0.0861
17073TIP3    H272635   3.690   6.753   6.162  1.4298  0.1124 -1.3153
17074TIP3   OH272636   0.031   4.908  14.118  0.0793  0.3335  0.1663
17074TIP3    H172637   0.022   4.813  14.124 -0.1336  0.4777  2.7668
17074TIP3    H272638  -0.059   4.940  14.115  0.1544  0.4183 -2.1649
17075TIP3   OH272639   3.263   4.389  14.822 -0.1960  0.2380  0.0995
17075TIP3    H172640   3.334   4.453  14.822 -1.1462  1.3115 -0.3949
17075TIP3    H272641   3.196   4.428  14.879 -0.8452 -0.2466 -0.3332
17076TIP3   OH272642   2.999   5.945   3.692  0.2507 -0.4911 -0.1322
17076TIP3    H172643   2.996   5.868   3.634 -0.1495 -0.1715 -0.5387
17076TIP3    H272644   2.908   5.958   3.719  0.6665 -1.6445  1.9114
17077TIP3   OH272645   0.245   4.425   5.375 -0.6068  0.2902  0.3881
17077TIP3    H172646   0.178   4.398   5.438  0.2493  0.9327  1.5769
17077TIP3    H272647   0.324   4.438   5.427 -0.1281  1.7225 -0.6646
17078TIP3   OH272648   2.506   1.549  16.786 -0.1267  0.0226  0.2245
17078TIP3    H172649   2.537   1.634  16.817 -1.8873  1.6158 -2.2295
17078TIP3    H272650   2.576   1.518  16.728  0.5198 -0.2102  1.1283
17079TIP3   OH272651   3.094   1.761   1.131  0.6530  0.3140  0.5081
17079TIP3    H172652   3.058   1.778   1.218 -0.1205 -0.1648  0.2855
17079TIP3    H272653   3.089   1.666   1.121  1.2977  0.3083  0.1773
17080TIP3   OH272654   1.360   4.597   5.326  0.2722  0.3139  0.2693
17080TIP3    H172655   1.305   4.593   5.405  0.2832 -0.5466  0.2415
17080TIP3    H272656   1.365   4.506   5.296  1.2985  0.4543 -0.0129
17081TIP3   OH272657   1.324   4.212  15.235  0.6862 -0.2907 -0.0104
17081TIP3    H172658   1.304   4.252  15.150 -0.3588  0.9957  0.8288
17081TIP3    H272659   1.334   4.286  15.295  1.8592 -1.1765  0.9064
17082TIP3   OH272660   4.080   0.036  13.858  0.0197  0.3360  0.0824
17082TIP3    H172661   4.079   0.131  13.849 -0.4098  0.5030  1.8579
17082TIP3    H272662   4.044   0.004  13.775 -1.0405  1.7487 -0.0205
17083TIP3   OH272663   6.186   5.718   5.085 -0.0072  0.2295 -0.0030
17083TIP3    H172664   6.254   5.690   5.146  1.5010 -1.0097 -2.1988
17083TIP3    H272665   6.208   5.809   5.064 -0.0392  0.3846  0.6390
17084TIP3   OH272666   0.333   3.278  13.260 -0.3496  0.1140 -0.1906
17084TIP3    H172667   0.285   3.200  13.233 -0.9402 -0.0870  1.3920
17084TIP3    H272668   0.266   3.335  13.300  0.3838  0.6765  0.2470
17085TIP3   OH272669   1.479   4.264   4.778  0.0321  0.1676  0.0934
17085TIP3    H172670   1.552   4.206   4.798 -0.9255 -0.9662  0.3642
17085TIP3    H272671   1.449   4.297   4.863 -1.7324 -1.8086  0.2582
17086TIP3   OH272672   5.132   4.615   3.151 -0.2480 -0.1531 -0.4620
17086TIP3    H172673   5.097   4.685   3.095 -1.7429 -1.1029 -0.7572
17086TIP3    H272674   5.133   4.654   3.239 -1.6843  0.0663 -0.5160
17087TIP3   OH272675   1.669   5.501   2.503 -0.0656  0.2340  0.5498
17087TIP3    H172676   1.622   5.491   2.586 -0.5166  2.0236  0.5267
17087TIP3    H272677   1.600   5.507   2.437  0.2831 -0.5879  0.1082
17088TIP3   OH272678   6.066   2.714   5.240  0.2956  0.4482  0.1405
17088TIP3    H172679   6.156   2.687   5.218 -0.3213 -1.0084 -0.6605
17088TIP3    H272680   6.068   2.730   5.334  1.6675  1.4975 -0.0502
17089TIP3   OH272681   1.496   2.635  13.758  0.4009 -0.4934 -0.0815
17089TIP3    H172682   1.438   2.593  13.822  0.1232  0.0185  0.0060
17089TIP3    H272683   1.438   2.694  13.709  0.4513 -1.4509 -1.3217
17090TIP3   OH272684   0.005   3.224  11.103  0.3048 -0.1839 -0.2713
17090TIP3    H172685  -0.074   3.194  11.149  1.5291 -1.9978  0.7206
17090TIP3    H272686   0.005   3.319  11.115 -0.1862 -0.4711  2.2776
17091TIP3   OH272687   2.087   0.476   3.757  0.2237  0.2336  0.0104
17091TIP3    H172688   2.016   0.426   3.716  1.2344 -1.1315 -0.1230
17091TIP3    H272689   2.099   0.552   3.701 -1.0793  0.4238 -0.0168
17092TIP3   OH272690   1.290   2.247  12.447 -0.0552 -0.1010 -0.0668
17092TIP3    H172691   1.359   2.310  12.470  0.4360 -0.5403 -0.3381
17092TIP3    H272692   1.212   2.301  12.435  0.2805  0.4209  0.0658
17093TIP3   OH272693   0.372   5.076   2.118 -0.8461  0.0006 -0.2105
17093TIP3    H172694   0.304   5.022   2.078 -1.8297 -0.2425  1.7219
17093TIP3    H272695   0.403   5.025   2.192  0.7479  0.5589 -0.4640
17094TIP3   OH272696   5.022   5.142   4.594  0.3650  0.1930 -0.0013
17094TIP3    H172697   4.963   5.153   4.520  0.1267  1.0891  0.3163
17094TIP3    H272698   5.030   5.230   4.632  0.8731 -0.1640  0.7376
17095TIP3   OH272699   3.906   0.749  15.503 -0.0082  0.0604 -0.2209
17095TIP3    H172700   3.893   0.830  15.454 -1.0095  0.3267  0.4712
17095TIP3    H272701   3.820   0.730  15.540  0.3807 -0.9719  0.1561
17096TIP3   OH272702   2.839   2.417   1.930 -0.3921  0.1679 -0.1570
17096TIP3    H172703   2.817   2.459   1.847 -0.0878  0.0915 -0.2743
17096TIP3    H272704   2.934   2.409   1.929 -0.2067  1.8974  1.0261
17097TIP3   OH272705   5.567   6.451  14.350  0.2342 -0.3816  0.1420
17097TIP3    H172706   5.642   6.503  14.324 -1.2512  1.4254 -0.6761
17097TIP3    H272707   5.523   6.428  14.268 -0.6927 -0.4874  0.6506
17098TIP3   OH272708   3.427   0.145  15.640 -0.0987 -0.7113  0.6139
17098TIP3    H172709   3.517   0.135  15.609 -0.3038  1.2416 -0.6975
17098TIP3    H272710   3.436   0.174  15.731  0.6989  2.6741 -0.4797
17099TIP3   OH272711   5.412   4.365   0.823 -0.0942 -0.0113  0.1304
17099TIP3    H172712   5.368   4.303   0.764  0.7746 -1.5414  1.0400
17099TIP3    H272713   5.502   4.333   0.827  0.7460  2.2460 -0.5875
17100TIP3   OH272714   4.295   4.354  14.944 -0.4899  0.3898 -0.7123
17100TIP3    H172715   4.308   4.420  15.013 -1.2984  0.3142 -0.4838
17100TIP3    H272716   4.363   4.289  14.959  0.5454  1.3558 -1.1543
17101TIP3   OH272717   1.028   5.459   5.163  0.0115 -0.2425  0.5130
17101TIP3    H172718   1.016   5.491   5.074  0.6887 -0.2707  0.4138
17101TIP3    H272719   1.081   5.380   5.153  1.1065  0.4270  1.0561
17102TIP3   OH272720   1.351   5.475   6.090 -0.4876  0.3751  0.3999
17102TIP3    H172721   1.378   5.384   6.103  1.9008  0.7259 -1.5485
17102TIP3    H272722   1.356   5.514   6.177  0.5340 -0.8628  0.9199
17103TIP3   OH272723   2.841   0.085   3.865  0.1315 -0.1235  0.6967
17103TIP3    H172724   2.765   0.117   3.816 -0.0571 -0.5587  0.6950
17103TIP3    H272725   2.848   0.144   3.941  1.1511  1.2879 -0.4692
17104TIP3   OH272726   0.926   5.205  12.036 -0.8158  0.0898 -0.6380
17104TIP3    H172727   0.871   5.282  12.046 -1.1238 -0.1842 -0.2125
17104TIP3    H272728   0.906   5.151  12.112 -0.5416 -0.3756 -0.8924
17105TIP3   OH272729   1.105   4.636  13.444  0.0890 -0.0211  0.5265
17105TIP3    H172730   1.056   4.666  13.521 -1.7548  0.1137 -0.6769
17105TIP3    H272731   1.190   4.609  13.479 -0.5026  0.6241  2.5248
17106TIP3   OH272732   1.894   5.793  17.184  0.4073  0.0189  0.5899
17106TIP3    H172733   1.873   5.795  17.277  0.1982 -0.4117  0.5524
17106TIP3    H272734   1.983   5.757  17.180 -0.1434 -1.3447  0.5307
17107TIP3   OH272735   0.303   3.023   0.795  0.6032  0.0105  0.0281
17107TIP3    H172736   0.277   3.041   0.705  0.7148  0.1973  0.0326
17107TIP3    H272737   0.374   3.085   0.812  1.9661 -1.4014 -0.4389
17108TIP3   OH272738   0.781   4.437  11.431  0.0599  0.0914  0.1170
17108TIP3    H172739   0.790   4.342  11.425  1.3042  0.2533 -0.7429
17108TIP3    H272740   0.824   4.461  11.512 -2.6833 -0.3505  1.7864
17109TIP3   OH272741   4.349   1.286  17.108 -0.2219  0.0156  0.3478
17109TIP3    H172742   4.419   1.276  17.172  0.6897  0.8080 -0.5130
17109TIP3    H272743   4.290   1.351  17.147 -1.3682 -1.8558  1.8160
17110TIP3   OH272744   4.714   6.200  11.444 -0.0045  0.3655  0.7266
17110TIP3    H172745   4.799   6.180  11.483  0.1175  0.6945  0.6233
17110TIP3    H272746   4.676   6.114  11.425  1.3324  0.2398 -1.4876
17111TIP3   OH272747   0.902   1.671  15.313  0.0990  0.3403 -0.5539
17111TIP3    H172748   0.979   1.726  15.320  0.0513  0.2620  0.8182
17111TIP3    H272749   0.925   1.591  15.360 -0.8983  0.4173  0.0920
17112TIP3   OH272750   4.090   4.989   0.504  0.3316 -0.6343  0.1284
17112TIP3    H172751   4.024   5.004   0.571  0.2394 -0.4475 -0.0042
17112TIP3    H272752   4.124   4.901   0.522 -1.6209 -1.6959 -1.2212
17113TIP3   OH272753   5.374   2.501  14.928 -0.0967  0.2455  1.0191
17113TIP3    H172754   5.334   2.519  14.844 -1.3670  1.2179  1.8159
17113TIP3    H272755   5.362   2.582  14.978  0.5473 -0.3534  2.1646
17114TIP3   OH272756   0.450   5.912   3.064  0.1029 -0.3895 -0.3208
17114TIP3    H172757   0.488   5.942   2.982  0.8142  0.0498  0.1590
17114TIP3    H272758   0.363   5.952   3.067  0.3430  0.1570 -0.5313
17115TIP3   OH272759   4.039   2.672  16.972 -0.1902  0.0413  0.5832
17115TIP3    H172760   4.030   2.679  16.877 -0.2854 -0.4279  0.5565
17115TIP3    H272761   4.065   2.581  16.988  0.1683  0.2096  0.9821
17116TIP3   OH272762   5.698   2.911  16.160  0.2302 -0.1255  0.1306
17116TIP3    H172763   5.750   2.980  16.201  0.4206  0.1866 -0.6131
17116TIP3    H272764   5.731   2.907  16.070 -1.0462  0.0961 -0.3677
17117TIP3   OH272765   5.282   2.249   1.679 -0.0392 -0.5824 -0.0300
17117TIP3    H172766   5.372   2.269   1.653 -0.8459  0.8153 -1.8603
17117TIP3    H272767   5.273   2.155   1.662  0.3595 -0.2675 -2.1525
17118TIP3   OH272768   2.691   0.635  16.608  0.2422 -0.0558  0.1052
17118TIP3    H172769   2.702   0.580  16.531  0.1923  0.9178 -0.6073
17118TIP3    H272770   2.768   0.617  16.662  0.1600 -0.9113 -0.0586
17119TIP3   OH272771   3.535   4.877  13.740  0.7596  0.5494 -0.2887
17119TIP3    H172772   3.469   4.873  13.809  1.7387  0.3726  0.6555
17119TIP3    H272773   3.485   4.893  13.660 -0.1745  3.9185  0.8643
17120TIP3   OH272774   4.175   0.771   5.918  0.0702 -0.2343  0.3554
17120TIP3    H172775   4.112   0.715   5.964  0.0681 -2.5689 -2.3406
17120TIP3    H272776   4.132   0.792   5.835  1.8884  0.1123 -0.5157
17121TIP3   OH272777   0.872   1.068   3.209 -0.1278 -0.3402  0.4288
17121TIP3    H172778   0.965   1.047   3.198  0.0704  0.9418 -0.4291
17121TIP3    H272779   0.834   0.988   3.247  1.6114 -0.3082  2.3020
17122TIP3   OH272780   1.657   1.946   2.809  0.3303  0.4897 -0.0063
17122TIP3    H172781   1.593   1.960   2.878  2.1700  1.5916  1.5495
17122TIP3    H272782   1.671   2.033   2.771  0.1668  0.0879 -1.0139
17123TIP3   OH272783   0.762   5.630  11.043 -0.1349  0.4397 -0.3266
17123TIP3    H172784   0.714   5.668  10.969 -0.6308 -0.5677 -0.5347
17123TIP3    H272785   0.839   5.589  11.003  1.1599  2.4699  0.0608
17124TIP3   OH272786   2.126   2.617  16.463 -0.2973 -0.0546  0.2112
17124TIP3    H172787   2.189   2.659  16.404 -1.3623  0.1435 -0.8123
17124TIP3    H272788   2.171   2.539  16.494  0.7158  0.4507  0.0372
17125TIP3   OH272789   1.142   4.241   1.337  0.0606 -0.1211  0.1399
17125TIP3    H172790   1.178   4.253   1.425  1.8742  0.7298 -0.6894
17125TIP3    H272791   1.152   4.147   1.320  1.4673  0.0165  0.1228
17126TIP3   OH272792   1.210   6.739  14.392 -0.0221  0.3939 -0.7863
17126TIP3    H172793   1.260   6.774  14.319  1.6760  1.3091  0.7654
17126TIP3    H272794   1.183   6.816  14.442 -0.4884 -0.2500 -0.0362
17127TIP3   OH272795   2.005   5.938  12.060 -0.2421 -0.2675  0.1682
17127TIP3    H172796   1.969   5.980  11.981 -3.1172 -1.2872  0.8619
17127TIP3    H272797   1.959   5.981  12.133  0.9176 -0.7310  1.1790
17128TIP3   OH272798   0.310   0.844  16.652 -0.1808  0.0926 -0.0973
17128TIP3    H172799   0.401   0.864  16.629  0.5047  0.0797  2.4743
17128TIP3    H272800   0.313   0.757  16.692 -1.3415  0.0785 -0.0098
17129TIP3   OH272801   5.515   4.718  11.448  0.0570 -0.3776  0.1602
17129TIP3    H172802   5.472   4.667  11.379  0.3133  0.5518 -0.6904
17129TIP3    H272803   5.591   4.757  11.406  0.5587 -0.2966  1.1273
17130TIP3   OH272804   4.111   5.375  12.313 -0.0902  0.1403 -0.4892
17130TIP3    H172805   4.196   5.333  12.319 -0.4228 -0.4465  0.1250
17130TIP3    H272806   4.048   5.306  12.332 -0.7636  0.3144 -1.9719
17131TIP3   OH272807   0.650   6.419  14.776  0.5872  0.7442 -0.0948
17131TIP3    H172808   0.680   6.420  14.685 -0.1945  1.6492 -0.3491
17131TIP3    H272809   0.560   6.451  14.772  0.1193 -0.3951  0.8481
17132TIP3   OH272810   3.090   1.196   3.899 -0.3542 -0.0440 -0.3307
17132TIP3    H172811   3.073   1.264   3.834  1.4501  1.2355  0.4689
17132TIP3    H272812   3.007   1.183   3.944 -0.5282  2.3303  0.1164
17133TIP3   OH272813   4.004   5.017   0.127 -0.3474  0.4879  0.1716
17133TIP3    H172814   3.948   4.969   0.065 -0.5160 -1.0104  1.4667
17133TIP3    H272815   3.947   5.033   0.202  0.1128  1.5581  0.2943
17134TIP3   OH272816   3.321   1.406  14.300 -0.4797 -0.0576 -0.3684
17134TIP3    H172817   3.304   1.392  14.207  1.0826  0.3694 -0.7315
17134TIP3    H272818   3.375   1.331  14.326 -1.7815 -0.7213  0.4454
17135TIP3   OH272819   0.028   0.475  14.161  0.1087 -0.9490  0.0699
17135TIP3    H172820  -0.063   0.493  14.139  0.6682  0.7992 -0.9451
17135TIP3    H272821   0.062   0.429  14.084  0.5806  0.1681 -0.4112
17136TIP3   OH272822   3.360   4.764  13.113 -0.0170 -0.2248  1.1796
17136TIP3    H172823   3.318   4.848  13.092  1.4477  0.6147  1.5662
17136TIP3    H272824   3.298   4.722  13.173 -0.0628  1.2572  2.2030
17137TIP3   OH272825   0.791   0.563  15.590 -0.0568  0.4442 -0.1227
17137TIP3    H172826   0.753   0.492  15.539 -0.6494  0.8294 -0.2192
17137TIP3    H272827   0.863   0.596  15.535 -0.4364  0.5929 -0.5378
17138TIP3   OH272828   6.765   1.389   3.827 -0.0636  0.3463  0.0889
17138TIP3    H172829   6.692   1.451   3.820 -0.4107  0.0733  1.2280
17138TIP3    H272830   6.819   1.407   3.750 -0.6720  1.4117 -0.0957
17139TIP3   OH272831   0.770   5.307   1.198 -0.6751 -0.2707  0.0070
17139TIP3    H172832   0.710   5.241   1.231 -0.7869 -0.8547 -1.3110
17139TIP3    H272833   0.788   5.364   1.273 -0.0725 -2.1684  1.3448
17140TIP3   OH272834   6.042   0.096  14.075  0.1145  0.2293 -0.0985
17140TIP3    H172835   5.970   0.150  14.042  1.8743  1.2728 -2.3362
17140TIP3    H272836   6.099   0.157  14.120  0.6022 -0.2565 -0.0563
17141TIP3   OH272837   0.191   4.037  12.368 -0.0014 -0.5879 -0.2907
17141TIP3    H172838   0.241   4.067  12.444 -1.0591  0.9693 -0.1707
17141TIP3    H272839   0.111   3.999  12.405 -1.4152  1.9245 -0.6425
17142TIP3   OH272840   1.540   5.299  14.784 -0.5923  0.2197  0.5947
17142TIP3    H172841   1.449   5.298  14.814 -0.5950 -1.3672  0.5887
17142TIP3    H272842   1.592   5.305  14.864 -0.6962  1.5242  0.5766
17143TIP3   OH272843   1.736   3.633   2.440 -0.4320  0.1760 -0.1417
17143TIP3    H172844   1.820   3.661   2.477 -1.1521  0.3381  1.4437
17143TIP3    H272845   1.723   3.545   2.477 -1.0362  0.2240 -0.2422
17144TIP3   OH272846   1.005   0.489   0.471  0.5127 -0.1778 -0.2301
17144TIP3    H172847   1.046   0.476   0.385  1.0498  1.1352 -0.1758
17144TIP3    H272848   1.049   0.425   0.528  1.7907  0.5160 -0.4073
17145TIP3   OH272849   3.091   1.653  16.599  0.4363 -0.4656  0.8940
17145TIP3    H172850   3.124   1.570  16.564  0.2870  0.5830 -1.8819
17145TIP3    H272851   3.167   1.710  16.602  0.0714  0.0512  0.4357
17146TIP3   OH272852   4.874   1.888   1.840  0.0554  0.2442  0.0185
17146TIP3    H172853   4.895   1.975   1.804 -0.1024  0.4311  0.3743
17146TIP3    H272854   4.817   1.907   1.914 -0.6978 -0.2112 -0.4427
17147TIP3   OH272855   3.270   5.789   5.405  0.1900  0.0209  0.3111
17147TIP3    H172856   3.314   5.775   5.489  0.8150  0.4284  0.0597
17147TIP3    H272857   3.294   5.713   5.353  0.4804  0.1721  0.2229
17148TIP3   OH272858   6.440   0.207  12.677 -0.2478  0.0274  0.0663
17148TIP3    H172859   6.446   0.139  12.610  1.6115  0.2591 -0.0345
17148TIP3    H272860   6.511   0.187  12.737 -0.7301  0.9290  0.9443
17149TIP3   OH272861   0.131   1.737  11.664  0.2500  0.0598  0.0265
17149TIP3    H172862   0.196   1.799  11.697 -0.1606  1.1360 -1.1752
17149TIP3    H272863   0.137   1.744  11.568  0.5030 -2.0641 -0.1391
17150TIP3   OH272864   1.003   5.462  16.072 -0.1491 -0.5879 -0.1604
17150TIP3    H172865   0.931   5.419  16.027 -0.4063 -0.7336  0.3898
17150TIP3    H272866   1.057   5.499  16.002 -2.6706  2.6292 -0.4949
17151TIP3   OH272867   2.756   1.696   0.499  0.3810 -0.2619 -0.2269
17151TIP3    H172868   2.707   1.743   0.566  1.8040 -1.5965  1.7827
17151TIP3    H272869   2.712   1.611   0.492  1.1923 -0.7194  0.1659
17152TIP3   OH272870   6.671   4.790   2.438  0.0523  0.1330 -0.0199
17152TIP3    H172871   6.754   4.766   2.480 -0.8499 -0.7025  1.3028
17152TIP3    H272872   6.605   4.735   2.481 -1.1741  0.6704 -1.1758
17153TIP3   OH272873   6.028   5.949  17.157  0.0795  1.1234 -0.3510
17153TIP3    H172874   5.965   6.021  17.160 -0.6924  0.4178  0.8767
17153TIP3    H272875   6.108   5.988  17.121 -0.0436  2.8099  1.1370
17154TIP3   OH272876   1.358   1.985   2.773 -0.3529 -0.3526 -0.1330
17154TIP3    H172877   1.397   2.047   2.834  2.8339 -0.4781 -1.9545
17154TIP3    H272878   1.310   1.923   2.829 -0.5316  1.6082  1.9371
17155TIP3   OH272879   2.315   5.022   0.255 -0.6405  0.1029 -0.2273
17155TIP3    H172880   2.328   4.939   0.301 -1.1352  0.5767  0.7770
17155TIP3    H272881   2.404   5.051   0.233 -0.5267 -1.3407 -1.7759
17156TIP3   OH272882   5.825   4.758   5.439 -0.5090  0.5119  0.4057
17156TIP3    H172883   5.855   4.813   5.367 -1.1128 -0.9178 -0.9889
17156TIP3    H272884   5.892   4.767   5.507  0.7928  0.7829 -0.9048
17157TIP3   OH272885   0.871   1.659   1.566  0.1874 -0.0107 -0.1395
17157TIP3    H172886   0.840   1.744   1.535  1.2094  0.3724 -0.1435
17157TIP3    H272887   0.965   1.671   1.578 -0.2877  0.0990  3.9914
17158TIP3   OH272888   4.816   3.642   2.281 -0.8395  0.3148 -0.1167
17158TIP3    H172889   4.818   3.614   2.189  0.2129  0.3162 -0.0987
17158TIP3    H272890   4.892   3.600   2.321 -0.9725  0.7678  0.6280
17159TIP3   OH272891   4.846   2.864  12.642 -0.4711  0.2389 -0.5604
17159TIP3    H172892   4.769   2.909  12.606 -0.1611  0.3099 -1.1487
17159TIP3    H272893   4.820   2.772  12.644  0.0557  0.0143 -2.4786
17160TIP3   OH272894   4.170   2.171   6.786  0.2221  0.0162 -0.8074
17160TIP3    H172895   4.160   2.221   6.706 -0.6947 -1.5695 -1.7082
17160TIP3    H272896   4.138   2.083   6.764  0.0790 -0.4760  1.2360
17161TIP3   OH272897   4.682   1.354  15.370 -0.7255 -0.6238  0.3681
17161TIP3    H172898   4.615   1.399  15.423 -1.2583 -1.2165  0.1986
17161TIP3    H272899   4.759   1.353  15.427 -0.3899  1.3997 -0.0008
17162TIP3   OH272900   0.987   1.987  14.362 -0.0302  0.0517 -0.0176
17162TIP3    H172901   1.052   1.954  14.423 -1.8375 -0.5756  1.6390
17162TIP3    H272902   0.931   2.044  14.415  0.2250  2.0401 -1.8060
17163TIP3   OH272903   1.668   5.595  11.633  0.2604 -0.2844 -0.1966
17163TIP3    H172904   1.600   5.594  11.700 -0.9082  2.6492 -1.2106
17163TIP3    H272905   1.638   5.532  11.567 -0.6519 -0.2640  0.1849
17164TIP3   OH272906   3.581   3.614  12.450 -0.6552  0.6228  0.5090
17164TIP3    H172907   3.486   3.613  12.463 -0.8248  0.6673 -0.6457
17164TIP3    H272908   3.609   3.524  12.467 -1.4983 -0.3974 -3.1352
17165TIP3   OH272909   5.950   4.995  13.519 -0.2897 -0.5203  0.0833
17165TIP3    H172910   5.864   4.992  13.476 -0.0440  0.7983 -0.5262
17165TIP3    H272911   5.968   5.088  13.530  0.1380 -0.8195  2.1238
17166TIP3   OH272912   3.497   6.683  13.049  0.3697  0.3238  0.3079
17166TIP3    H172913   3.541   6.747  13.105 -0.7862  1.7932 -0.4475
17166TIP3    H272914   3.452   6.735  12.983 -0.1419 -1.2989 -0.6538
17167TIP3   OH272915   2.135   0.029   5.336  0.2158 -0.2385 -0.4967
17167TIP3    H172916   2.156   0.036   5.243 -1.2522  0.4367 -0.7975
17167TIP3    H272917   2.115  -0.064   5.349 -0.2703 -0.2072 -1.0142
17168TIP3   OH272918   1.621   1.486   4.383  0.4312 -0.0261 -0.2334
17168TIP3    H172919   1.599   1.426   4.455  1.1383 -0.8948 -0.7378
17168TIP3    H272920   1.597   1.438   4.304  1.1321  0.2920 -0.6434
17169TIP3   OH272921   0.529   2.926   2.375  0.1971 -0.4518 -0.4190
17169TIP3    H172922   0.461   2.969   2.427 -0.2590  1.0218 -2.2057
17169TIP3    H272923   0.574   2.869   2.438  0.6601  2.4052  1.9817
17170TIP3   OH272924   5.027   1.049  12.697 -0.1241  0.5855  0.1045
17170TIP3    H172925   4.969   1.058  12.773 -0.9968 -0.8333 -0.3585
17170TIP3    H272926   4.972   1.070  12.622 -0.7916 -3.0982 -0.5459
17171TIP3   OH272927   6.658   0.544  15.251  0.0762 -0.0581 -0.1143
17171TIP3    H172928   6.653   0.449  15.260 -1.7917  0.0398  0.1814
17171TIP3    H272929   6.681   0.558  15.159 -0.7949 -0.7974 -0.4635
17172TIP3   OH272930   3.621   2.997  15.973  0.1071  0.5660  0.0839
17172TIP3    H172931   3.676   3.073  15.949  1.0067 -0.1800 -0.2534
17172TIP3    H272932   3.610   3.005  16.068 -2.7854  3.0820 -0.3790
17173TIP3   OH272933   0.923   2.770   1.448 -0.7254 -0.0496 -0.5869
17173TIP3    H172934   0.844   2.722   1.421  0.1835 -0.9346 -1.7163
17173TIP3    H272935   0.939   2.831   1.375  0.4597 -0.8832 -1.0316
17174TIP3   OH272936   2.018   3.883   0.398  0.6484 -0.1418 -0.0915
17174TIP3    H172937   2.036   3.975   0.417  0.2308 -0.5697  2.5568
17174TIP3    H272938   2.070   3.834   0.462 -0.5171 -1.6850 -0.2906
17175TIP3   OH272939   3.860   5.003  15.431 -0.3272  0.5839 -0.4965
17175TIP3    H172940   3.940   5.047  15.401  0.5560 -1.5579 -1.4275
17175TIP3    H272941   3.892   4.927  15.479 -1.7464 -1.5907 -2.8218
17176TIP3   OH272942   0.575   5.168  13.882 -0.0503  0.6835  0.0214
17176TIP3    H172943   0.502   5.229  13.887 -0.3977  0.3104 -0.4503
17176TIP3    H272944   0.534   5.082  13.877  0.4466  0.3581  1.2677
17177TIP3   OH272945   1.568   2.847  12.054 -0.3453  0.3325  0.6507
17177TIP3    H172946   1.549   2.928  12.007  1.7126  0.3229 -0.2370
17177TIP3    H272947   1.531   2.860  12.141 -3.2410  0.7863 -0.5699
17178TIP3   OH272948   2.824   3.031   4.551  0.1282  0.2662 -0.0304
17178TIP3    H172949   2.760   3.083   4.503 -0.9629 -0.0053  1.1246
17178TIP3    H272950   2.880   2.994   4.483 -0.2891  1.3472 -0.9790
17179TIP3   OH272951   4.668   0.595   2.582  0.3367 -0.9237  0.2285
17179TIP3    H172952   4.618   0.594   2.663 -1.3432 -0.2134 -0.7832
17179TIP3    H272953   4.610   0.557   2.517  0.5296  1.2411 -1.2799
17180TIP3   OH272954   6.658   2.254  13.286  0.9169  0.5078 -0.0119
17180TIP3    H172955   6.622   2.183  13.233  1.4767 -0.1199  0.4422
17180TIP3    H272956   6.628   2.334  13.243  0.7215 -0.0041 -0.8272
17181TIP3   OH272957   0.077   2.456  11.677 -0.4981  0.4176  0.1220
17181TIP3    H172958   0.122   2.454  11.761  1.5472  1.0451 -0.9010
17181TIP3    H272959  -0.006   2.501  11.694  1.1943  3.2730  1.2275
17182TIP3   OH272960   3.992   1.411   0.049 -0.6150  0.2867  0.0267
17182TIP3    H172961   4.019   1.360   0.125 -1.2244 -0.2416 -0.1107
17182TIP3    H272962   3.984   1.347  -0.022  0.3718  0.8382 -0.5968
17183TIP3   OH272963   3.346   5.097   2.973  0.3863 -0.2523  0.3093
17183TIP3    H172964   3.292   5.084   3.051  0.4518  1.6809  0.7013
17183TIP3    H272965   3.313   5.034   2.910  0.6290 -2.1607  2.0503
17184TIP3   OH272966   5.325   4.677   4.144 -0.3933 -0.0493 -0.1128
17184TIP3    H172967   5.265   4.603   4.132  0.0694 -0.0279 -2.8848
17184TIP3    H272968   5.406   4.649   4.102  1.4241  0.1446  3.1157
17185TIP3   OH272969   4.729   4.676  16.494 -0.8553  0.3198  0.5076
17185TIP3    H172970   4.655   4.685  16.433  0.0907 -0.6443 -0.7889
17185TIP3    H272971   4.771   4.762  16.492 -1.7163  0.7580  0.9683
17186TIP3   OH272972   3.872   6.490  15.978  0.0268 -0.3900 -0.0150
17186TIP3    H172973   3.910   6.415  15.933  2.1167 -0.5149  1.8582
17186TIP3    H272974   3.843   6.455  16.063  1.4635  0.9738  1.0766
17187TIP3   OH272975   2.653   5.855   1.317  0.3192  0.4400  0.2543
17187TIP3    H172976   2.638   5.762   1.332 -1.0554  0.6856  0.4779
17187TIP3    H272977   2.712   5.858   1.242  0.4556 -0.6090  0.3095
17188TIP3   OH272978   6.543   4.295   2.322  0.1632 -0.6470 -0.1457
17188TIP3    H172979   6.502   4.217   2.285 -0.4026 -0.5842  0.3473
17188TIP3    H272980   6.622   4.308   2.269 -0.0852 -1.1723 -0.6462
17189TIP3   OH272981   0.454   4.151  13.610 -0.0164 -0.1329 -0.0846
17189TIP3    H172982   0.500   4.195  13.539  2.5811 -1.2108  0.8310
17189TIP3    H272983   0.522   4.097  13.652 -2.2948 -2.2985  0.9481
17190TIP3   OH272984   2.500   5.804  12.355  0.2460  0.2034 -0.5118
17190TIP3    H172985   2.516   5.789  12.448  0.4852  1.6232 -0.3188
17190TIP3    H272986   2.416   5.850  12.352  0.5686  0.7603 -0.9640
17191TIP3   OH272987   4.193   5.972   5.308  0.0345 -0.4378  0.0036
17191TIP3    H172988   4.141   6.034   5.257  0.1638 -0.3060  0.0295
17191TIP3    H272989   4.232   6.026   5.378 -0.0617 -0.5975  0.1783
17192TIP3   OH272990   5.993   4.622   1.115  0.6383  0.1766 -0.1020
17192TIP3    H172991   6.045   4.550   1.152  0.3535  0.6757  1.2970
17192TIP3    H272992   5.908   4.614   1.158 -0.0141  0.2054 -1.3613
17193TIP3   OH272993   1.514   2.700   5.739  0.0541  0.3163 -0.1839
17193TIP3    H172994   1.604   2.726   5.718  0.2924 -0.3943 -0.0302
17193TIP3    H272995   1.464   2.782   5.733  0.5429  0.5541 -1.1529
17194TIP3   OH272996   6.455   1.740  14.063  0.1692  0.3521 -0.3522
17194TIP3    H172997   6.418   1.655  14.090 -0.2715 -0.5669 -3.6321
17194TIP3    H272998   6.379   1.794  14.044  0.4296 -0.1393 -2.9511
17195TIP3   OH272999   1.751   5.069   3.811 -0.2733 -1.2265  0.0597
17195TIP3    H173000   1.689   5.139   3.829  0.6256 -0.0383 -1.3747
17195TIP3    H273001   1.756   5.064   3.716  0.4195 -2.5667  0.1453
17196TIP3   OH273002   2.972   3.026   2.064 -0.8155  0.3722 -0.5685
17196TIP3    H173003   3.002   2.935   2.063 -1.1108  0.2349  1.0683
17196TIP3    H273004   2.985   3.057   1.975  1.7164 -0.4975 -0.5444
17197TIP3   OH273005   0.723   2.465  10.406 -0.2689 -0.2303  0.0680
17197TIP3    H173006   0.791   2.509  10.354  1.8788  0.7339  3.5468
17197TIP3    H273007   0.680   2.536  10.453 -0.6853 -1.2962  1.3020
17198TIP3   OH273008   2.221   2.759   0.164 -0.0631 -0.6364  0.4992
17198TIP3    H173009   2.147   2.740   0.105  0.3692  1.5368 -0.7918
17198TIP3    H273010   2.288   2.695   0.138 -0.9220 -1.6276  0.6516
17199TIP3   OH273011   3.871   2.038   0.397  0.0240  0.5895 -0.1788
17199TIP3    H173012   3.794   1.982   0.383  1.2187 -0.8296 -1.2823
17199TIP3    H273013   3.934   1.981   0.440  0.2598  1.9289  1.2990
17200TIP3   OH273014   6.279   0.780  12.878 -0.0454 -0.9630 -0.0471
17200TIP3    H173015   6.218   0.809  12.810  0.9036 -0.4254 -0.6945
17200TIP3    H273016   6.326   0.706  12.839  0.7199 -0.4574 -0.1171
17201TIP3   OH273017   3.243   1.110  12.930 -0.1796 -0.0290 -0.2291
17201TIP3    H173018   3.316   1.148  12.979  0.5468 -0.3984 -1.0290
17201TIP3    H273019   3.169   1.168  12.950 -0.2552 -0.9576  2.4235
17202TIP3   OH273020   0.246   3.893  10.939 -0.0847 -0.0846  0.2861
17202TIP3    H173021   0.248   3.851  10.853  3.5723  1.7419 -0.6219
17202TIP3    H273022   0.154   3.916  10.952 -1.1922 -3.0122 -1.7854
17203TIP3   OH273023   3.729   0.202  16.280 -0.3364 -0.1246 -0.3109
17203TIP3    H173024   3.779   0.209  16.361 -0.4983 -0.8552 -0.1457
17203TIP3    H273025   3.657   0.142  16.301  0.7178 -1.8599 -1.5228
17204TIP3   OH273026   1.593   2.868   1.281  0.3317  0.5206  0.0121
17204TIP3    H173027   1.521   2.863   1.344 -0.3454  4.3855 -0.3424
17204TIP3    H273028   1.671   2.878   1.335  0.2902 -0.8402  0.3326
17205TIP3   OH273029   6.779   1.977   3.881 -0.1917  0.2510  0.5834
17205TIP3    H173030   6.859   1.950   3.835  0.1331  1.2508  0.5439
17205TIP3    H273031   6.713   1.983   3.812 -0.5157 -1.3482  0.7322
17206TIP3   OH273032   5.530   5.887   1.110 -0.2575 -0.2314  0.4904
17206TIP3    H173033   5.553   5.939   1.186  0.9244  1.9422 -1.2815
17206TIP3    H273034   5.437   5.905   1.095  0.2526  1.8272 -0.3891
17207TIP3   OH273035   5.624   3.540   0.503  0.1003  0.5667  0.5816
17207TIP3    H173036   5.530   3.538   0.523  0.0244  0.3820  0.2150
17207TIP3    H273037   5.627   3.535   0.407  0.4127  2.7066  0.4559
17208TIP3   OH273038   3.904   5.314   3.034  0.2567 -0.1496 -0.2283
17208TIP3    H173039   3.927   5.311   3.127  2.0272  1.2850 -0.5900
17208TIP3    H273040   3.911   5.407   3.011 -1.8059 -0.2629 -1.4132
17209TIP3   OH273041   6.145   6.089   3.110  0.2269  0.1195 -0.6973
17209TIP3    H173042   6.186   6.174   3.124 -4.5596  2.8672 -2.4456
17209TIP3    H273043   6.173   6.064   3.022  0.8059  0.3624 -0.5870
17210TIP3   OH273044   1.147   1.259   4.124  0.2472  0.4393  0.3786
17210TIP3    H173045   1.233   1.274   4.084  0.9586 -1.4209  1.1699
17210TIP3    H273046   1.156   1.292   4.214  0.6140 -1.1443  0.9285
17211TIP3   OH273047   3.257   4.629  16.340 -1.1100 -0.4757  0.5132
17211TIP3    H173048   3.215   4.543  16.349 -0.0293 -1.2248 -1.2671
17211TIP3    H273049   3.351   4.610  16.342 -0.8643  0.6700  0.2490
17212TIP3   OH273050   6.538   5.158  12.370 -0.4494  0.3739 -0.2216
17212TIP3    H173051   6.551   5.179  12.462  1.3380  1.6500 -0.7306
17212TIP3    H273052   6.483   5.229  12.337  0.3341  0.8592 -0.5072
17213TIP3   OH273053   4.096   0.323  15.108 -0.1556  0.1848 -0.7176
17213TIP3    H173054   4.080   0.370  15.026 -1.2963  2.7059  0.8720
17213TIP3    H273055   4.188   0.298  15.104  0.1077  1.3424 -2.2445
17214TIP3   OH273056   6.171   3.735  14.781  0.6538 -0.6281 -0.1166
17214TIP3    H173057   6.111   3.663  14.762  2.4007 -2.5044  1.2301
17214TIP3    H273058   6.222   3.704  14.856  0.7237  2.4746  1.1731
17215TIP3   OH273059   2.441   6.233   0.655  0.2945 -0.3530 -0.5837
17215TIP3    H173060   2.468   6.155   0.703  2.5774  0.5708 -0.2673
17215TIP3    H273061   2.504   6.240   0.583 -0.1701  0.9203 -0.8927
17216TIP3   OH273062   4.684   2.744   3.982 -0.0603 -0.2660 -0.0128
17216TIP3    H173063   4.707   2.720   4.071  1.8156 -3.3107 -1.2339
17216TIP3    H273064   4.595   2.711   3.970  0.5750 -2.0539  0.0053
17217TIP3   OH273065   0.903   0.242   0.796  0.5848  0.3558  0.4515
17217TIP3    H173066   0.917   0.241   0.701  0.2273 -0.2246  0.4006
17217TIP3    H273067   0.964   0.177   0.830  0.7361  0.5878  0.6282
17218TIP3   OH273068   4.791   6.325   4.169 -0.0618  0.0278 -0.0315
17218TIP3    H173069   4.699   6.337   4.192  0.2104  0.8306  0.6720
17218TIP3    H273070   4.799   6.364   4.082 -0.5539 -0.7537 -0.4305
17219TIP3   OH273071   2.351   3.364  12.494 -0.3897  0.2615 -0.1567
17219TIP3    H173072   2.377   3.448  12.457 -0.8106 -0.1051 -1.3093
17219TIP3    H273073   2.317   3.386  12.581  3.9763  0.7216  1.5564
17220TIP3   OH273074   4.960   2.116   1.688 -0.0491  0.2693 -0.6017
17220TIP3    H173075   5.046   2.134   1.651 -0.0155  0.6492 -0.3342
17220TIP3    H273076   4.903   2.185   1.653  0.0259  0.7480  0.2090
17221TIP3   OH273077   0.056   0.746   0.377  0.1038 -0.0931  0.2688
17221TIP3    H173078  -0.017   0.685   0.380  0.3091 -0.4839 -1.8382
17221TIP3    H273079   0.134   0.692   0.392  0.2398 -0.2872 -1.0577
17222TIP3   OH273080   3.293   3.883  16.272 -0.1068  0.0737 -0.4015
17222TIP3    H173081   3.270   3.966  16.230 -1.7959  0.4423  1.1981
17222TIP3    H273082   3.384   3.894  16.300 -0.9484  2.1354  1.5793
17223TIP3   OH273083   5.966   1.710  11.538 -0.1429  0.0979 -0.2214
17223TIP3    H173084   6.055   1.681  11.517 -0.7007 -1.8303 -0.0159
17223TIP3    H273085   5.917   1.696  11.458 -0.2289  1.3817 -0.4041
17224TIP3   OH273086   4.640   4.944   0.822 -0.4053  0.0058 -0.3376
17224TIP3    H173087   4.579   5.016   0.805  0.2665  0.9865  1.2195
17224TIP3    H273088   4.717   4.987   0.858  0.8028 -1.3239 -1.3124
17225TIP3   OH273089   1.065   5.617  15.510  0.0869 -0.5605 -0.2171
17225TIP3    H173090   1.084   5.659  15.594  2.0082  0.0441 -0.9431
17225TIP3    H273091   1.033   5.688  15.454  0.5356 -0.6225 -0.5507
17226TIP3   OH273092   1.451   2.030  12.647 -0.0007  0.5720 -0.2837
17226TIP3    H173093   1.469   2.024  12.741  0.5041 -1.2363 -0.4702
17226TIP3    H273094   1.535   2.055  12.609 -0.0069  0.5270 -0.3265
17227TIP3   OH273095   3.796   4.367  12.017 -0.0701 -0.0728  0.0394
17227TIP3    H173096   3.866   4.343  12.077  0.3698  1.4419  0.1484
17227TIP3    H273097   3.822   4.452  11.982 -1.3717  0.0507 -0.6658
17228TIP3   OH273098   2.650   4.640  14.107  0.3889 -0.4154 -0.9976
17228TIP3    H173099   2.665   4.685  14.024 -1.6190  1.9094 -0.1436
17228TIP3    H273100   2.576   4.582  14.090 -1.6501  1.8963 -0.2047
17229TIP3   OH273101   4.569   4.657  12.450  0.1871  0.5676 -0.4159
17229TIP3    H173102   4.487   4.636  12.405 -0.0669  0.6344  0.0093
17229TIP3    H273103   4.638   4.631  12.389 -0.1135 -1.4085  0.0749
17230TIP3   OH273104   6.039   1.381   3.019  0.5940 -0.1912 -0.1509
17230TIP3    H173105   6.108   1.373   2.953  0.6120  1.3760 -0.3566
17230TIP3    H273106   6.080   1.428   3.091 -0.1162  0.3216 -0.0689
17231TIP3   OH273107   3.984   0.189   0.751  0.3102  0.3759 -0.6847
17231TIP3    H173108   3.970   0.281   0.773  0.3100 -0.1134  1.5275
17231TIP3    H273109   4.011   0.190   0.659  1.1392  2.6427 -0.4601
17232TIP3   OH273110   1.792   2.650  13.408  0.4363  0.1703 -0.1377
17232TIP3    H173111   1.842   2.702  13.346 -0.0323 -0.0641 -0.7100
17232TIP3    H273112   1.770   2.711  13.479  1.3186  0.3332 -0.0056
17233TIP3   OH273113   4.056   3.699  12.459  0.2066  0.6583 -0.0515
17233TIP3    H173114   4.040   3.656  12.543 -0.8655 -1.4765 -1.3066
17233TIP3    H273115   3.970   3.731  12.432  0.4224  0.7053 -0.6841
17234TIP3   OH273116   0.248   1.780   4.174  0.0308 -0.1374 -0.2471
17234TIP3    H173117   0.321   1.825   4.216  0.7206 -0.1992 -1.3510
17234TIP3    H273118   0.238   1.699   4.224  0.4948  0.0326  0.1295
17235TIP3   OH273119   4.844   3.126  12.069  0.0375  0.0646 -0.2316
17235TIP3    H173120   4.897   3.089  11.998  0.7984 -1.7065  1.2106
17235TIP3    H273121   4.757   3.137  12.031  0.2052 -1.7156 -1.2115
17236TIP3   OH273122   1.087   4.429  14.693 -0.2002  0.2066 -0.2959
17236TIP3    H173123   1.170   4.475  14.684  0.1582 -0.6366 -1.3862
17236TIP3    H273124   1.112   4.339  14.716 -0.9124  0.7247  2.7184
17237TIP3   OH273125   0.908   0.467   2.567  0.8102 -0.5691  0.3204
17237TIP3    H173126   0.911   0.383   2.522  0.0361 -0.5810  0.2963
17237TIP3    H273127   0.964   0.455   2.644  2.1319 -0.5507 -0.6122
17238TIP3   OH273128   4.770   1.273   5.394 -0.0014 -0.6203  0.0075
17238TIP3    H173129   4.739   1.216   5.324  1.5639 -1.5780  0.0851
17238TIP3    H273130   4.706   1.261   5.465 -1.5275  0.2757 -1.1712
17239TIP3   OH273131   4.437   6.439  16.448  0.1798 -0.3693 -0.1130
17239TIP3    H173132   4.515   6.493  16.453  0.0899 -0.2564  0.0865
17239TIP3    H273133   4.364   6.499  16.463  0.1557 -0.7599  1.4653
17240TIP3   OH273134   3.621   3.873  14.309  0.0446  0.1117  0.6562
17240TIP3    H173135   3.553   3.939  14.301 -0.7787 -0.9605 -1.3819
17240TIP3    H273136   3.587   3.796  14.264  2.5093 -0.5162 -0.2658
17241TIP3   OH273137   2.311   5.814   0.087  0.2710  0.2334 -0.1866
17241TIP3    H173138   2.245   5.757   0.047 -1.5007  1.4093  1.0047
17241TIP3    H273139   2.282   5.823   0.178  1.1461  2.1554 -0.0901
17242TIP3   OH273140   2.129   0.928   3.760  0.6068 -0.0445  0.0121
17242TIP3    H173141   2.214   0.924   3.804 -0.0670  1.7403  1.5854
17242TIP3    H273142   2.065   0.936   3.832 -0.6799  0.9814 -1.2077
17243TIP3   OH273143   5.616   6.682  12.068  0.0121 -0.1143  0.2994
17243TIP3    H173144   5.564   6.657  12.144  1.2224 -2.0392  0.5385
17243TIP3    H273145   5.701   6.709  12.104  0.2769 -0.1581 -0.2814
17244TIP3   OH273146   1.566   5.928   3.762 -0.2501 -0.4268 -0.0608
17244TIP3    H173147   1.470   5.936   3.769 -0.4920 -1.2128 -2.0683
17244TIP3    H273148   1.586   5.843   3.800 -0.1800  0.2423  1.4606
17245TIP3   OH273149   2.135   5.833  10.951 -0.1959 -0.1522  0.2594
17245TIP3    H173150   2.223   5.843  10.914  0.1730 -0.2034  1.1308
17245TIP3    H273151   2.104   5.751  10.913  0.3690 -0.4493  0.4247
17246TIP3   OH273152   2.830   5.957   5.692 -0.6258  0.1282  0.4716
17246TIP3    H173153   2.739   5.972   5.666 -0.1159 -0.5392 -1.8629
17246TIP3    H273154   2.852   5.872   5.652  1.1453  0.4906  0.6281
17247TIP3   OH273155   6.568   4.147  16.491 -0.3425 -0.0255 -0.6399
17247TIP3    H173156   6.488   4.100  16.514  0.0097 -0.3054  0.0227
17247TIP3    H273157   6.631   4.077  16.471  0.4212  0.1223  1.1236
17248TIP3   OH273158   6.739   3.568  11.468 -0.3614  0.2415  0.1396
17248TIP3    H173159   6.716   3.512  11.542  0.0880  0.2364  0.2756
17248TIP3    H273160   6.743   3.656  11.505 -1.5041  0.4310 -0.1647
17249TIP3   OH273161   6.781   6.186   2.795 -0.0471  0.1999 -0.0170
17249TIP3    H173162   6.735   6.232   2.725 -0.4022  0.2629  0.2538
17249TIP3    H273163   6.836   6.254   2.835  1.4698 -0.2332 -1.3387
17250TIP3   OH273164   6.468   4.346  16.785  0.7644 -0.0825 -0.1157
17250TIP3    H173165   6.432   4.257  16.785 -3.0127  1.3446  0.4513
17250TIP3    H273166   6.553   4.337  16.826  2.7018 -4.2129 -4.5119
17251TIP3   OH273167   5.332   6.728   0.868 -0.4912  0.1334 -0.5593
17251TIP3    H173168   5.394   6.785   0.913  1.9605 -1.6265 -1.5980
17251TIP3    H273169   5.262   6.714   0.932  0.4927  1.6224  0.8946
17252TIP3   OH273170   0.193   2.099  13.408  0.3539 -0.2763 -0.1544
17252TIP3    H173171   0.207   2.044  13.330  0.2052  0.5248 -0.7528
17252TIP3    H273172   0.118   2.058  13.453  0.7192 -0.9971 -0.1963
17253TIP3   OH273173   4.094   2.600  12.408 -0.8528 -0.1054 -0.3792
17253TIP3    H173174   4.056   2.515  12.429  0.0859 -0.3977  0.1321
17253TIP3    H273175   4.113   2.640  12.492 -0.5304  0.2753 -0.6317
17254TIP3   OH273176   5.408   3.749  15.545 -0.1923 -0.3971 -0.3554
17254TIP3    H173177   5.327   3.720  15.589 -0.0251 -1.0683 -0.4881
17254TIP3    H273178   5.414   3.693  15.468  0.3581 -0.2841 -0.3911
17255TIP3   OH273179   4.653   2.486  15.300  0.0035 -0.1487  0.0496
17255TIP3    H173180   4.643   2.497  15.205  0.0731 -0.7676 -0.0321
17255TIP3    H273181   4.634   2.394  15.316 -0.6512  0.1029  0.7296
17256TIP3   OH273182   1.287   4.915  16.811  0.0189 -0.1188 -0.2959
17256TIP3    H173183   1.210   4.944  16.860 -1.2118  0.2096 -2.3537
17256TIP3    H273184   1.351   4.985  16.822 -1.0396  0.9653 -0.9465
17257TIP3   OH273185   5.172   0.809  12.542 -0.3912  0.2851  0.8644
17257TIP3    H173186   5.114   0.876  12.579 -1.0818 -0.5011  1.2317
17257TIP3    H273187   5.246   0.858  12.507 -2.7985  1.6078 -2.6265
17258TIP3   OH273188   0.548   0.158  16.613  0.7701 -0.1657 -0.0218
17258TIP3    H173189   0.528   0.103  16.688 -0.8432 -0.2650 -0.5119
17258TIP3    H273190   0.465   0.167  16.567  1.6965  0.0678 -1.6869
17259TIP3   OH273191   6.345   5.978  16.285  0.3563  0.2636  0.1532
17259TIP3    H173192   6.287   6.009  16.215 -0.5710 -1.8506 -0.0584
17259TIP3    H273193   6.409   5.923  16.239  0.4993 -0.1241  0.8191
17260TIP3   OH273194   5.548   6.214   4.916 -0.0381  0.0967  0.3796
17260TIP3    H173195   5.556   6.286   4.978 -0.5083  1.5279 -1.1896
17260TIP3    H273196   5.565   6.254   4.831 -0.0941 -1.6998 -0.4879
17261TIP3   OH273197   4.022   6.783  13.061 -0.0438  0.1361 -0.2438
17261TIP3    H173198   4.115   6.804  13.061  0.0959 -0.3510  1.9875
17261TIP3    H273199   4.018   6.693  13.027  0.2670  0.2156 -0.4954
17262TIP3   OH273200   1.115   1.240  11.789 -0.0786 -0.0119  0.5365
17262TIP3    H173201   1.024   1.269  11.784  0.0764  0.5997  1.1639
17262TIP3    H273202   1.115   1.172  11.856 -0.0229  0.1937  0.7461
17263TIP3   OH273203   5.981   3.933   1.185 -0.0525 -0.3072 -1.3548
17263TIP3    H173204   5.912   3.968   1.241  1.5208  0.1339  0.3155
17263TIP3    H273205   5.987   3.995   1.112 -1.3448 -0.3053 -1.4742
17264TIP3   OH273206   4.161   6.706   5.585 -0.3876  0.4068 -0.9668
17264TIP3    H173207   4.182   6.739   5.673  1.8139 -1.8076 -0.5833
17264TIP3    H273208   4.204   6.767   5.525 -2.3498  2.2426 -0.5807
17265TIP3   OH273209   2.755   3.088  11.749  0.6569 -0.5362 -0.7544
17265TIP3    H173210   2.808   3.129  11.681 -1.4140 -0.2281 -2.2381
17265TIP3    H273211   2.685   3.151  11.767  2.6057  0.5903  3.6256
17266TIP3   OH273212   2.101   5.724   1.442  0.3627 -1.0724 -0.5820
17266TIP3    H173213   2.081   5.635   1.469  1.4071 -2.0799 -3.0053
17266TIP3    H273214   2.085   5.725   1.347  1.0857  1.1039 -0.7216
17267TIP3   OH273215   2.319   0.160   5.759 -0.0691 -0.2171  0.7202
17267TIP3    H173216   2.273   0.105   5.696  0.8810  1.4181 -1.4717
17267TIP3    H273217   2.267   0.153   5.840 -0.8496 -2.9903  0.0157
17268TIP3   OH273218   5.111   5.483   5.466  0.2352 -0.3013  0.5431
17268TIP3    H173219   5.126   5.467   5.373  1.0564 -0.3907  0.6860
17268TIP3    H273220   5.112   5.395   5.505 -0.8761 -0.3271  0.5316
17269TIP3   OH273221   0.518   1.901   0.212  0.6378 -0.4101  0.1390
17269TIP3    H173222   0.592   1.863   0.163  0.8912 -1.3746  1.2545
17269TIP3    H273223   0.546   1.899   0.303  0.8082  2.8253  0.2231
17270TIP3   OH273224   5.460   4.830   3.885  0.4053  0.0651  0.2736
17270TIP3    H173225   5.435   4.766   3.818  0.0322  2.1696 -1.6623
17270TIP3    H273226   5.536   4.790   3.929  0.1775 -1.6967 -0.8668
17271TIP3   OH273227   5.697   4.182   2.670  0.5762  0.4653  0.1927
17271TIP3    H173228   5.606   4.183   2.639  0.1108  0.9317  1.5227
17271TIP3    H273229   5.711   4.270   2.705  0.4088 -0.6272  3.1542
17272TIP3   OH273230   1.371   2.375   2.799 -0.2262  0.1368 -0.0550
17272TIP3    H173231   1.292   2.358   2.748  0.3108  1.2302 -1.2488
17272TIP3    H273232   1.353   2.334   2.884 -2.1122  0.4623 -0.2761
17273TIP3   OH273233   5.938   3.482  15.632  0.6610 -0.3251  0.1205
17273TIP3    H173234   5.903   3.496  15.544 -1.1430  0.5220  0.9479
17273TIP3    H273235   6.020   3.532  15.633 -0.9496  2.4693 -0.0620
17274TIP3   OH273236   2.287   0.492  13.845 -0.3590 -0.2769  0.0204
17274TIP3    H173237   2.203   0.450  13.826 -1.0074  0.0201  2.0529
17274TIP3    H273238   2.299   0.556  13.775 -0.4359 -2.2772 -1.8794
17275TIP3   OH273239   3.567   0.664   1.905  0.8778 -0.1691 -0.1398
17275TIP3    H173240   3.487   0.715   1.912  1.0335 -0.0615  0.9721
17275TIP3    H273241   3.609   0.696   1.825 -1.1979 -1.7064 -1.8715
17276TIP3   OH273242   3.601   2.363   2.699  0.0658  0.1895  0.7911
17276TIP3    H173243   3.538   2.388   2.631  0.9651 -1.0564 -0.5298
17276TIP3    H273244   3.567   2.281   2.735  0.3683  0.0633  0.7966
17277TIP3   OH273245   1.005   3.564   5.664  0.0016  0.6462 -0.0869
17277TIP3    H173246   1.071   3.495   5.656  0.6369  1.4637 -2.4122
17277TIP3    H273247   0.967   3.551   5.751  1.5478 -1.3309  0.3396
17278TIP3   OH273248   1.314   5.889  12.372  0.7240  0.6551 -0.1646
17278TIP3    H173249   1.376   5.948  12.328  1.4505 -1.0270 -1.4264
17278TIP3    H273250   1.250   5.867  12.305 -0.2035  0.8882  0.6260
17279TIP3   OH273251   1.383   4.201  16.022 -0.1850 -0.0616  0.5187
17279TIP3    H173252   1.335   4.167  16.098 -1.4685  0.2936 -0.1066
17279TIP3    H273253   1.415   4.123  15.977  0.7735 -0.2707  1.5310
17280TIP3   OH273254   5.312   0.028  11.651 -0.3454  0.2861 -0.0461
17280TIP3    H173255   5.392   0.028  11.704  0.9271 -1.2549 -1.8783
17280TIP3    H273256   5.273  -0.059  11.666 -0.3194  0.0843 -1.0926
17281TIP3   OH273257   3.437   1.231   5.216  0.1364  0.8733  0.0789
17281TIP3    H173258   3.470   1.321   5.212 -0.9647  1.2737 -0.0810
17281TIP3    H273259   3.513   1.179   5.244  0.9634  1.7458 -0.5039
17282TIP3   OH273260   3.170   0.836  16.258 -0.3227  0.4591 -0.2328
17282TIP3    H173261   3.265   0.848  16.251  0.0391 -1.9028  0.3267
17282TIP3    H273262   3.151   0.851  16.350 -0.4449  0.6041 -0.2825
17283TIP3   OH273263   5.207   5.036  13.788 -0.3268  0.4005  0.3988
17283TIP3    H173264   5.250   5.076  13.713 -0.4934 -1.8511 -0.9367
17283TIP3    H273265   5.150   5.105  13.823 -1.8128  0.8829 -2.8156
17284TIP3   OH273266   1.456   0.626   4.379  0.3218  0.4387  0.1791
17284TIP3    H173267   1.443   0.709   4.333  2.7333  0.7496 -0.0328
17284TIP3    H273268   1.520   0.647   4.447 -0.1235 -0.9437  1.0412
17285TIP3   OH273269   1.383   2.787  13.121  0.0123 -0.0509  0.2446
17285TIP3    H173270   1.315   2.797  13.053 -0.4277 -1.0673  0.5287
17285TIP3    H273271   1.368   2.861  13.180  1.8148  2.1699 -1.9440
17286TIP3   OH273272   2.387   1.455   5.630  0.2223 -0.2059 -0.3487
17286TIP3    H173273   2.372   1.546   5.655  1.3264 -0.6167  1.9160
17286TIP3    H273274   2.340   1.403   5.695  2.0423 -1.2902  0.1417
17287TIP3   OH273275   1.426   6.395   4.878 -0.1284  0.0030 -0.7786
17287TIP3    H173276   1.378   6.335   4.821 -1.8031  1.3196 -0.7812
17287TIP3    H273277   1.463   6.460   4.818 -1.1299  0.8748 -0.4513
17288TIP3   OH273278   4.360   4.281   1.963  0.1021  0.0388  0.1579
17288TIP3    H173279   4.401   4.201   1.930 -1.6411 -0.9528  0.3373
17288TIP3    H273280   4.391   4.350   1.904 -0.0911 -1.1162 -1.3233
17289TIP3   OH273281   3.623   2.007   0.108 -0.0303  0.4203 -0.2348
17289TIP3    H173282   3.630   2.098   0.137  0.4637  0.7814 -1.4251
17289TIP3    H273283   3.641   1.955   0.186  0.9906  1.3477  0.1613
17290TIP3   OH273284   3.474   4.905  16.944 -0.2048  0.5575  0.1164
17290TIP3    H173285   3.532   4.891  17.019 -0.0030  1.5985  0.1683
17290TIP3    H273286   3.477   5.000  16.929 -0.5235  0.4004 -0.9828
17291TIP3   OH273287   6.726   5.168   5.172  0.0910 -0.5650 -0.2953
17291TIP3    H173288   6.733   5.117   5.092  1.3522 -1.4344  0.3373
17291TIP3    H273289   6.637   5.153   5.203  0.4561 -2.4327 -0.0973
17292TIP3   OH273290   6.567   2.468  13.798 -0.2472  0.6050 -0.5940
17292TIP3    H173291   6.571   2.373  13.786 -0.3451  0.4220  0.7782
17292TIP3    H273292   6.631   2.502  13.736 -0.0328 -0.3696 -0.9250
17293TIP3   OH273293   3.865   0.969   5.739  0.2741  0.4791 -0.0062
17293TIP3    H173294   3.900   0.946   5.653  0.9618  3.6333 -0.6240
17293TIP3    H273295   3.789   1.025   5.719 -1.3852 -1.1893  1.4254
17294TIP3   OH273296   1.462   0.305  14.594  0.6017  0.6468 -0.1451
17294TIP3    H173297   1.398   0.360  14.638 -0.5283 -1.1071  0.4432
17294TIP3    H273298   1.452   0.327  14.501 -1.6628 -0.4027 -0.1827
17295TIP3   OH273299   5.458   5.531  12.102 -0.4186  0.8177  0.0832
17295TIP3    H173300   5.415   5.616  12.091 -2.0215 -0.0571 -0.5937
17295TIP3    H273301   5.389   5.473  12.134  0.1987 -0.6650 -1.2060
17296TIP3   OH273302   1.059   1.395   5.494 -0.1422 -0.5637 -0.5002
17296TIP3    H173303   1.097   1.459   5.434  0.1783 -0.9580 -0.7265
17296TIP3    H273304   1.134   1.347   5.529 -0.3614 -0.6554 -0.1538
17297TIP3   OH273305   0.730   0.222   1.428 -0.0817 -0.2212 -0.4151
17297TIP3    H173306   0.712   0.175   1.346  1.4485 -3.3017  0.9615
17297TIP3    H273307   0.786   0.295   1.401 -0.2234 -0.7365 -2.1975
17298TIP3   OH273308   4.248   4.822  16.761 -0.7043  0.2860 -0.3062
17298TIP3    H173309   4.271   4.862  16.677  1.2061 -0.7901 -0.3443
17298TIP3    H273310   4.332   4.799  16.800 -1.6393 -1.0178  1.0090
17299TIP3   OH273311   5.889   0.497  12.648 -0.1348  0.1405 -0.1902
17299TIP3    H173312   5.815   0.508  12.707 -2.1661  1.1564 -2.8509
17299TIP3    H273313   5.891   0.404  12.628 -0.5221  0.0682  0.1127
17300TIP3   OH273314   4.231   0.646   0.184  0.0370 -0.7399 -0.5550
17300TIP3    H173315   4.175   0.582   0.230  2.0428 -3.3626 -1.6234
17300TIP3    H273316   4.316   0.637   0.226  0.7051  0.2052 -1.7002
17301TIP3   OH273317   3.500   2.085   1.755 -0.2991  0.0913  0.0985
17301TIP3    H173318   3.504   1.998   1.715  0.4246  0.7034 -1.1817
17301TIP3    H273319   3.409   2.113   1.742 -0.1770  0.1122 -0.7692
17302TIP3   OH273320   2.565   5.842  11.930 -0.4177  0.7317  0.1488
17302TIP3    H173321   2.510   5.770  11.901 -0.3859  0.3796  0.9549
17302TIP3    H273322   2.503   5.909  11.959 -0.4417  0.7466  0.0616
17303TIP3   OH273323   4.364   1.688   3.282  0.0926  0.1655  0.4598
17303TIP3    H173324   4.380   1.658   3.372  0.5271 -1.8864 -0.2884
17303TIP3    H273325   4.451   1.706   3.247  0.0216 -0.3933 -0.0063
17304TIP3   OH273326   0.564   0.236   4.916  0.2834 -0.8702  0.4030
17304TIP3    H173327   0.618   0.302   4.959  0.0070  0.2410 -0.9042
17304TIP3    H273328   0.474   0.267   4.929  0.0662 -1.6907  0.9102
17305TIP3   OH273329   3.837   6.701   5.091 -0.2505  0.1779 -0.0468
17305TIP3    H173330   3.870   6.634   5.151  0.3282  0.4485 -0.0558
17305TIP3    H273331   3.768   6.658   5.041 -2.1602  0.4958  2.2233
17306TIP3   OH273332   3.647   5.566  11.578 -0.0641  0.3754  0.2158
17306TIP3    H173333   3.615   5.618  11.504 -0.8490 -0.1429  0.1832
17306TIP3    H273334   3.570   5.518  11.608  0.3744  0.1914  1.0437
17307TIP3   OH273335   0.221   4.262  15.207 -0.5285  0.3615  0.1712
17307TIP3    H173336   0.169   4.341  15.188 -1.4900 -0.1623  0.5694
17307TIP3    H273337   0.308   4.295  15.228 -1.3802  1.4822  2.1557
17308TIP3   OH273338   0.228   1.198   4.784  0.2205 -0.4669  1.0017
17308TIP3    H173339   0.176   1.174   4.860  0.3787 -1.0252  0.9393
17308TIP3    H273340   0.220   1.123   4.725 -0.3284  0.1735  0.2420
17309TIP3   OH273341   3.775   1.361   1.763 -0.2556 -0.2022  0.3579
17309TIP3    H173342   3.738   1.380   1.677  0.4830  1.1765  0.3250
17309TIP3    H273343   3.747   1.434   1.818 -1.0609 -1.2747  1.4052
17310TIP3   OH273344   4.738   2.653   1.718  0.3472  0.0756 -0.0936
17310TIP3    H173345   4.657   2.697   1.692 -0.6679 -0.3249  2.2784
17310TIP3    H273346   4.720   2.620   1.806  2.8437 -0.6752  0.1649
17311TIP3   OH273347   6.625   1.108  13.310 -0.4195  0.2740  0.0412
17311TIP3    H173348   6.685   1.057  13.365 -1.0058  0.3901  0.8072
17311TIP3    H273349   6.546   1.055  13.304  0.3057 -0.5819 -2.2652
17312TIP3   OH273350   0.817   4.693  15.853  0.0332  0.3540  0.1772
17312TIP3    H173351   0.844   4.610  15.891 -3.0011  0.2179  2.2079
17312TIP3    H273352   0.852   4.759  15.912  0.0681  0.3769  0.1308
17313TIP3   OH273353   1.147   1.762   2.218  0.1828  0.3031  0.1483
17313TIP3    H173354   1.229   1.772   2.267 -0.5601  2.7138  0.9674
17313TIP3    H273355   1.109   1.850   2.217 -1.6410 -0.4696 -1.5781
17314TIP3   OH273356   2.272   0.921   3.073  0.5422 -0.3121 -0.0157
17314TIP3    H173357   2.258   0.992   3.011  1.4329 -1.0883 -1.1025
17314TIP3    H273358   2.363   0.929   3.100  0.4563 -0.6283  0.3845
17315TIP3   OH273359   6.045   0.585   1.939  0.0440  0.0676  0.1589
17315TIP3    H173360   6.125   0.563   1.985  1.2237  0.9132 -1.4087
17315TIP3    H273361   5.998   0.644   1.998  1.8788  1.7391  0.0141
17316TIP3   OH273362   5.491   6.233   0.158 -0.2910 -0.0552 -0.0272
17316TIP3    H173363   5.493   6.221   0.063  1.2771 -2.6552  0.2766
17316TIP3    H273364   5.400   6.221   0.182 -0.2519 -2.3758 -0.9030
17317TIP3   OH273365   2.363   6.292  15.019 -0.2924 -1.0610 -0.2438
17317TIP3    H173366   2.399   6.357  14.957 -0.3089 -1.5499 -0.7723
17317TIP3    H273367   2.314   6.231  14.964 -1.1331 -0.9474  0.3728
17318TIP3   OH273368   6.751   1.547   4.345  0.3717 -0.1284 -0.0447
17318TIP3    H173369   6.672   1.602   4.345 -1.5870 -2.8664 -0.1017
17318TIP3    H273370   6.773   1.538   4.252  0.0865 -0.2866 -0.0990
17319TIP3   OH273371   4.047   6.619   1.798  0.1049  0.5520  0.2121
17319TIP3    H173372   4.023   6.527   1.795  0.6355  0.4570 -1.2311
17319TIP3    H273373   3.968   6.665   1.769 -0.3394  0.5910  1.4615
17320TIP3   OH273374   1.340   1.146  11.641  0.8133  0.3053  1.4465
17320TIP3    H173375   1.330   1.051  11.627 -0.9555  0.7261 -0.4119
17320TIP3    H273376   1.270   1.168  11.703 -0.0214  0.6954  0.3822
17321TIP3   OH273377   3.962   4.510   4.656 -0.0633 -0.7093  0.7498
17321TIP3    H173378   3.931   4.587   4.704  0.6979  1.3902 -1.9893
17321TIP3    H273379   4.036   4.478   4.708 -0.5516  0.2435  2.0712
17322TIP3   OH273380   3.821   0.313  10.807  0.0467 -0.5423 -0.7729
17322TIP3    H173381   3.785   0.402  10.811 -0.4148 -0.7324 -0.7103
17322TIP3    H273382   3.757   0.263  10.756 -0.3029 -1.1332  0.2465
17323TIP3   OH273383   5.142   4.846  14.510 -0.1966 -0.3559 -0.3805
17323TIP3    H173384   5.192   4.901  14.450 -2.9669  1.5211 -1.0440
17323TIP3    H273385   5.152   4.888  14.596  1.3174 -1.3887 -0.0105
17324TIP3   OH273386   2.635   4.194  12.141  0.1938 -0.0700  0.0319
17324TIP3    H173387   2.700   4.250  12.183  0.2875 -0.6265  0.6397
17324TIP3    H273388   2.555   4.205  12.193  0.2367 -0.5594  0.2084
17325TIP3   OH273389   2.251   2.653   1.987 -0.5443  0.0170  0.4849
17325TIP3    H173390   2.288   2.694   2.065 -0.2393  0.4735  0.1020
17325TIP3    H273391   2.259   2.559   2.003 -0.4842  0.1092  1.0005
17326TIP3   OH273392   1.715   4.919   2.164 -0.0101  0.5942 -0.2424
17326TIP3    H173393   1.673   4.949   2.083 -1.2673 -0.6201 -0.0625
17326TIP3    H273394   1.657   4.949   2.234 -0.0458 -0.1759  0.0720
17327TIP3   OH273395   5.787   6.025  16.860 -0.7267  0.2501 -1.0755
17327TIP3    H173396   5.734   5.995  16.934 -0.6449 -0.9432 -1.4740
17327TIP3    H273397   5.775   6.119  16.857 -0.1505  0.3982  0.8984
17328TIP3   OH273398   0.423   0.957  14.646  0.2286  0.0240 -0.2827
17328TIP3    H173399   0.348   1.016  14.653  0.5693  0.3579  0.6498
17328TIP3    H273400   0.421   0.906  14.727  2.5870  1.9353  1.0236
17329TIP3   OH273401   0.290   6.670  13.037 -0.1784 -0.1727 -0.0026
17329TIP3    H173402   0.287   6.595  12.977 -0.9039 -1.0910  1.1666
17329TIP3    H273403   0.379   6.705  13.027  0.2299 -1.2988 -0.4247
17330TIP3   OH273404   0.899   4.245  13.858 -0.1516  0.7488 -0.2681
17330TIP3    H173405   0.851   4.237  13.776  0.1877  1.7892 -0.5813
17330TIP3    H273406   0.836   4.281  13.920 -0.4931 -0.3255  0.0104
17331TIP3   OH273407   4.706   0.234  16.869 -0.1864  0.2794 -0.6141
17331TIP3    H173408   4.772   0.302  16.854  0.8827 -0.9239 -1.5208
17331TIP3    H273409   4.622   0.278  16.855  0.3325  2.1720  1.8545
17332TIP3   OH273410   0.952   5.685   0.875  0.4345  1.0329 -0.2327
17332TIP3    H173411   0.976   5.593   0.885  0.6170  1.1835  0.7099
17332TIP3    H273412   1.022   5.723   0.822  0.2200  0.5694 -0.8517
17333TIP3   OH273413   0.807   1.576   4.784 -0.9121 -0.2220 -0.0895
17333TIP3    H173414   0.893   1.535   4.778 -1.5065 -1.6717  0.8657
17333TIP3    H273415   0.798   1.602   4.875 -1.5283 -0.2082 -0.1469
17334TIP3   OH273416   6.273   5.510  12.459  0.8491 -0.1393  0.8127
17334TIP3    H173417   6.188   5.476  12.488 -0.4520  1.6423 -0.7957
17334TIP3    H273418   6.264   5.605  12.466  2.8602  0.0570  0.9428
17335TIP3   OH273419   6.535   0.000  12.451 -0.3841  0.1904  0.1761
17335TIP3    H173420   6.505   0.013  12.361  0.7743  0.1749 -0.2255
17335TIP3    H273421   6.620   0.045  12.454 -0.7707  0.8436  1.4778
17336TIP3   OH273422   4.749   4.462  14.806 -0.0787  0.5331  0.1952
17336TIP3    H173423   4.671   4.501  14.767 -1.7759 -1.2093  1.7966
17336TIP3    H273424   4.755   4.501  14.893  1.1300  0.9919 -0.0714
17337TIP3   OH273425   3.266   1.965   0.197  0.1739  0.2379  0.4622
17337TIP3    H173426   3.195   1.994   0.141 -0.1298 -0.3587  0.5337
17337TIP3    H273427   3.343   2.012   0.165 -0.3194  1.1363  0.6057
17338TIP3   OH273428   3.501   0.232  16.680 -0.1926 -0.0388  0.2889
17338TIP3    H173429   3.560   0.208  16.752  0.0925 -2.0358 -0.5720
17338TIP3    H273430   3.437   0.290  16.720  1.3043  0.7262  1.6515
17339TIP3   OH273431   0.245   6.372   1.310  1.2816 -0.1472 -0.3282
17339TIP3    H173432   0.211   6.460   1.297  2.1047  0.2572  0.1787
17339TIP3    H273433   0.172   6.314   1.288  1.1890  0.6109 -2.0663
17340TIP3   OH273434   3.875   4.465   5.587  0.3261  0.0876  0.1378
17340TIP3    H173435   3.947   4.493   5.643  0.7673  1.0109 -0.8763
17340TIP3    H273436   3.796   4.484   5.639  0.7629  0.1498  0.7880
17341TIP3   OH273437   0.526   0.481   0.665 -0.4555  0.1267  0.1198
17341TIP3    H173438   0.439   0.445   0.651 -0.1510 -0.3857 -0.4826
17341TIP3    H273439   0.538   0.543   0.592 -0.2359  0.0424  0.0851
17342TIP3   OH273440   0.692   4.908   2.105 -0.4300 -0.1769  0.4660
17342TIP3    H173441   0.659   4.931   2.019 -0.6504  1.3630  0.9353
17342TIP3    H273442   0.663   4.818   2.119  1.4334 -1.1827 -1.9281
17343TIP3   OH273443   2.780   4.990  14.484 -0.1424 -0.0927  0.1287
17343TIP3    H173444   2.869   4.955  14.487  0.0714  0.4643  0.5751
17343TIP3    H273445   2.742   4.969  14.569  0.3082  1.5416  0.7546
17344TIP3   OH273446   5.283   3.671   2.116 -0.2062  0.1129 -1.0380
17344TIP3    H173447   5.286   3.602   2.182  0.5398  0.3193 -0.8526
17344TIP3    H273448   5.267   3.624   2.034 -1.7593 -0.0868 -0.6355
17345TIP3   OH273449   3.427   4.441   0.659  0.3625 -0.6154  0.1224
17345TIP3    H173450   3.426   4.346   0.664  0.8194 -0.5837  0.9168
17345TIP3    H273451   3.517   4.463   0.635 -0.0462 -0.4319 -1.2958
17346TIP3   OH273452   6.015   2.438  16.014  0.2726  0.6063  0.3518
17346TIP3    H173453   6.030   2.419  16.107  0.1467  0.7468  0.4020
17346TIP3    H273454   5.946   2.505  16.015  0.6770  1.0292  0.1803
17347TIP3   OH273455   1.520   4.187   1.281 -0.2062 -0.1135 -0.4579
17347TIP3    H173456   1.564   4.272   1.288  0.8722 -0.6892 -0.1917
17347TIP3    H273457   1.544   4.141   1.361  0.7990 -1.3941 -1.4707
17348TIP3   OH273458   3.208   1.750   4.062  0.3779 -0.3532 -0.4587
17348TIP3    H173459   3.172   1.732   4.149  0.2190 -0.7707 -0.6083
17348TIP3    H273460   3.141   1.719   4.001 -0.2671  1.5190 -0.7264
17349TIP3   OH273461   5.100   0.712  12.077  0.1091 -0.1075  0.2548
17349TIP3    H173462   5.167   0.754  12.132  0.3568 -0.9361  0.6027
17349TIP3    H273463   5.028   0.694  12.137 -0.8492  1.7022 -0.3335
17350TIP3   OH273464   4.058   3.035   4.424 -0.6078  0.2307  0.2827
17350TIP3    H173465   4.019   3.001   4.505  1.1025  0.7015  1.3456
17350TIP3    H273466   4.015   2.986   4.354 -0.5630 -1.7663  1.5988
17351TIP3   OH273467   2.211   0.227  15.062  0.1986  0.0446 -0.0733
17351TIP3    H173468   2.174   0.194  14.980  0.6199  0.1196 -0.2947
17351TIP3    H273469   2.225   0.321  15.046  1.0351 -0.0973 -0.1982
17352TIP3   OH273470   0.704   4.270   0.576 -0.0539  0.7448  0.3878
17352TIP3    H173471   0.708   4.310   0.663 -1.7826 -2.8243  2.2015
17352TIP3    H273472   0.611   4.269   0.555  0.0431 -1.4333 -0.0125
17353TIP3   OH273473   2.059   3.747  10.630  0.6260  0.2779  0.3017
17353TIP3    H173474   2.106   3.827  10.607 -0.4588 -0.0014 -3.3110
17353TIP3    H273475   1.967   3.774  10.633  0.5837 -0.0768  2.9207
17354TIP3   OH273476   6.784   4.876  16.744  0.0175  0.1855 -0.0296
17354TIP3    H173477   6.758   4.907  16.657 -0.3380  1.5268  0.5497
17354TIP3    H273478   6.873   4.844  16.732 -0.3475 -0.4660 -1.0870
17355TIP3   OH273479   5.595   3.953  16.405 -0.3376 -0.0674  0.3772
17355TIP3    H173480   5.580   3.862  16.383 -1.6798  0.4663 -0.9855
17355TIP3    H273481   5.510   3.985  16.435 -0.2024  1.0597 -0.3875
17356TIP3   OH273482   6.043   2.764   1.698 -0.9521 -0.6263 -0.0107
17356TIP3    H173483   6.080   2.676   1.712 -1.9759 -1.1383 -0.4448
17356TIP3    H273484   6.032   2.799   1.786 -0.5052 -0.9241  0.1679
17357TIP3   OH273485   1.436   3.311  11.014 -0.1923 -0.0616  0.3590
17357TIP3    H173486   1.469   3.341  10.929  0.0879  0.9243  0.8010
17357TIP3    H273487   1.491   3.358  11.077 -1.3967  0.3552  1.0946
17358TIP3   OH273488   5.602   5.362   5.638  0.4522  0.3150  0.3187
17358TIP3    H173489   5.551   5.339   5.560 -0.5825 -0.1978  1.1309
17358TIP3    H273490   5.630   5.278   5.673  1.1794  0.5604  0.3221
17359TIP3   OH273491   1.665   6.592  14.069 -0.3186 -0.3251  0.1778
17359TIP3    H173492   1.693   6.631  14.152  1.6743 -0.6530 -0.3123
17359TIP3    H273493   1.724   6.517  14.057 -0.4014 -0.1133 -1.6696
17360TIP3   OH273494   5.131   3.165  15.482  0.2938  0.5045  0.4787
17360TIP3    H173495   5.123   3.145  15.389 -1.7657 -1.9859  1.1386
17360TIP3    H273496   5.050   3.210  15.504  0.6998  0.9378  1.1097
17361TIP3   OH273497   5.057   5.426  13.487  0.3867  0.1225  0.5815
17361TIP3    H173498   5.066   5.512  13.526  1.3957  0.6806 -0.8379
17361TIP3    H273499   4.963   5.418  13.469  0.1742  0.5820  1.4549
17362TIP3   OH273500   2.774   3.343   2.438 -0.4793  0.0302 -0.3565
17362TIP3    H173501   2.779   3.276   2.370  0.3544  1.1047 -1.3955
17362TIP3    H273502   2.856   3.334   2.487 -0.7342 -0.2486  0.0155
17363TIP3   OH273503   3.239   2.112  13.996  0.0267 -0.0183 -0.1949
17363TIP3    H173504   3.288   2.051  14.052  2.2362 -0.2515 -2.3086
17363TIP3    H273505   3.218   2.062  13.918  2.1271  1.9441 -2.0945
17364TIP3   OH273506   2.354   3.234   0.027  0.0820  0.2773 -0.2692
17364TIP3    H173507   2.383   3.243   0.117 -0.6300 -0.0386 -0.0008
17364TIP3    H273508   2.304   3.152   0.026  1.3372 -0.4943 -1.2841
17365TIP3   OH273509   5.255   6.532   3.148  0.3266  0.2345  0.2308
17365TIP3    H173510   5.290   6.578   3.071 -1.2965  0.3106 -0.4715
17365TIP3    H273511   5.241   6.443   3.118 -2.0760  0.7076 -0.1292
17366TIP3   OH273512   1.830   3.791  11.355 -0.7540  0.9671 -0.3319
17366TIP3    H173513   1.881   3.858  11.399  0.8261  0.1268 -0.8412
17366TIP3    H273514   1.773   3.839  11.294  1.1778  1.7924 -1.5173
17367TIP3   OH273515   1.653   4.948  14.893 -0.1798 -0.4662  0.1738
17367TIP3    H173516   1.586   4.898  14.940 -0.2811 -0.5204 -0.0310
17367TIP3    H273517   1.674   5.021  14.952  0.4576 -1.1267  0.7741
17368TIP3   OH273518   0.085   6.643   6.636  0.1859  0.2604  0.3103
17368TIP3    H173519   0.124   6.693   6.565  0.1163 -0.1388 -0.0168
17368TIP3    H273520   0.039   6.571   6.591  0.8710 -0.4883  0.8069
17369TIP3   OH273521   5.499   3.798  13.540  0.3847  0.2190 -0.3182
17369TIP3    H173522   5.587   3.760  13.539  0.4281  0.2851  0.5133
17369TIP3    H273523   5.514   3.893  13.539  0.3222  0.2260 -0.4749
17370TIP3   OH273524   5.457   3.691  11.511  0.1589  0.0584  0.2128
17370TIP3    H173525   5.457   3.768  11.568 -1.4626  1.5367 -1.6979
17370TIP3    H273526   5.506   3.719  11.434  0.3237 -1.1282 -0.1120
17371TIP3   OH273527   0.462   0.014   0.727  0.1294  0.0536 -0.3624
17371TIP3    H173528   0.498   0.080   0.787 -1.4701  0.2647  0.3938
17371TIP3    H273529   0.537  -0.041   0.705  1.1503  1.1558  0.2845
17372TIP3   OH273530   2.766   0.918  11.071  0.4858  0.0906 -0.7410
17372TIP3    H173531   2.841   0.950  11.021  0.1839  1.0647 -0.5808
17372TIP3    H273532   2.692   0.924  11.011 -0.1270  2.5005  0.2087
17373TIP3   OH273533   4.146   0.729  16.439  0.4004 -0.1092  0.1192
17373TIP3    H173534   4.087   0.673  16.388  0.7364 -0.2028 -0.1652
17373TIP3    H273535   4.196   0.777  16.373  2.5673 -2.0163  0.3332
17374TIP3   OH273536   1.025   2.252  13.906  0.2321 -0.0931  0.2965
17374TIP3    H173537   0.959   2.316  13.932  1.3175  1.6226 -1.0543
17374TIP3    H273538   1.011   2.240  13.812  2.7416  1.3919 -0.3093
17375TIP3   OH273539   3.218   3.682  16.509 -0.1749 -0.2518 -1.1587
17375TIP3    H173540   3.183   3.612  16.455 -3.2190  0.7032 -0.4846
17375TIP3    H273541   3.249   3.638  16.588 -2.8381 -0.7573 -0.3777
17376TIP3   OH273542   4.727   3.770  16.330  0.3257 -0.2812 -0.1332
17376TIP3    H173543   4.645   3.773  16.380  0.9104  0.6911  0.7976
17376TIP3    H273544   4.733   3.856  16.288  0.4412 -0.6596 -0.8851
17377TIP3   OH273545   2.160   3.693   1.125 -0.5546 -0.1863  0.4301
17377TIP3    H173546   2.226   3.746   1.169 -2.5900  2.1926  0.7629
17377TIP3    H273547   2.198   3.673   1.040  0.1601  2.1426  0.1602
17378TIP3   OH273548   2.496   0.729  14.633 -0.0163  0.2966  0.3929
17378TIP3    H173549   2.514   0.805  14.689 -0.1539 -0.4321  1.4549
17378TIP3    H273550   2.479   0.766  14.547  2.5189  1.3162  0.2715
17379TIP3   OH273551   1.547   3.798  12.844 -0.1751  0.0547 -0.1425
17379TIP3    H173552   1.531   3.714  12.802 -1.3130  0.2125 -0.0479
17379TIP3    H273553   1.496   3.861  12.792 -0.3603  0.4777  0.5446
17380TIP3   OH273554   6.438   3.996  15.319 -0.3094  0.3584  1.2810
17380TIP3    H173555   6.503   4.062  15.295  1.0762 -1.1372  0.8206
17380TIP3    H273556   6.359   4.022  15.271  0.8647  0.4563 -0.6722
17381TIP3   OH273557   5.572   5.011  13.866  0.1230  0.2128  0.2199
17381TIP3    H173558   5.535   5.093  13.900  0.5514  1.3878 -2.0344
17381TIP3    H273559   5.497   4.962  13.835  0.0819  0.9656 -0.9179
17382TIP3   OH273560   3.888   3.490  14.061  0.7136 -0.2232 -0.3553
17382TIP3    H173561   3.904   3.486  14.155  0.0611  0.0600 -0.2337
17382TIP3    H273562   3.834   3.413  14.043  2.4755 -1.3857 -0.8269
17383TIP3   OH273563   4.010   4.933  12.164 -0.5326 -0.2191 -0.4646
17383TIP3    H173564   3.926   4.904  12.127 -0.3358  1.5434 -2.3701
17383TIP3    H273565   4.011   5.028  12.150  1.0039  0.0395  1.1911
17384TIP3   OH273566   4.462   4.261  15.532  0.1338  0.4745 -0.7554
17384TIP3    H173567   4.546   4.280  15.573  0.8218  0.8145 -2.2727
17384TIP3    H273568   4.433   4.179  15.573 -0.4388  2.0888  2.1954
17385TIP3   OH273569   1.709   3.380  15.545 -0.1244 -0.5287  0.0445
17385TIP3    H173570   1.672   3.468  15.543 -0.4473 -0.6745 -1.3769
17385TIP3    H273571   1.638   3.325  15.576 -0.4551 -0.5089 -0.6556
17386TIP3   OH273572   2.443   2.369  12.605 -0.1633  0.0660  0.0179
17386TIP3    H173573   2.415   2.393  12.693 -1.3877  0.6913 -0.5214
17386TIP3    H273574   2.532   2.403  12.598 -0.4476  0.9587  0.6501
17387TIP3   OH273575   0.550   0.294  11.757  0.4386 -0.0456 -0.3009
17387TIP3    H173576   0.514   0.330  11.838 -2.2333 -1.3203 -0.8532
17387TIP3    H273577   0.615   0.230  11.785 -0.5608 -0.5735  0.8391
17388TIP3   OH273578   3.528   0.238   4.704  0.1904 -0.0520 -0.0482
17388TIP3    H173579   3.497   0.180   4.774 -2.7605 -0.4365 -1.5754
17388TIP3    H273580   3.499   0.325   4.731  1.3141  0.1703  0.4413
17389TIP3   OH273581   4.459   4.081  16.611 -0.3087  0.1294  0.3660
17389TIP3    H173582   4.496   4.004  16.655  1.1833 -0.5397 -1.9779
17389TIP3    H273583   4.374   4.052  16.580  0.4402 -0.7495 -0.9142
17390TIP3   OH273584   2.026   5.022   5.139  0.1554 -0.1018  0.0465
17390TIP3    H173585   2.003   5.110   5.169  1.3435 -0.0263  0.7784
17390TIP3    H273586   1.952   4.995   5.085 -0.0417  1.5142 -0.5316
17391TIP3   OH273587   5.631   2.260  13.403 -0.1702 -0.2963 -0.4334
17391TIP3    H173588   5.586   2.205  13.339  0.1990 -1.7755  0.5679
17391TIP3    H273589   5.652   2.201  13.475 -0.4888  1.3329  1.0184
17392TIP3   OH273590   0.128   6.667   1.856 -0.2618  0.0791  0.3298
17392TIP3    H173591   0.203   6.690   1.911  1.4713 -0.0547 -1.8711
17392TIP3    H273592   0.168   6.630   1.777 -2.6624  0.2601 -1.0008
17393TIP3   OH273593   2.712   2.311  15.112  0.1163 -0.2898  0.0885
17393TIP3    H173594   2.806   2.316  15.130  0.6658 -2.6582 -1.8135
17393TIP3    H273595   2.693   2.386  15.056  0.8298  0.2752  0.5997
17394TIP3   OH273596   4.400   3.950   2.514 -0.1339 -0.8814 -0.0545
17394TIP3    H173597   4.379   3.882   2.451 -1.8372 -0.6395  0.2046
17394TIP3    H273598   4.317   3.998   2.526  1.0683  1.3373 -0.3662
17395TIP3   OH273599   1.699   1.982   6.040 -0.3345 -0.1330  0.6083
17395TIP3    H173600   1.703   1.892   6.007  1.5917  0.4984 -0.9727
17395TIP3    H273601   1.606   2.004   6.036 -0.4860 -1.0344 -1.9062
17396TIP3   OH273602   4.129   3.050   3.299 -0.5860  0.2019  0.4699
17396TIP3    H173603   4.216   3.075   3.269 -0.6103 -1.3052 -0.9386
17396TIP3    H273604   4.074   3.126   3.281  0.1917  0.6889  0.1525
17397TIP3   OH273605   0.031   2.339  13.035 -0.4765  0.0901 -0.4194
17397TIP3    H173606   0.085   2.267  13.068 -0.7985 -1.2087 -2.6932
17397TIP3    H273607  -0.059   2.310  13.049 -0.6059  0.3007 -0.8214
17398TIP3   OH273608   4.480   0.879   1.839  0.2087 -0.5052 -0.3392
17398TIP3    H173609   4.504   0.911   1.927 -1.5770  0.3397 -0.1416
17398TIP3    H273610   4.411   0.815   1.855  0.2181 -0.7007 -1.1033
17399TIP3   OH273611   2.203   5.034  16.003 -0.3675  0.5416  0.6498
17399TIP3    H173612   2.230   5.125  15.991 -1.2599  0.6055 -0.9914
17399TIP3    H273613   2.254   4.985  15.939  0.5846 -0.2322  1.9656
17400TIP3   OH273614   5.351   6.133   4.746 -0.2594 -0.8083 -1.2017
17400TIP3    H173615   5.407   6.157   4.819 -1.2337  2.1179 -1.3467
17400TIP3    H273616   5.393   6.057   4.706  1.4298 -1.0786  1.0729
17401TIP3   OH273617   4.274   2.250  12.006 -0.2847  0.3405 -0.1925
17401TIP3    H173618   4.208   2.294  11.951  0.9613  0.9124 -1.2801
17401TIP3    H273619   4.357   2.284  11.973  0.5134  0.2622  1.7232
17402TIP3   OH273620   0.231   0.177   3.488  0.0799 -0.2108  0.1102
17402TIP3    H173621   0.209   0.141   3.402 -2.9651  0.7345  0.4327
17402TIP3    H273622   0.242   0.271   3.473  2.7428 -0.4503  0.2335
17403TIP3   OH273623   2.567   5.354  12.712 -0.3112 -0.4394  0.0916
17403TIP3    H173624   2.475   5.347  12.689  0.2496  0.1743 -2.4839
17403TIP3    H273625   2.567   5.398  12.797 -2.3027  1.8928 -1.0557
17404TIP3   OH273626   5.755   3.811  15.343  0.7431 -0.2387 -0.0481
17404TIP3    H173627   5.743   3.717  15.335 -1.5677 -0.1644  1.9155
17404TIP3    H273628   5.712   3.848  15.266 -0.3899 -0.6777  0.3718
17405TIP3   OH273629   3.902   5.216  14.763  0.4667 -0.0310 -0.0247
17405TIP3    H173630   3.991   5.251  14.755  0.2959  0.2341 -0.7515
17405TIP3    H273631   3.853   5.257  14.693  0.0270 -0.9985 -0.2990
17406TIP3   OH273632   5.418   5.345  15.645 -0.1197 -0.0881 -0.3241
17406TIP3    H173633   5.477   5.404  15.691 -0.4310  1.4689 -1.8930
17406TIP3    H273634   5.457   5.333  15.559 -0.3458 -1.7535 -0.2137
17407TIP3   OH273635   1.125   0.826  11.363 -0.0346 -0.5491 -0.3989
17407TIP3    H173636   1.051   0.769  11.342 -0.8737  1.0431 -1.9219
17407TIP3    H273637   1.128   0.889  11.290  2.1367  0.0789  0.1997
17408TIP3   OH273638   0.592   4.034   1.449 -0.2030  0.0511 -0.2531
17408TIP3    H173639   0.586   4.129   1.455 -0.5792 -0.0734  1.4707
17408TIP3    H273640   0.512   4.002   1.490 -0.4789 -1.0019 -1.5756
17409TIP3   OH273641   4.935   2.376  12.119  0.4449  0.1708 -0.2395
17409TIP3    H173642   4.890   2.331  12.048  0.3664  1.1410 -0.8141
17409TIP3    H273643   4.969   2.306  12.174  0.3252 -0.5928 -1.1238
17410TIP3   OH273644   3.822   3.982   4.731  0.2201 -0.2287  0.5601
17410TIP3    H173645   3.916   3.983   4.743  0.1027  0.6893  1.4667
17410TIP3    H273646   3.797   3.890   4.744  1.4790 -1.3259 -3.9154
17411TIP3   OH273647   2.262   4.073  13.414 -0.4075  0.1926  0.3986
17411TIP3    H173648   2.260   4.012  13.488  0.1829  1.0602  1.1498
17411TIP3    H273649   2.200   4.038  13.351 -0.3849 -0.9493  1.0109
17412TIP3   OH273650   1.515   1.590  15.126  0.7322 -0.3366 -0.5501
17412TIP3    H173651   1.482   1.670  15.168  2.0517  0.3257 -0.7384
17412TIP3    H273652   1.590   1.564  15.179 -0.8883 -2.6516  0.7283
17413TIP3   OH273653   0.905   5.428   4.010  0.4310  0.1341  0.0209
17413TIP3    H173654   0.899   5.508   3.958 -0.3623  1.3397  1.8920
17413TIP3    H273655   0.999   5.417   4.027  0.5697  0.4944 -0.4933
17414TIP3   OH273656   1.570   4.246  11.897  0.2464 -0.0658  0.0664
17414TIP3    H173657   1.475   4.229  11.901  0.0197  0.6036 -1.7325
17414TIP3    H273658   1.590   4.293  11.977 -0.6700 -1.4864  1.1661
17415TIP3   OH273659   4.701   5.430  16.855  0.2627 -0.0662 -0.6226
17415TIP3    H173660   4.663   5.418  16.943 -0.0608  0.3018 -0.7137
17415TIP3    H273661   4.627   5.420  16.796  0.7294 -1.7579 -0.9446
17416TIP3   OH273662   3.667   3.512  17.062  0.1991 -0.1777 -0.5091
17416TIP3    H173663   3.666   3.527  17.157 -0.8252  0.4904 -0.6244
17416TIP3    H273664   3.656   3.417  17.053 -1.6534 -0.0252 -0.0129
17417TIP3   OH273665   5.025   3.491  12.024  0.1624 -0.6079  0.7596
17417TIP3    H173666   5.010   3.443  11.943 -0.0775  1.4360 -0.4316
17417TIP3    H273667   5.102   3.449  12.062 -0.6830 -2.6355  0.3158
17418TIP3   OH273668   2.448   1.805  10.306 -0.3940  0.3157  0.0553
17418TIP3    H173669   2.400   1.723  10.293  0.5021 -0.2084  0.0377
17418TIP3    H273670   2.380   1.870  10.324 -0.9464 -0.8738  2.3713
17419TIP3   OH273671   2.393   4.649   2.375  0.5578 -0.3110  0.6969
17419TIP3    H173672   2.419   4.617   2.288  1.9672 -0.0055  0.9939
17419TIP3    H273673   2.352   4.574   2.417  2.2476 -1.2386  0.7263
17420TIP3   OH273674   1.186   5.975   4.950  0.8454  0.1490 -0.0225
17420TIP3    H173675   1.101   5.931   4.953  0.6426  0.5339  0.0343
17420TIP3    H273676   1.245   5.917   4.997  0.9296 -0.7881 -1.2510
17421TIP3   OH273677   5.710   3.838  14.296  0.7246 -0.2789 -0.5309
17421TIP3    H173678   5.654   3.849  14.372  0.5921  0.1907 -0.6953
17421TIP3    H273679   5.705   3.922  14.249  2.1369  0.0309 -0.1581
17422TIP3   OH273680   1.603   3.407  14.886 -0.1933  0.5019  0.0890
17422TIP3    H173681   1.528   3.391  14.829  0.0413 -0.6581  0.0932
17422TIP3    H273682   1.565   3.413  14.974 -0.4180  1.1454 -0.0486
17423TIP3   OH273683   0.719   1.008   4.051  0.2059  0.1203 -0.5245
17423TIP3    H173684   0.724   0.993   3.956  0.8524 -0.1588 -0.4477
17423TIP3    H273685   0.752   0.927   4.090  2.8579  1.3329 -0.0918
17424TIP3   OH273686   3.515   4.912   5.032  0.0866 -0.3726 -0.0124
17424TIP3    H173687   3.505   4.997   5.075  4.0241  0.3023 -0.1870
17424TIP3    H273688   3.514   4.849   5.104  1.8882  0.3212  0.6628
17425TIP3   OH273689   2.302   4.831  16.716 -0.2970 -0.3700  0.2900
17425TIP3    H173690   2.385   4.816  16.761  0.0872 -1.4219 -0.7267
17425TIP3    H273691   2.325   4.833  16.623 -1.2348  0.5684  0.0723
17426TIP3   OH273692   0.972   6.196  15.724  0.0355 -0.7398  0.2466
17426TIP3    H173693   1.032   6.271  15.718 -0.6039 -0.1962  0.5880
17426TIP3    H273694   0.887   6.230  15.697 -0.4672 -1.0949  1.3397
17427TIP3   OH273695   1.437   3.974   1.883 -0.5221  0.4097 -0.0067
17427TIP3    H173696   1.441   4.025   1.964  1.3469  2.4528 -1.3265
17427TIP3    H273697   1.484   3.894   1.903 -0.4372  0.7106  1.0526
17428TIP3   OH273698   5.416   3.237   1.892 -0.0592 -0.4429 -0.3029
17428TIP3    H173699   5.437   3.158   1.942  1.8910 -0.2207 -0.7044
17428TIP3    H273700   5.496   3.289   1.896 -1.3914  1.6035  0.1132
17429TIP3   OH273701   1.629   2.169   0.465 -0.2232  0.1743 -0.1724
17429TIP3    H173702   1.604   2.108   0.534  0.2020 -1.6237 -1.5693
17429TIP3    H273703   1.548   2.212   0.440 -0.9420 -1.4452 -0.7035
17430TIP3   OH273704   2.470   5.165  16.130 -0.0929 -0.1176 -0.0038
17430TIP3    H173705   2.467   5.175  16.225  1.1561 -0.0856  0.0456
17430TIP3    H273706   2.471   5.070  16.116  0.7661 -0.1226  0.0640
17431TIP3   OH273707   0.350   3.963  16.444  0.1772  0.0874  0.0638
17431TIP3    H173708   0.347   3.893  16.509 -1.8376 -0.1749 -0.3027
17431TIP3    H273709   0.328   4.042  16.493  1.2499  0.2936  0.2240
17432TIP3   OH273710   4.562   0.486   1.022  0.5209  0.3252 -0.6793
17432TIP3    H173711   4.555   0.437   0.939 -0.9792  2.7411 -2.0413
17432TIP3    H273712   4.606   0.567   0.998  1.5451  0.3512  1.2371
17433TIP3   OH273713   0.420   3.541   4.206  0.0211  0.0806  0.2665
17433TIP3    H173714   0.479   3.600   4.253 -0.3178  0.2422  0.4908
17433TIP3    H273715   0.408   3.582   4.120 -1.8243  1.4159  1.1217
17434TIP3   OH273716   3.589   1.859  12.580 -0.4153 -0.0190  0.2068
17434TIP3    H173717   3.592   1.954  12.568 -2.0451  0.0597  0.2867
17434TIP3    H273718   3.672   1.838  12.623 -0.0707  1.3754  0.2695
17435TIP3   OH273719   5.885   4.477  12.427  0.5452 -0.2903  0.1900
17435TIP3    H173720   5.860   4.407  12.486  0.5818 -0.3680  0.1142
17435TIP3    H273721   5.948   4.437  12.367  1.7632  0.1903  1.1150
17436TIP3   OH273722   3.634   3.168  12.227 -0.1047 -0.2064 -0.8192
17436TIP3    H173723   3.681   3.085  12.240  0.9801  0.5756  0.3714
17436TIP3    H273724   3.542   3.143  12.220  0.2041 -1.4973 -0.3860
17437TIP3   OH273725   6.142   5.648  15.446  0.2831 -0.1401  0.4493
17437TIP3    H173726   6.063   5.599  15.470  0.0782 -0.7862 -1.5141
17437TIP3    H273727   6.112   5.714  15.384  0.7268  1.9447  2.3493
17438TIP3   OH273728   2.979   2.670   0.924  0.3230  0.1667  0.0414
17438TIP3    H173729   3.067   2.686   0.959  1.4548 -2.3192 -1.4837
17438TIP3    H273730   2.993   2.659   0.830 -1.4816 -1.2434 -0.0813
17439TIP3   OH273731   5.613   5.333   0.084 -0.6403  0.7040  0.2097
17439TIP3    H173732   5.618   5.428   0.097 -0.7544  0.7219  0.1279
17439TIP3    H273733   5.590   5.298   0.170 -1.1414  0.7976  0.1152
17440TIP3   OH273734   6.421   1.607  17.063 -0.1033  0.6991  0.6270
17440TIP3    H173735   6.385   1.535  17.012  1.7118  0.6813 -0.6722
17440TIP3    H273736   6.359   1.619  17.135 -1.3389 -0.9841 -0.1346
17441TIP3   OH273737   2.194   4.311   0.767 -0.1690 -0.3636  0.0389
17441TIP3    H173738   2.189   4.342   0.857 -0.6432  1.0029 -0.4490
17441TIP3    H273739   2.277   4.263   0.763  0.6093  0.9164  0.7807
17442TIP3   OH273740   4.184   3.834   4.506 -0.3685 -0.1471 -0.2868
17442TIP3    H173741   4.177   3.788   4.589  1.8579  1.6448  0.9622
17442TIP3    H273742   4.139   3.917   4.521  0.6591  0.4827 -0.5983
17443TIP3   OH273743   0.068   3.886   0.852 -0.3531  0.7398  0.2208
17443TIP3    H173744   0.077   3.811   0.911  1.7420  0.8541  0.0815
17443TIP3    H273745  -0.013   3.870   0.805 -1.4770  0.0634  2.3196
17444TIP3   OH273746   4.307   0.865   3.904  0.2300 -0.2315 -0.3952
17444TIP3    H173747   4.279   0.844   3.815 -0.7259  2.5347 -0.7885
17444TIP3    H273748   4.302   0.781   3.951 -1.4346 -1.2771 -2.3560
17445TIP3   OH273749   3.516   5.527   4.405 -0.4168  0.8153 -0.0861
17445TIP3    H173750   3.498   5.619   4.387  1.7882  0.9938 -1.6014
17445TIP3    H273751   3.432   5.492   4.436 -1.4355  3.1757 -0.0407
17446TIP3   OH273752   2.588   0.412  14.000 -0.4418  0.9551  0.0415
17446TIP3    H173753   2.514   0.446  14.051 -1.0465 -0.6299  0.2467
17446TIP3    H273754   2.550   0.343  13.947  0.8997  0.1362  0.1320
17447TIP3   OH273755   6.751   2.235  17.084  0.2923  0.2538  0.7390
17447TIP3    H173756   6.801   2.153  17.085 -2.6534 -1.6107  0.6532
17447TIP3    H273757   6.709   2.239  17.170 -0.5235  1.0565  0.3178
17448TIP3   OH273758   4.373   0.240  14.648 -0.4326 -0.1762 -0.2120
17448TIP3    H173759   4.455   0.287  14.631 -1.0524  1.1261  0.3347
17448TIP3    H273760   4.306   0.292  14.604 -1.2638 -0.0210  1.2086
17449TIP3   OH273761   0.780   3.569   3.442  0.1403 -0.2784 -0.1056
17449TIP3    H173762   0.741   3.481   3.445 -0.6164  0.0287 -0.6189
17449TIP3    H273763   0.867   3.556   3.404 -0.0575 -0.7774 -0.3918
17450TIP3   OH273764   6.252   1.354  14.429  0.0091  0.5138 -0.1716
17450TIP3    H173765   6.255   1.277  14.486  1.3283  0.9804  0.4039
17450TIP3    H273766   6.182   1.408  14.465  0.1690  0.3384  0.4071
17451TIP3   OH273767   1.726   2.645   1.548  0.2600  0.1301  0.0789
17451TIP3    H173768   1.638   2.644   1.587  0.5759  0.3886  0.7987
17451TIP3    H273769   1.776   2.583   1.601  0.6964  0.4868  0.0787
17452TIP3   OH273770   1.850   3.488  11.799  0.0192 -0.5284  0.0726
17452TIP3    H173771   1.910   3.538  11.744  1.2659 -2.3156 -0.2806
17452TIP3    H273772   1.908   3.441  11.859 -1.1659 -0.7798  1.0277
17453TIP3   OH273773   6.103   0.798  14.695  0.1277 -0.2576  1.0429
17453TIP3    H173774   6.101   0.830  14.786 -0.7395 -0.4911  1.1101
17453TIP3    H273775   6.016   0.761  14.681  0.1547  0.0526  0.0113
17454TIP3   OH273776   2.663   2.586  16.813 -0.0636 -0.1584 -0.4198
17454TIP3    H173777   2.625   2.545  16.736 -0.3644  1.0326 -0.9039
17454TIP3    H273778   2.688   2.512  16.869 -2.7280 -0.9855 -0.2550
17455TIP3   OH273779   3.962   5.893   3.438 -0.5229  0.1092  0.0310
17455TIP3    H173780   3.866   5.896   3.440 -0.5508 -1.0940  0.8509
17455TIP3    H273781   3.984   5.801   3.453  0.7555  0.3235 -0.4929
17456TIP3   OH273782   2.630   1.854  12.380  0.2311 -0.2352 -0.3816
17456TIP3    H173783   2.635   1.944  12.347  0.0953  0.0172  0.2981
17456TIP3    H273784   2.537   1.839  12.396  0.0713 -0.9961 -1.8664
17457TIP3   OH273785   2.029   2.218  15.521 -0.0931 -0.2150  0.0426
17457TIP3    H173786   1.939   2.186  15.528  0.0924 -0.6893  0.2986
17457TIP3    H273787   2.082   2.139  15.509  0.4469 -0.0717  1.4304
17458TIP3   OH273788   5.489   4.365  12.439 -0.8188  0.7999 -0.1990
17458TIP3    H173789   5.524   4.307  12.371 -0.5769 -1.7443  2.0287
17458TIP3    H273790   5.538   4.446  12.429  2.0760 -0.9252 -0.4826
17459TIP3   OH273791   2.879   1.075   5.713  0.0427  0.1811 -0.8621
17459TIP3    H173792   2.957   1.100   5.664  0.2442 -0.3170 -0.8040
17459TIP3    H273793   2.900   0.988   5.748  0.1640  0.8255  0.6740
17460TIP3   OH273794   3.421   0.402   5.823 -0.3182 -0.5173  0.3433
17460TIP3    H173795   3.358   0.374   5.756  0.8873  1.0662 -1.5280
17460TIP3    H273796   3.464   0.322   5.852 -1.1699 -1.2769 -0.4786
17461TIP3   OH273797   1.026   6.735   6.191  0.1546 -0.1361 -0.0350
17461TIP3    H173798   0.991   6.769   6.109 -1.3295  0.2128  0.7303
17461TIP3    H273799   1.120   6.753   6.186  0.1621 -0.5242 -1.8392
17462TIP3   OH273800   1.527   4.984   4.852  0.4085 -0.5640 -0.5363
17462TIP3    H173801   1.456   4.922   4.833 -0.2267  0.2496 -0.8839
17462TIP3    H273802   1.590   4.934   4.904 -0.2556 -1.3968 -0.5191
17463TIP3   OH273803   1.787   5.125   5.533 -0.0479  0.6784  0.1187
17463TIP3    H173804   1.766   5.172   5.614  1.4122 -0.7658  1.3580
17463TIP3    H273805   1.738   5.043   5.539  0.0144  0.5944 -0.5022
17464TIP3   OH273806   6.573   2.074   5.852  0.2865  0.1536  0.5134
17464TIP3    H173807   6.565   2.093   5.945 -2.4780  0.0719  0.3185
17464TIP3    H273808   6.604   2.157   5.813  0.6845  0.4138  1.3794
17465TIP3   OH273809   4.622   2.762   2.734  0.1934  0.9896 -0.3412
17465TIP3    H173810   4.589   2.846   2.766 -0.8835  0.1092  0.8920
17465TIP3    H273811   4.543   2.714   2.708  0.7221 -0.0465 -0.0479
17466TIP3   OH273812   0.277   0.789   1.413 -0.1270  0.2641 -0.3579
17466TIP3    H173813   0.294   0.700   1.383 -1.2642 -0.2334  0.4093
17466TIP3    H273814   0.307   0.845   1.341  2.3632 -0.6421 -0.0410
17467TIP3   OH273815   5.173   4.300  16.560  0.3770  0.2085  0.2633
17467TIP3    H173816   5.168   4.378  16.504 -1.2223  1.3546  1.9281
17467TIP3    H273817   5.249   4.316  16.616 -1.1467  1.6232  2.0233
17468TIP3   OH273818   3.573   5.722  14.051 -0.6760 -0.0344  0.5565
17468TIP3    H173819   3.534   5.706  13.965 -1.2363  0.8017  0.6508
17468TIP3    H273820   3.516   5.788  14.092  0.0017  0.1183  1.2741
17469TIP3   OH273821   0.058   1.673  16.994  0.6610 -0.6702 -0.8964
17469TIP3    H173822   0.024   1.635  17.076 -0.5001  0.4502 -0.8415
17469TIP3    H273823   0.150   1.692  17.013  0.6224 -1.2256 -0.1310
17470TIP3   OH273824   0.482   3.120  11.510 -0.0743 -0.9427 -0.3275
17470TIP3    H173825   0.476   3.141  11.417  1.5781 -1.9838 -0.6823
17470TIP3    H273826   0.561   3.067  11.518  0.5009  0.1626  1.8626
17471TIP3   OH273827   1.781   0.775   2.766  0.5933  0.4342  0.6133
17471TIP3    H173828   1.842   0.810   2.701  1.7535 -2.1146  0.2429
17471TIP3    H273829   1.739   0.852   2.804 -1.0574  1.9838 -4.0155
17472TIP3   OH273830   5.727   4.054  16.896  0.4174  0.0452 -0.0720
17472TIP3    H173831   5.635   4.080  16.897  0.3906 -0.0468 -0.3354
17472TIP3    H273832   5.759   4.078  16.984  0.0226 -0.3560  0.1836
17473TIP3   OH273833   0.543   4.015   3.316 -0.0164  0.5115  0.8428
17473TIP3    H173834   0.578   3.927   3.331  2.0708  1.2492  0.3987
17473TIP3    H273835   0.573   4.067   3.390  0.1016  1.2416  0.2933
17474TIP3   OH273836   2.872   3.701   3.342 -0.1081 -0.6694 -0.2629
17474TIP3    H173837   2.961   3.727   3.362 -0.7591  1.6090 -0.2565
17474TIP3    H273838   2.882   3.618   3.295  1.9488 -0.8787  0.4907
17475TIP3   OH273839   0.204   4.377  16.937  0.3471  0.0629  0.0378
17475TIP3    H173840   0.256   4.397  17.015 -0.2448  0.4782  0.3326
17475TIP3    H273841   0.158   4.297  16.959  0.2187  0.1530  0.1017
17476TIP3   OH273842   3.372   4.149  12.861 -0.7039  0.1219 -0.6891
17476TIP3    H173843   3.333   4.079  12.808 -0.5030 -0.2360 -0.3646
17476TIP3    H273844   3.435   4.104  12.917 -0.4213  0.5948 -0.6310
17477TIP3   OH273845   2.706   1.811  14.114  0.3214  0.2664  0.4166
17477TIP3    H173846   2.616   1.817  14.146 -0.4785  1.7154 -1.9433
17477TIP3    H273847   2.729   1.718  14.125 -1.5946 -0.1944  0.7322
17478TIP3   OH273848   2.663   1.915  15.208  0.1023  0.4558  0.1119
17478TIP3    H173849   2.655   2.004  15.242 -0.0134 -0.0365  1.4248
17478TIP3    H273850   2.647   1.859  15.284 -0.9904 -0.7046 -0.9550
17479TIP3   OH273851   6.731   5.691  15.590 -0.0170  0.6279 -0.1019
17479TIP3    H173852   6.700   5.776  15.558 -0.1119  1.0724  1.1443
17479TIP3    H273853   6.750   5.706  15.683  2.2284 -0.1074 -0.4233
17480TIP3   OH273854   3.769   5.403   0.502 -0.3539 -0.1694 -0.2124
17480TIP3    H173855   3.865   5.410   0.497 -0.3187 -1.1653 -0.9821
17480TIP3    H273856   3.748   5.427   0.592  0.6338 -0.0670 -0.0028
17481TIP3   OH273857   4.553   3.438   5.663  0.2324 -0.3622 -0.9060
17481TIP3    H173858   4.600   3.521   5.669  0.1238 -0.4514  2.0811
17481TIP3    H273859   4.623   3.372   5.658  0.3248 -0.1534 -2.5799
17482TIP3   OH273860   2.696   5.317  11.434  0.1597  0.1396 -0.0271
17482TIP3    H173861   2.636   5.381  11.471 -0.8955 -1.4235  1.0236
17482TIP3    H273862   2.642   5.264  11.375  0.8672 -0.2347 -0.3478
17483TIP3   OH273863   1.377   0.129   0.754 -0.0502 -0.2725 -0.2879
17483TIP3    H173864   1.395   0.175   0.835  0.9627 -1.7101  0.3312
17483TIP3    H273865   1.413   0.185   0.685 -1.0327  1.0108  0.2369
17484TIP3   OH273866   4.289   0.191   2.627 -0.0944 -0.1444  0.0947
17484TIP3    H173867   4.240   0.152   2.699 -2.3214  4.9653  1.5673
17484TIP3    H273868   4.357   0.243   2.670  0.5936  0.4113 -1.6241
17485TIP3   OH273869   4.662   4.478  12.921 -0.0338  0.0200 -0.1249
17485TIP3    H173870   4.701   4.540  12.860 -0.4038 -0.5781 -0.9717
17485TIP3    H273871   4.660   4.525  13.005  0.6948  0.7535 -0.5080
17486TIP3   OH273872   2.393   0.056  12.729 -0.5042 -0.4185 -0.1422
17486TIP3    H173873   2.346  -0.013  12.681 -0.9416 -0.7809  0.7892
17486TIP3    H273874   2.427   0.114  12.661 -1.1013 -0.9375 -0.8913
17487TIP3   OH273875   2.829   5.883  12.498 -0.5351  0.0897 -0.6211
17487TIP3    H173876   2.857   5.974  12.488  0.6744 -0.1149  0.7809
17487TIP3    H273877   2.764   5.886  12.569  1.1593 -0.4391  0.9897
17488TIP3   OH273878   1.779   4.148  12.493  0.0293 -0.2380 -0.5911
17488TIP3    H173879   1.812   4.148  12.404 -1.6682  0.7797 -1.2294
17488TIP3    H273880   1.856   4.168  12.547  0.5271  1.8192 -2.0225
17489TIP3   OH273881   0.032   5.938   2.256  0.0725 -0.3956 -0.3425
17489TIP3    H173882   0.011   5.859   2.305 -0.9166  0.4237  0.5978
17489TIP3    H273883   0.121   5.960   2.282  0.1680 -0.9192 -0.2215
17490TIP3   OH273884   1.777   0.907  14.735 -0.4160  0.0888  0.2478
17490TIP3    H173885   1.775   0.972  14.665 -0.4175  0.7822  0.8872
17490TIP3    H273886   1.734   0.830  14.697 -1.5862  0.8828 -0.0793
17491TIP3   OH273887   1.484   4.140   1.661 -0.0369 -0.6592 -0.3333
17491TIP3    H173888   1.533   4.074   1.612  0.1849 -0.8702  0.1687
17491TIP3    H273889   1.482   4.106   1.751  0.9727  0.5286  0.1501
17492TIP3   OH273890   1.575   6.379  15.977  0.5511 -0.1845 -0.1656
17492TIP3    H173891   1.624   6.308  16.019  0.3744 -0.4323 -0.3732
17492TIP3    H273892   1.622   6.396  15.896  0.7241  0.0937 -0.0074
17493TIP3   OH273893   5.454   2.469  12.777  0.3692  0.0021  0.7598
17493TIP3    H173894   5.368   2.509  12.791  0.9015  0.7898  1.8637
17493TIP3    H273895   5.435   2.380  12.747 -0.8274  0.2544  0.7688
17494TIP3   OH273896   3.032   2.848   1.315  0.2918  0.5918 -0.0129
17494TIP3    H173897   3.115   2.800   1.306 -1.1213 -1.4250 -2.8937
17494TIP3    H273898   2.970   2.782   1.346 -0.8207  1.5141 -0.2603
17495TIP3   OH273899   3.910   0.638  16.078 -0.4160 -0.3307 -0.2843
17495TIP3    H173900   3.872   0.695  16.011  1.1551  0.6499 -0.3705
17495TIP3    H273901   3.897   0.550  16.044 -3.4144 -0.0998  0.1388
17496TIP3   OH273902   6.532   1.830   4.036 -0.1010  0.3123 -0.4579
17496TIP3    H173903   6.467   1.890   3.999 -0.1920  1.4382  1.4826
17496TIP3    H273904   6.615   1.858   3.997 -0.6799 -0.8010 -2.5479
17497TIP3   OH273905   5.151   3.174  13.274  0.4760  0.4515  0.0539
17497TIP3    H173906   5.149   3.269  13.265  3.3684  0.7239  1.7316
17497TIP3    H273907   5.197   3.143  13.196 -2.5158  0.1685 -1.6828
17498TIP3   OH273908   2.353   5.737  15.237  0.1625  0.1870  0.1072
17498TIP3    H173909   2.383   5.739  15.146 -0.4022 -0.6089 -0.1058
17498TIP3    H273910   2.410   5.799  15.283 -0.7472  1.9959 -1.1534
17499TIP3   OH273911   5.718   5.370  16.651 -0.1476  0.3071 -0.0633
17499TIP3    H173912   5.686   5.334  16.568 -0.4861 -2.2375  1.1212
17499TIP3    H273913   5.813   5.355  16.648 -0.1763  0.1015  0.0716
17500TIP3   OH273914   0.615   2.108  13.228 -0.1723  0.1994  0.2230
17500TIP3    H173915   0.569   2.154  13.298  1.2720  0.9317  0.7189
17500TIP3    H273916   0.546   2.071  13.174 -1.3240 -0.4895  2.1001
17501TIP3   OH273917   0.876   4.983   5.500  0.6369  0.9826  0.2560
17501TIP3    H173918   0.815   5.016   5.434 -1.1684 -1.3570  0.6701
17501TIP3    H273919   0.860   5.038   5.577 -1.7291 -0.2347  0.6845
17502TIP3   OH273920   4.890   3.830   5.723 -0.5840  0.0366  0.1612
17502TIP3    H173921   4.923   3.740   5.727  0.5167  0.4334  0.1643
17502TIP3    H273922   4.913   3.860   5.635 -2.5505 -0.2888 -0.4726
17503TIP3   OH273923   3.699   0.760   0.684 -0.0380  0.4885 -0.3051
17503TIP3    H173924   3.743   0.824   0.740 -1.3049 -0.0364  1.2887
17503TIP3    H273925   3.631   0.721   0.739  1.1570 -2.7747 -1.0183
17504TIP3   OH273926   0.731   3.834  13.082  0.0560 -0.1185 -0.4571
17504TIP3    H173927   0.692   3.769  13.141 -0.8090 -2.2669 -3.3135
17504TIP3    H273928   0.657   3.882  13.046  0.4311 -0.2513 -1.4133
17505TIP3   OH273929   3.901   2.026  13.038  0.0680  0.2962 -0.5123
17505TIP3    H173930   3.907   1.961  12.967  0.8853 -0.5671  0.3430
17505TIP3    H273931   3.883   2.109  12.992  0.8746 -0.1988 -1.7550
17506TIP3   OH273932   5.798   4.909  14.450 -0.0687 -0.3432 -0.2761
17506TIP3    H173933   5.723   4.968  14.453 -0.0743 -0.3178 -0.8226
17506TIP3    H273934   5.841   4.929  14.367  2.5756  2.1111  1.5925
17507TIP3   OH273935   0.892   6.671  16.875 -0.2637 -0.0714  0.2992
17507TIP3    H173936   0.853   6.652  16.790 -0.9908  0.9481  0.3888
17507TIP3    H273937   0.933   6.756  16.864 -1.3215  0.5814  1.2684
17508TIP3   OH273938   2.492   0.848   1.174  0.3897 -0.1058 -0.1054
17508TIP3    H173939   2.525   0.938   1.181 -0.2887  0.3071 -1.9587
17508TIP3    H273940   2.429   0.852   1.102 -1.4549 -1.5309  1.3938
17509TIP3   OH273941   0.717   1.829   4.120 -0.9653  0.9055  0.2555
17509TIP3    H173942   0.782   1.852   4.053 -0.5664 -1.6206 -0.2863
17509TIP3    H273943   0.665   1.760   4.079 -1.0671 -0.3035  2.3613
17510TIP3   OH273944   6.102   2.600   4.683  0.1091 -0.0320  0.4481
17510TIP3    H173945   6.047   2.656   4.627  0.8084  0.8398  0.6209
17510TIP3    H273946   6.040   2.540   4.724 -0.7390  1.0019  0.7126
17511TIP3   OH273947   6.393   5.580   4.603 -0.1837 -0.2978 -0.5186
17511TIP3    H173948   6.372   5.550   4.691  2.0222  0.6827  0.3863
17511TIP3    H273949   6.349   5.665   4.594 -0.8474 -0.6463 -0.5674
17512TIP3   OH273950   3.080   5.331  13.942 -0.6345 -0.6056 -0.1869
17512TIP3    H173951   2.996   5.322  13.897 -0.6068 -2.4412  0.0577
17512TIP3    H273952   3.127   5.399  13.894 -2.4132  0.7143 -0.0802
17513TIP3   OH273953   6.415   3.127  14.569 -0.1574 -0.3186 -0.0683
17513TIP3    H173954   6.486   3.110  14.507 -0.9077 -1.1927 -0.6900
17513TIP3    H273955   6.366   3.200  14.530 -1.0119 -1.2964 -0.8289
17514TIP3   OH273956   3.624   5.288  14.348  1.2082  0.2236 -0.1137
17514TIP3    H173957   3.574   5.225  14.296  0.7645  0.5756 -0.1193
17514TIP3    H273958   3.614   5.371  14.301 -1.1852  1.0742  1.7773
17515TIP3   OH273959   3.542   6.636   4.512  0.0525  0.2248  0.2432
17515TIP3    H173960   3.489   6.567   4.472 -1.7706  0.9625  1.2635
17515TIP3    H273961   3.477   6.696   4.551  1.6685  0.7011  2.3182
17516TIP3   OH273962   2.507   5.786   4.680 -0.7390 -0.2340  0.4076
17516TIP3    H173963   2.545   5.706   4.643  1.0392  0.6646  0.2190
17516TIP3    H273964   2.524   5.853   4.615 -3.7900 -0.0182 -0.2248
17517TIP3   OH273965   5.088   1.263  16.308  0.5154  0.1763 -0.2670
17517TIP3    H173966   5.103   1.200  16.378 -0.4590  1.8627  1.5216
17517TIP3    H273967   5.014   1.228  16.258  0.7602 -0.6790 -0.0331
17518TIP3   OH273968   5.256   0.601  11.125 -0.5232  0.2370 -0.2061
17518TIP3    H173969   5.293   0.628  11.042  0.9095  0.8254  0.6080
17518TIP3    H273970   5.331   0.575  11.178 -1.6126 -3.0892 -0.1180
17519TIP3   OH273971   6.698   3.527  16.115 -0.6849  0.3763  0.2652
17519TIP3    H173972   6.720   3.496  16.203  1.7606  0.1022 -0.4100
17519TIP3    H273973   6.737   3.614  16.110 -0.4460  0.2188 -0.6759
17520TIP3   OH273974   4.524   6.689  16.922 -0.3616  0.7608  0.2263
17520TIP3    H173975   4.447   6.743  16.908  0.5134  2.5670  1.9792
17520TIP3    H273976   4.596   6.752  16.929  1.0860 -0.8106 -0.2708
17521TIP3   OH273977   0.560   0.830   3.692 -0.8620 -0.2591 -0.0378
17521TIP3    H173978   0.608   0.911   3.711  0.3776 -1.2251  1.0848
17521TIP3    H273979   0.503   0.818   3.769 -0.3757 -0.9266  0.2201
17522TIP3   OH273980   0.623   1.552   4.581  0.1312  0.0126  0.1842
17522TIP3    H173981   0.675   1.489   4.531 -0.6026 -1.3017  1.0472
17522TIP3    H273982   0.671   1.562   4.664 -0.1214  0.0629  0.3238
17523TIP3   OH273983   2.440   1.519   1.490  0.2758 -0.1254 -0.3774
17523TIP3    H173984   2.432   1.424   1.503  2.0043  0.1104  3.0942
17523TIP3    H273985   2.361   1.555   1.530 -0.3739 -0.0964 -1.6859
17524TIP3   OH273986   2.874   3.887   5.181 -0.4373  0.2544 -0.2845
17524TIP3    H173987   2.929   3.874   5.258 -0.7643  1.5554  0.1921
17524TIP3    H273988   2.911   3.964   5.137  0.0028 -0.7317 -1.6739
17525TIP3   OH273989   2.512   3.279   0.247 -0.1484  0.8325 -0.0547
17525TIP3    H173990   2.554   3.361   0.275 -0.5341  1.2985 -0.8322
17525TIP3    H273991   2.574   3.241   0.184 -0.0259  0.5790  0.2148
17526TIP3   OH273992   1.386   2.736   5.125  0.4487 -0.4377  0.0575
17526TIP3    H173993   1.440   2.665   5.160 -2.7881 -1.6910  2.7659
17526TIP3    H273994   1.396   2.808   5.187 -0.2314 -0.3399  0.0640
17527TIP3   OH273995   2.948   4.261   6.404  0.4228 -0.2459  0.1649
17527TIP3    H173996   3.024   4.306   6.441 -0.6404  0.7280  1.2214
17527TIP3    H273997   2.942   4.180   6.454  1.0854 -0.5744 -0.2858
17528TIP3   OH273998   6.337   0.661   3.298  0.2914  0.2727  0.7509
17528TIP3    H173999   6.419   0.628   3.334 -0.5288 -1.4702  1.0774
17528TIP3    H274000   6.272   0.594   3.321 -0.8600  0.7111 -1.1288
17529TIP3   OH274001   6.427   3.380   2.727 -0.4713 -0.3956  0.3364
17529TIP3    H174002   6.438   3.453   2.787 -1.3355 -1.6668  2.0895
17529TIP3    H274003   6.366   3.321   2.772 -2.4154 -0.6389 -2.4655
17530TIP3   OH274004   0.613   1.142  14.572 -0.0588  0.3391  0.1190
17530TIP3    H174005   0.531   1.092  14.575  0.2398 -0.1704 -0.0738
17530TIP3    H274006   0.681   1.075  14.570  0.3421  0.7573 -0.2781
17531TIP3   OH274007   2.836   1.368   5.593 -0.5628  0.4045 -0.2976
17531TIP3    H174008   2.913   1.412   5.629 -0.9837  1.5721 -0.7910
17531TIP3    H274009   2.864   1.340   5.505  0.2456 -1.8417  0.6384
17532TIP3   OH274010   5.003   0.179   2.691  0.1935 -0.1677 -0.2544
17532TIP3    H174011   4.918   0.207   2.724  0.2127 -0.3713 -0.0292
17532TIP3    H274012   4.986   0.095   2.648  0.2677 -0.1711 -0.2789
17533TIP3   OH274013   5.682   5.153   5.203 -0.0910  0.0477 -0.4187
17533TIP3    H174014   5.592   5.181   5.216 -0.4486 -2.2623  2.5867
17533TIP3    H274015   5.723   5.163   5.288  2.4301  0.7431 -1.6689
17534TIP3   OH274016   5.642   6.211   2.584  0.4899  0.0792  0.3900
17534TIP3    H174017   5.550   6.187   2.580  0.4131  0.1268  1.5446
17534TIP3    H274018   5.643   6.306   2.571  0.5367 -0.1374 -1.3042
17535TIP3   OH274019   4.632   1.013  14.012 -0.1336 -0.0456 -0.3991
17535TIP3    H174020   4.553   1.066  14.025 -0.7127  0.0937 -4.0483
17535TIP3    H274021   4.698   1.076  13.983  0.5530 -0.5822  0.0053
17536TIP3   OH274022   0.831   4.011  17.193  0.0583  0.0323  0.2470
17536TIP3    H174023   0.898   4.007  17.261 -0.7026 -0.6454  0.9605
17536TIP3    H274024   0.806   3.920  17.178 -1.1836  0.3283  0.4613
17537TIP3   OH274025   3.441   0.282  11.468  0.0646  0.5901 -0.2565
17537TIP3    H174026   3.530   0.304  11.439 -0.4134  1.6384 -0.9612
17537TIP3    H274027   3.449   0.269  11.562  1.5816 -2.5150 -0.7615
17538TIP3   OH274028   5.924   1.240   0.067 -0.2118  0.2700 -0.8082
17538TIP3    H174029   5.980   1.168   0.096  1.9036  2.3113  0.4231
17538TIP3    H274030   5.964   1.270  -0.014  0.9064  2.1306  0.3899
17539TIP3   OH274031   1.032   5.199  15.283  0.0365  0.3905 -0.1025
17539TIP3    H174032   1.060   5.288  15.265  1.8443 -0.0254  0.5641
17539TIP3    H274033   0.954   5.209  15.338  1.7674  1.5470  2.1844
17540TIP3   OH274034   5.543   3.385   2.079 -0.2745 -0.0671 -0.3058
17540TIP3    H174035   5.482   3.313   2.094 -0.1977 -0.1042 -0.1690
17540TIP3    H274036   5.530   3.444   2.153  0.1517 -0.2810 -0.0623
17541TIP3   OH274037   3.008   2.593   5.606 -0.1514  0.1251 -0.0233
17541TIP3    H174038   2.965   2.598   5.521  0.1697  0.9871 -0.1343
17541TIP3    H274039   2.951   2.642   5.665  0.3604  0.7442 -0.0416
17542TIP3   OH274040   6.046   3.533   3.333 -0.2088 -0.2449  0.7243
17542TIP3    H174041   6.092   3.542   3.250  1.7533 -0.5457  1.7602
17542TIP3    H274042   5.967   3.586   3.322  0.2090  0.0218 -1.1850
17543TIP3   OH274043   3.861   3.599  15.694  0.2981 -0.3484  0.6514
17543TIP3    H174044   3.847   3.672  15.754 -0.3715  0.4406 -0.4419
17543TIP3    H274045   3.921   3.541  15.741  0.0023  0.3795  1.9664
17544TIP3   OH274046   0.908   2.474   4.474 -0.1610  0.7764 -0.0367
17544TIP3    H174047   0.894   2.520   4.557  1.0935 -2.4880  2.0857
17544TIP3    H274048   0.820   2.449   4.445 -0.3745 -1.0899  2.1442
17545TIP3   OH274049   3.795   0.487  16.474  0.7148  0.1204 -0.0834
17545TIP3    H174050   3.824   0.396  16.475  0.3503 -0.0020 -0.4723
17545TIP3    H274051   3.700   0.482  16.470  0.6832  0.5192  0.2100
17546TIP3   OH274052   1.617   5.915  15.103 -0.1651 -0.1538 -0.5137
17546TIP3    H174053   1.547   5.956  15.153 -0.5412  0.1379 -1.2646
17546TIP3    H274054   1.668   5.988  15.068  0.9159 -0.3717  0.5798
17547TIP3   OH274055   2.673   0.606   2.818  0.0939 -0.6315  0.6158
17547TIP3    H174056   2.694   0.617   2.726 -0.7733 -2.5622  0.1582
17547TIP3    H274057   2.754   0.627   2.864  0.9405 -1.0410 -0.6650
17548TIP3   OH274058   0.690   1.531  15.117 -0.4742  0.2289 -0.0717
17548TIP3    H174059   0.749   1.579  15.060 -0.0236  0.5658  0.6817
17548TIP3    H274060   0.709   1.563  15.205 -2.4593  1.0634  0.0837
17549TIP3   OH274061   2.874   0.029  14.594 -0.4911 -0.0964 -0.2934
17549TIP3    H174062   2.841   0.013  14.683 -0.2245  1.2377  0.0505
17549TIP3    H274063   2.796   0.055  14.544 -0.9326 -2.3501 -0.8590
17550TIP3   OH274064   2.818   6.756  16.681  0.0399  0.9687 -0.4641
17550TIP3    H174065   2.877   6.686  16.655 -0.2434  0.2338  0.8272
17550TIP3    H274066   2.756   6.714  16.740 -1.2178  1.9315 -1.0837
17551TIP3   OH274067   0.918   1.903   3.910  0.5030 -0.1231  0.5456
17551TIP3    H174068   1.000   1.918   3.957  0.9498 -1.1510  0.1050
17551TIP3    H274069   0.910   1.978   3.851  2.2012 -1.0608 -0.9159
17552TIP3   OH274070   3.573   3.188  12.497 -0.2956  0.0662  0.2476
17552TIP3    H174071   3.634   3.216  12.430  0.3420  0.7483  1.1103
17552TIP3    H274072   3.620   3.122  12.547 -0.4083  0.3095  0.6743
17553TIP3   OH274073   1.422   1.544   4.984  0.1943 -0.6308  0.5190
17553TIP3    H174074   1.488   1.540   4.915  1.2337  1.1604  1.3812
17553TIP3    H274075   1.471   1.563   5.064 -1.5380  3.3981  0.7686
17554TIP3   OH274076   1.504   3.129  15.187  0.0929  0.4359  0.2230
17554TIP3    H174077   1.492   3.036  15.205 -0.7613  0.5830  0.4409
17554TIP3    H274078   1.434   3.151  15.126  0.8208  0.7491 -0.5148
17555TIP3   OH274079   0.994   4.902  11.222  0.7741 -0.7677  0.2762
17555TIP3    H174080   0.941   4.975  11.254  2.7944  1.0772 -0.4383
17555TIP3    H274081   0.932   4.843  11.179 -0.9326  0.3640  1.1658
17556TIP3   OH274082   2.969   5.946  13.664 -0.5669 -0.1270 -0.3738
17556TIP3    H174083   3.060   5.919  13.647 -0.3989  0.1860  0.0160
17556TIP3    H274084   2.924   5.864  13.686  0.1509  0.0147  1.7110
17557TIP3   OH274085   2.738   1.487  16.127  0.1503  0.3569  0.1774
17557TIP3    H174086   2.663   1.546  16.119 -0.6471 -0.9639 -2.6901
17557TIP3    H274087   2.813   1.541  16.102 -0.6693  0.0642 -3.1832
17558TIP3   OH274088   1.095   4.559  12.197  0.5289  0.4800 -0.3732
17558TIP3    H174089   1.172   4.606  12.164  1.6107 -0.3057  0.9414
17558TIP3    H274090   1.116   4.466  12.183  0.3406  0.2073  1.0488
17559TIP3   OH274091   3.638   5.443  16.739  0.3060 -0.4336 -0.4350
17559TIP3    H174092   3.607   5.358  16.708 -0.8798  0.2636 -1.1894
17559TIP3    H274093   3.564   5.479  16.788  1.3975 -0.5679  1.3902
17560TIP3   OH274094   3.989   4.917   3.273  0.2898 -0.0888 -0.1045
17560TIP3    H174095   3.919   4.957   3.326  1.1672  0.7306  0.4538
17560TIP3    H274096   4.061   4.980   3.277  0.9150 -0.7311 -1.0265
17561TIP3   OH274097   3.528   2.269  15.090  0.3126 -0.1136  0.4206
17561TIP3    H174098   3.525   2.225  15.005 -0.2384  1.4327 -0.3841
17561TIP3    H274099   3.466   2.342  15.081  0.0959 -0.0565  2.2194
17562TIP3   OH274100   1.084   1.686   0.489  0.6054  0.4075 -0.9717
17562TIP3    H174101   1.179   1.679   0.499  0.7805  1.5561 -1.8164
17562TIP3    H274102   1.067   1.650   0.402  0.4441  1.6495 -1.4533
17563TIP3   OH274103   6.511   1.219   1.363 -0.0913 -0.2813 -0.0135
17563TIP3    H174104   6.539   1.310   1.365 -1.8415  0.2720  1.4252
17563TIP3    H274105   6.585   1.170   1.399  0.0266  0.8362  1.3050
17564TIP3   OH274106   5.168   5.840  15.562 -0.3662  0.1828  0.2279
17564TIP3    H174107   5.247   5.892  15.576 -0.4710  1.1149 -2.3733
17564TIP3    H274108   5.101   5.904  15.539 -1.3231 -0.8060  0.2070
17565TIP3   OH274109   2.593   1.262   3.886  0.2141 -0.3432  0.0848
17565TIP3    H174110   2.605   1.275   3.980  2.1300 -1.1749 -0.0209
17565TIP3    H274111   2.640   1.181   3.867 -1.8909 -1.2979 -1.2409
17566TIP3   OH274112   3.384   6.335   4.525 -0.0861  0.2593  0.3297
17566TIP3    H174113   3.450   6.268   4.540 -0.0739  0.5371  1.5401
17566TIP3    H274114   3.305   6.301   4.567 -0.6844  0.0051 -0.9629
17567TIP3   OH274115   3.106   5.718  13.277  0.2588 -0.3863  0.2382
17567TIP3    H174116   3.091   5.649  13.342  0.6797 -2.1664 -1.4949
17567TIP3    H274117   3.201   5.724  13.270  0.2172 -0.1060 -0.1101
17568TIP3   OH274118   1.515   3.872   5.665 -0.3935 -0.1132 -0.2903
17568TIP3    H174119   1.446   3.938   5.663 -0.3469 -0.0622 -0.2108
17568TIP3    H274120   1.541   3.866   5.757  3.1209  3.4561 -0.9029
17569TIP3   OH274121   4.943   2.599  14.546 -0.0843 -0.0734  0.1240
17569TIP3    H174122   4.959   2.514  14.504  0.2300  0.7898 -1.5314
17569TIP3    H274123   4.849   2.601  14.561 -0.0390 -0.8946  0.6080
17570TIP3   OH274124   3.363   1.672   4.666  0.4719 -0.5037  0.0696
17570TIP3    H174125   3.277   1.678   4.624 -0.0286 -0.1935  1.1188
17570TIP3    H274126   3.381   1.579   4.671 -0.8040 -0.6706  1.8416
17571TIP3   OH274127   6.156   1.719   4.321 -0.6079  0.1341 -0.5705
17571TIP3    H174128   6.203   1.798   4.296  0.2889  0.2413  1.3392
17571TIP3    H274129   6.066   1.734   4.292 -0.0795  1.0957 -1.7765
17572TIP3   OH274130   0.930   1.282  13.800 -0.3778  0.5687  0.4347
17572TIP3    H174131   1.010   1.323  13.833 -0.3735  0.0466  1.0775
17572TIP3    H274132   0.915   1.324  13.715 -0.1004  1.5425  0.8638
17573TIP3   OH274133   6.078   4.099  11.083  0.2558  0.4642  0.1759
17573TIP3    H174134   6.006   4.038  11.062  0.9355  0.1246 -1.2063
17573TIP3    H274135   6.083   4.097  11.178  0.8766 -2.3797  0.1370
17574TIP3   OH274136   5.781   6.096   5.410 -0.6581  0.5859 -0.0756
17574TIP3    H174137   5.753   6.089   5.502  0.0811  0.1874  0.1143
17574TIP3    H274138   5.806   6.188   5.401  0.8151  0.2497  0.5598
17575TIP3   OH274139   2.539   0.875  11.998  0.0825 -0.5282  0.1350
17575TIP3    H174140   2.579   0.950  11.953 -0.9970  0.3140  0.5433
17575TIP3    H274141   2.545   0.897  12.091 -0.4437 -0.8333  0.2471
17576TIP3   OH274142   5.415   0.532  14.438  0.4641  0.2285  0.2132
17576TIP3    H174143   5.446   0.479  14.512 -1.4214  1.5889  2.0366
17576TIP3    H274144   5.443   0.621  14.460 -1.5003  0.8972  0.0931
17577TIP3   OH274145   4.430   2.990   3.757  0.2195  0.2665  0.4061
17577TIP3    H174146   4.364   2.959   3.819  0.3738  0.1190  0.4968
17577TIP3    H274147   4.422   3.086   3.759 -0.1452  0.2382  0.2476
17578TIP3   OH274148   5.476   5.166  14.379  0.1021 -0.2543 -0.5250
17578TIP3    H174149   5.432   5.098  14.327 -0.6757  0.0954 -0.3329
17578TIP3    H274150   5.565   5.169  14.344  0.2340 -1.5805 -0.3365
17579TIP3   OH274151   5.625   5.614  16.247 -0.3099  0.3493  0.2268
17579TIP3    H174152   5.557   5.659  16.297 -1.3788  0.1757 -1.0194
17579TIP3    H274153   5.683   5.683  16.216 -1.8116  0.8825 -1.4893
17580TIP3   OH274154   5.359   5.424  13.361 -0.5897 -0.3459  0.2380
17580TIP3    H174155   5.268   5.455  13.358  0.3460  2.4519 -0.4685
17580TIP3    H274156   5.399   5.473  13.433  0.4490 -1.3991  0.4031
17581TIP3   OH274157   1.332   1.356   0.026 -0.2527  0.1944 -0.7762
17581TIP3    H174158   1.313   1.437  -0.022  1.8802  2.2791  1.7563
17581TIP3    H274159   1.415   1.326  -0.010  1.6929  2.1171  1.8553
17582TIP3   OH274160   5.539   4.202   0.329  0.2126 -0.0943  0.3202
17582TIP3    H174161   5.455   4.248   0.331  0.7291  0.8064  1.4610
17582TIP3    H274162   5.598   4.263   0.285  1.1253  0.7548  2.6543
17583TIP3   OH274163   1.715   1.630  12.965  0.0152 -0.3221 -0.0417
17583TIP3    H174164   1.625   1.606  12.945 -0.0954  1.9080 -2.4846
17583TIP3    H274165   1.715   1.647  13.059 -2.6037  1.4722 -0.3159
17584TIP3   OH274166   5.391   5.780  13.823 -0.3156  0.1384 -0.2374
17584TIP3    H174167   5.425   5.866  13.849 -1.3948  0.3930  0.3829
17584TIP3    H274168   5.462   5.719  13.845  0.2044  0.7872 -0.0790
17585TIP3   OH274169   6.490   2.639   4.957 -0.0911  0.3845  0.4891
17585TIP3    H174170   6.499   2.568   5.021 -0.8722 -0.8175 -0.7085
17585TIP3    H274171   6.400   2.670   4.969  0.7799  2.3700  2.2043
17586TIP3   OH274172   4.780   2.410   0.054 -0.1455 -0.2461 -0.2535
17586TIP3    H174173   4.712   2.476   0.042 -0.8256 -0.7238  0.8997
17586TIP3    H274174   4.736   2.338   0.099  1.1617 -0.4980  0.6627
17587TIP3   OH274175   6.712   4.105  13.606  0.5962  0.3408 -0.1922
17587TIP3    H174176   6.772   4.097  13.532  1.2199  1.1784  0.2247
17587TIP3    H274177   6.680   4.195  13.601  0.4837  0.3371  0.4481
17588TIP3   OH274178   0.237   5.512  13.191  0.1136  0.1653 -0.0883
17588TIP3    H174179   0.184   5.563  13.130 -0.2340 -0.4321 -0.2886
17588TIP3    H274180   0.290   5.577  13.237 -0.8071  0.7765  0.1284
17589TIP3   OH274181   4.535   0.914   0.283 -0.2158 -0.2342 -0.0074
17589TIP3    H174182   4.604   0.968   0.321 -0.6922  1.4242 -1.4290
17589TIP3    H274183   4.568   0.890   0.196 -0.8364 -0.6097 -0.1458
17590TIP3   OH274184   1.313   0.021  15.261  0.3822 -0.3414  0.1563
17590TIP3    H174185   1.334   0.098  15.314  3.3429 -1.3929  0.5927
17590TIP3    H274186   1.305   0.054  15.172  0.3032  0.6454  0.5215
17591TIP3   OH274187   1.607   5.906  12.855  0.2940  0.1901  0.2614
17591TIP3    H174188   1.541   5.910  12.786 -0.2964 -0.8558  0.7536
17591TIP3    H274189   1.593   5.985  12.907  0.8282  1.0528 -0.8824
17592TIP3   OH274190   3.748   0.609   2.122  0.4892  0.5192 -0.3373
17592TIP3    H174191   3.726   0.533   2.176  0.6496  0.2476 -0.6554
17592TIP3    H274192   3.684   0.609   2.052  2.4874 -1.2502 -2.2230
17593TIP3   OH274193   6.667   5.057  10.384 -0.2547 -0.7017  0.2346
17593TIP3    H174194   6.704   5.018  10.305  1.0514 -0.8166  0.8880
17593TIP3    H274195   6.720   5.021  10.456  0.5359  1.7226  0.9169
17594TIP3   OH274196   5.884   6.054   4.376  0.2072  0.1421  0.4084
17594TIP3    H174197   5.857   6.055   4.468  1.3852  0.7537  0.7602
17594TIP3    H274198   5.805   6.031   4.328 -0.4581 -0.0278  1.5635
17595TIP3   OH274199   1.966   3.599   6.490  0.3465  0.4869 -0.0516
17595TIP3    H174200   1.916   3.535   6.440  2.4780 -0.9993 -0.3764
17595TIP3    H274201   1.908   3.626   6.561 -1.4793  0.0923 -1.3734
17596TIP3   OH274202   0.208   5.825   5.509  0.2201 -0.2554  0.1324
17596TIP3    H174203   0.244   5.849   5.423  2.2973  2.2220  1.6324
17596TIP3    H274204   0.269   5.758   5.541 -0.1283 -0.6291  0.0242
17597TIP3   OH274205   0.242   5.328  16.816  0.6514  0.1951 -0.1203
17597TIP3    H174206   0.178   5.394  16.791  0.3779  0.0500  0.1951
17597TIP3    H274207   0.259   5.279  16.736  0.5097  0.3529 -0.2465
17598TIP3   OH274208   5.780   4.579  16.602 -0.1180 -0.1496 -0.2139
17598TIP3    H174209   5.847   4.592  16.669 -0.4836 -1.0389  0.3405
17598TIP3    H274210   5.697   4.586  16.651 -0.3759 -1.4335 -0.4573
17599TIP3   OH274211   0.445   3.134   5.832 -0.6508 -0.2605 -0.1509
17599TIP3    H174212   0.462   3.039   5.834 -3.3858 -0.7625  2.6685
17599TIP3    H274213   0.500   3.166   5.761  0.9782 -3.8436 -0.6347
17600TIP3   OH274214   1.934   0.891   3.998 -0.9470  0.1949 -0.7170
17600TIP3    H174215   1.978   0.882   4.083  0.8168 -1.0251 -1.7170
17600TIP3    H274216   1.892   0.977   4.001  2.2578  1.7904 -0.0540
17601TIP3   OH274217   1.378   1.244  16.826  0.4296 -0.1180 -0.0861
17601TIP3    H174218   1.432   1.322  16.823  0.5991 -0.1876  1.0185
17601TIP3    H274219   1.296   1.272  16.866  0.0470 -0.2484 -0.7694
17602TIP3   OH274220   0.100   4.439   2.428  0.0331  0.5049  0.4217
17602TIP3    H174221   0.024   4.438   2.487  1.2764  3.0098  2.1680
17602TIP3    H274222   0.066   4.474   2.346 -0.6860  1.8789  1.2822
17603TIP3   OH274223   0.870   2.431   3.597 -0.0405 -0.0702  0.0176
17603TIP3    H174224   0.806   2.365   3.624 -0.3995 -0.6215 -2.0771
17603TIP3    H274225   0.861   2.502   3.661  0.2319 -1.9486  2.1972
17604TIP3   OH274226   6.505   2.810   2.318 -0.5206 -0.2723  0.0103
17604TIP3    H174227   6.410   2.810   2.307 -0.6671  0.6535  1.0814
17604TIP3    H274228   6.519   2.779   2.408  0.1114  0.7399  0.2761
17605TIP3   OH274229   3.989   3.853   5.624 -0.5827  0.2258 -0.7387
17605TIP3    H174230   3.967   3.820   5.537 -0.9476  0.6445 -0.8063
17605TIP3    H274231   4.065   3.909   5.610 -0.2073 -0.2679 -0.6832
17606TIP3   OH274232   1.485   4.725  12.475  0.1015 -0.4115  0.3295
17606TIP3    H174233   1.450   4.811  12.500  0.0478  0.0819 -1.3378
17606TIP3    H274234   1.417   4.663  12.502 -0.8809  0.2966 -0.4593
17607TIP3   OH274235   0.787   0.923  13.650  0.3661 -0.2741  0.4872
17607TIP3    H174236   0.827   0.999  13.608  0.0911 -0.3608  0.0719
17607TIP3    H274237   0.806   0.935  13.743 -0.2091  0.6328  0.4991
17608TIP3   OH274238   6.701   0.937  14.275  0.0470  0.5922  0.3640
17608TIP3    H174239   6.652   0.975  14.348  1.7262  1.1812  1.2051
17608TIP3    H274240   6.637   0.884  14.229 -0.7803 -0.7218  2.9236
17609TIP3   OH274241   3.537   5.905   0.550 -0.0691  0.2830 -0.3072
17609TIP3    H174242   3.567   5.843   0.482  0.0336  1.2014 -1.1127
17609TIP3    H274243   3.478   5.853   0.605  1.2571 -0.9599 -0.0204
17610TIP3   OH274244   6.749   1.424   4.602 -0.3573 -0.0101 -0.4279
17610TIP3    H174245   6.844   1.408   4.607 -0.5737 -0.9038  1.6797
17610TIP3    H274246   6.738   1.485   4.529  1.4717 -2.6175 -2.9843
17611TIP3   OH274247   4.285   4.297   5.427  0.2580  0.5933 -0.0609
17611TIP3    H174248   4.271   4.205   5.450  1.5618 -0.0457 -1.7379
17611TIP3    H274249   4.196   4.334   5.423 -0.3051 -0.6896  0.1807
17612TIP3   OH274250   3.114   3.628   2.173 -0.0068 -0.9356 -0.5860
17612TIP3    H174251   3.207   3.647   2.161 -0.1415  0.1720  0.1056
17612TIP3    H274252   3.075   3.712   2.195 -1.2268 -1.3415 -1.1682
17613TIP3   OH274253   5.181   6.223  15.564  0.2647  0.6232 -0.0940
17613TIP3    H174254   5.098   6.194  15.527  0.6293  0.4324 -0.7920
17613TIP3    H274255   5.241   6.150  15.547  0.5325  0.6928  0.5466
17614TIP3   OH274256   4.472   0.570  15.834  0.2145 -0.4128 -0.1285
17614TIP3    H174257   4.387   0.570  15.878  1.0092  0.8566  1.4646
17614TIP3    H274258   4.467   0.643  15.771  0.6126  0.5762  0.9732
17615TIP3   OH274259   2.534   3.833  15.657  0.0801  0.0570 -0.1433
17615TIP3    H174260   2.578   3.748  15.653 -0.1856 -0.1448  1.0717
17615TIP3    H274261   2.595   3.894  15.616 -0.0706 -0.8494 -1.7771
17616TIP3   OH274262   0.086   4.717   1.304  0.4217  0.2869 -0.6174
17616TIP3    H174263   0.027   4.690   1.235  0.8356 -1.1410 -0.4217
17616TIP3    H274264   0.032   4.719   1.383  0.3602  0.2037 -0.6581
17617TIP3   OH274265   5.625   6.267   1.973  0.3840  0.4172 -0.0240
17617TIP3    H174266   5.666   6.249   1.889  1.7206  0.9139  0.5134
17617TIP3    H274267   5.684   6.328   2.017 -1.0851  1.4074  0.6364
17618TIP3   OH274268   4.887   1.167   2.298  0.3783  0.2025  0.3264
17618TIP3    H174269   4.954   1.101   2.317  0.5673  0.3075  0.0322
17618TIP3    H274270   4.812   1.141   2.351  1.0064  0.6825  1.4576
17619TIP3   OH274271   2.353   6.091   0.050 -0.1716  0.0829  0.5560
17619TIP3    H174272   2.316   6.105  -0.037  1.4764  0.9494 -0.0195
17619TIP3    H274273   2.365   5.997   0.057 -1.4582 -0.1104  0.3407
17620TIP3   OH274274   6.632   3.000  12.460 -0.4785 -0.2650  0.2904
17620TIP3    H174275   6.608   2.919  12.414  1.9936 -1.5606  1.2163
17620TIP3    H274276   6.592   2.990  12.547 -1.2964  0.1323 -0.0313
17621TIP3   OH274277   3.073   1.009  11.916  0.3140 -0.5546 -0.1124
17621TIP3    H174278   3.151   1.049  11.955 -0.5958  0.9763  0.1576
17621TIP3    H274279   3.107   0.941  11.858  1.7978 -0.8530  1.0841
17622TIP3   OH274280   6.451   5.703   6.085 -0.2469 -0.0809  0.7876
17622TIP3    H174281   6.482   5.743   6.166 -0.2901  0.6265  0.4637
17622TIP3    H274282   6.486   5.614   6.086  1.1767  0.4725  0.7653
17623TIP3   OH274283   0.687   5.123  13.597 -0.2883  0.0112 -0.1287
17623TIP3    H174284   0.685   5.176  13.677 -0.3265  1.2149 -0.9153
17623TIP3    H274285   0.602   5.078  13.596  0.1807 -0.9458  1.1084
17624TIP3   OH274286   0.577   2.346  11.762  0.2955 -0.2625  0.0290
17624TIP3    H174287   0.567   2.388  11.847  1.7034  0.5489 -0.1877
17624TIP3    H274288   0.488   2.341  11.727 -0.0699  1.1327  0.7293
17625TIP3   OH274289   2.431   2.252   3.590 -0.1547  0.6256  0.1918
17625TIP3    H174290   2.473   2.327   3.547  1.8889 -0.4531  0.2476
17625TIP3    H274291   2.359   2.228   3.532  0.1551  1.6439 -0.6285
17626TIP3   OH274292   4.125   4.803  16.266  0.0995 -0.1107  0.3935
17626TIP3    H174293   4.067   4.873  16.237 -1.2231 -1.6635 -0.8438
17626TIP3    H274294   4.194   4.800  16.200 -0.5543 -0.8021 -0.2756
17627TIP3   OH274295   6.783   3.455  16.914 -0.6998  0.6682 -0.6868
17627TIP3    H174296   6.877   3.445  16.897 -0.7300  1.2834 -1.2612
17627TIP3    H274297   6.778   3.518  16.986 -0.7030  1.8117 -1.6612
17628TIP3   OH274298   2.066   5.667   3.009 -0.0435 -0.0401  0.1608
17628TIP3    H174299   2.126   5.602   2.973  0.1096  1.3826 -2.3064
17628TIP3    H274300   2.121   5.724   3.062  0.4478  0.1285 -0.5266
17629TIP3   OH274301   5.081   6.144  12.591  0.1485  0.1651  0.1153
17629TIP3    H174302   5.095   6.054  12.562  0.6727  0.2992 -0.0559
17629TIP3    H274303   4.987   6.150  12.606  0.0978 -0.3835  0.0299
17630TIP3   OH274304   4.408   1.420   5.340  0.3551  0.2015 -0.4286
17630TIP3    H174305   4.477   1.427   5.406  0.7771  0.0886 -0.8533
17630TIP3    H274306   4.455   1.413   5.257 -0.1539 -0.4396 -0.6686
17631TIP3   OH274307   2.866   0.624   2.300  0.4252  0.0208  0.5376
17631TIP3    H174308   2.925   0.595   2.230  0.8898  1.6610  0.2322
17631TIP3    H274309   2.837   0.711   2.273  2.0702  1.4902  3.2383
17632TIP3   OH274310   0.226   0.790   5.938  0.3127  0.0024  0.2950
17632TIP3    H174311   0.206   0.698   5.923  1.4899  0.1813 -2.7100
17632TIP3    H274312   0.145   0.836   5.916  0.4283 -0.1585 -0.4897
17633TIP3   OH274313   6.102   6.609   0.155 -0.2109  0.0959 -0.1124
17633TIP3    H174314   6.197   6.613   0.163 -0.3447  1.5033  0.9277
17633TIP3    H274315   6.070   6.680   0.210 -1.9740 -1.8205  1.4475
17634TIP3   OH274316   5.592   5.474   5.243 -0.0887 -0.3520 -0.4121
17634TIP3    H174317   5.668   5.418   5.260  0.6687  0.4326 -1.1797
17634TIP3    H274318   5.572   5.458   5.151 -0.8452 -0.5298 -0.2191
17635TIP3   OH274319   0.295   2.008  16.331 -0.4489 -0.3904  0.1401
17635TIP3    H174320   0.301   2.063  16.410 -1.6624  1.5771 -1.0941
17635TIP3    H274321   0.234   1.939  16.355 -0.8857  0.2506  0.9255
17636TIP3   OH274322   0.130   5.363  11.801 -0.2982  0.4448 -0.1954
17636TIP3    H174323   0.093   5.393  11.884  0.6706  1.4620 -0.1108
17636TIP3    H274324   0.225   5.362  11.816 -0.2019 -1.0631 -0.7422
17637TIP3   OH274325   0.938   0.665  11.222  0.4227  0.0530  0.0984
17637TIP3    H174326   0.861   0.614  11.245 -0.2103  0.8871 -0.1387
17637TIP3    H274327   0.962   0.634  11.134  1.1088 -1.0765  0.6726
17638TIP3   OH274328   5.420   5.194   2.837  0.5990  0.5215  0.2859
17638TIP3    H174329   5.414   5.251   2.914  1.2823  1.8388 -0.6306
17638TIP3    H274330   5.430   5.253   2.763  0.3553 -0.7539 -0.7961
17639TIP3   OH274331   0.730   2.161  14.041 -0.2969  0.2654 -0.3833
17639TIP3    H174332   0.718   2.157  14.136 -1.8165  0.1338 -0.5721
17639TIP3    H274333   0.641   2.162  14.006  0.2552  0.9513 -1.7799
17640TIP3   OH274334   4.581   3.513  17.154 -0.1711 -0.1605 -0.0788
17640TIP3    H174335   4.606   3.513  17.246 -0.5894 -0.0298  0.0377
17640TIP3    H274336   4.544   3.426  17.139  0.0782 -0.2503 -0.1772
17641TIP3   OH274337   5.553   4.041   5.201  0.5321  0.1630 -0.1085
17641TIP3    H174338   5.633   4.063   5.249 -0.6467  0.5379  1.7484
17641TIP3    H274339   5.517   4.125   5.174  1.6845 -0.0892 -2.5473
17642TIP3   OH274340   4.705   4.742   3.423 -0.8037  0.0109  0.3774
17642TIP3    H174341   4.691   4.836   3.432  1.4768  0.2861  1.5750
17642TIP3    H274342   4.766   4.734   3.350  0.0795 -0.4182  1.1526
17643TIP3   OH274343   3.102   1.170  16.403  0.1131  0.1732 -0.1412
17643TIP3    H174344   3.076   1.196  16.314  3.8712  0.8618 -1.0891
17643TIP3    H274345   3.152   1.244  16.436  1.5808 -1.4372  1.3031
17644TIP3   OH274346   0.965   0.858  14.300  0.4647 -0.3958  0.1611
17644TIP3    H174347   1.052   0.880  14.266  0.7146 -0.9976  0.4128
17644TIP3    H274348   0.919   0.821  14.225  0.3439  0.1362 -0.0322
17645TIP3   OH274349   0.186   5.764   2.944  0.0240  0.2576  0.5482
17645TIP3    H174350   0.176   5.694   3.009 -0.2081  0.9014  1.2153
17645TIP3    H274351   0.226   5.721   2.868 -0.2094 -0.6179  0.9135
17646TIP3   OH274352   0.780   1.409   3.848  0.0231  0.2364  0.5456
17646TIP3    H174353   0.803   1.484   3.904 -0.8372  0.4748  0.5825
17646TIP3    H274354   0.851   1.347   3.862  0.6734  0.9880  0.6233
17647TIP3   OH274355   5.685   0.748   5.206  0.3274  0.2106 -0.0323
17647TIP3    H174356   5.601   0.748   5.160  0.0147  1.4246  0.5196
17647TIP3    H274357   5.664   0.716   5.294  0.3521  1.0183  0.2658
17648TIP3   OH274358   4.885   4.755   4.193 -0.0176 -0.3821  0.3686
17648TIP3    H174359   4.834   4.827   4.155  1.6361  1.0307  0.7255
17648TIP3    H274360   4.969   4.760   4.147  0.6559 -1.0807  1.5173
17649TIP3   OH274361   1.406   4.084   0.630 -0.6630  0.5265 -0.0027
17649TIP3    H174362   1.473   4.018   0.651 -0.9247  0.3104  0.1568
17649TIP3    H274363   1.434   4.162   0.678 -0.1352  0.6548 -0.5069
17650TIP3   OH274364   0.620   2.103  11.272 -0.3201 -0.2926 -0.4162
17650TIP3    H174365   0.580   2.176  11.225 -2.9527 -0.2982  1.6932
17650TIP3    H274366   0.546   2.058  11.314  1.6507 -1.9329  1.4241
17651TIP3   OH274367   1.015   0.187   2.476  0.3523  0.5550  0.6774
17651TIP3    H174368   1.021   0.107   2.527 -0.4742  1.1567  1.7423
17651TIP3    H274369   1.097   0.233   2.493  0.6226  0.1584  0.4430
17652TIP3   OH274370   0.450   2.623  14.653  0.6427  0.6546 -0.3726
17652TIP3    H174371   0.362   2.584  14.659  0.5095  0.9907 -0.0808
17652TIP3    H274372   0.503   2.571  14.713  0.7091  0.2815 -0.7499
17653TIP3   OH274373   1.165   5.709   5.207 -0.0952  0.1229 -0.2420
17653TIP3    H174374   1.239   5.681   5.153  0.9958  1.5319  0.4777
17653TIP3    H274375   1.096   5.645   5.188  0.5327  0.0938 -2.6562
17654TIP3   OH274376   4.084   4.018   4.768 -0.0553  0.2246 -0.8667
17654TIP3    H174377   4.085   4.088   4.834 -1.2584 -1.4642  1.0141
17654TIP3    H274378   4.163   3.967   4.786 -1.0571 -1.0012  0.1526
17655TIP3   OH274379   1.361   4.497  10.668  0.1662 -0.5734 -0.1125
17655TIP3    H174380   1.350   4.565  10.602 -0.9877 -0.0431  0.6171
17655TIP3    H274381   1.432   4.442  10.635  0.5691  0.5321 -1.0816
17656TIP3   OH274382   5.480   0.347  14.005 -0.4884 -0.0382  0.7389
17656TIP3    H174383   5.529   0.328  14.085  0.0673  1.8929  0.8755
17656TIP3    H274384   5.388   0.338  14.031 -0.2883 -0.4060  1.3354
17657TIP3   OH274385   1.932   4.682  12.065 -0.0064  0.3151  0.1606
17657TIP3    H174386   2.005   4.719  12.015 -0.6007 -0.0994 -1.0258
17657TIP3    H274387   1.906   4.604  12.016  0.5451 -1.0880  2.0731
17658TIP3   OH274388   5.597   2.443  16.256 -0.0700 -0.5923 -0.8400
17658TIP3    H174389   5.608   2.394  16.337 -0.7527  1.3652  0.4805
17658TIP3    H274390   5.542   2.387  16.201  0.5679 -2.0250 -0.0530
17659TIP3   OH274391   1.158   3.035   2.677 -0.9909  0.1121  0.2842
17659TIP3    H174392   1.069   3.023   2.644 -0.1888  0.5258 -2.1326
17659TIP3    H274393   1.210   2.969   2.631 -0.2812 -1.2827  2.9298
17660TIP3   OH274394   2.300   2.410   3.006 -0.1785 -0.6161 -0.4619
17660TIP3    H174395   2.384   2.368   2.987 -0.4594  0.0896 -3.5275
17660TIP3    H274396   2.237   2.337   3.009  0.1592 -0.9179 -0.6387
17661TIP3   OH274397   3.753   3.656  15.242  0.1256 -0.3392  0.2888
17661TIP3    H174398   3.839   3.625  15.213 -0.0264 -1.7166  1.2894
17661TIP3    H274399   3.768   3.687  15.332  0.0988  1.7720 -0.3955
17662TIP3   OH274400   1.950   2.330  13.268 -0.1621 -0.4712 -0.1680
17662TIP3    H174401   2.007   2.291  13.202 -0.1854 -0.8038  0.0067
17662TIP3    H274402   1.982   2.296  13.351 -1.3729 -1.6473 -0.1589
17663TIP3   OH274403   1.105   3.379  16.039 -0.5269  0.1197  0.5901
17663TIP3    H174404   1.161   3.307  16.010  0.8974  1.2370  0.4703
17663TIP3    H274405   1.081   3.425  15.958 -1.4200 -0.2098  0.6656
17664TIP3   OH274406   4.217   4.222  12.003 -0.2088  0.0555 -0.1036
17664TIP3    H174407   4.165   4.169  12.063  1.9913 -2.1763 -0.0901
17664TIP3    H274408   4.156   4.288  11.970 -3.2172 -2.8470 -0.6003
17665TIP3   OH274409   5.131   1.156  12.330  0.4823  0.2216 -0.2923
17665TIP3    H174410   5.043   1.124  12.345  1.0533 -0.4458  1.8074
17665TIP3    H274411   5.123   1.214  12.253 -1.7571  0.2003 -0.1032
17666TIP3   OH274412   4.629   4.249   5.528 -0.1361 -0.1882 -0.0405
17666TIP3    H174413   4.663   4.333   5.558  1.5666 -1.6419  2.3568
17666TIP3    H274414   4.705   4.206   5.488 -0.8118 -0.8732 -0.6034
17667TIP3   OH274415   4.279   3.825  16.286  0.5090 -0.3188  0.3260
17667TIP3    H174416   4.317   3.842  16.373  0.9853 -1.3165  0.3194
17667TIP3    H274417   4.230   3.905  16.266 -0.0687 -0.2880  1.7559
17668TIP3   OH274418   2.651   6.692  16.886  0.4317  0.7787  0.0404
17668TIP3    H174419   2.683   6.765  16.938  1.8371  0.4415 -0.3256
17668TIP3    H274420   2.663   6.615  16.941 -1.8544  0.8862  0.7629
17669TIP3   OH274421   5.299   3.441  12.121 -0.5630 -0.3552 -0.1864
17669TIP3    H174422   5.379   3.449  12.069 -1.2353 -0.4079 -1.2449
17669TIP3    H274423   5.307   3.510  12.187 -0.2071  0.4530 -1.0445
17670TIP3   OH274424   3.439   5.015  12.564 -0.1648 -0.4059 -0.3474
17670TIP3    H174425   3.470   4.946  12.623 -0.4911 -0.9941 -0.8660
17670TIP3    H274426   3.509   5.081  12.566 -0.0640 -0.5266  0.5132
17671TIP3   OH274427   2.591   3.889  14.784 -0.1948 -0.3073 -0.2142
17671TIP3    H174428   2.506   3.906  14.824 -0.9826  0.6787 -2.2154
17671TIP3    H274429   2.583   3.801  14.747 -0.0144 -0.5884  0.4126
17672TIP3   OH274430   1.833   6.019   3.118  0.0695 -0.0331  0.3377
17672TIP3    H174431   1.918   6.063   3.111 -0.0788  0.1712 -0.2252
17672TIP3    H274432   1.850   5.941   3.170  0.6888 -0.2074 -0.1138
17673TIP3   OH274433   3.991   0.565  16.318 -0.0746 -0.2639 -0.5665
17673TIP3    H174434   3.958   0.579  16.229 -1.5170 -1.5189 -0.2469
17673TIP3    H274435   3.912   0.555  16.371  0.8155 -1.5335  0.5262
17674TIP3   OH274436   0.910   0.063  15.160  0.0674 -0.2222 -0.5849
17674TIP3    H174437   0.830   0.025  15.124 -0.0488 -1.0995  0.5723
17674TIP3    H274438   0.980   0.032  15.104 -0.4635  1.0711 -1.9963
17675TIP3   OH274439   3.703   1.431   4.856 -0.2583  0.4386 -0.5517
17675TIP3    H174440   3.659   1.493   4.798 -0.6816  1.4766  0.8494
17675TIP3    H274441   3.738   1.364   4.798 -2.2787  0.4672 -1.8402
17676TIP3   OH274442   6.390   4.244  10.356 -0.2182 -0.9216  0.3461
17676TIP3    H174443   6.433   4.179  10.300 -0.0321 -0.3927 -0.1404
17676TIP3    H274444   6.314   4.273  10.305  1.2429  1.2666 -0.6872
17677TIP3   OH274445   4.999   5.272  15.028 -0.1353 -0.4144 -0.1305
17677TIP3    H174446   4.960   5.219  15.098  0.0288  0.2488  0.4712
17677TIP3    H274447   5.052   5.337  15.074 -1.9903  1.6334 -0.7416
17678TIP3   OH274448   3.094   5.057   3.600 -0.3631  0.0287  0.2157
17678TIP3    H174449   3.105   4.964   3.584  1.8746 -0.0972  2.2535
17678TIP3    H274450   3.095   5.066   3.695  1.4804  2.3041  0.0441
17679TIP3   OH274451   0.185   3.597  16.416 -0.0931  0.2436  0.0485
17679TIP3    H174452   0.242   3.659  16.369 -0.2888  1.0892  0.9135
17679TIP3    H274453   0.129   3.653  16.470  1.7312 -0.7869  3.1109
17680TIP3   OH274454   1.213   3.681   2.649  0.0343 -0.3045  0.1823
17680TIP3    H174455   1.271   3.645   2.716 -0.6162 -0.1686  0.8193
17680TIP3    H274456   1.164   3.750   2.693 -2.9811 -2.5746  0.5616
17681TIP3   OH274457   3.435   5.458  12.823 -0.3775 -0.4493  0.1360
17681TIP3    H174458   3.406   5.421  12.906 -0.2023  1.9396  1.3054
17681TIP3    H274459   3.524   5.488  12.841 -0.8400  1.3223 -0.5070
17682TIP3   OH274460   1.783   5.699   2.077  0.4845  0.1572  0.2590
17682TIP3    H174461   1.758   5.625   2.022 -0.6009  1.1498 -0.5937
17682TIP3    H274462   1.729   5.772   2.046  0.8252  1.0625  1.7478
17683TIP3   OH274463   3.090   2.043   5.109 -0.1258 -0.0809 -0.0182
17683TIP3    H174464   3.048   2.022   5.026 -0.8984  1.4643 -0.0292
17683TIP3    H274465   3.181   2.062   5.085  0.6196 -3.3339 -0.0008
17684TIP3   OH274466   6.539   1.072   0.278  0.2233  0.4363 -0.0958
17684TIP3    H174467   6.583   1.117   0.350 -0.9426  0.2972  0.7207
17684TIP3    H274468   6.605   1.014   0.241  1.1657  1.3766  0.1103
17685TIP3   OH274469   1.577   5.536  15.100 -0.0507  0.0730 -0.4251
17685TIP3    H174470   1.590   5.442  15.115 -1.6328  0.0445  0.9420
17685TIP3    H274471   1.505   5.541  15.037 -0.2568  0.3626 -0.1705
17686TIP3   OH274472   2.269   6.734  13.195  0.1029 -0.0516  0.2484
17686TIP3    H174473   2.181   6.758  13.224  0.1374 -0.2037  0.4758
17686TIP3    H274474   2.267   6.745  13.100 -0.8035 -2.1389  0.0073
17687TIP3   OH274475   1.502   0.880  15.692  0.0682  0.2643 -0.6905
17687TIP3    H174476   1.490   0.871  15.597 -0.4467 -0.9509 -0.5267
17687TIP3    H274477   1.559   0.807  15.716  0.7224  0.9405 -0.1512
17688TIP3   OH274478   4.840   0.036   4.980  0.0027 -0.1445  0.1760
17688TIP3    H174479   4.791  -0.042   5.008 -1.5585  1.1217  1.0791
17688TIP3    H274480   4.842   0.030   4.884 -1.0809 -0.7329  0.1819
17689TIP3   OH274481   2.810   3.706   2.691 -0.4773 -0.0420  0.2125
17689TIP3    H174482   2.791   3.640   2.757 -0.0926 -0.0772  0.2919
17689TIP3    H274483   2.727   3.719   2.645 -0.9752  0.6759  1.3112
17690TIP3   OH274484   3.265   4.162  13.403  0.1393 -0.5286  0.4951
17690TIP3    H174485   3.317   4.088  13.372 -1.1096 -1.0980 -0.2464
17690TIP3    H274486   3.175   4.132  13.399 -0.3287  0.7984  0.8460
17691TIP3   OH274487   0.742   6.250   3.052  0.8093 -0.4245 -0.0431
17691TIP3    H174488   0.746   6.262   2.958  0.8093 -2.8982 -0.3980
17691TIP3    H274489   0.750   6.338   3.088  3.2331  0.3285 -2.2791
17692TIP3   OH274490   1.925   0.534   0.626  0.1142 -0.2614 -0.0417
17692TIP3    H174491   1.880   0.618   0.632  1.2358  0.2770  1.2305
17692TIP3    H274492   1.994   0.539   0.693 -0.6346 -2.7052  0.9707
17693TIP3   OH274493   3.863   1.734  11.756 -0.2637 -0.3360  0.0976
17693TIP3    H174494   3.774   1.717  11.725  0.1148 -0.7278 -0.7731
17693TIP3    H274495   3.920   1.686  11.696  0.4287 -2.3498  2.2777
17694TIP3   OH274496   3.652   6.554   0.118  0.2049 -0.2211 -0.3998
17694TIP3    H174497   3.665   6.460   0.132  2.0763  0.0742  0.0894
17694TIP3    H274498   3.596   6.582   0.191 -1.0142 -1.0857 -0.9910
17695TIP3   OH274499   3.025   6.727   2.168 -0.1649 -0.5107  0.1262
17695TIP3    H174500   3.036   6.819   2.145 -0.7221 -0.4641  0.0405
17695TIP3    H274501   2.969   6.691   2.099  0.0621 -0.9190  0.1506
17696TIP3   OH274502   2.164   2.081  12.436 -0.1069  0.1792 -0.1154
17696TIP3    H174503   2.098   2.141  12.471 -0.4774  0.4630 -1.2791
17696TIP3    H274504   2.144   2.074  12.343  0.7805 -0.6741 -0.2588
17697TIP3   OH274505   1.834   1.266   4.253  0.3778  0.5374 -0.0177
17697TIP3    H174506   1.864   1.175   4.258  1.4460  0.8153 -1.0793
17697TIP3    H274507   1.740   1.260   4.241  0.2455 -0.3969  1.3216
17698TIP3   OH274508   5.624   1.767  12.247  0.4031  0.4720  0.0912
17698TIP3    H174509   5.535   1.742  12.274  1.1670 -1.3729  0.9515
17698TIP3    H274510   5.660   1.688  12.207  0.7201  2.0002 -2.8064
17699TIP3   OH274511   3.501   3.607  14.196 -0.4423 -0.1681  0.1285
17699TIP3    H174512   3.480   3.633  14.106 -0.7630 -0.8481 -0.0018
17699TIP3    H274513   3.425   3.556  14.224  1.0192 -2.7144 -0.3582
17700TIP3   OH274514   0.010   2.287  15.578 -0.6398  0.2484  0.1762
17700TIP3    H174515  -0.000   2.272  15.672 -1.8027 -0.5702 -0.0718
17700TIP3    H274516   0.072   2.220  15.550 -0.2166  0.5557  0.3778
17701TIP3   OH274517   2.524   1.265  11.611 -0.7719  0.3092  0.3506
17701TIP3    H174518   2.487   1.322  11.678  0.4324  1.1105  0.3414
17701TIP3    H274519   2.496   1.177  11.636  0.5205  0.4837  2.4757
17702TIP3   OH274520   3.483   5.356  15.945  0.0817  0.1210  0.1505
17702TIP3    H174521   3.447   5.273  15.912  1.2325 -0.2148 -0.2611
17702TIP3    H274522   3.493   5.342  16.039  0.5360 -0.3029  0.0377
17703TIP3   OH274523   1.322   5.390   1.361 -0.0003  0.3229  0.0875
17703TIP3    H174524   1.361   5.475   1.378  0.6599  0.4458 -1.8444
17703TIP3    H274525   1.240   5.409   1.316  0.1347 -0.0383 -0.3276
17704TIP3   OH274526   6.139   2.235   1.665  0.3439  0.5029  0.3571
17704TIP3    H174527   6.166   2.263   1.577  0.6898  0.3024  0.3995
17704TIP3    H274528   6.217   2.247   1.719  0.7669 -1.3257  0.2021
17705TIP3   OH274529   2.660   2.389   2.972 -0.6554  0.7236  0.1453
17705TIP3    H174530   2.752   2.401   2.950 -0.9982  4.0133  0.3555
17705TIP3    H274531   2.659   2.379   3.067 -0.6465  2.3627  0.3299
17706TIP3   OH274532   3.277   3.743  11.205  0.3697  0.3969 -0.3643
17706TIP3    H174533   3.273   3.828  11.160 -1.2485  0.4031 -0.2325
17706TIP3    H274534   3.300   3.681  11.136  1.7319  0.9486 -0.4329
17707TIP3   OH274535   4.367   2.971  16.668  0.1101 -0.0389 -0.6106
17707TIP3    H174536   4.374   3.026  16.590  0.1531  2.8114  1.3372
17707TIP3    H274537   4.430   3.008  16.730 -0.5816 -1.6808  1.1316
17708TIP3   OH274538   6.076   5.495  16.586 -0.4808 -0.0811 -0.3124
17708TIP3    H174539   6.013   5.436  16.546 -1.9026 -0.0892  1.8407
17708TIP3    H274540   6.050   5.582  16.558 -0.5415 -0.1998 -0.6181
17709TIP3   OH274541   2.004   2.761   1.969 -0.1523 -0.0832  0.2595
17709TIP3    H174542   2.001   2.792   1.878 -0.0202  0.8925  0.5842
17709TIP3    H274543   2.088   2.715   1.975 -0.4876 -0.7868 -0.3093
17710TIP3   OH274544   1.917   4.145  17.004  0.0760 -0.2243 -0.2503
17710TIP3    H174545   1.898   4.067  17.056 -0.4333 -0.6072 -1.0132
17710TIP3    H274546   1.940   4.212  17.069  2.9197 -1.6478  0.2694
17711TIP3   OH274547   2.794   2.068  12.811  0.0006  0.1600 -0.7046
17711TIP3    H174548   2.803   1.992  12.868 -0.4220  0.6615  0.0535
17711TIP3    H274549   2.812   2.036  12.723  0.1675 -0.7362 -0.3416
17712TIP3   OH274550   4.806   6.172   3.614  0.6770 -0.3179  0.0489
17712TIP3    H174551   4.727   6.165   3.561  0.7737 -0.6399 -0.0585
17712TIP3    H274552   4.857   6.242   3.573  0.9275 -0.8239 -0.5206
17713TIP3   OH274553   6.159   3.382   1.958 -0.2664  0.4742 -0.1299
17713TIP3    H174554   6.241   3.371   1.909  0.3230  1.3904  0.6251
17713TIP3    H274555   6.174   3.336   2.040 -1.3250 -1.2228 -0.8632
17714TIP3   OH274556   2.423   2.006   0.830 -0.5206 -0.6370  0.2586
17714TIP3    H174557   2.335   1.970   0.825 -0.5249 -0.7366  1.0160
17714TIP3    H274558   2.411   2.100   0.817 -0.5994 -0.7846 -0.8497
17715TIP3   OH274559   4.065   4.379   4.203  0.5919  0.6423  0.2226
17715TIP3    H174560   4.102   4.298   4.238 -0.5295 -0.7098 -1.6426
17715TIP3    H274561   4.115   4.396   4.124 -0.0309  1.0686 -0.0782
17716TIP3   OH274562   3.768   6.429  13.000 -0.0152 -0.1512 -0.3038
17716TIP3    H174563   3.758   6.459  13.091  0.0465 -1.2786  0.0724
17716TIP3    H274564   3.686   6.384  12.981  0.4155 -0.8827 -0.4402
17717TIP3   OH274565   1.513   3.182   5.334  0.0770  0.3469  0.0175
17717TIP3    H174566   1.564   3.181   5.415  0.6557 -0.8174 -0.3600
17717TIP3    H274567   1.569   3.140   5.269 -0.9133  0.0652 -0.6719
17718TIP3   OH274568   1.388   6.774   2.723  0.3477 -0.4063 -0.2302
17718TIP3    H174569   1.303   6.817   2.735  1.1484  1.0522  0.3376
17718TIP3    H274570   1.388   6.746   2.632 -0.3829  0.4235 -0.4961
17719TIP3   OH274571   1.659   5.769  14.843  0.1755 -0.0781  0.2567
17719TIP3    H174572   1.652   5.806  14.931  2.3516  0.1286  0.3542
17719TIP3    H274573   1.687   5.679  14.856  1.6252  0.2802 -0.2434
17720TIP3   OH274574   4.393   5.632   5.566 -0.2404 -0.2318  0.7433
17720TIP3    H174575   4.349   5.548   5.554  0.5288 -0.4442 -0.8371
17720TIP3    H274576   4.325   5.697   5.551 -0.7465 -0.5644  1.5521
17721TIP3   OH274577   4.013   4.237   1.590  0.6310 -0.1934 -0.4292
17721TIP3    H174578   3.951   4.234   1.663 -0.5351  0.4533 -1.3754
17721TIP3    H274579   4.017   4.329   1.565  2.6339 -0.0988  0.1420
17722TIP3   OH274580   5.186   4.077   3.562  0.6048 -0.2570 -0.1901
17722TIP3    H174581   5.233   4.161   3.554  0.1043 -0.0034 -0.4539
17722TIP3    H274582   5.098   4.096   3.531  0.5015 -0.8949 -0.2826
17723TIP3   OH274583   0.511   0.459   1.802  0.3837 -0.1853 -0.5655
17723TIP3    H174584   0.441   0.394   1.806 -0.1973  0.4431 -0.5478
17723TIP3    H274585   0.528   0.470   1.709  0.3725 -0.2451 -0.5747
17724TIP3   OH274586   5.057   2.361  13.021 -0.2141 -0.4028 -1.1503
17724TIP3    H174587   5.129   2.384  13.080 -0.1487 -2.0928 -0.5476
17724TIP3    H274588   5.098   2.359  12.934 -0.1005  1.1296 -1.1498
17725TIP3   OH274589   4.184   1.145  11.693  0.3877  0.4251  0.8251
17725TIP3    H174590   4.113   1.204  11.718  1.3701  1.6724  0.6641
17725TIP3    H274591   4.210   1.172  11.605 -1.1604 -2.1724 -0.5127
17726TIP3   OH274592   1.854   4.178  12.230 -0.1840  0.1672  0.1351
17726TIP3    H174593   1.910   4.228  12.171 -1.2504  0.2893 -0.8082
17726TIP3    H274594   1.817   4.109  12.174 -0.3567 -0.3939  0.9295
17727TIP3   OH274595   1.308   5.729   3.132  0.6686 -0.3284 -0.1943
17727TIP3    H174596   1.364   5.720   3.055  2.3908 -0.3640  1.0462
17727TIP3    H274597   1.269   5.642   3.144  0.2643 -0.2764 -1.1096
17728TIP3   OH274598   5.770   4.802  11.300  0.2587 -0.3867  0.3333
17728TIP3    H174599   5.780   4.757  11.216 -2.6609  1.3674 -1.0460
17728TIP3    H274600   5.826   4.879  11.293  0.4721 -0.5505  0.2312
17729TIP3   OH274601   0.113   1.248   1.043  0.1858 -0.4956  0.1642
17729TIP3    H174602   0.096   1.248   0.948  0.5799 -1.8010  0.0804
17729TIP3    H274603   0.027   1.236   1.082 -0.0021  0.2217 -0.0213
17730TIP3   OH274604   1.795   6.421   3.585 -0.0368  0.7450 -0.1664
17730TIP3    H174605   1.769   6.344   3.535  0.0603  1.3477 -1.1558
17730TIP3    H274606   1.849   6.386   3.656  1.1124  0.0298 -1.3725
17731TIP3   OH274607   1.345   1.226   2.566 -0.1656 -0.4578  0.3978
17731TIP3    H174608   1.255   1.194   2.578 -0.6520  1.4785  2.2219
17731TIP3    H274609   1.335   1.315   2.534  1.0842  0.1065  1.5203
17732TIP3   OH274610   0.799   6.430  14.543  0.4426 -0.2185 -0.0469
17732TIP3    H174611   0.889   6.401  14.531  1.7683  3.5291  0.1009
17732TIP3    H274612   0.771   6.458  14.456 -0.2674 -0.5384  0.0742
17733TIP3   OH274613   6.189   1.149   1.860  0.2899  0.1759 -0.0018
17733TIP3    H174614   6.145   1.177   1.940 -0.8477 -0.7643 -0.2872
17733TIP3    H274615   6.230   1.229   1.826 -1.0003  1.0233  0.3919
17734TIP3   OH274616   5.000   4.143   1.349  0.1197 -0.1471 -0.8069
17734TIP3    H174617   4.920   4.126   1.399 -1.2565  2.2392 -2.1433
17734TIP3    H274618   5.055   4.194   1.408 -0.8447  1.3079 -1.1629
17735TIP3   OH274619   6.651   6.071   6.168  0.1672 -0.2740  0.9804
17735TIP3    H174620   6.605   6.063   6.084  0.2730 -3.1053  1.1323
17735TIP3    H274621   6.596   6.128   6.221 -1.7896 -1.4024  0.2057
17736TIP3   OH274622   6.291   0.333  13.166  0.1042  0.2475  0.0715
17736TIP3    H174623   6.232   0.350  13.239  0.9236  1.8308  0.3785
17736TIP3    H274624   6.253   0.256  13.122 -1.9682  1.0041  0.4724
17737TIP3   OH274625   2.898   6.405  11.936 -0.2292 -0.4557  0.3933
17737TIP3    H174626   2.846   6.486  11.928  0.6859  0.1296  0.2727
17737TIP3    H274627   2.985   6.430  11.904 -0.0104 -1.5653  0.1141
17738TIP3   OH274628   6.462   2.141  14.091 -0.4469 -0.3195 -0.3808
17738TIP3    H174629   6.549   2.102  14.093 -0.1504  0.3687  1.6944
17738TIP3    H274630   6.404   2.069  14.065  0.3075 -1.7133  1.6608
17739TIP3   OH274631   6.572   2.906   4.175  0.0271  0.2489 -0.3197
17739TIP3    H174632   6.592   2.994   4.141 -0.2301  0.5159  0.2143
17739TIP3    H274633   6.650   2.881   4.224 -1.2517  1.6930  2.5855
17740TIP3   OH274634   0.726   5.688  14.784 -0.1927  0.2351  0.1270
17740TIP3    H174635   0.648   5.705  14.733  0.6746 -0.0681 -1.3193
17740TIP3    H274636   0.739   5.594  14.778  1.6705  0.5791 -1.7212
17741TIP3   OH274637   3.227   4.236  15.080 -0.9445  0.2334  0.2218
17741TIP3    H174638   3.320   4.215  15.077 -0.7769  1.1270 -0.8703
17741TIP3    H274639   3.189   4.190  15.005 -1.6213 -1.1976  1.3994
17742TIP3   OH274640   4.817   5.059  14.359  0.0120  0.2740  0.2330
17742TIP3    H174641   4.726   5.087  14.373 -0.3395  0.7812 -2.7381
17742TIP3    H274642   4.809   4.970  14.324  0.7065 -0.0126  0.7998
17743TIP3   OH274643   3.968   0.161  11.679  0.2312 -0.0458  0.0503
17743TIP3    H174644   4.042   0.206  11.638  1.0222  0.3146  1.8646
17743TIP3    H274645   3.909   0.141  11.606 -0.7126  4.8998 -0.6678
17744TIP3   OH274646   5.424   5.595   4.296  0.3800 -0.0829  0.3749
17744TIP3    H174647   5.367   5.521   4.318  0.3560 -0.2850 -0.3677
17744TIP3    H274648   5.386   5.669   4.344 -1.2971  0.0695 -1.1477
17745TIP3   OH274649   4.190   5.640  16.604 -0.2123 -0.2033  0.2202
17745TIP3    H174650   4.254   5.601  16.544 -0.3955 -0.2611  0.0610
17745TIP3    H274651   4.110   5.590  16.589 -0.3155 -0.0839  0.3667
17746TIP3   OH274652   4.226   3.895  16.595 -0.3094 -0.2478 -0.5781
17746TIP3    H174653   4.184   3.817  16.632 -1.0711 -0.2245 -1.3779
17746TIP3    H274654   4.170   3.967  16.622  0.4481  0.0417  0.2405
17747TIP3   OH274655   3.154   1.166   2.626  0.3127 -0.2108  0.5780
17747TIP3    H174656   3.230   1.216   2.600  0.7820 -0.6492  1.0936
17747TIP3    H274657   3.165   1.080   2.584 -1.0787  0.4834 -1.2810
17748TIP3   OH274658   2.045   6.019  11.431 -0.3569 -0.7087  0.4046
17748TIP3    H174659   2.026   6.066  11.512 -1.5610  0.4535 -0.5567
17748TIP3    H274660   1.994   5.938  11.438 -1.4068 -0.0612  0.2643
17749TIP3   OH274661   2.264   2.502  12.447 -0.2557 -0.3572  0.2595
17749TIP3    H174662   2.307   2.468  12.526  0.5811 -0.6592 -0.3254
17749TIP3    H274663   2.329   2.493  12.378 -0.5220  1.1371 -0.1996
17750TIP3   OH274664   1.546   5.852   1.584  0.1136 -0.4000 -0.6041
17750TIP3    H174665   1.479   5.895   1.638  2.6598 -0.7451  2.9932
17750TIP3    H274666   1.611   5.921   1.568  0.7260 -1.0323 -0.8698
17751TIP3   OH274667   2.434   5.727   0.641  0.3197 -0.4147 -0.2625
17751TIP3    H174668   2.373   5.796   0.667  0.6624  0.2444 -1.1743
17751TIP3    H274669   2.444   5.739   0.546  0.5961 -1.5425 -0.3796
17752TIP3   OH274670   3.649   3.580   5.214  0.2678  0.8358 -0.0731
17752TIP3    H174671   3.593   3.542   5.145 -0.0301  0.9238  0.1181
17752TIP3    H274672   3.713   3.633   5.166 -0.1282  1.1426 -0.2695
17753TIP3   OH274673   1.573   2.017   2.283  0.6012 -0.3043  0.4042
17753TIP3    H174674   1.509   2.035   2.351 -0.6363 -1.7308 -0.3545
17753TIP3    H274675   1.573   2.096   2.228 -0.5366 -0.3038  0.3981
17754TIP3   OH274676   5.426   1.257   2.456  0.2686  0.2269 -0.7460
17754TIP3    H174677   5.392   1.186   2.402  0.6153 -0.0281 -0.6303
17754TIP3    H274678   5.393   1.337   2.415  0.8275  0.0474 -1.5389
17755TIP3   OH274679   3.631   5.589  16.185 -0.2712 -0.0146  1.1649
17755TIP3    H174680   3.632   5.612  16.278 -1.1201  2.3717  0.6384
17755TIP3    H274681   3.697   5.646  16.146  0.8204 -1.7433  0.4466
17756TIP3   OH274682   4.946   2.475  15.832  0.5578  0.3060 -0.2335
17756TIP3    H174683   4.964   2.514  15.746  0.2302  0.6986 -0.1241
17756TIP3    H274684   5.029   2.483  15.879  0.8006 -0.1040 -0.5872
17757TIP3   OH274685   3.322   1.607   4.328 -0.6078 -0.3897 -0.4646
17757TIP3    H174686   3.411   1.641   4.331 -1.2194  1.1159  1.8937
17757TIP3    H274687   3.328   1.531   4.270  1.7027  1.0504 -2.2094
17758TIP3   OH274688   5.921   5.450   6.549 -0.8995 -0.5900  0.2758
17758TIP3    H174689   5.865   5.373   6.554  0.0283 -1.5075 -2.6937
17758TIP3    H274690   6.010   5.416   6.551 -0.4732  0.4487 -0.6477
17759TIP3   OH274691   3.794   5.087  16.245 -0.1350 -0.3186 -0.2119
17759TIP3    H174692   3.862   5.085  16.313  0.5094  3.6183 -0.6124
17759TIP3    H274693   3.842   5.079  16.163 -0.6815 -2.6869 -0.3106
17760TIP3   OH274694   4.467   2.584  12.932  0.0518  0.3845  0.0814
17760TIP3    H174695   4.543   2.627  12.972  0.5235 -1.0741  0.8100
17760TIP3    H274696   4.393   2.609  12.988 -0.0241  1.8780 -0.6803
17761TIP3   OH274697   2.874   3.075  12.312 -0.5042 -0.1240  0.1389
17761TIP3    H174698   2.925   3.102  12.235 -2.8163  0.9685 -1.0544
17761TIP3    H274699   2.784   3.066  12.280 -1.3419 -0.6022  2.5043
17762TIP3   OH274700   0.657   2.214   5.930  0.5126 -0.2244 -0.7678
17762TIP3    H174701   0.618   2.301   5.929  0.9014 -0.0541 -2.0741
17762TIP3    H274702   0.701   2.208   6.015  0.3359  0.7811 -0.6070
17763TIP3   OH274703   4.304   4.636   3.637  0.0410  0.1467  0.2775
17763TIP3    H174704   4.213   4.606   3.639  0.0105  0.2459  0.4338
17763TIP3    H274705   4.311   4.694   3.714 -0.4636  2.1838 -1.1733
17764TIP3   OH274706   2.603   0.224   6.125 -0.0992 -0.5117 -0.5412
17764TIP3    H174707   2.592   0.142   6.173 -1.2338 -0.7379 -1.1702
17764TIP3    H274708   2.595   0.199   6.033  0.4335  0.1715 -0.7818
17765TIP3   OH274709   5.876   6.476  16.020 -0.3342 -0.0608  0.5994
17765TIP3    H174710   5.804   6.493  16.081 -0.9267  3.2747 -0.8807
17765TIP3    H274711   5.834   6.437  15.944 -0.7183  2.1578 -0.3835
17766TIP3   OH274712   0.944   5.449  10.913  0.1127  0.0668  0.3574
17766TIP3    H174713   0.915   5.408  10.832 -0.5214  1.3466 -0.0713
17766TIP3    H274714   1.024   5.401  10.937  0.4337 -0.1735 -1.1486
17767TIP3   OH274715   5.462   5.732  13.314  0.6717 -0.0405 -0.2367
17767TIP3    H174716   5.482   5.708  13.404  0.6669  0.5826 -0.0674
17767TIP3    H274717   5.379   5.687  13.295  2.0702 -2.4127 -0.8532
17768TIP3   OH274718   5.649   3.384  15.782 -0.6186 -0.0560  0.5560
17768TIP3    H174719   5.625   3.318  15.716  0.2451 -0.5944  0.7691
17768TIP3    H274720   5.601   3.357  15.861 -2.2595  1.0273 -0.0498
17769TIP3   OH274721   2.938   2.395   3.617  0.5635  0.0865 -0.0538
17769TIP3    H174722   2.894   2.444   3.548 -0.6120 -3.6715 -2.1272
17769TIP3    H274723   2.873   2.388   3.687  0.9291  1.8599  0.4912
17770TIP3   OH274724   6.676   2.496  14.741  0.0658  0.0469  0.8188
17770TIP3    H174725   6.756   2.514  14.791  0.2045 -0.2793  0.7193
17770TIP3    H274726   6.703   2.506  14.649 -0.3101  1.1239  0.8205
17771TIP3   OH274727   4.444   4.433  14.180 -0.0665 -0.3850 -0.3331
17771TIP3    H174728   4.488   4.360  14.135  2.5528  0.3474  0.9722
17771TIP3    H274729   4.395   4.477  14.110  0.5751 -1.7347 -1.6754
17772TIP3   OH274730   3.077   4.096  14.857 -0.4775 -0.3464  0.1330
17772TIP3    H174731   3.044   4.163  14.798 -1.7611  2.3543  3.7344
17772TIP3    H274732   2.998   4.061  14.900  0.7174  1.7751  4.2857
17773TIP3   OH274733   6.732   5.134   3.907  0.0752  0.2015 -0.1921
17773TIP3    H174734   6.761   5.055   3.952  1.3458  0.1815 -1.0164
17773TIP3    H274735   6.693   5.103   3.825  0.4182  0.4178 -0.4389
17774TIP3   OH274736   6.584   0.557   3.636 -0.3322  0.3696 -0.0381
17774TIP3    H174737   6.540   0.580   3.554 -0.5637  1.0484  0.2639
17774TIP3    H274738   6.632   0.637   3.659  0.3791 -0.0930  0.0672
17775TIP3   OH274739   3.905   0.800   0.374 -0.0973 -0.0082  0.6802
17775TIP3    H174740   3.961   0.818   0.449 -0.4450 -0.6150  1.0920
17775TIP3    H274741   3.866   0.884   0.352  0.6578  0.3363  0.6483
17776TIP3   OH274742   1.033   3.606  16.551  0.1715 -0.2632  0.3295
17776TIP3    H174743   0.969   3.653  16.604  0.2135  0.1017  0.0695
17776TIP3    H274744   1.102   3.581  16.612  0.5370  0.7318  0.3342
17777TIP3   OH274745   5.805   4.099   1.365 -0.1849 -0.6603 -0.2104
17777TIP3    H174746   5.754   4.025   1.398 -0.2069 -0.8785 -0.7295
17777TIP3    H274747   5.861   4.124   1.438  0.0102 -1.3575 -0.1239
17778TIP3   OH274748   3.609   3.327  10.608  0.4790  0.0440 -0.1801
17778TIP3    H174749   3.524   3.289  10.588 -0.4932  3.1335 -2.4046
17778TIP3    H274750   3.596   3.372  10.692 -0.3391  1.0823 -0.8434
17779TIP3   OH274751   6.727   2.467   1.340  0.2810  0.0352  0.5988
17779TIP3    H174752   6.759   2.377   1.335 -0.9388 -0.4728  1.5643
17779TIP3    H274753   6.788   2.511   1.400  1.1597 -0.0112 -0.2484
17780TIP3   OH274754   2.290   3.356   5.294  0.2953  0.4984 -0.2689
17780TIP3    H174755   2.334   3.293   5.351  0.5860  1.7403  0.8767
17780TIP3    H274756   2.342   3.435   5.300 -0.2020  0.9416 -1.5435
17781TIP3   OH274757   0.866   6.718  11.928  0.6165  0.1346 -0.9775
17781TIP3    H174758   0.931   6.787  11.940 -0.0550  0.7227 -0.7417
17781TIP3    H274759   0.861   6.674  12.013  0.7667  0.0397 -1.0170
17782TIP3   OH274760   6.477   6.288  13.337 -0.3140 -0.3157  0.1782
17782TIP3    H174761   6.437   6.273  13.423 -1.7134 -0.9939 -0.5704
17782TIP3    H274762   6.548   6.349  13.354 -1.5707  0.8050  1.5940
17783TIP3   OH274763   2.939   5.643  13.825  0.4895 -0.2494  0.5642
17783TIP3    H174764   3.005   5.651  13.893 -0.6700  1.7802  1.4808
17783TIP3    H274765   2.899   5.557  13.841  2.8098 -1.4464  0.0535
17784TIP3   OH274766   6.417   2.204  11.958 -0.3386  0.1369  0.6878
17784TIP3    H174767   6.405   2.241  11.871 -3.3350 -1.6625  0.2551
17784TIP3    H274768   6.401   2.277  12.018  0.1026  1.0069 -0.2570
17785TIP3   OH274769   6.547   2.495  15.180  0.2268  0.3991  0.4124
17785TIP3    H174770   6.488   2.426  15.211  0.3267 -0.5991 -1.5448
17785TIP3    H274771   6.630   2.478  15.226 -0.5546  0.8816  2.0091
17786TIP3   OH274772   5.962   4.615  16.797 -0.7633  0.1995 -1.0447
17786TIP3    H174773   5.952   4.532  16.844 -0.4054  0.7663  0.0523
17786TIP3    H274774   6.033   4.660  16.843 -1.1021  1.2070 -1.4966
17787TIP3   OH274775   4.828   2.658  13.857 -0.7820 -0.8714  0.0725
17787TIP3    H174776   4.867   2.741  13.830 -0.0955 -0.3280  2.6683
17787TIP3    H274777   4.848   2.598  13.785  4.6369 -0.5541  1.1497
17788TIP3   OH274778   1.840   2.462  13.018  0.0159  0.0540 -0.2568
17788TIP3    H174779   1.855   2.445  13.111 -1.1534  1.0930  0.1331
17788TIP3    H274780   1.767   2.524  13.016  0.3226  0.3901 -1.8526
17789TIP3   OH274781   4.009   0.282   1.949  0.4382 -0.3975 -0.1102
17789TIP3    H174782   3.927   0.256   1.992  0.0187 -1.0845 -1.2980
17789TIP3    H274783   4.075   0.226   1.989  0.2613 -0.1458  0.5429
17790TIP3   OH274784   1.428   5.407   2.329 -0.0735 -0.2969  0.4063
17790TIP3    H174785   1.374   5.328   2.319 -0.2540 -0.4176  2.2598
17790TIP3    H274786   1.390   5.454   2.403  0.0405  1.5528 -0.6594
17791TIP3   OH274787   3.072   5.597   3.237  0.0527  0.3995  0.1560
17791TIP3    H174788   3.154   5.634   3.203 -0.5715  1.3427 -0.3536
17791TIP3    H274789   3.018   5.585   3.159  0.3647 -1.9724  0.2500
17792TIP3   OH274790   5.941   1.117   2.060 -0.3320  0.5870 -0.1012
17792TIP3    H174791   5.952   1.206   2.094 -0.7669  0.8867 -0.7346
17792TIP3    H274792   5.848   1.112   2.037 -0.4467 -0.2481  0.5256
17793TIP3   OH274793   4.663   5.593  12.823 -0.6164  0.2633  0.1820
17793TIP3    H174794   4.616   5.512  12.805 -1.5301  1.0436 -1.0255
17793TIP3    H274795   4.596   5.653  12.854  0.1672  0.3723  1.6880
17794TIP3   OH274796   5.627   3.190  12.109 -0.4766 -0.2441  0.1797
17794TIP3    H174797   5.561   3.121  12.103 -1.5609  0.5805  2.1305
17794TIP3    H274798   5.681   3.166  12.185 -1.5654  1.6016  1.5892
17795TIP3   OH274799   0.522   2.324  17.107 -0.1691 -0.3797 -0.5917
17795TIP3    H174800   0.574   2.401  17.084 -1.8839  1.8765  2.8008
17795TIP3    H274801   0.582   2.269  17.158 -0.1302  0.6457  0.4726
17796TIP3   OH274802   6.777   3.127  13.621 -0.7767  0.5391 -0.5056
17796TIP3    H174803   6.771   3.139  13.526 -0.7275  0.8604 -0.4704
17796TIP3    H274804   6.862   3.165  13.644 -0.8574  0.6024 -0.3112
17797TIP3   OH274805   1.993   1.235  13.640 -0.1968  0.2972  0.2240
17797TIP3    H174806   1.931   1.307  13.655 -2.3345 -1.6489  1.0361
17797TIP3    H274807   2.044   1.231  13.720  0.2348  1.1773  0.0052
17798TIP3   OH274808   0.721   1.537  14.401  0.0886  0.1517  0.5011
17798TIP3    H174809   0.778   1.473  14.442 -0.1631  0.4611  1.3397
17798TIP3    H274810   0.755   1.546  14.311 -0.1367 -1.4505  0.2518
17799TIP3   OH274811   1.069   4.048   5.418  0.0420  0.2121  0.1912
17799TIP3    H174812   1.061   3.982   5.487  0.6018 -0.2592 -0.1914
17799TIP3    H274813   1.137   4.014   5.360  0.5933  1.2965  0.1835
17800TIP3   OH274814   1.833   0.529  10.386 -0.4247  0.5877  0.1012
17800TIP3    H174815   1.765   0.541  10.452 -1.0486  2.4332 -0.8596
17800TIP3    H274816   1.915   0.537  10.435 -0.8820  1.0834  0.7994
17801TIP3   OH274817   1.207   4.956   1.975  0.0541  0.6332  0.2371
17801TIP3    H174818   1.190   4.956   1.880  2.5877 -0.4255 -0.2369
17801TIP3    H274819   1.216   5.049   1.997  0.6336  0.8350 -0.7878
17802TIP3   OH274820   4.774   4.945  11.815  0.5464 -1.1863  0.1673
17802TIP3    H174821   4.812   4.910  11.734  1.9096 -0.0395  0.2768
17802TIP3    H274822   4.849   4.983  11.861 -0.6851  0.7130  0.6374
17803TIP3   OH274823   6.679   4.734  11.240  0.5912  0.4610  0.1225
17803TIP3    H174824   6.724   4.793  11.300 -0.9869 -0.3192  2.1546
17803TIP3    H274825   6.588   4.765  11.242  0.3394 -0.1994 -1.1143
17804TIP3   OH274826   4.490   5.060  11.446 -0.2853  0.0942 -0.4660
17804TIP3    H174827   4.581   5.084  11.426 -0.2904  0.5419  0.0049
17804TIP3    H274828   4.476   4.978  11.400  1.0631 -1.1131  1.1891
17805TIP3   OH274829   3.669   6.072  13.219  0.0206  0.2089  0.0134
17805TIP3    H174830   3.761   6.049  13.204 -0.7395 -2.0607 -1.4878
17805TIP3    H274831   3.621   6.024  13.151 -2.1998  2.0746  0.2082
17806TIP3   OH274832   4.266   5.170  12.412  0.4439  0.2570  0.4518
17806TIP3    H174833   4.260   5.240  12.477  1.2255  2.2075 -1.5210
17806TIP3    H274834   4.208   5.102  12.445 -0.4466  1.8911  2.3564
17807TIP3   OH274835   6.622   5.421   4.557 -0.3096 -0.4977  0.5179
17807TIP3    H174836   6.626   5.389   4.647 -0.2177  1.5641  1.2721
17807TIP3    H274837   6.546   5.478   4.554  0.0639 -0.0299 -0.5326
17808TIP3   OH274838   0.816   0.182  16.449  0.6505 -0.6616 -0.1243
17808TIP3    H174839   0.730   0.223  16.457  1.2664  0.6182  0.1400
17808TIP3    H274840   0.850   0.213  16.365  1.3397 -0.1778  0.3185
17809TIP3   OH274841   2.406   5.789   1.013 -0.0557  0.3296 -0.0765
17809TIP3    H174842   2.417   5.752   1.101 -1.6793 -3.2321 -1.2735
17809TIP3    H274843   2.485   5.763   0.966  0.3183  1.3120 -0.0123
17810TIP3   OH274844   4.615   4.267   3.973  0.1446  0.0619  0.0273
17810TIP3    H174845   4.702   4.258   3.934 -0.6519  0.9164 -2.0510
17810TIP3    H274846   4.580   4.348   3.935 -1.4794 -0.1697  0.9725
17811TIP3   OH274847   6.469   5.188   4.944  0.3393 -0.0589 -0.4455
17811TIP3    H174848   6.483   5.117   4.881  0.4960  0.3816 -0.9117
17811TIP3    H274849   6.377   5.181   4.968  0.2769 -0.2226 -0.7272
17812TIP3   OH274850   2.449   3.424   2.915  0.5700  0.0817 -0.2576
17812TIP3    H174851   2.419   3.501   2.964  1.4566 -0.0384  0.4900
17812TIP3    H274852   2.519   3.387   2.969 -0.6430 -1.9414 -0.0115
17813TIP3   OH274853   2.027   3.169   0.019 -0.0617  0.2644  0.2785
17813TIP3    H174854   2.042   3.140  -0.071 -0.5552 -1.1424  0.6400
17813TIP3    H274855   2.053   3.095   0.073  0.0401  1.0254  1.2947
17814TIP3   OH274856   5.730   3.254   5.780 -0.0353  0.5340 -0.2317
17814TIP3    H174857   5.769   3.312   5.845  0.4170  0.0758 -0.0958
17814TIP3    H274858   5.743   3.299   5.696 -0.6151  1.1212 -0.0138
17815TIP3   OH274859   5.249   3.433   2.581 -0.3649 -0.7647  0.8446
17815TIP3    H174860   5.200   3.397   2.655 -2.2118 -0.2373 -0.0770
17815TIP3    H274861   5.314   3.490   2.621 -2.0408  0.3619  2.0677
17816TIP3   OH274862   0.370   1.086   3.825  0.2730  0.6962 -0.0559
17816TIP3    H174863   0.337   1.107   3.912  0.2290  0.4329 -0.0082
17816TIP3    H274864   0.424   1.008   3.838 -0.4406  0.1422 -0.4082
17817TIP3   OH274865   2.766   6.401   5.057 -0.5545  0.5147 -0.0947
17817TIP3    H174866   2.811   6.413   5.141 -4.4353  0.4310  2.1233
17817TIP3    H274867   2.684   6.450   5.066 -1.0365  0.6159 -3.9312
17818TIP3   OH274868   4.528   0.266  11.820  0.6795 -0.0529 -0.1162
17818TIP3    H174869   4.533   0.254  11.726  0.0467 -0.6545 -0.0808
17818TIP3    H274870   4.610   0.309  11.844  1.5418 -1.3440 -0.7157
17819TIP3   OH274871   2.172   5.424  14.934  0.2434 -0.3999  0.7447
17819TIP3    H174872   2.265   5.444  14.936 -0.0814  1.3361 -0.6478
17819TIP3    H274873   2.131   5.491  14.989 -0.1367 -1.6079  1.9860
17820TIP3   OH274874   2.346   1.294  17.226  0.3695 -0.0362 -0.0788
17820TIP3    H174875   2.371   1.347  17.151  0.3171 -1.2891 -0.9964
17820TIP3    H274876   2.251   1.285  17.218  0.3911 -0.3472  0.0231
17821TIP3   OH274877   2.653   3.811  11.806  0.2656 -0.4607  0.7707
17821TIP3    H174878   2.600   3.885  11.777  0.7500 -0.8291 -1.1281
17821TIP3    H274879   2.742   3.846  11.810  0.7699 -1.3306 -1.7896
17822TIP3   OH274880   5.705   3.386  11.117 -0.1389 -0.3051  0.7576
17822TIP3    H174881   5.708   3.385  11.212 -0.5301 -0.1955  0.7738
17822TIP3    H274882   5.724   3.296  11.091  5.2678  0.6680  0.7467
17823TIP3   OH274883   2.459   2.104   1.108  0.2443  0.7914  0.0003
17823TIP3    H174884   2.444   2.061   1.025  0.0318 -0.2417  0.5652
17823TIP3    H274885   2.373   2.133   1.137  0.3818  1.5687 -0.3608
17824TIP3   OH274886   1.412   4.689  15.967  0.0759 -0.3529  0.1660
17824TIP3    H174887   1.414   4.607  15.918  0.8832 -0.8328  0.9898
17824TIP3    H274888   1.437   4.665  16.056 -2.0442  0.4027  0.9943
17825TIP3   OH274889   5.498   4.124  14.859  0.3839 -0.7433 -0.0604
17825TIP3    H174890   5.445   4.048  14.883  1.9420 -1.7782  0.1588
17825TIP3    H274891   5.587   4.090  14.851  0.7951  0.6676 -1.8812
17826TIP3   OH274892   2.141   2.386  15.350 -0.3490  0.1747  0.1600
17826TIP3    H174893   2.070   2.447  15.333  0.6782  2.1547  2.7303
17826TIP3    H274894   2.107   2.325  15.414 -0.8931 -1.1316 -1.3322
17827TIP3   OH274895   4.127   6.390   0.738  0.2294 -0.1821  0.3893
17827TIP3    H174896   4.127   6.313   0.681 -1.9666 -0.2573  0.4547
17827TIP3    H274897   4.185   6.367   0.810 -0.0870 -1.6136  0.1938
17828TIP3   OH274898   5.874   2.179   1.676 -0.3923 -0.4671 -0.4377
17828TIP3    H174899   5.850   2.259   1.631  3.0134  1.4617  0.9754
17828TIP3    H274900   5.969   2.174   1.667 -0.1799 -2.5889  2.3078
17829TIP3   OH274901   2.359   5.777   1.505  0.4047 -0.0420  0.3591
17829TIP3    H174902   2.434   5.719   1.494 -0.1636 -0.5759 -0.8282
17829TIP3    H274903   2.283   5.722   1.489 -0.1973  0.7084  0.6101
17830TIP3   OH274904   2.857   2.827   1.684  0.1912  0.4409  0.5387
17830TIP3    H174905   2.832   2.747   1.637  1.2000  0.3451  0.1660
17830TIP3    H274906   2.805   2.824   1.765  1.0775 -1.1864  1.0670
17831TIP3   OH274907   0.693   2.762  12.964  0.4359  0.6508  0.1562
17831TIP3    H174908   0.668   2.708  13.039  0.5371 -1.4309 -1.2612
17831TIP3    H274909   0.661   2.849  12.985 -0.1719 -0.0650  2.2888
17832TIP3   OH274910   6.211   1.319   0.726 -0.4613 -0.5233  0.2351
17832TIP3    H174911   6.145   1.386   0.716 -1.1935 -0.9269  2.1089
17832TIP3    H274912   6.282   1.345   0.667 -0.8873  1.6777  0.6696
17833TIP3   OH274913   3.584   3.400   3.287 -0.3366  0.1884  0.4663
17833TIP3    H174914   3.576   3.305   3.274  0.8209  0.0949  0.3538
17833TIP3    H274915   3.672   3.421   3.254 -1.2624  1.5949 -1.2092
17834TIP3   OH274916   1.364   2.129   4.078  0.6551 -0.6218  0.0931
17834TIP3    H174917   1.361   2.153   4.171 -0.6155 -1.8271  0.3779
17834TIP3    H274918   1.457   2.118   4.059  0.8766 -1.2334  1.4535
17835TIP3   OH274919   4.753   3.895   0.969  0.6589 -0.1978  0.1185
17835TIP3    H174920   4.678   3.934   1.014  0.2412 -0.9116  0.0652
17835TIP3    H274921   4.830   3.925   1.017  0.4729  1.9768 -0.8710
17836TIP3   OH274922   1.554   5.085  10.706  0.6052  0.9419 -0.8911
17836TIP3    H174923   1.480   5.132  10.745 -1.3943 -1.9743 -0.9769
17836TIP3    H274924   1.563   5.124  10.619 -1.4366  0.7763 -1.2148
17837TIP3   OH274925   4.883   2.542  13.357  0.6934  0.1167 -0.1270
17837TIP3    H174926   4.952   2.604  13.335  0.0809  0.8820  0.0702
17837TIP3    H274927   4.907   2.510  13.444  1.4656 -0.5819 -0.5892
17838TIP3   OH274928   0.174   6.415   3.996 -0.1290 -0.0912 -0.0045
17838TIP3    H174929   0.106   6.379   3.940  1.9402 -0.5243 -2.3464
17838TIP3    H274930   0.245   6.350   3.993  2.7244  2.9354 -2.4194
17839TIP3   OH274931   4.973   6.066  12.971 -0.7241 -0.4939 -0.0566
17839TIP3    H174932   5.069   6.065  12.974 -0.6994  1.2285  0.2183
17839TIP3    H274933   4.952   6.032  12.884  0.2394  1.3714 -1.0649
17840TIP3   OH274934   4.930   2.154  15.280 -0.0119 -0.0863 -0.1738
17840TIP3    H174935   5.024   2.147  15.297 -0.0296 -1.5379 -0.6216
17840TIP3    H274936   4.892   2.181  15.364  0.7529  0.0591  0.1252
17841TIP3   OH274937   4.931   4.161   5.584 -0.0975 -0.2146  0.0319
17841TIP3    H174938   4.897   4.096   5.522  0.9754 -2.3398  1.6205
17841TIP3    H274939   5.011   4.194   5.543  0.0306 -0.8179 -0.2061
17842TIP3   OH274940   3.759   3.680   6.553 -0.4742  0.1612 -0.0109
17842TIP3    H174941   3.766   3.585   6.559  0.7345  0.2420  0.0482
17842TIP3    H274942   3.777   3.700   6.461  0.3607  0.4118  0.2025
17843TIP3   OH274943   2.139   6.258  13.441 -0.3834  0.2767 -0.2216
17843TIP3    H174944   2.053   6.234  13.475 -0.6313  0.8121 -0.4605
17843TIP3    H274945   2.139   6.225  13.351  0.2471 -1.0808  0.2619
17844TIP3   OH274946   4.480   5.462   1.081  0.3018 -0.2304  0.5135
17844TIP3    H174947   4.489   5.538   1.138  0.6989  0.9826 -1.1094
17844TIP3    H274948   4.387   5.441   1.081 -0.1019  1.4730 -0.5180
17845TIP3   OH274949   3.947   1.084   2.599 -0.2946  0.2274  0.0940
17845TIP3    H174950   3.952   1.136   2.519  2.2102  0.5243  0.4299
17845TIP3    H274951   3.919   1.146   2.666 -1.6990  0.1324 -0.3855
17846TIP3   OH274952   2.190   6.034  11.823  0.7175 -0.3894  0.5072
17846TIP3    H174953   2.213   6.065  11.736 -0.8451 -1.1737 -0.2267
17846TIP3    H274954   2.272   6.034  11.872  1.7227 -0.4917 -1.1417
17847TIP3   OH274955   4.345   3.234  14.722  0.2098  0.2670 -0.5723
17847TIP3    H174956   4.271   3.236  14.661 -0.4465 -0.7037  0.1625
17847TIP3    H274957   4.388   3.150  14.705 -0.7760 -0.6302  1.1829
17848TIP3   OH274958   2.112   5.083   0.529  0.7435  0.1107 -0.3307
17848TIP3    H174959   2.167   5.010   0.503  0.4627  0.0738 -0.8145
17848TIP3    H274960   2.029   5.069   0.484  0.1075 -0.1800  0.8904
17849TIP3   OH274961   3.391   0.993  14.608  0.0034  0.2007  0.3044
17849TIP3    H174962   3.440   1.026  14.684  2.4984 -0.2943 -1.0398
17849TIP3    H274963   3.440   0.916  14.580 -2.1702 -0.9409 -0.4813
17850TIP3   OH274964   3.499   3.109   4.814 -0.0344  0.0778  0.5151
17850TIP3    H174965   3.528   3.074   4.898  1.4737 -1.1425 -0.4740
17850TIP3    H274966   3.566   3.173   4.790  0.3849 -0.7264 -0.4867
17851TIP3   OH274967   6.516   2.124   4.675 -0.4054 -0.0151 -0.3091
17851TIP3    H174968   6.583   2.147   4.740 -0.6299 -0.9171  0.2609
17851TIP3    H274969   6.562   2.128   4.591  1.1385 -3.2335  0.2954
17852TIP3   OH274970   4.481   1.238   5.959  0.1825 -0.1260  0.8163
17852TIP3    H174971   4.547   1.174   5.985 -1.7143 -2.6579 -0.3720
17852TIP3    H274972   4.399   1.189   5.956 -1.3356  2.3335 -0.2410
17853TIP3   OH274973   4.006   1.605  16.604  1.0446 -0.0375  0.2923
17853TIP3    H174974   3.998   1.654  16.686  3.2050 -0.5562  0.8311
17853TIP3    H274975   4.004   1.513  16.631 -2.2221 -0.3101 -0.6488
17854TIP3   OH274976   5.231   1.577   1.348  0.4333 -0.3459  0.0564
17854TIP3    H174977   5.219   1.671   1.339 -1.1874 -0.4728  0.6715
17854TIP3    H274978   5.324   1.562   1.332  0.6563  1.3341 -0.2192
17855TIP3   OH274979   1.795   0.999  17.091 -0.6910 -0.5158 -0.1845
17855TIP3    H174980   1.794   0.966  17.181 -0.4201 -1.4443 -0.5089
17855TIP3    H274981   1.703   1.001  17.065 -0.7326 -0.7977 -0.0684
17856TIP3   OH274982   1.391   0.736  14.119  0.5594  0.4341 -0.3326
17856TIP3    H174983   1.320   0.672  14.114 -0.3232  0.8210  4.3538
17856TIP3    H274984   1.463   0.688  14.161  1.0058  1.5839  0.2577
17857TIP3   OH274985   0.620   1.133   4.678  0.5670 -0.1631  0.0723
17857TIP3    H174986   0.672   1.053   4.669 -0.2907 -0.6294 -0.9237
17857TIP3    H274987   0.569   1.137   4.597 -0.8547  0.3446  0.9744
17858TIP3   OH274988   3.940   0.652   5.318 -0.3364 -0.0723 -0.1651
17858TIP3    H174989   4.013   0.666   5.258 -0.0867  0.4906  0.2660
17858TIP3    H274990   3.946   0.560   5.342  0.5237  0.0911  0.2434
17859TIP3   OH274991   5.396   2.609   2.438  0.3284 -0.3144 -0.0756
17859TIP3    H174992   5.350   2.594   2.521  0.8097 -2.9276 -0.2338
17859TIP3    H274993   5.422   2.522   2.409  1.5141  0.7113 -2.2254
17860TIP3   OH274994   6.513   5.287  17.148  0.0774  0.4480 -0.1283
17860TIP3    H174995   6.526   5.353  17.215  1.2096 -0.2258  0.3308
17860TIP3    H274996   6.583   5.303  17.084  0.6715 -0.6115  0.2448
17861TIP3   OH274997   3.041   5.542   0.547 -0.4764  0.1286 -0.2338
17861TIP3    H174998   2.972   5.511   0.606 -0.6037 -0.0460 -0.4741
17861TIP3    H274999   3.115   5.485   0.566 -0.1262  0.8649  0.6295
17862TIP3   OH275000   0.621   2.742   2.732  0.2034  0.4329 -0.0496
17862TIP3    H175001   0.564   2.818   2.738  0.4392  0.5446  0.8277
17862TIP3    H275002   0.688   2.767   2.668 -0.0319  0.7501 -0.1732
17863TIP3   OH275003   1.207   5.976   5.322  0.6930  0.1612 -0.3417
17863TIP3    H175004   1.193   5.945   5.412 -0.8112 -1.5385 -1.1181
17863TIP3    H275005   1.286   5.931   5.293  0.9781  0.4337  0.0091
17864TIP3   OH275006   1.033   4.015  13.828  0.3193 -0.0671 -0.0631
17864TIP3    H175007   0.954   3.963  13.842  0.5491 -0.2203  0.7291
17864TIP3    H275008   1.003   4.106  13.831  0.1144 -0.1313 -0.1461
17865TIP3   OH275009   0.714   2.353  15.464  0.1488  0.2835 -0.3884
17865TIP3    H175010   0.619   2.350  15.451  0.0678  0.1617  0.2093
17865TIP3    H275011   0.738   2.262  15.480  0.1632  0.4888  0.8355
17866TIP3   OH275012   5.555   4.447  14.575  0.1929  0.5714 -0.0516
17866TIP3    H175013   5.631   4.502  14.557 -0.0703  0.1430 -2.7254
17866TIP3    H275014   5.592   4.366  14.610  0.7587  1.3857  1.2741
17867TIP3   OH275015   1.994   1.472   1.126  0.4309  0.1757  0.4483
17867TIP3    H175016   1.973   1.403   1.064  1.2744  0.8436 -0.6106
17867TIP3    H275017   2.052   1.531   1.078 -0.7379  1.9293  1.1384
17868TIP3   OH275018   4.968   1.202   1.658  0.0723 -0.3587 -0.3203
17868TIP3    H175019   4.879   1.212   1.623 -0.7831 -0.5887  1.7233
17868TIP3    H275020   5.025   1.220   1.583 -1.6977 -1.5547 -2.0155
17869TIP3   OH275021   5.366   3.205   2.184 -0.4682 -0.1555 -0.8125
17869TIP3    H175022   5.367   3.130   2.126  2.7705  0.4748 -1.6902
17869TIP3    H275023   5.388   3.169   2.270 -0.2594 -0.4201 -0.9746
17870TIP3   OH275024   6.344   2.640   5.300 -0.2375 -0.5207 -0.1692
17870TIP3    H175025   6.379   2.579   5.235  1.4522 -0.9073  1.0457
17870TIP3    H275026   6.371   2.603   5.384  0.1186  1.4674  0.6307
17871TIP3   OH275027   3.435   3.611   2.428  0.2028  0.2230  0.1224
17871TIP3    H175028   3.434   3.602   2.332 -0.0549  0.1641  0.1316
17871TIP3    H275029   3.435   3.706   2.442  0.7597  0.2336  0.0575
17872TIP3   OH275030   3.764   3.154   2.852  0.2486  0.3249  0.3127
17872TIP3    H175031   3.680   3.176   2.894  0.6035 -0.6466  1.5718
17872TIP3    H275032   3.739   3.100   2.777 -0.1296 -2.8743  2.6232
17873TIP3   OH275033   3.293   5.164  17.062  0.0291 -0.1929  0.0600
17873TIP3    H175034   3.317   5.215  16.985  0.2939  0.0233  0.2796
17873TIP3    H275035   3.369   5.109  17.080  0.2264  0.2232  0.5428
17874TIP3   OH275036   6.778   5.695   3.216 -0.5510 -0.1283  0.3190
17874TIP3    H175037   6.768   5.642   3.296 -1.7466 -0.8687 -0.2998
17874TIP3    H275038   6.752   5.636   3.146 -2.4852  1.4736 -0.3399
17875TIP3   OH275039   3.524   0.602  15.950  0.4955 -0.3436 -0.7180
17875TIP3    H175040   3.535   0.530  16.012  0.3713 -0.5510 -0.9412
17875TIP3    H275041   3.431   0.602  15.929  0.7038 -0.8701 -1.6351
17876TIP3   OH275042   6.084   6.495  10.758  0.1007  0.1753  0.1206
17876TIP3    H175043   6.085   6.583  10.793  4.1651 -0.1674  1.1370
17876TIP3    H275044   6.055   6.440  10.830  1.5417  0.2625  0.7827
17877TIP3   OH275045   5.780   1.891  11.609 -0.9166 -0.0185 -0.4236
17877TIP3    H175046   5.770   1.881  11.514  0.0672 -1.4252 -0.3915
17877TIP3    H275047   5.843   1.824  11.634 -1.0401  0.4489  1.2123
17878TIP3   OH275048   3.548   1.761  16.118 -0.1445 -0.2321  0.1784
17878TIP3    H175049   3.479   1.787  16.057  1.5035 -3.0544 -3.0192
17878TIP3    H275050   3.504   1.703  16.181 -1.2116  0.1506 -0.2059
17879TIP3   OH275051   2.688   6.083   1.458  0.4963  0.1271  0.2658
17879TIP3    H175052   2.706   6.029   1.535  3.1725 -0.6840 -0.8791
17879TIP3    H275053   2.658   6.021   1.392 -0.6766  0.6668  0.2794
17880TIP3   OH275054   5.309   5.819  14.665  0.4760  0.6530  0.3156
17880TIP3    H175055   5.236   5.843  14.609  1.1602  1.4020 -0.2588
17880TIP3    H275056   5.381   5.801  14.605  0.8072  0.0498  0.8848
17881TIP3   OH275057   3.139   5.247   1.287  0.1032 -0.1770  0.3495
17881TIP3    H175058   3.134   5.187   1.361 -0.5558  0.9759  1.2524
17881TIP3    H275059   3.227   5.233   1.251  0.3567 -0.8780  1.2304
17882TIP3   OH275060   1.236   0.240   5.638  0.4314 -0.1866  0.4395
17882TIP3    H175061   1.313   0.293   5.619  0.4888 -0.0635  0.9838
17882TIP3    H275062   1.265   0.180   5.708  0.0347 -0.1331  0.6531
17883TIP3   OH275063   1.028   1.573   2.368  0.1113  0.2770 -0.0219
17883TIP3    H175064   0.971   1.513   2.320  3.7826 -2.7369 -0.7549
17883TIP3    H275065   1.061   1.633   2.301 -0.9171  1.0647  0.1535
17884TIP3   OH275066   3.511   6.697  16.825 -0.1185 -0.5006 -0.4877
17884TIP3    H175067   3.550   6.642  16.893 -2.9887 -0.7257  1.0587
17884TIP3    H275068   3.510   6.785  16.864 -1.6146 -0.5988 -0.2770
17885TIP3   OH275069   6.471   1.493  12.152 -0.1659  0.2148  0.2519
17885TIP3    H175070   6.490   1.445  12.071  0.0772 -0.5220  0.7413
17885TIP3    H275071   6.475   1.426  12.221 -1.4173  0.6422  0.7480
17886TIP3   OH275072   6.011   4.820  11.856 -0.0267 -0.5829  0.2541
17886TIP3    H175073   6.058   4.886  11.908 -0.5611 -0.5312  0.6638
17886TIP3    H275074   6.009   4.742  11.911 -0.2880 -0.6351  0.1710
17887TIP3   OH275075   4.845   4.168  16.124  0.1751  0.0591  0.1404
17887TIP3    H175076   4.780   4.099  16.136  1.6940 -1.4643 -0.2462
17887TIP3    H275077   4.889   4.146  16.041 -0.0035  2.0596 -0.5348
17888TIP3   OH275078   5.102   3.659   4.692 -0.4025 -0.0526  0.4318
17888TIP3    H175079   5.027   3.714   4.711  0.5450  1.0846  0.8934
17888TIP3    H275080   5.068   3.593   4.632 -1.1523  2.0972 -1.5854
17889TIP3   OH275081   1.102   1.052  13.491  0.6009 -0.3156 -0.4226
17889TIP3    H175082   1.173   1.115  13.503 -0.5002  0.9194 -0.1799
17889TIP3    H275083   1.022   1.104  13.503 -0.3267 -2.3059  2.3382
17890TIP3   OH275084   3.998   2.363  12.448  0.3994 -0.8025 -0.4081
17890TIP3    H175085   4.045   2.308  12.384  0.9824 -0.5998 -0.1551
17890TIP3    H275086   3.947   2.300  12.499 -1.4529 -0.8211 -2.1980
17891TIP3   OH275087   0.019   6.531   5.378 -0.1367  0.1566 -0.2021
17891TIP3    H175088   0.005   6.453   5.432 -1.9340 -0.0258 -0.8991
17891TIP3    H275089  -0.069   6.562   5.357  0.5468  1.3578 -1.4071
17892TIP3   OH275090   6.281   5.323  11.894  0.5062  0.0535 -0.2011
17892TIP3    H175091   6.302   5.415  11.880  1.8131 -0.2216 -0.0793
17892TIP3    H275092   6.338   5.296  11.966  1.0608 -1.1864 -1.0833
17893TIP3   OH275093   1.502   3.498   0.232 -0.2473  0.0231 -0.8292
17893TIP3    H175094   1.526   3.536   0.316 -1.1771 -1.1086 -0.0419
17893TIP3    H275095   1.532   3.563   0.168  0.2913  0.9890  0.3616
17894TIP3   OH275096   2.581   1.310   5.901  0.0672 -0.4884 -0.1437
17894TIP3    H175097   2.566   1.405   5.895  2.2041 -0.1285 -0.1829
17894TIP3    H275098   2.551   1.287   5.989  1.2330  0.5762  0.5571
17895TIP3   OH275099   2.499   4.288   3.096  0.0972  0.3266  0.1146
17895TIP3    H175100   2.515   4.198   3.068  2.0052  0.6298  0.1615
17895TIP3    H275101   2.403   4.295   3.102 -0.0900 -1.4847 -0.5400
17896TIP3   OH275102   0.934   1.555   4.243  0.1411  0.4693  0.5943
17896TIP3    H175103   0.896   1.573   4.157 -0.4387 -1.3828  0.4421
17896TIP3    H275104   0.907   1.629   4.297 -2.8623 -0.2602  0.2010
17897TIP3   OH275105   4.063   0.881  11.203 -0.1439 -0.2722  0.4315
17897TIP3    H175106   4.097   0.829  11.130 -2.2284 -1.6972  0.4359
17897TIP3    H275107   4.120   0.958  11.206  1.3030 -1.2382 -1.3146
17898TIP3   OH275108   4.588   6.158  14.916  0.6221  0.1663 -0.3093
17898TIP3    H175109   4.659   6.164  14.980 -0.1557  0.5557  0.5312
17898TIP3    H275110   4.619   6.210  14.841  1.4426 -0.1064 -0.1670
17899TIP3   OH275111   3.668   0.986   3.595 -0.7893  0.4243  0.3272
17899TIP3    H175112   3.662   0.941   3.679  0.1028 -1.7805 -0.7389
17899TIP3    H275113   3.643   1.076   3.614 -1.3608 -0.2147  2.7949
17900TIP3   OH275114   6.401   1.798   5.389 -0.4240 -0.4050  0.7358
17900TIP3    H175115   6.445   1.847   5.459  0.2107  1.7185 -1.1060
17900TIP3    H275116   6.457   1.810   5.313 -2.1970 -0.9631 -0.6841
17901TIP3   OH275117   2.192   1.156   2.935  0.1324  0.5424  0.3108
17901TIP3    H175118   2.226   1.197   3.015 -1.6032 -0.5075  1.6405
17901TIP3    H275119   2.141   1.225   2.893  0.3779  0.8619  0.5304
17902TIP3   OH275120   0.127   3.553  12.722 -0.0303 -0.0542 -0.7980
17902TIP3    H175121   0.192   3.614  12.756  1.7731 -0.5627 -3.1793
17902TIP3    H275122   0.177   3.473  12.703 -1.5399 -0.8023 -1.7554
17903TIP3   OH275123   5.747   3.136   4.812 -0.2435 -0.2285 -0.6813
17903TIP3    H175124   5.739   3.072   4.883 -1.3845  1.2873  0.5994
17903TIP3    H275125   5.658   3.170   4.800  0.8557  3.4149  0.8570
17904TIP3   OH275126   2.939   4.357  13.466 -0.2612 -0.1506 -0.0509
17904TIP3    H175127   2.970   4.286  13.410  0.7342  0.6602 -0.5465
17904TIP3    H275128   2.985   4.345  13.549 -1.5348 -1.1959  0.5098
17905TIP3   OH275129   0.606   3.288   5.628 -0.2725  0.7906  0.2843
17905TIP3    H175130   0.676   3.325   5.574 -1.1795  0.9437 -0.8175
17905TIP3    H275131   0.646   3.274   5.714  1.1998  0.5485 -0.4274
17906TIP3   OH275132   5.843   5.484   0.892 -0.3675  0.4466  0.0818
17906TIP3    H175133   5.870   5.503   0.981 -0.1391  0.8027 -0.0597
17906TIP3    H275134   5.865   5.564   0.843  1.6234 -0.5920 -0.7587
17907TIP3   OH275135   5.000   2.284  13.565  0.1875  0.2461  0.2180
17907TIP3    H175136   4.935   2.214  13.561  0.0276  0.3810  0.4717
17907TIP3    H275137   5.076   2.248  13.519 -0.6243  0.6930 -1.4985
17908TIP3   OH275138   3.714   5.959  14.314  0.2154  0.1318 -0.4267
17908TIP3    H175139   3.720   6.038  14.367  0.2767 -0.7455  0.9170
17908TIP3    H275140   3.627   5.924  14.332  0.4696 -0.5073 -0.3975
17909TIP3   OH275141   0.338   0.560  16.725 -0.0694  0.5983  0.0770
17909TIP3    H175142   0.402   0.537  16.657 -1.3608  0.2500 -1.0582
17909TIP3    H275143   0.256   0.524  16.692 -0.6194 -0.0545  2.1194
17910TIP3   OH275144   1.542   1.744  12.739 -0.3616  0.7316  0.0039
17910TIP3    H175145   1.567   1.811  12.802 -0.3258  0.5183  0.2201
17910TIP3    H275146   1.619   1.732  12.683 -0.9002  1.9731 -1.0166
17911TIP3   OH275147   2.314   6.754  16.240  0.0847  0.5071  0.4321
17911TIP3    H175148   2.283   6.666  16.221  1.1701  0.2363 -0.1348
17911TIP3    H275149   2.242   6.796  16.286 -0.2288 -0.8527  1.1811
17912TIP3   OH275150   1.980   0.982   2.858  0.6126 -0.6204 -0.3055
17912TIP3    H175151   2.056   1.021   2.902  1.2638 -0.9318 -1.1409
17912TIP3    H275152   2.016   0.911   2.806 -0.0469  0.1675 -1.8808
17913TIP3   OH275153   2.250   6.105   3.915  0.3412  0.0270  0.1544
17913TIP3    H175154   2.182   6.049   3.876  2.0612 -0.3802 -2.4205
17913TIP3    H275155   2.212   6.134   3.998 -2.5725 -0.9967 -0.7258
17914TIP3   OH275156   5.798   3.449   3.116  0.1052  0.3333 -0.3852
17914TIP3    H175157   5.778   3.442   3.023 -0.9742  3.9925 -0.5084
17914TIP3    H275158   5.720   3.416   3.160  0.6365 -1.4514 -0.7178
17915TIP3   OH275159   0.184   5.632  10.512 -0.1051  0.0756  0.1110
17915TIP3    H175160   0.101   5.589  10.490 -0.4611  0.7851  0.0423
17915TIP3    H275161   0.204   5.686  10.436  0.5845 -0.3248  0.0018
17916TIP3   OH275162   5.407   1.939   0.451  0.3304 -0.5751 -0.2965
17916TIP3    H175163   5.398   1.884   0.529  0.6407 -2.1678 -1.3645
17916TIP3    H275164   5.392   1.880   0.378  0.6621  0.7757 -1.4824
17917TIP3   OH275165   5.208   3.903  10.577  0.7417  0.2473  0.1655
17917TIP3    H175166   5.180   3.919  10.668  0.5510  1.5738 -0.1198
17917TIP3    H275167   5.131   3.866  10.535  0.7616 -0.1654  0.4803
17918TIP3   OH275168   6.777   1.691   5.928 -0.3543  0.2324 -0.0391
17918TIP3    H175169   6.867   1.659   5.921 -0.8844 -1.1693 -0.5548
17918TIP3    H275170   6.735   1.662   5.847 -1.0064  1.7413 -0.2446
17919TIP3   OH275171   3.370   1.981   4.473  0.5905 -0.2418 -0.4464
17919TIP3    H175172   3.311   1.909   4.496 -1.1132  1.4072  0.5339
17919TIP3    H275173   3.416   2.000   4.555 -0.2670  0.9373 -0.2276
17920TIP3   OH275174   2.534   0.869  15.740  0.1230 -0.2304  0.3292
17920TIP3    H175175   2.629   0.884  15.740 -0.0809  1.1367  0.1613
17920TIP3    H275176   2.506   0.896  15.827 -0.1713 -0.2485  0.2397
17921TIP3   OH275177   0.682   5.678   4.183  0.2234 -0.2771 -0.3494
17921TIP3    H175178   0.754   5.681   4.120  0.6632 -0.2197  0.1422
17921TIP3    H275179   0.687   5.590   4.221  0.7089  0.0843  0.4447
17922TIP3   OH275180   0.443   1.932   4.813 -0.2560  0.3047  0.5730
17922TIP3    H175181   0.500   1.856   4.815  0.8155  1.0907  0.2838
17922TIP3    H275182   0.460   1.977   4.896 -1.4604 -0.1854  1.0916
17923TIP3   OH275183   0.375   3.572   4.991  0.1305  0.6728 -0.1998
17923TIP3    H175184   0.391   3.481   5.017 -1.4909  0.5976  0.5901
17923TIP3    H275185   0.288   3.592   5.026  0.1946  2.3187 -0.9411
17924TIP3   OH275186   2.654   4.410  13.563 -0.3717  0.6063 -0.1291
17924TIP3    H175187   2.579   4.454  13.522 -1.9589 -1.3664  0.5333
17924TIP3    H275188   2.703   4.373  13.490 -1.0802  0.3425 -0.4820
17925TIP3   OH275189   5.951   3.387   2.406  0.3492  0.3722  0.0791
17925TIP3    H175190   6.031   3.398   2.458  0.2440  0.2364  0.2660
17925TIP3    H275191   5.971   3.316   2.346  0.2162  0.0490  0.4165
17926TIP3   OH275192   3.007   1.651  15.854  0.2598 -0.2650  0.4984
17926TIP3    H175193   2.918   1.623  15.833  0.7421 -1.8085  0.3993
17926TIP3    H275194   3.059   1.570  15.848  1.4123  0.3568  1.9454
17927TIP3   OH275195   4.761   6.635   5.921 -0.1661  0.5995  0.0268
17927TIP3    H175196   4.823   6.707   5.908  1.1674 -0.3485  0.9918
17927TIP3    H275197   4.675   6.675   5.911  0.5680  2.2528  0.1621
17928TIP3   OH275198   1.681   0.258  12.233 -0.4295 -0.2570 -0.1164
17928TIP3    H175199   1.691   0.316  12.309  1.0802  0.6364 -0.9536
17928TIP3    H275200   1.752   0.284  12.174  0.1744 -2.8805 -0.5895
17929TIP3   OH275201   4.476   3.139   4.548  0.5566 -0.1077 -0.4509
17929TIP3    H175202   4.484   3.224   4.591  0.9807 -0.5313  0.3169
17929TIP3    H275203   4.491   3.157   4.455  1.2709  0.5546 -0.2023
17930TIP3   OH275204   4.602   3.914   5.161 -0.1842  1.0560 -0.0435
17930TIP3    H175205   4.543   3.953   5.224  0.5178  2.5048 -0.2586
17930TIP3    H275206   4.671   3.873   5.214 -0.6766  0.5128  0.1743
17931TIP3   OH275207   5.914   5.650   1.591  0.6456 -0.0153 -0.0996
17931TIP3    H175208   5.840   5.629   1.648  0.7579 -1.1585 -0.3647
17931TIP3    H275209   5.934   5.567   1.546  1.7570  0.4113 -0.4045
17932TIP3   OH275210   5.941   2.639   1.452 -0.0368 -0.6331 -0.3458
17932TIP3    H175211   5.990   2.668   1.375  1.2700 -1.8742 -0.0293
17932TIP3    H275212   5.981   2.687   1.525 -2.2134  1.6028 -0.5773
17933TIP3   OH275213   3.719   0.376  11.435 -0.1529  0.7225  0.4656
17933TIP3    H175214   3.699   0.464  11.406 -0.5615  0.8748  1.1898
17933TIP3    H275215   3.783   0.387  11.506  1.5823  0.3060 -1.0053
17934TIP3   OH275216   4.315   6.177  11.828 -0.2019  0.1888  0.2113
17934TIP3    H175217   4.316   6.267  11.795 -1.5030  0.8205  1.8221
17934TIP3    H275218   4.360   6.182  11.912  1.8858 -1.1586 -0.7656
17935TIP3   OH275219   2.126   2.160  16.065  0.4034 -0.4245 -0.8847
17935TIP3    H175220   2.094   2.070  16.064  1.1017 -0.6780 -0.7028
17935TIP3    H275221   2.094   2.198  15.983 -1.5154 -0.2586 -0.0743
17936TIP3   OH275222   0.348   3.784  16.630  0.0849  0.2321 -0.4685
17936TIP3    H175223   0.258   3.772  16.661  0.1822  0.2152 -0.1904
17936TIP3    H275224   0.396   3.711  16.669  0.0895 -0.1244 -1.1391
17937TIP3   OH275225   0.465   0.784   2.248  0.8021  0.0084 -0.0500
17937TIP3    H175226   0.425   0.870   2.237  3.1332  0.9035 -2.0072
17937TIP3    H275227   0.428   0.731   2.177  0.3319 -0.2476  0.3812
17938TIP3   OH275228   5.269   0.599  13.974 -0.1575  0.4520  0.1283
17938TIP3    H175229   5.229   0.617  14.059  1.4608  1.4728  0.6857
17938TIP3    H275230   5.359   0.631  13.982  0.2470 -0.1660 -1.7047
17939TIP3   OH275231   1.041   5.151   4.799 -0.2249  0.1261 -0.7331
17939TIP3    H175232   0.966   5.208   4.779 -0.0929 -0.0717 -1.7847
17939TIP3    H275233   1.024   5.071   4.750  0.2898 -0.2212 -0.3508
17940TIP3   OH275234   4.038   2.937  15.373 -0.0157 -0.0627  0.1084
17940TIP3    H175235   4.043   2.891  15.289  1.7491 -1.2244  0.7922
17940TIP3    H275236   4.108   3.002  15.369  0.3577 -0.4051  0.8093
17941TIP3   OH275237   5.354   0.156  16.060  0.3877 -0.0725 -0.1898
17941TIP3    H175238   5.306   0.140  16.141  2.9817 -2.3033  0.9989
17941TIP3    H275239   5.364   0.251  16.057  0.4669  0.0276  2.2557
17942TIP3   OH275240   6.302   0.290  13.793  0.0706 -0.5475 -0.3428
17942TIP3    H175241   6.331   0.230  13.725  0.3013 -0.5553 -0.2343
17942TIP3    H275242   6.206   0.285  13.789  0.0757 -3.5151  1.9622
17943TIP3   OH275243   2.914   0.804  11.319  0.0307 -0.0621  0.6323
17943TIP3    H175244   3.005   0.813  11.292  0.1093  1.3236  1.3601
17943TIP3    H275245   2.864   0.816  11.238  0.5234 -1.8209  0.0504
17944TIP3   OH275246   0.500   6.289   2.956 -0.7621  0.6166 -0.1126
17944TIP3    H175247   0.578   6.296   3.011  0.6884 -0.9305 -1.8996
17944TIP3    H275248   0.468   6.378   2.948  1.6982  1.4878 -0.5653
17945TIP3   OH275249   5.248   0.860  13.306 -0.5486 -0.2287  0.0201
17945TIP3    H175250   5.222   0.857  13.214  0.2395 -0.6566 -0.1937
17945TIP3    H275251   5.241   0.769  13.335 -1.5405  0.0278  0.5973
17946TIP3   OH275252   3.070   3.704  12.718  0.0107  0.4988 -0.3283
17946TIP3    H175253   2.984   3.738  12.741  0.0928  1.5280 -1.4622
17946TIP3    H275254   3.123   3.783  12.702  0.6470 -0.1523 -1.4581
17947TIP3   OH275255   5.354   5.779  12.921  0.6013  0.5633 -0.0578
17947TIP3    H175256   5.400   5.718  12.978 -2.3791  0.2921  2.1789
17947TIP3    H275257   5.281   5.728  12.886  0.5082  1.6702 -1.5035
17948TIP3   OH275258   6.120   0.422   4.370  0.6256  1.0802  0.1520
17948TIP3    H175259   6.044   0.380   4.411  1.8906 -1.6466 -0.1814
17948TIP3    H275260   6.193   0.402   4.429  1.0985  3.8450  0.5809
17949TIP3   OH275261   2.644   0.552   5.630 -0.1298  0.3329 -0.0082
17949TIP3    H175262   2.714   0.487   5.637  0.3213  0.8867  0.6119
17949TIP3    H275263   2.565   0.502   5.652 -0.0027 -0.4039 -1.1720
17950TIP3   OH275264   3.458   6.381  12.160  0.2183  0.4279  0.6356
17950TIP3    H175265   3.511   6.449  12.202  0.1183  0.8614  0.0705
17950TIP3    H275266   3.505   6.359  12.080 -0.9941  1.6234 -0.4500
17951TIP3   OH275267   4.459   1.859  16.418  0.1957 -0.4590 -0.1306
17951TIP3    H175268   4.415   1.881  16.500 -0.7132  0.3263 -0.8243
17951TIP3    H275269   4.551   1.881  16.434 -0.3976  2.2486 -0.2281
17952TIP3   OH275270   3.274   4.083   3.369  0.3138 -0.2499 -0.0299
17952TIP3    H175271   3.274   3.997   3.329  0.4877 -0.1921 -0.1546
17952TIP3    H275272   3.282   4.144   3.295  0.6687 -0.1463  0.0931
17953TIP3   OH275273   1.840   1.824   6.275  0.3424 -0.2801 -0.4712
17953TIP3    H175274   1.826   1.864   6.189  0.4565 -2.0003 -1.2999
17953TIP3    H275275   1.867   1.734   6.256  1.0391 -0.4795  1.3502
17954TIP3   OH275276   2.156   5.815   5.299 -0.3143 -0.0655 -0.3132
17954TIP3    H175277   2.248   5.826   5.326 -0.4638  0.1099  0.1480
17954TIP3    H275278   2.125   5.905   5.286 -0.5130 -0.1075 -0.1371
17955TIP3   OH275279   0.081   1.465  10.954 -0.1252  0.0589 -0.2214
17955TIP3    H175280  -0.007   1.428  10.965  0.0612 -0.6010 -0.9517
17955TIP3    H275281   0.139   1.400  10.993 -0.0069  0.8126  0.8796
17956TIP3   OH275282   2.324   3.672  16.907 -0.3672  0.2617 -0.1607
17956TIP3    H175283   2.269   3.594  16.900  0.5797 -0.3757 -0.5815
17956TIP3    H275284   2.364   3.680  16.821 -0.1964  1.0196 -0.0104
17957TIP3   OH275285   2.278   6.287  16.489  0.4905 -0.2453 -0.1339
17957TIP3    H175286   2.236   6.292  16.575  0.8096 -1.9466  0.1436
17957TIP3    H275287   2.229   6.219  16.442  1.4737 -0.6140 -0.6405
17958TIP3   OH275288   4.186   6.092  15.066  0.0431  0.3382 -0.3430
17958TIP3    H175289   4.243   6.123  15.136 -0.3772 -0.1894  0.2406
17958TIP3    H275290   4.175   6.168  15.009  0.3435  0.7920  0.1911
17959TIP3   OH275291   3.625   1.682   5.658 -0.0447 -0.1480 -0.4430
17959TIP3    H175292   3.559   1.690   5.727  0.6212 -1.0298  0.2987
17959TIP3    H275293   3.691   1.624   5.695  0.6376 -0.0964 -1.5829
17960TIP3   OH275294   1.573   2.010  11.793  0.0104 -0.3250  0.2758
17960TIP3    H175295   1.645   1.972  11.743  1.5418  0.6692  1.6664
17960TIP3    H275296   1.606   2.017  11.882 -1.8934 -0.0291  0.9924
17961TIP3   OH275297   4.136   3.351   2.721  0.1873 -0.1491  0.1939
17961TIP3    H175298   4.151   3.266   2.680 -0.7164 -1.2843  2.1499
17961TIP3    H275299   4.043   3.368   2.708 -0.1537 -0.6106  1.8832
17962TIP3   OH275300   4.369   6.287  14.049  0.3353  0.9313  0.3144
17962TIP3    H175301   4.319   6.230  13.990 -1.0769  1.2765  1.1451
17962TIP3    H275302   4.334   6.375  14.033  0.9315  1.2319  0.6481
17963TIP3   OH275303   0.872   1.377  11.773  0.3562  0.0252  0.3577
17963TIP3    H175304   0.883   1.406  11.683  0.3697 -2.7367 -0.5887
17963TIP3    H275305   0.792   1.420  11.803 -0.2733  0.0816 -1.3656
17964TIP3   OH275306   2.197   4.301  11.646 -0.0411 -0.0151  0.0490
17964TIP3    H175307   2.147   4.381  11.630  1.0226  0.9214  1.3864
17964TIP3    H275308   2.181   4.248  11.568 -1.7466  0.9713 -0.3078
17965TIP3   OH275309   3.875   2.487   4.637 -0.2744  0.3575  0.3174
17965TIP3    H175310   3.805   2.527   4.688 -0.1640  0.4786  0.3770
17965TIP3    H275311   3.852   2.395   4.632  0.6363 -0.0025  2.1452
17966TIP3   OH275312   2.208   0.176   4.854 -0.2828 -0.0281  1.1017
17966TIP3    H175313   2.148   0.180   4.779  0.9416  1.4291  0.1848
17966TIP3    H275314   2.150   0.184   4.931 -1.5678 -1.8227  0.3560
17967TIP3   OH275315   3.803   0.237  15.509 -0.5394 -0.2044  0.5000
17967TIP3    H175316   3.744   0.163  15.493 -0.5425 -0.7504  2.8350
17967TIP3    H275317   3.758   0.289  15.576 -0.4515  1.8373 -1.0069
17968TIP3   OH275318   5.756   3.011  14.680 -0.0782 -0.8008 -0.1856
17968TIP3    H175319   5.697   3.004  14.605 -1.7180 -0.8691  1.0668
17968TIP3    H275320   5.836   3.049  14.645 -1.0462 -0.2501 -1.8433
17969TIP3   OH275321   0.803   3.231   3.804  0.2094  0.2809 -0.2091
17969TIP3    H175322   0.848   3.175   3.867 -0.4098  0.9966  0.8931
17969TIP3    H275323   0.768   3.304   3.857 -1.1420  0.3990 -1.2193
17970TIP3   OH275324   5.658   5.963   1.724  0.5641 -0.3643  0.1976
17970TIP3    H175325   5.663   5.916   1.806  0.7416 -0.9178 -0.1277
17970TIP3    H275326   5.630   5.898   1.660  3.4116 -0.6897 -0.7813
17971TIP3   OH275327   3.975   2.682   4.485 -0.6695  0.4324  0.1801
17971TIP3    H175328   3.954   2.612   4.548 -0.3894  0.7247  0.5977
17971TIP3    H275329   4.039   2.736   4.530 -0.9572  1.0136 -0.1126
17972TIP3   OH275330   2.763   0.313  11.931  0.3949 -0.3306  0.6591
17972TIP3    H175331   2.774   0.363  12.012  0.6577  1.2493 -0.3294
17972TIP3    H275332   2.844   0.328  11.882  0.2577 -1.3037  0.1134
17973TIP3   OH275333   2.067   5.598  10.817  0.4234  0.1692  0.4589
17973TIP3    H175334   2.061   5.504  10.802  0.4027  0.2670 -0.1974
17973TIP3    H275335   2.110   5.632  10.738  2.5627  0.4366  1.7151
17974TIP3   OH275336   0.619   5.750  11.230  0.2824  0.7005  0.2530
17974TIP3    H175337   0.699   5.793  11.261  0.3859  0.1151  0.8124
17974TIP3    H275338   0.647   5.697  11.156  0.5264  0.0128  0.8370
17975TIP3   OH275339   0.121   4.653  13.517  0.1056 -0.4849 -0.0706
17975TIP3    H175340   0.111   4.590  13.445  1.0456 -1.9395  1.0487
17975TIP3    H275341   0.188   4.714  13.486 -0.4519 -0.3121 -0.9624
17976TIP3   OH275342   5.036   1.461  12.355  0.1068 -0.3155  0.3817
17976TIP3    H175343   4.966   1.421  12.304  0.9899  0.4104 -1.4549
17976TIP3    H275344   5.116   1.443  12.305  1.0851 -0.1694  1.8682
17977TIP3   OH275345   0.389   5.629   5.583 -0.3728  0.1063 -0.2474
17977TIP3    H175346   0.424   5.542   5.602 -0.7545 -0.2588 -1.1791
17977TIP3    H275347   0.465   5.687   5.587 -0.2400 -0.1566  1.1090
17978TIP3   OH275348   5.925   5.304   4.819  0.2405 -0.0149  0.6463
17978TIP3    H175349   5.835   5.298   4.787  0.4801 -1.2237  0.1579
17978TIP3    H275350   5.958   5.387   4.785 -0.9533  0.8402  1.5373
17979TIP3   OH275351   5.134   6.571   6.812  0.3669  0.2855 -0.4215
17979TIP3    H175352   5.078   6.497   6.838  2.5977 -1.1295  0.5121
17979TIP3    H275353   5.136   6.567   6.716  0.2325 -0.6854 -0.3885
17980TIP3   OH275354   2.588   3.897  15.985  0.0165  0.6412  0.1116
17980TIP3    H175355   2.636   3.928  15.908 -0.1122  1.8297  0.4852
17980TIP3    H275356   2.498   3.889  15.955  0.4616 -1.8517 -0.6615
17981TIP3   OH275357   4.222   2.140   2.411  0.4592  0.3989  0.2018
17981TIP3    H175358   4.208   2.209   2.346  1.1959  1.4384  1.1099
17981TIP3    H275359   4.313   2.114   2.398  0.2800 -0.1621  0.0840
17982TIP3   OH275360   5.068   4.143   0.925  0.7708 -0.4703  0.6284
17982TIP3    H175361   5.010   4.173   0.855  2.1157 -2.7501 -1.5494
17982TIP3    H275362   5.099   4.223   0.967  1.2716  1.0376 -2.4998
17983TIP3   OH275363   3.614   1.338   5.517  0.2717  0.6700 -0.4608
17983TIP3    H175364   3.682   1.403   5.534  1.0299  0.0040 -0.9009
17983TIP3    H275365   3.648   1.287   5.443 -0.0189 -0.6432  0.3029
17984TIP3   OH275366   2.060   1.351   2.817  0.5655 -0.3234  0.4499
17984TIP3    H175367   2.125   1.414   2.784 -0.5903 -0.1279 -1.5602
17984TIP3    H275368   1.985   1.404   2.841  0.3740 -0.7443  0.7820
17985TIP3   OH275369   2.295   0.221  13.629  0.1020 -0.2763 -0.1671
17985TIP3    H175370   2.210   0.234  13.672 -0.7394 -0.5490 -1.7036
17985TIP3    H275371   2.359   0.256  13.692 -0.9259 -2.1794  2.0258
17986TIP3   OH275372   1.356   0.723  11.730  0.1666  0.4032  0.0381
17986TIP3    H175373   1.409   0.768  11.796  0.9559 -0.7831  0.2056
17986TIP3    H275374   1.316   0.795  11.680  2.4463  1.3323 -0.5380
17987TIP3   OH275375   3.604   6.347  13.752 -0.2388 -0.3614  0.0265
17987TIP3    H175376   3.660   6.408  13.799  0.5402  0.1960 -1.5631
17987TIP3    H275377   3.657   6.321  13.676 -0.8988 -2.3266  0.2213
17988TIP3   OH275378   3.376   5.083  14.859 -0.0318  0.3260  0.6234
17988TIP3    H175379   3.415   5.040  14.935 -0.0952 -0.8777 -0.0036
17988TIP3    H275380   3.430   5.160  14.844  0.2280  0.3448  1.6383
17989TIP3   OH275381   2.560   2.424   6.603  0.3049 -0.4630  0.0608
17989TIP3    H175382   2.495   2.435   6.534  0.0141 -0.1309  0.3793
17989TIP3    H275383   2.644   2.434   6.559  0.1175 -0.1339 -0.2284
17990TIP3   OH275384   3.033   3.785  11.860 -0.3821 -0.2700  0.6234
17990TIP3    H175385   2.993   3.867  11.889  0.7457 -0.1093  1.7547
17990TIP3    H275386   3.119   3.784  11.902  0.0654 -1.4900 -0.3010
17991TIP3   OH275387   2.833   3.724   1.529  0.1744  0.5236 -0.1948
17991TIP3    H175388   2.861   3.807   1.566 -2.0268  0.3883  1.8974
17991TIP3    H275389   2.737   3.725   1.536  0.0241 -1.5646 -1.4896
17992TIP3   OH275390   3.398   1.609   0.043 -0.4877 -0.1638 -0.0858
17992TIP3    H175391   3.483   1.645   0.067 -1.7028  1.8205  1.3844
17992TIP3    H275392   3.353   1.681  -0.002 -1.1489 -1.3986 -1.4546
17993TIP3   OH275393   1.620   3.859  12.548 -0.5467  0.4228 -0.5838
17993TIP3    H175394   1.685   3.818  12.490  0.9755  1.1994  0.5275
17993TIP3    H275395   1.562   3.907  12.489  0.9629  1.1643 -1.4968
17994TIP3   OH275396   6.640   0.111   3.553  0.1072  0.3785  0.1620
17994TIP3    H175397   6.652   0.039   3.615  0.6416  1.8516  1.7976
17994TIP3    H275398   6.684   0.186   3.593 -0.8584  1.7637 -1.2872
17995TIP3   OH275399   0.082   2.963  10.225  0.3997  0.0740  0.8255
17995TIP3    H175400   0.109   3.052  10.203 -0.0250  0.0514  0.2072
17995TIP3    H275401   0.133   2.907  10.167  0.7661 -0.0988  1.3077
17996TIP3   OH275402   4.977   1.725   3.924 -0.5935  0.2850  0.2100
17996TIP3    H175403   5.050   1.712   3.863 -0.6017  1.9008 -0.1611
17996TIP3    H275404   5.019   1.737   4.009 -0.4511  0.5992  0.0980
17997TIP3   OH275405   2.399   3.936   2.137 -0.4191  0.0278 -0.6498
17997TIP3    H175406   2.385   4.030   2.128  1.0948  0.4239  0.9512
17997TIP3    H275407   2.462   3.914   2.069  1.8556  0.8316  1.1227
17998TIP3   OH275408   2.420   0.725   0.260  0.2823 -0.0039 -0.6555
17998TIP3    H175409   2.345   0.690   0.212  0.5901  0.0309 -1.1514
17998TIP3    H275410   2.413   0.685   0.347 -1.0164  0.9390 -0.3058
17999TIP3   OH275411   0.792   2.576  11.327  0.0688  0.0026  0.2640
17999TIP3    H175412   0.797   2.521  11.405  0.5020  0.3078  0.4509
17999TIP3    H275413   0.711   2.626  11.337 -1.3944 -2.0564 -0.8681
18000TIP3   OH275414   0.417   3.842  15.243 -0.2138 -0.2713  0.2042
18000TIP3    H175415   0.435   3.925  15.198  1.8872 -0.6517  0.2631
18000TIP3    H275416   0.373   3.788  15.177  0.4543  0.0987 -0.5587
18001TIP3   OH275417   6.762   5.542   3.437  0.1589 -0.3038 -0.2274
18001TIP3    H175418   6.687   5.492   3.405 -0.2885  0.1570  0.1112
18001TIP3    H275419   6.838   5.490   3.408 -0.1991  0.4014 -2.5735
18002TIP3   OH275420   6.402   3.939  14.107 -0.1127  0.4172 -0.6166
18002TIP3    H175421   6.354   3.970  14.184  1.4642 -0.0531  0.5923
18002TIP3    H275422   6.471   3.882  14.143  1.6603  1.4741 -2.2356
18003TIP3   OH275423   2.713   5.349   1.396 -0.0583  0.0342 -0.4934
18003TIP3    H175424   2.636   5.340   1.340  0.1139 -0.5769 -0.6342
18003TIP3    H275425   2.710   5.272   1.453  0.7573 -0.2953 -0.8797
18004TIP3   OH275426   0.842   2.988  17.107 -0.0349  0.3163 -0.0124
18004TIP3    H175427   0.835   3.020  17.196 -0.3832 -0.5139  0.2649
18004TIP3    H275428   0.757   3.008  17.068 -0.7602 -1.5021  0.5861
18005TIP3   OH275429   2.327   4.411  14.521 -0.1000  0.2649  0.3377
18005TIP3    H175430   2.297   4.374  14.603 -0.9042 -0.7930 -0.4249
18005TIP3    H275431   2.419   4.431  14.536  0.4487 -2.3499  0.6659
18006TIP3   OH275432   3.931   1.153   3.303 -0.4229 -0.5430  0.2263
18006TIP3    H175433   3.902   1.109   3.223 -1.6182 -0.0621  0.3758
18006TIP3    H275434   3.995   1.217   3.274  1.4973 -2.4937  0.0263
18007TIP3   OH275435   6.308   2.606  16.524 -0.0993 -0.4653 -0.2358
18007TIP3    H175436   6.339   2.683  16.571  0.5329 -0.5176 -0.5653
18007TIP3    H275437   6.298   2.539  16.592  0.7094 -0.5107 -0.1594
18008TIP3   OH275438   5.063   5.680   4.150  0.1847 -0.4447 -0.4270
18008TIP3    H175439   5.125   5.739   4.107 -1.8247  2.7893  0.8656
18008TIP3    H275440   5.026   5.733   4.221 -2.4344 -2.9779  0.1745
18009TIP3   OH275441   0.762   2.222   5.207 -0.0782  0.4723 -0.5471
18009TIP3    H175442   0.823   2.154   5.178 -0.5902  0.2004 -0.9937
18009TIP3    H275443   0.816   2.302   5.212  0.7509 -0.1464  0.9275
18010TIP3   OH275444   6.322   3.857  15.522 -0.5715 -0.4136 -0.5742
18010TIP3    H175445   6.372   3.902  15.454 -1.4067 -1.7755 -2.1352
18010TIP3    H275446   6.257   3.922  15.551 -0.4046  0.0841 -1.2945
18011TIP3   OH275447   1.910   0.277   0.555 -0.5081  0.2331  0.0819
18011TIP3    H175448   1.909   0.369   0.581 -3.1792  0.6412 -1.2852
18011TIP3    H275449   1.927   0.279   0.461  1.4474 -0.8188  0.3836
18012TIP3   OH275450   6.156   5.687   0.704 -0.1814 -0.4829 -0.1047
18012TIP3    H175451   6.064   5.706   0.726  0.0502  0.8115 -0.2625
18012TIP3    H275452   6.156   5.677   0.609 -0.3444 -1.5282 -0.0003
18013TIP3   OH275453   3.321   5.879  13.988  0.0902 -0.0234 -0.1327
18013TIP3    H175454   3.290   5.895  14.077 -0.3000 -0.0778 -0.2547
18013TIP3    H275455   3.339   5.966  13.952  1.4183 -0.0685  0.4083
18014TIP3   OH275456   4.355   2.661   5.446  0.1564 -0.3651 -0.1303
18014TIP3    H175457   4.447   2.685   5.436  0.0598  0.4534  0.7787
18014TIP3    H275458   4.352   2.613   5.529 -0.3864  0.5417  0.3916
18015TIP3   OH275459   2.590   0.512  14.770 -0.4734 -0.2897  0.4183
18015TIP3    H175460   2.527   0.574  14.734  1.8513  0.7282 -2.1063
18015TIP3    H275461   2.649   0.565  14.823  0.9887 -0.4532 -1.0088
18016TIP3   OH275462   6.730   4.069  10.686  0.1160  0.0900 -0.0377
18016TIP3    H175463   6.782   4.032  10.757  0.0396 -1.3220 -0.6959
18016TIP3    H275464   6.777   4.147  10.659  0.3585  0.4148  1.2913
18017TIP3   OH275465   6.747   4.315  14.542 -0.3878  0.7126 -0.1546
18017TIP3    H175466   6.753   4.239  14.600 -1.1571  1.5150  1.0107
18017TIP3    H275467   6.823   4.308  14.484  0.7033  0.1902  1.3237
18018TIP3   OH275468   1.912   0.534  15.374 -0.0589 -0.1041 -0.2514
18018TIP3    H175469   1.937   0.447  15.341 -0.5610 -0.6087  0.6915
18018TIP3    H275470   1.932   0.531  15.467 -0.3898  0.6897 -0.1495
18019TIP3   OH275471   4.730   1.138   4.892  0.2942  0.1386 -0.0788
18019TIP3    H175472   4.703   1.065   4.837  1.0082  0.4761 -0.8965
18019TIP3    H275473   4.782   1.099   4.962  0.0909 -0.2090 -0.1255
18020TIP3   OH275474   4.924   0.466  16.426  0.5100  0.1840  0.0095
18020TIP3    H175475   4.853   0.403  16.412 -0.4333  1.1474  0.4049
18020TIP3    H275476   4.940   0.504  16.339 -0.2311  0.7695  0.1227
18021TIP3   OH275477   4.547   2.639   2.293 -0.4154  0.2982 -0.2622
18021TIP3    H175478   4.534   2.702   2.222 -1.1450 -1.8810 -2.1304
18021TIP3    H275479   4.634   2.602   2.275 -0.1659  0.4644  0.5919
18022TIP3   OH275480   2.932   5.967  10.665  0.0575  0.2719 -0.0675
18022TIP3    H175481   3.009   5.954  10.609 -0.8705  2.4508 -1.9007
18022TIP3    H275482   2.905   6.057  10.649 -1.1488  0.4805  2.8068
18023TIP3   OH275483   1.005   0.359  14.228 -0.2359  0.4639  0.3518
18023TIP3    H175484   1.078   0.388  14.283 -0.2863  1.5090 -0.1181
18023TIP3    H275485   0.950   0.307  14.286  1.0147 -0.5794  0.6528
18024TIP3   OH275486   1.320   2.922   4.923 -0.1509 -0.9551 -0.2054
18024TIP3    H175487   1.392   2.919   4.859  0.1924 -0.2293  0.1510
18024TIP3    H275488   1.350   2.866   4.995  0.9228  0.9227  0.8407
18025TIP3   OH275489   3.442   2.055   5.399 -0.0351 -0.2379  0.3334
18025TIP3    H175490   3.364   2.017   5.439 -0.4813  0.4817  0.1546
18025TIP3    H275491   3.411   2.093   5.317  0.2466  1.2515  0.9106
18026TIP3   OH275492   3.791   3.187   5.719  0.2936 -0.3411 -0.3501
18026TIP3    H175493   3.710   3.216   5.762 -0.0410 -2.0546  0.2269
18026TIP3    H275494   3.794   3.238   5.638 -0.9205  0.3761  0.0357
18027TIP3   OH275495   4.944   5.164  16.829  0.3399  0.7072  0.0254
18027TIP3    H175496   5.016   5.215  16.792  0.4158  0.2261 -0.5018
18027TIP3    H275497   4.867   5.195  16.782  0.6965 -1.2491 -1.9413
18028TIP3   OH275498   5.716   0.564   6.108  0.7077 -0.4822  0.1586
18028TIP3    H175499   5.810   0.582   6.100  0.9441 -1.1026  1.3750
18028TIP3    H275500   5.692   0.603   6.192  0.2099 -1.6751  0.5772
18029TIP3   OH275501   3.758   0.786   4.657 -0.7018  0.1197 -0.0154
18029TIP3    H175502   3.766   0.872   4.699 -1.1171  0.8725 -1.4679
18029TIP3    H275503   3.833   0.781   4.599 -1.5781  0.2070 -1.1734
18030TIP3   OH275504   1.412   1.961  11.053  0.1037  0.0061 -0.1968
18030TIP3    H175505   1.343   2.020  11.023 -0.4558 -0.9824 -0.8808
18030TIP3    H275506   1.407   1.963  11.148 -1.2926 -0.5522 -0.2506
18031TIP3   OH275507   2.161   0.666   4.001 -0.1338  0.0822 -0.2591
18031TIP3    H175508   2.128   0.630   4.083 -0.6964  2.3180  0.5268
18031TIP3    H275509   2.141   0.599   3.936 -0.3738 -1.3848  1.3016
18032TIP3   OH275510   0.772   2.561   5.991  0.0789 -0.4026  0.3504
18032TIP3    H175511   0.825   2.500   6.042  1.5741  0.1842 -0.4440
18032TIP3    H275512   0.793   2.647   6.027 -0.5576 -0.1888  0.2145
18033TIP3   OH275513   1.607   6.143  11.711  0.5143  0.5728  0.0265
18033TIP3    H175514   1.550   6.162  11.637  0.1616  0.4219  0.2594
18033TIP3    H275515   1.644   6.057  11.691  0.1121  0.3565  0.2178
18034TIP3   OH275516   2.882   1.588  16.824 -0.0998 -0.0445 -0.1599
18034TIP3    H175517   2.957   1.596  16.765 -0.6062 -1.0524 -0.9532
18034TIP3    H275518   2.895   1.504  16.869  0.6212  1.0036  1.6716
18035TIP3   OH275519   5.063   4.021  15.603  0.2065 -0.0725 -0.5856
18035TIP3    H175520   5.075   4.034  15.697  0.1146 -2.3145 -0.2239
18035TIP3    H275521   4.975   4.055  15.585 -0.2687 -0.7404  0.3953
18036TIP3   OH275522   3.438   6.089  12.708 -0.0508 -0.3402  0.2917
18036TIP3    H175523   3.459   6.166  12.656 -0.0107  0.1808  1.0819
18036TIP3    H275524   3.474   6.016  12.657 -0.4769  0.1062 -0.6745
18037TIP3   OH275525   6.471   3.769   1.137  0.2097  0.1684 -0.2631
18037TIP3    H175526   6.458   3.793   1.046  4.1815 -0.9744 -1.2499
18037TIP3    H275527   6.452   3.675   1.141 -0.2215  0.2700  0.1572
18038TIP3   OH275528   6.082   3.044  13.567  0.0553 -0.5214 -0.5220
18038TIP3    H175529   6.032   3.003  13.496  2.6718 -2.8170 -1.1518
18038TIP3    H275530   6.119   2.971  13.616  1.4189  1.0579  0.8947
18039TIP3   OH275531   1.728   0.793  11.952  0.3048  0.2333 -0.2993
18039TIP3    H175532   1.775   0.840  11.884  1.5681  0.1045  0.4615
18039TIP3    H275533   1.712   0.858  12.020  2.3071 -0.4652  0.8833
18040TIP3   OH275534   6.293   1.209   6.757 -0.2826 -0.4609 -0.6149
18040TIP3    H175535   6.217   1.177   6.709  0.7354 -0.6105 -2.1855
18040TIP3    H275536   6.282   1.304   6.758 -0.2749 -0.4498 -1.2328
18041TIP3   OH275537   3.539   3.574   5.805 -0.2279 -0.1248 -0.2506
18041TIP3    H175538   3.491   3.645   5.762 -0.0368  1.7738  2.5857
18041TIP3    H275539   3.631   3.599   5.798  0.1137 -1.7375 -2.0692
18042TIP3   OH275540   5.905   5.782  14.989  0.0496 -0.2884 -0.1679
18042TIP3    H175541   5.935   5.696  14.960 -0.5473 -0.0039 -1.6625
18042TIP3    H275542   5.981   5.840  14.975 -1.4209  0.6829 -5.0885
18043TIP3   OH275543   0.261   5.686   0.213 -0.5508  0.0135 -1.0724
18043TIP3    H175544   0.226   5.701   0.125  1.4814  2.5666 -1.5000
18043TIP3    H275545   0.292   5.772   0.242  0.3423 -1.1188  1.4587
18044TIP3   OH275546   5.908   2.719  11.184  0.0545 -0.1580 -0.3516
18044TIP3    H175547   5.979   2.693  11.125  0.8211  0.7049  0.1803
18044TIP3    H275548   5.942   2.702  11.272 -0.3617  0.3653 -0.0914
18045TIP3   OH275549   3.525   5.786   5.017 -0.0338  0.3433 -0.6707
18045TIP3    H175550   3.486   5.737   4.944 -1.7927  0.2375  0.3042
18045TIP3    H275551   3.598   5.833   4.977  0.8702 -1.9905 -1.9009
18046TIP3   OH275552   6.205   1.084   5.106 -0.4484  0.6878 -0.6994
18046TIP3    H175553   6.201   1.061   5.198 -0.7395 -0.8522 -1.0815
18046TIP3    H275554   6.264   1.160   5.102 -0.7605  1.0071  0.7819
18047TIP3   OH275555   5.828   4.369   1.215  0.2553  0.1223 -0.1614
18047TIP3    H175556   5.775   4.308   1.265  1.0205 -0.9459 -0.6410
18047TIP3    H275557   5.916   4.359   1.251  0.4568  0.6582 -0.5053
18048TIP3   OH275558   6.717   1.730  12.855  0.1366 -0.5403  0.4482
18048TIP3    H175559   6.782   1.775  12.802  0.3989 -1.1290  0.2713
18048TIP3    H275560   6.768   1.675  12.914 -0.1563 -0.0050  1.2142
18049TIP3   OH275561   4.294   0.608  16.179  0.1339  0.0943 -0.1208
18049TIP3    H175562   4.293   0.703  16.180  0.6110  0.1601 -2.2708
18049TIP3    H275563   4.213   0.583  16.134  0.5286 -0.4688 -0.5296
18050TIP3   OH275564   3.424   4.836   4.135 -0.0880 -0.0768  0.0748
18050TIP3    H175565   3.405   4.774   4.206  0.0514 -0.0735  0.1152
18050TIP3    H275566   3.447   4.917   4.180  0.2502 -0.1464  0.0322
18051TIP3   OH275567   0.066   1.124  14.969 -0.8597  0.3403 -0.1143
18051TIP3    H175568   0.025   1.106  14.884  1.5919  1.1082 -1.5114
18051TIP3    H275569   0.026   1.206  14.998 -1.2658  0.3991 -0.8357
18052TIP3   OH275570   3.526   4.047  14.009 -0.1011  0.4979 -0.7338
18052TIP3    H175571   3.459   4.097  14.054  0.7441  1.5105 -0.5658
18052TIP3    H275572   3.496   3.956  14.013 -1.3170  0.9027 -0.4389
18053TIP3   OH275573   4.640   1.328   5.765  0.1031 -0.5456  0.9385
18053TIP3    H175574   4.596   1.308   5.847  0.6310 -1.1368  1.0782
18053TIP3    H275575   4.603   1.266   5.702 -0.4913  0.0771  0.6627
18054TIP3   OH275576   5.173   3.016   0.699  0.2549  0.4999  0.0588
18054TIP3    H175577   5.081   3.033   0.719 -0.1397 -0.3153 -1.0011
18054TIP3    H275578   5.192   3.070   0.622  0.4386  0.0730 -0.1989
18055TIP3   OH275579   1.564   3.354  10.753 -0.2798  0.3403  0.1676
18055TIP3    H175580   1.578   3.435  10.703  2.1744  0.5807  1.2194
18055TIP3    H275581   1.630   3.293  10.720 -2.0508 -1.2398 -0.5485
18056TIP3   OH275582   5.769   4.123   5.356  0.1307  0.3221  0.5169
18056TIP3    H175583   5.845   4.133   5.298 -1.2889 -0.4518 -1.5572
18056TIP3    H275584   5.780   4.037   5.395 -0.4936 -0.5117 -1.0816
18057TIP3   OH275585   1.794   2.527   5.668  0.7572 -0.3817 -0.4652
18057TIP3    H175586   1.772   2.620   5.666  1.1122 -0.2702  0.6338
18057TIP3    H275587   1.718   2.484   5.628  1.0725  0.4616 -1.9766
18058TIP3   OH275588   3.244   2.959  10.772 -0.6771  0.6496 -0.7994
18058TIP3    H175589   3.280   3.011  10.701 -0.6077 -1.5991 -2.4667
18058TIP3    H275590   3.301   2.882  10.776 -1.6955 -0.0455  0.5697
18059TIP3   OH275591   2.373   4.602  16.479 -0.0220 -0.1588 -0.4840
18059TIP3    H175592   2.426   4.548  16.420  1.8775  1.0663  0.0605
18059TIP3    H275593   2.419   4.686  16.482 -1.1126  0.3945  1.3085
18060TIP3   OH275594   1.095   5.565   2.736 -0.0297  0.0135  0.3486
18060TIP3    H175595   1.015   5.513   2.736 -0.2635  0.3278 -1.1961
18060TIP3    H275596   1.135   5.548   2.820 -1.3564 -0.7260  0.8474
18061TIP3   OH275597   2.968   1.563  11.037  0.6696  0.0447 -0.0376
18061TIP3    H175598   2.989   1.638  11.092  0.6756  0.4737 -0.6211
18061TIP3    H275599   3.053   1.528  11.010  0.6934 -0.8055  1.0631
18062TIP3   OH275600   5.607   2.352   5.150  0.1854  0.0566 -0.2947
18062TIP3    H175601   5.622   2.434   5.104 -0.4875  1.6226  2.2069
18062TIP3    H275602   5.520   2.324   5.122  0.1620  0.5037 -0.6827
18063TIP3   OH275603   2.575   6.710  16.359  0.3002  0.1351 -0.9195
18063TIP3    H175604   2.496   6.726  16.306  0.0305 -0.8750 -0.8390
18063TIP3    H275605   2.546   6.648  16.427  1.6976 -2.1066 -2.2958
18064TIP3   OH275606   0.090   5.475   2.513  0.4485  0.2585 -0.2523
18064TIP3    H175607   0.062   5.387   2.487  0.2058 -0.3902  2.0955
18064TIP3    H275608   0.185   5.472   2.509  0.4020  0.3180 -1.5091
18065TIP3   OH275609   0.612   6.648  13.632  0.0598  0.3892  0.0772
18065TIP3    H175610   0.549   6.608  13.692 -0.0195  0.1306 -0.1758
18065TIP3    H275611   0.572   6.640  13.546  0.6412 -0.2126 -0.1497
18066TIP3   OH275612   1.896   1.641   4.454  0.1027 -0.0504 -0.1059
18066TIP3    H175613   1.813   1.595   4.468 -0.0827  0.3339  0.0719
18066TIP3    H275614   1.959   1.572   4.435 -0.3785 -0.3087 -0.8074
18067TIP3   OH275615   2.584   2.515   2.045 -0.6562 -0.2674 -0.4225
18067TIP3    H175616   2.680   2.510   2.039 -0.4263 -0.5364  2.6985
18067TIP3    H275617   2.554   2.436   2.000  0.6972 -1.2476  0.3424
18068TIP3   OH275618   3.484   4.679   3.402  0.3777  0.0990 -0.2101
18068TIP3    H175619   3.468   4.679   3.308  1.2708  1.0967 -0.3698
18068TIP3    H275620   3.432   4.606   3.435  0.5533 -0.6529 -1.5542
18069TIP3   OH275621   1.006   3.082  11.587 -0.3612  0.1555 -0.1903
18069TIP3    H175622   1.058   3.082  11.507  0.1305 -0.1646  0.1329
18069TIP3    H275623   1.035   3.005  11.636 -1.4133 -0.2588 -0.1914
18070TIP3   OH275624   1.528   0.187   1.578 -0.1484 -0.5804  0.4276
18070TIP3    H175625   1.476   0.131   1.521 -1.9753  0.0012  1.4868
18070TIP3    H275626   1.530   0.141   1.662  2.2140 -1.2584  0.0517
18071TIP3   OH275627   1.807   6.282   6.198  0.0729  0.3436 -0.2354
18071TIP3    H175628   1.842   6.268   6.110 -0.5952 -1.7223 -0.2103
18071TIP3    H275629   1.741   6.214   6.208 -1.0161  1.5957  1.2630
18072TIP3   OH275630   4.206   0.616  12.930  0.0330  0.0444 -0.0488
18072TIP3    H175631   4.255   0.619  12.847 -0.3101  1.4710 -0.2022
18072TIP3    H275632   4.140   0.549  12.915  0.3146 -0.0918 -0.7408
18073TIP3   OH275633   2.895   0.735  14.809 -0.2978  0.5981  0.2811
18073TIP3    H175634   2.962   0.674  14.781  0.5721  0.5852  2.2835
18073TIP3    H275635   2.839   0.684  14.868 -1.7605  0.7460 -0.9535
18074TIP3   OH275636   3.818   6.704  17.181  0.0836  0.5402  0.1189
18074TIP3    H175637   3.772   6.680  17.261 -2.2108  2.2968 -0.6289
18074TIP3    H275638   3.793   6.637  17.117 -3.6706  2.8860 -1.0309
18075TIP3   OH275639   1.902   5.439   5.915 -0.1726 -0.0540  0.1892
18075TIP3    H175640   1.936   5.524   5.944 -0.5634  0.1787 -0.0334
18075TIP3    H275641   1.975   5.399   5.868 -0.7192  1.1367 -1.7179
18076TIP3   OH275642   6.546   4.590   4.758  0.0793 -0.3613  0.8871
18076TIP3    H175643   6.507   4.677   4.751 -0.2811 -0.6377 -0.7651
18076TIP3    H275644   6.640   4.605   4.747  0.0010 -0.2070  0.4281
18077TIP3   OH275645   0.136   2.406  13.387 -0.1994 -0.5762  0.2878
18077TIP3    H175646   0.217   2.359  13.371 -0.0073 -0.3439  0.5863
18077TIP3    H275647   0.068   2.350  13.348  0.1828 -0.3836 -0.6772
18078TIP3   OH275648   6.386   4.951   2.085  0.6514 -0.0458  0.5539
18078TIP3    H175649   6.376   5.041   2.118  1.4247 -0.3377  1.6053
18078TIP3    H275650   6.296   4.922   2.067  0.3892  0.8995  0.2950
18079TIP3   OH275651   4.182   4.735  11.570 -0.6376 -0.2288  0.0056
18079TIP3    H175652   4.137   4.792  11.508  0.2340 -0.0255 -0.4463
18079TIP3    H275653   4.153   4.765  11.656  1.3317  2.2138 -0.1262
18080TIP3   OH275654   6.342   0.016   4.558  0.4023 -0.1033  0.7033
18080TIP3    H175655   6.308   0.028   4.646  0.6968 -0.4109  0.8614
18080TIP3    H275656   6.424  -0.032   4.570  1.1257  1.0403  0.3573
18081TIP3   OH275657   2.274   4.803  12.008  0.1533 -0.0991  0.0270
18081TIP3    H175658   2.257   4.892  12.039  0.0882  0.4491 -1.5325
18081TIP3    H275659   2.359   4.781  12.046 -0.0506  0.4464  0.8096
18082TIP3   OH275660   4.974   3.312   1.974  0.4896  0.3193  0.3156
18082TIP3    H175661   4.911   3.257   2.020  1.2584  0.1372  1.1802
18082TIP3    H275662   4.948   3.401   1.996 -0.2958  0.2809 -0.4590
18083TIP3   OH275663   1.559   6.546   4.699  0.1986  0.2704  0.2389
18083TIP3    H175664   1.631   6.488   4.674 -1.2037 -1.9775  1.2646
18083TIP3    H275665   1.509   6.558   4.618 -0.1287 -0.8606  0.2695
18084TIP3   OH275666   4.495   2.429  11.980 -0.6906 -0.3583 -0.4365
18084TIP3    H175667   4.574   2.393  12.020 -1.4144 -1.9314 -0.3790
18084TIP3    H275668   4.499   2.399  11.889 -0.7776  0.3225 -0.6684
18085TIP3   OH275669   5.700   4.492   6.206 -0.1617 -0.1868  0.7987
18085TIP3    H175670   5.739   4.443   6.278 -1.1597 -0.8444  0.9113
18085TIP3    H275671   5.630   4.542   6.247  0.5152  0.9326  0.5938
18086TIP3   OH275672   0.159   2.323   1.894 -0.0482 -0.1687 -0.3700
18086TIP3    H175673   0.179   2.299   1.804  1.1683  0.5628 -0.3047
18086TIP3    H275674   0.241   2.358   1.929 -0.7391  0.3985  0.7413
18087TIP3   OH275675   3.255   4.790   0.070 -0.2480 -0.1662 -0.1817
18087TIP3    H175676   3.231   4.878   0.097 -1.5429 -0.2835 -0.8952
18087TIP3    H275677   3.184   4.735   0.101  0.0917 -0.8300 -0.5587
18088TIP3   OH275678   6.389   4.853   0.496 -0.2722  0.1977  0.2333
18088TIP3    H175679   6.318   4.917   0.490 -0.7216 -0.4717 -1.8840
18088TIP3    H275680   6.347   4.768   0.483  0.6800 -0.3536  0.6515
18089TIP3   OH275681   0.360   4.800  14.205  0.4440 -0.1347 -0.1118
18089TIP3    H175682   0.454   4.816  14.197  0.4306  0.3065  0.5866
18089TIP3    H275683   0.320   4.885  14.188  0.2903  0.2124  1.8092
18090TIP3   OH275684   0.817   6.506  12.701 -0.0585 -0.0268  0.0491
18090TIP3    H175685   0.768   6.589  12.705 -0.8061 -0.4590 -0.0995
18090TIP3    H275686   0.900   6.526  12.744 -0.0674  0.9211 -0.3518
18091TIP3   OH275687   0.007   3.786  15.719  0.0717 -0.2409 -0.0349
18091TIP3    H175688  -0.074   3.798  15.769 -0.0472 -0.6694 -0.1210
18091TIP3    H275689  -0.022   3.769  15.630  0.2874  0.5953 -0.2660
18092TIP3   OH275690   2.077   0.589  11.790  0.7607  0.2312 -0.1432
18092TIP3    H175691   2.006   0.547  11.742  1.2451 -1.3117  0.4673
18092TIP3    H275692   2.064   0.561  11.881  0.2941  2.5010  0.5226
18093TIP3   OH275693   0.331   5.991  13.874  0.2893  0.2673  0.1582
18093TIP3    H175694   0.254   5.973  13.820  0.6206  0.2032 -0.2950
18093TIP3    H275695   0.295   6.015  13.960 -0.1937 -1.4771  0.4671
18094TIP3   OH275696   3.689   3.203  11.595 -0.1067 -0.0569 -0.1992
18094TIP3    H175697   3.762   3.264  11.604  0.0140 -0.0157 -1.3950
18094TIP3    H275698   3.643   3.209  11.678 -0.7738  2.5865 -0.7055
18095TIP3   OH275699   0.015   0.523   5.356  0.2788 -0.0456 -0.4598
18095TIP3    H175700  -0.059   0.546   5.300  0.4483  0.3026 -0.5397
18095TIP3    H275701  -0.003   0.568   5.439 -1.4405 -2.8615  0.7698
18096TIP3   OH275702   1.970   2.491   3.270  0.3427 -0.1554 -0.3586
18096TIP3    H175703   1.996   2.582   3.285  0.0907  0.2375 -2.1953
18096TIP3    H275704   1.883   2.484   3.309 -0.5905  1.0302 -2.1698
18097TIP3   OH275705   3.118   2.000  17.192 -0.1747  0.2779 -0.0807
18097TIP3    H175706   3.041   1.947  17.210 -1.0342  1.1681 -1.0744
18097TIP3    H275707   3.180   1.940  17.151 -0.2313 -0.4964  0.9453
18098TIP3   OH275708   5.067   1.916  14.078  0.2789 -0.1297 -0.3690
18098TIP3    H175709   5.128   1.859  14.032 -1.1814 -1.7681 -0.3566
18098TIP3    H275710   4.981   1.879  14.059 -0.4567 -0.0929  2.5964
18099TIP3   OH275711   1.786   5.784   4.763  0.6163  0.3445 -0.2786
18099TIP3    H175712   1.769   5.839   4.840  1.1001  1.0393 -0.6652
18099TIP3    H275713   1.858   5.828   4.718  1.1076 -0.6875 -0.5139
18100TIP3   OH275714   1.225   2.161   2.062 -0.2053 -0.2837  0.3560
18100TIP3    H175715   1.229   2.208   1.979  0.0019 -0.1935  0.4157
18100TIP3    H275716   1.192   2.075   2.039  2.7253 -1.3095 -0.3092
18101TIP3   OH275717   2.486   3.299  15.164  0.2639  0.3305  0.4310
18101TIP3    H175718   2.427   3.245  15.217  1.3468  0.2985  1.6246
18101TIP3    H275719   2.551   3.237  15.129  0.6617  0.6396  0.6165
18102TIP3   OH275720   5.073   3.817  11.464  0.7369 -0.2653  0.0750
18102TIP3    H175721   5.043   3.901  11.498  1.2680 -0.3879  0.8595
18102TIP3    H275722   5.145   3.839  11.405  0.7456 -0.1530  0.1275
18103TIP3   OH275723   3.698   3.292  15.460 -0.6274 -0.2124 -0.3221
18103TIP3    H175724   3.747   3.223  15.416  1.1827  0.8320 -0.0093
18103TIP3    H275725   3.668   3.253  15.542 -0.2749 -0.8399 -0.4964
18104TIP3   OH275726   2.933   0.773   0.912 -0.2162  0.2270  0.2667
18104TIP3    H175727   2.969   0.772   0.823 -1.9618 -0.0411 -0.4582
18104TIP3    H275728   2.942   0.864   0.941  1.5562  0.0454  0.3298
18105TIP3   OH275729   6.575   0.940   3.413  0.5240  0.2330 -0.0747
18105TIP3    H175730   6.607   0.896   3.334  1.3601 -0.3340  0.5753
18105TIP3    H275731   6.638   1.009   3.430  1.6924 -1.2032  1.4895
18106TIP3   OH275732   2.183   1.468  11.676  0.0567  0.6836  0.7189
18106TIP3    H175733   2.109   1.472  11.615 -0.2225 -0.2601  0.9899
18106TIP3    H275734   2.171   1.386  11.724  1.7029  0.1413  0.2409
18107TIP3   OH275735   4.509   4.340   2.817  0.4005  0.2439 -0.3069
18107TIP3    H175736   4.563   4.384   2.883 -1.1213 -1.9538  2.4704
18107TIP3    H275737   4.444   4.406   2.792  0.4458  0.8077  1.0401
18108TIP3   OH275738   2.490   6.115  16.561 -0.3414  0.3739  0.9569
18108TIP3    H175739   2.579   6.150  16.563 -0.3563  0.3560  1.7308
18108TIP3    H275740   2.439   6.182  16.516  0.1899  0.0842 -0.1111
18109TIP3   OH275741   2.546   5.710   0.039 -0.0265  0.0196 -0.3862
18109TIP3    H175742   2.471   5.764   0.064 -0.3383 -0.0989 -1.0326
18109TIP3    H275743   2.541   5.707  -0.057  0.1040 -0.9933 -0.3576
18110TIP3   OH275744   2.589   5.863  16.401 -0.5095 -0.2574  0.5500
18110TIP3    H175745   2.567   5.931  16.464 -1.3094  0.9723 -1.0397
18110TIP3    H275746   2.510   5.809  16.395  0.0044 -1.1415  1.5431
18111TIP3   OH275747   0.999   2.327  12.844  0.4042 -0.1853 -0.1650
18111TIP3    H175748   1.024   2.398  12.785 -0.8737 -0.2584 -0.8016
18111TIP3    H275749   1.031   2.248  12.801  0.1088 -0.1740 -0.4048
18112TIP3   OH275750   2.166   6.432  14.760 -0.4732  0.1600  0.3324
18112TIP3    H175751   2.103   6.454  14.691  1.1930  3.1651 -0.3082
18112TIP3    H275752   2.113   6.422  14.839 -1.9063  1.2302 -0.4838
18113TIP3   OH275753   6.090   4.085   5.381  0.4928  0.3208  0.6261
18113TIP3    H175754   6.069   4.041   5.464  4.7874 -1.9407  0.6755
18113TIP3    H275755   6.092   4.014   5.316 -1.5425  1.8773 -1.1952
18114TIP3   OH275756   3.025   6.669   2.746  0.2531  0.3097 -0.1107
18114TIP3    H175757   2.965   6.634   2.680 -1.6398  1.9904  0.6848
18114TIP3    H275758   3.082   6.729   2.697 -0.2876  0.5561 -0.4380
18115TIP3   OH275759   5.082   5.717   4.584 -0.3667  0.2520  0.0870
18115TIP3    H175760   5.016   5.651   4.566  1.4759 -2.1583  1.8560
18115TIP3    H275761   5.032   5.795   4.608 -2.5675 -1.3275  0.7857
18116TIP3   OH275762   0.379   0.825   0.241  0.9627 -0.9129 -0.0334
18116TIP3    H175763   0.344   0.772   0.313 -0.7957  1.3275  0.8360
18116TIP3    H275764   0.315   0.817   0.171  1.1292 -0.6014 -0.2236
18117TIP3   OH275765   0.275   6.463   3.200 -0.0646  0.3112  0.1217
18117TIP3    H175766   0.332   6.523   3.248 -0.4895  0.0792  0.9157
18117TIP3    H275767   0.326   6.382   3.192  0.2308  0.5404 -0.3271
18118TIP3   OH275768   5.443   6.590   2.928 -0.2784 -0.4297 -0.5740
18118TIP3    H175769   5.530   6.551   2.935 -0.2356 -0.1897  0.3412
18118TIP3    H275770   5.460   6.684   2.915 -0.3851  0.2959  3.9044
18119TIP3   OH275771   3.987   1.807   4.844 -0.8652  0.4714  0.2619
18119TIP3    H175772   3.982   1.831   4.936  1.2077  3.2479 -0.2949
18119TIP3    H275773   3.897   1.788   4.819 -1.6755  1.3317  2.4437
18120TIP3   OH275774   0.842   6.110   3.282  0.1087 -0.3631  0.4046
18120TIP3    H175775   0.934   6.089   3.299  0.1742 -0.0399  0.4631
18120TIP3    H275776   0.845   6.173   3.209 -0.1130 -0.9859 -0.1485
18121TIP3   OH275777   4.900   1.051  12.463 -0.5118 -0.2950 -0.6382
18121TIP3    H175778   4.810   1.068  12.491 -1.2660 -2.2592 -1.7223
18121TIP3    H275779   4.893   0.975  12.405  1.5167  1.1481 -2.8872
18122TIP3   OH275780   1.343   6.704  15.769 -0.4088 -0.3656 -1.0616
18122TIP3    H175781   1.387   6.692  15.685 -0.9003 -1.3376 -1.1835
18122TIP3    H275782   1.272   6.640  15.769  0.1140 -0.9841  0.4683
18123TIP3   OH275783   4.112   2.897   2.290  0.1611  0.1928  0.3761
18123TIP3    H175784   4.191   2.895   2.344 -0.9944  1.1273  2.1700
18123TIP3    H275785   4.089   2.990   2.286 -0.5184 -0.0188 -0.6209
18124TIP3   OH275786   0.839   3.649   4.396 -0.9355  0.3205 -0.3572
18124TIP3    H175787   0.827   3.737   4.432  0.9547  0.0994  0.9196
18124TIP3    H275788   0.765   3.599   4.430 -1.9462  1.3775 -0.9869
18125TIP3   OH275789   3.101   4.706   6.174  0.2177  0.2395  0.0623
18125TIP3    H175790   3.193   4.693   6.195  0.1086 -0.1892  0.2746
18125TIP3    H275791   3.065   4.753   6.249  0.8018  2.5632 -1.0675
18126TIP3   OH275792   6.029   2.129   3.199 -0.4131  0.2146  0.0792
18126TIP3    H175793   6.010   2.080   3.119  0.3733 -1.0976  0.6793
18126TIP3    H275794   6.036   2.221   3.171 -0.2466 -0.2289 -1.3290
18127TIP3   OH275795   0.405   1.926   5.420 -0.2122 -0.3933  0.1122
18127TIP3    H175796   0.368   1.934   5.508 -1.9731 -0.7787 -0.5713
18127TIP3    H275797   0.472   1.858   5.427  0.2724  0.2080  1.3434
18128TIP3   OH275798   2.058   1.793   5.848  0.0566 -0.1017 -0.1701
18128TIP3    H175799   2.122   1.724   5.865 -1.0752 -0.4587  3.0577
18128TIP3    H275800   2.105   1.875   5.867  0.3824 -0.2076 -0.5334
18129TIP3   OH275801   3.160   6.773  14.648 -0.9417 -0.0804 -0.7197
18129TIP3    H175802   3.166   6.863  14.681 -1.7391 -0.3312  0.1206
18129TIP3    H275803   3.069   6.764  14.621 -1.1526 -1.0087  0.2801
18130TIP3   OH275804   1.519   3.850  16.156  0.3397  0.0765 -0.5786
18130TIP3    H175805   1.525   3.869  16.062  1.9181 -1.3025 -0.7745
18130TIP3    H275806   1.607   3.820  16.180 -0.8906 -2.6294  0.6540
18131TIP3   OH275807   3.884   6.126  10.859  0.1504  0.1848 -0.1068
18131TIP3    H175808   3.885   6.169  10.944 -0.2582  0.3767 -0.1983
18131TIP3    H275809   3.845   6.040  10.876  1.2117 -0.2625  0.1231
18132TIP3   OH275810   1.946   6.011   2.014 -0.0888  0.2639  0.5279
18132TIP3    H175811   1.984   5.925   2.000  0.5490  0.6352 -0.0618
18132TIP3    H275812   1.891   6.025   1.936  2.1970  1.6566 -0.8993
18133TIP3   OH275813   3.631   0.467  16.861  0.9247  0.2421  0.3743
18133TIP3    H175814   3.594   0.394  16.911 -0.6809  1.2221  0.6629
18133TIP3    H275815   3.584   0.544  16.893  1.9442  1.2861 -0.5792
18134TIP3   OH275816   1.326   2.808  15.034 -0.1323 -0.8984  0.4229
18134TIP3    H175817   1.265   2.775  14.968 -0.8645 -1.1911  1.2366
18134TIP3    H275818   1.355   2.892  15.000 -0.3391 -1.1495 -0.3766
18135TIP3   OH275819   4.742   5.060  11.259 -0.1617 -0.4489  0.5544
18135TIP3    H175820   4.671   5.005  11.225  0.5661 -1.8345  1.2246
18135TIP3    H275821   4.822   5.011  11.237  0.5990  1.1743 -0.3488
18136TIP3   OH275822   5.044   0.285   4.401 -0.2596  0.2583 -0.1560
18136TIP3    H175823   4.951   0.266   4.385 -0.2360  0.0188 -0.0133
18136TIP3    H275824   5.044   0.335   4.482 -0.2911  0.5443 -0.3328
18137TIP3   OH275825   3.793   5.696  14.923  0.1017  0.3981  0.2268
18137TIP3    H175826   3.839   5.700  14.839  1.0934  0.4041  0.7622
18137TIP3    H275827   3.739   5.775  14.924  0.6468  0.7800 -0.0909
18138TIP3   OH275828   0.178   3.331   4.074 -0.2313  0.4121  0.3086
18138TIP3    H175829   0.270   3.334   4.099 -0.3155  0.3992  0.6157
18138TIP3    H275830   0.155   3.423   4.059 -0.1084  0.3964  0.0047
18139TIP3   OH275831   0.879   1.819  14.640  0.0488  0.5020 -0.4825
18139TIP3    H175832   0.887   1.769  14.559 -0.9314  0.2133 -0.4065
18139TIP3    H275833   0.953   1.881  14.638  0.0588  0.4549 -1.5553
18140TIP3   OH275834   1.247   6.219  17.165  0.2816  0.4707 -0.3417
18140TIP3    H175835   1.247   6.124  17.164  1.1509  0.4681 -0.5229
18140TIP3    H275836   1.298   6.244  17.088  0.7062  1.0698  0.1214
18141TIP3   OH275837   0.834   0.480   0.878 -0.1795 -0.0123  0.4338
18141TIP3    H175838   0.814   0.403   0.826  0.6473  1.6062 -2.4009
18141TIP3    H275839   0.921   0.507   0.848 -0.3017  1.7978  1.6168
18142TIP3   OH275840   1.283   1.975   4.415 -0.2207  0.1115 -0.0023
18142TIP3    H175841   1.270   2.057   4.462  0.6949 -0.6101  1.5321
18142TIP3    H275842   1.198   1.932   4.417 -0.0178 -0.2193  1.5676
18143TIP3   OH275843   5.740   1.122  13.535 -0.0931 -0.0095 -0.0667
18143TIP3    H175844   5.802   1.075  13.479  0.1525  0.0724  0.1354
18143TIP3    H275845   5.654   1.097  13.501  0.0869  1.6478 -1.7921
18144TIP3   OH275846   3.138   6.475  15.353 -0.6175  0.1827  0.9861
18144TIP3    H175847   3.200   6.432  15.412  0.1123 -0.2110 -0.0589
18144TIP3    H275848   3.189   6.546  15.313 -1.7778  1.9903  2.6276
18145TIP3   OH275849   3.371   1.332  15.559  0.8683 -0.5802 -0.2574
18145TIP3    H175850   3.465   1.312  15.567  0.2460 -2.6462  2.1761
18145TIP3    H275851   3.356   1.402  15.622  0.5452 -1.1122  0.2643
18146TIP3   OH275852   3.240   5.355   0.656 -0.4731  0.1946  0.1340
18146TIP3    H175853   3.230   5.344   0.750  0.9377  1.6849  0.4743
18146TIP3    H275854   3.250   5.266   0.622 -0.4619 -0.3063  1.4462
18147TIP3   OH275855   5.928   3.320  15.915  0.7582 -0.6895  0.5138
18147TIP3    H175856   6.000   3.267  15.882 -0.3783 -2.5067  0.8591
18147TIP3    H275857   5.850   3.281  15.876 -0.2069  0.0555  1.6495
18148TIP3   OH275858   0.826   0.035   6.715  0.3201  0.0525  0.3380
18148TIP3    H175859   0.880   0.087   6.775 -0.4160  2.3681 -0.9036
18148TIP3    H275860   0.857   0.060   6.628 -0.9759 -0.5807 -0.3174
18149TIP3   OH275861   3.235   3.920  15.926 -0.1782  0.4115  0.1306
18149TIP3    H175862   3.329   3.936  15.916  0.4969  0.1058  4.5760
18149TIP3    H275863   3.195   4.007  15.926  0.5426  0.7508  1.4179
18150TIP3   OH275864   3.122   3.779  14.368  0.3844  0.3976  0.3720
18150TIP3    H175865   3.095   3.870  14.374 -0.0155  0.2277  1.1710
18150TIP3    H275866   3.205   3.782  14.320  0.3496  1.1759  0.3542
18151TIP3   OH275867   2.317   1.481  16.559  0.4897 -0.4895  0.0696
18151TIP3    H175868   2.319   1.571  16.528 -1.1503 -0.1714  0.7997
18151TIP3    H275869   2.355   1.484  16.647  0.9329 -0.5980 -0.1170
18152TIP3   OH275870   4.422   3.686   3.692  0.1173 -0.5227 -0.4155
18152TIP3    H175871   4.335   3.665   3.656 -0.2899  0.8689 -0.2505
18152TIP3    H275872   4.405   3.753   3.758  1.4935  0.8620 -1.4502
18153TIP3   OH275873   4.239   6.476   6.207  0.1868  0.8178 -0.0039
18153TIP3    H175874   4.252   6.480   6.302  0.3146  1.8323 -0.0607
18153TIP3    H275875   4.180   6.402   6.194  0.7050  0.2506  0.8095
18154TIP3   OH275876   4.653   5.903  11.856 -0.6805 -0.2032  0.5034
18154TIP3    H175877   4.710   5.888  11.781  0.5035 -0.1905  1.3894
18154TIP3    H275878   4.609   5.819  11.871 -3.2209  0.5693 -2.0476
18155TIP3   OH275879   2.229   0.592   2.102 -0.3918  0.3558 -0.1535
18155TIP3    H175880   2.174   0.554   2.170 -0.8062  1.7799  0.3210
18155TIP3    H275881   2.278   0.661   2.147 -1.6249  2.1818 -1.5898
18156TIP3   OH275882   0.065   1.305   2.269 -0.1362  0.0804  0.0786
18156TIP3    H175883   0.150   1.283   2.308 -0.2738 -0.4743  0.0764
18156TIP3    H275884   0.006   1.236   2.301 -0.6122  0.5309  0.1788
18157TIP3   OH275885   6.417   1.602   1.905 -0.7108  0.1624 -0.1450
18157TIP3    H175886   6.333   1.641   1.931 -0.7239  1.0967 -1.5648
18157TIP3    H275887   6.470   1.605   1.984 -2.0161 -0.4215  0.7704
18158TIP3   OH275888   5.332   2.858  12.233 -0.1701  0.2084 -0.0584
18158TIP3    H175889   5.384   2.839  12.311 -0.7177  0.2351  0.3192
18158TIP3    H275890   5.341   2.952  12.220  1.6403 -0.1178 -1.2723
18159TIP3   OH275891   6.773   1.884  13.167 -0.1893 -0.0552 -0.0647
18159TIP3    H175892   6.678   1.889  13.160 -0.3270 -0.6649  1.2910
18159TIP3    H275893   6.790   1.817  13.233  1.1701  0.3121 -0.0112
18160TIP3   OH275894   0.565   6.274   4.194 -0.1765 -0.2143  0.8281
18160TIP3    H175895   0.504   6.256   4.266 -1.4553 -0.8444 -0.3853
18160TIP3    H275896   0.600   6.361   4.213 -0.7463 -0.2371  2.0322
18161TIP3   OH275897   2.772   4.745  10.875  0.3112  0.3478 -0.1521
18161TIP3    H175898   2.776   4.840  10.869  1.5592  0.3206  0.0412
18161TIP3    H275899   2.859   4.716  10.845 -0.6880 -0.8179 -2.0229
18162TIP3   OH275900   2.640   3.193  15.531  0.3148  0.0061  0.4771
18162TIP3    H175901   2.679   3.265  15.482  2.2790 -1.0361  0.4791
18162TIP3    H275902   2.688   3.192  15.614 -0.4418 -0.6237  0.9158
18163TIP3   OH275903   4.030   2.600  14.416 -0.1894  0.4568 -0.3903
18163TIP3    H175904   4.040   2.519  14.365 -0.9625  0.9757 -1.3919
18163TIP3    H275905   4.119   2.635  14.423 -0.3528  1.7359 -3.7067
18164TIP3   OH275906   2.608   6.606  13.151 -0.2126  0.4248 -0.0526
18164TIP3    H175907   2.541   6.538  13.154  1.5887 -1.6253 -3.0057
18164TIP3    H275908   2.575   6.669  13.087  0.5964 -0.5858 -1.5084
18165TIP3   OH275909   4.433   6.775  15.198 -0.2586  0.6283 -0.2859
18165TIP3    H175910   4.442   6.681  15.209 -1.2406  0.7403  1.6235
18165TIP3    H275911   4.505   6.812  15.249 -0.1231  0.9357 -0.6955
18166TIP3   OH275912   4.632   6.412   3.700 -0.3810  0.1255  0.1669
18166TIP3    H175913   4.546   6.372   3.687 -0.1598 -1.3914  3.0029
18166TIP3    H275914   4.693   6.354   3.653 -0.6880  0.1505 -0.2609
18167TIP3   OH275915   3.975   0.691   4.542 -0.4072  0.3384 -0.4190
18167TIP3    H175916   4.045   0.752   4.519  1.4666 -1.4708  0.4311
18167TIP3    H275917   4.019   0.610   4.566 -2.6312 -0.0887  2.5845
18168TIP3   OH275918   4.623   1.713   1.015 -0.3339 -0.4435  0.0665
18168TIP3    H175919   4.628   1.677   0.926  1.6216  0.3570 -0.1707
18168TIP3    H275920   4.571   1.793   1.006  1.2874  0.5504 -0.6862
18169TIP3   OH275921   1.257   0.988  12.937  0.2375  0.4779 -0.1742
18169TIP3    H175922   1.181   1.026  12.981 -0.2405 -1.4585  0.7485
18169TIP3    H275923   1.329   1.003  12.999  0.1028  0.1054  0.0739
18170TIP3   OH275924   6.264   1.570   5.425 -0.5324 -0.1657 -0.0210
18170TIP3    H175925   6.300   1.568   5.514 -0.8203  1.0198  0.1257
18170TIP3    H275926   6.317   1.635   5.379 -0.5593 -0.5824 -0.6559
18171TIP3   OH275927   6.301   0.222   1.263 -0.1367 -0.2778  0.0933
18171TIP3    H175928   6.319   0.311   1.294 -0.5571 -0.6161  1.3351
18171TIP3    H275929   6.206   0.215   1.263 -0.1669  0.0095 -2.1507
18172TIP3   OH275930   6.286   1.522   4.846 -0.1710  0.3314  0.4160
18172TIP3    H175931   6.374   1.528   4.809  0.5552  0.7264  2.1802
18172TIP3    H275932   6.248   1.608   4.830 -1.3712 -0.7721 -3.0639
18173TIP3   OH275933   4.821   4.705  13.918  0.1180 -0.1433 -0.0204
18173TIP3    H175934   4.828   4.666  13.831  2.0263 -0.2312  0.1662
18173TIP3    H275935   4.728   4.729  13.925 -0.2754 -1.0718 -1.6608
18174TIP3   OH275936   1.910   5.003   1.326  0.1922 -0.0383  0.6835
18174TIP3    H175937   1.904   5.092   1.292  1.0711 -0.8751 -1.7322
18174TIP3    H275938   1.822   4.967   1.315 -0.0258  0.3354  1.1608
18175TIP3   OH275939   5.739   1.129   5.451  0.3701 -0.3451 -0.1809
18175TIP3    H175940   5.657   1.085   5.473 -0.0259 -0.0024 -0.9625
18175TIP3    H275941   5.779   1.075   5.383 -0.3105  0.6999 -1.4320
18176TIP3   OH275942   4.527   3.216   4.281 -0.1671  0.2053  0.0879
18176TIP3    H175943   4.614   3.229   4.244 -0.1655 -1.0292 -0.3701
18176TIP3    H275944   4.488   3.146   4.228 -1.0744  0.0807  0.8889
18177TIP3   OH275945   2.622   2.778   2.836  0.1223  0.0662 -0.1780
18177TIP3    H175946   2.596   2.781   2.744 -2.8901  0.6784  0.6469
18177TIP3    H275947   2.640   2.685   2.853 -0.0271 -0.1458 -1.1901
18178TIP3   OH275948   1.921   5.003   3.508 -0.1734  0.2976  0.0874
18178TIP3    H175949   1.970   4.988   3.589 -1.3063  0.4756  0.8320
18178TIP3    H275950   1.862   5.075   3.530 -2.6261 -1.6251  0.0796
18179TIP3   OH275951   1.531   2.696  14.542  0.5675  0.0333  0.3381
18179TIP3    H175952   1.606   2.753  14.559 -0.4535  1.0886  1.3771
18179TIP3    H275953   1.567   2.607  14.542  1.4647  0.3751  2.9018
18180TIP3   OH275954   3.839   2.910  13.220 -0.3280  0.1368  0.2771
18180TIP3    H175955   3.863   2.994  13.181 -0.1563 -0.6729 -1.4353
18180TIP3    H275956   3.744   2.915  13.231 -0.3366  0.5206  0.0395
18181TIP3   OH275957   3.265   5.454  13.117 -0.3860 -0.2763 -0.7482
18181TIP3    H175958   3.269   5.529  13.177 -2.5704  1.7052 -2.9905
18181TIP3    H275959   3.212   5.389  13.162 -2.3747  1.3694 -0.6506
18182TIP3   OH275960   3.016   2.356   4.558  0.5159  0.6664  0.2679
18182TIP3    H175961   2.937   2.408   4.572  0.7953  1.0965  0.2364
18182TIP3    H275962   3.008   2.323   4.468  0.3410  0.6586  0.2861
18183TIP3   OH275963   6.183   4.474   3.570 -0.1390  0.5248 -0.2597
18183TIP3    H175964   6.230   4.470   3.487 -1.6761 -0.0279 -1.1333
18183TIP3    H275965   6.249   4.457   3.637  1.0993  0.8952 -1.3754
18184TIP3   OH275966   3.618   5.641   3.089  0.1312 -0.4879  0.1219
18184TIP3    H175967   3.558   5.666   3.159  0.1679  1.4600 -0.5206
18184TIP3    H275968   3.705   5.654   3.127  0.1476 -0.0094 -0.0723
18185TIP3   OH275969   5.373   3.707  17.199 -0.3969  0.0974 -0.1134
18185TIP3    H175970   5.404   3.743  17.115 -2.2310  0.2807 -0.7378
18185TIP3    H275971   5.300   3.764  17.224 -0.3840 -0.4497  1.2119
18186TIP3   OH275972   3.233   2.148   4.208 -0.3269  0.1439 -0.1298
18186TIP3    H175973   3.271   2.110   4.287 -1.9258  0.2107  0.6833
18186TIP3    H275974   3.157   2.197   4.238 -0.6988  0.5408 -1.6555
18187TIP3   OH275975   2.977   1.720  10.659  0.0800 -0.0072  0.7057
18187TIP3    H175976   2.969   1.625  10.663 -1.5240  0.1139  0.9204
18187TIP3    H275977   3.000   1.746  10.748  1.9892 -0.2991  0.3132
18188TIP3   OH275978   2.411   4.170   3.958 -0.3738 -0.5233  0.1604
18188TIP3    H175979   2.440   4.252   3.919 -1.0017 -0.4719 -0.2101
18188TIP3    H275980   2.402   4.189   4.051 -0.5400 -0.1656  0.0709
18189TIP3   OH275981   5.899   5.724   0.809 -0.4509 -0.0793 -0.5949
18189TIP3    H175982   5.840   5.747   0.737 -0.2130  3.2812  0.2030
18189TIP3    H275983   5.861   5.765   0.886  2.3978  1.4267  0.1052
18190TIP3   OH275984   1.093   1.710   6.386  0.0814 -0.5697  0.3408
18190TIP3    H175985   1.147   1.668   6.452  0.6202  1.7274  1.4216
18190TIP3    H275986   1.003   1.698   6.416  0.2856 -0.1848  1.1308
18191TIP3   OH275987   2.749   5.999  14.918  0.0799 -0.0104  0.8336
18191TIP3    H175988   2.701   6.075  14.884  1.0974  0.3141  0.1259
18191TIP3    H275989   2.834   6.034  14.945  0.5027 -0.8770  0.6403
18192TIP3   OH275990   6.768   3.963   2.627 -0.1462  0.3907  0.0356
18192TIP3    H175991   6.849   3.989   2.671 -1.0389  0.2082  1.8553
18192TIP3    H275992   6.703   4.027   2.657 -0.8271  0.1391 -0.8834
18193TIP3   OH275993   0.221   6.630   5.219 -0.2280  0.7526  0.2147
18193TIP3    H175994   0.146   6.602   5.271 -0.0459  0.5941  0.3944
18193TIP3    H275995   0.291   6.643   5.283  0.6643 -1.6880 -0.1959
18194TIP3   OH275996   2.985   4.169   1.781 -0.5503  0.4084 -0.0941
18194TIP3    H175997   2.919   4.226   1.820 -0.6045  1.0473 -1.1050
18194TIP3    H275998   2.943   4.083   1.778 -1.5961  0.9375 -1.3169
18195TIP3   OH275999   4.551   1.132  12.866  0.0745 -0.0177 -0.0590
18195TIP3    H176000   4.483   1.138  12.798 -0.6837  1.0208  0.7685
18195TIP3    H276001   4.547   1.041  12.894  1.0832 -0.7262 -2.0833
18196TIP3   OH276002   3.569   3.382   2.111 -0.0713  0.0811  0.1519
18196TIP3    H176003   3.478   3.373   2.083  0.0600 -0.7205 -0.0301
18196TIP3    H276004   3.620   3.354   2.035  0.3157 -0.0771  0.4692
18197TIP3   OH276005   1.729   1.551   2.119  0.0530 -0.1385 -0.8046
18197TIP3    H176006   1.751   1.643   2.101 -0.0206 -0.7718 -4.4329
18197TIP3    H276007   1.639   1.554   2.151  0.2094  1.1024 -0.4435
18198TIP3   OH276008   1.622   2.130  16.859  0.5816 -0.2343 -0.5353
18198TIP3    H176009   1.541   2.129  16.908 -0.3960 -1.1699 -2.1278
18198TIP3    H276010   1.644   2.223  16.849  1.1863 -0.0539  2.2414
18199TIP3   OH276011   0.382   2.471   3.137 -0.0495 -0.1522  0.4489
18199TIP3    H176012   0.366   2.414   3.212 -3.2431  0.8011  0.5564
18199TIP3    H276013   0.383   2.412   3.062  0.3465 -0.7886  0.9531
18200TIP3   OH276014   6.084   5.102   5.271 -0.0711  0.4042 -0.5640
18200TIP3    H176015   6.140   5.164   5.225  0.1791  1.2305  0.8414
18200TIP3    H276016   6.072   5.030   5.208  0.6928  1.2582 -1.7174
18201TIP3   OH276017   5.305   4.095  10.319  0.0155 -0.4625 -0.0126
18201TIP3    H176018   5.345   4.009  10.305  0.4825 -0.5148  1.5604
18201TIP3    H276019   5.253   4.084  10.399 -0.5831  0.4916 -0.2624
18202TIP3   OH276020   3.096   1.928   3.083  0.1334  0.1618 -0.1457
18202TIP3    H176021   3.014   1.917   3.130 -1.3970 -1.0478 -2.9722
18202TIP3    H276022   3.126   2.016   3.106 -2.2290  0.8266  0.4912
18203TIP3   OH276023   6.477   1.758  12.369  0.4482  0.1486  0.2795
18203TIP3    H176024   6.456   1.670  12.400 -1.2194  0.8332  1.1356
18203TIP3    H276025   6.431   1.765  12.285  0.1740  0.3931  0.4523
18204TIP3   OH276026   2.086   0.551  10.517  0.0069  0.0100 -0.1083
18204TIP3    H176027   2.172   0.554  10.558 -0.4619 -2.1024  1.0834
18204TIP3    H276028   2.033   0.496  10.575 -1.5434 -0.4704 -1.9114
18205TIP3   OH276029   0.510   1.118   3.527  0.2644  0.4122 -0.4100
18205TIP3    H176030   0.447   1.083   3.590  0.8524 -1.4769 -0.8365
18205TIP3    H276031   0.537   1.202   3.564 -1.2231  0.4528  0.6190
18206TIP3   OH276032   2.097   4.554  10.359 -0.3703  0.2793 -0.2610
18206TIP3    H176033   2.062   4.576  10.445  2.0294  1.4970  0.4557
18206TIP3    H276034   2.073   4.628  10.303  1.2610  1.2650  0.3071
18207TIP3   OH276035   5.416   5.674   1.709 -0.5331 -0.2516 -0.0208
18207TIP3    H176036   5.380   5.746   1.759 -1.8917  1.2154 -2.9956
18207TIP3    H276037   5.373   5.596   1.744  0.3940  0.4075  2.7133
18208TIP3   OH276038   6.249   2.079  15.574 -0.5324 -0.3628 -0.1436
18208TIP3    H176039   6.209   2.113  15.494  0.2823 -1.8978 -1.2221
18208TIP3    H276040   6.338   2.114  15.573 -0.3878 -0.7275 -0.1280
18209TIP3   OH276041   6.117   1.168  16.789 -0.2964  0.3445 -0.1498
18209TIP3    H176042   6.135   1.234  16.722 -3.0394  0.9147 -0.3770
18209TIP3    H276043   6.099   1.218  16.868 -2.7496 -0.0782 -0.4068
18210TIP3   OH276044   4.531   5.477   2.871  0.2193 -0.6461 -0.1319
18210TIP3    H176045   4.486   5.477   2.956 -1.0119  3.8497 -0.6310
18210TIP3    H276046   4.478   5.419   2.816 -0.9525 -0.9375  1.2572
18211TIP3   OH276047   4.835   5.801   2.968  0.4291  0.4929  0.6565
18211TIP3    H176048   4.862   5.748   3.043 -0.3953  0.2962  0.8150
18211TIP3    H276049   4.764   5.856   3.002  0.7837  1.1736  0.3019
18212TIP3   OH276050   2.489   2.197   3.957  0.1712 -0.3817  0.0316
18212TIP3    H176051   2.531   2.120   3.995  0.6605  0.3610  0.9900
18212TIP3    H276052   2.399   2.167   3.938  0.4033 -1.2364  0.2317
18213TIP3   OH276053   4.067   0.184   1.490  0.4645  0.4364  0.7626
18213TIP3    H176054   4.131   0.193   1.419 -0.4625  0.3197 -0.1023
18213TIP3    H276055   4.066   0.090   1.508 -0.9804  0.1621 -0.6632
18214TIP3   OH276056   4.999   0.562   0.047  0.1042 -0.5689  0.5230
18214TIP3    H176057   5.064   0.613   0.000  0.4877 -1.1371  0.4304
18214TIP3    H276058   5.046   0.523   0.120 -0.8868  1.7688  2.4705
18215TIP3   OH276059   6.279   1.959  14.046  0.4680 -0.7656  0.1370
18215TIP3    H176060   6.231   1.994  14.121 -0.7883 -1.7201 -0.2119
18215TIP3    H276061   6.243   2.004  13.970  0.2517 -1.3371 -0.1036
18216TIP3   OH276062   0.113   2.638   1.798  0.7218  0.4672 -0.5969
18216TIP3    H176063   0.131   2.622   1.890 -1.0598  1.9390  0.0383
18216TIP3    H276064   0.087   2.730   1.794 -1.7747 -0.2296 -2.1305
18217TIP3   OH276065   4.965   3.150  14.187 -0.1973 -0.8749 -0.8334
18217TIP3    H176066   4.887   3.126  14.238 -0.3093  1.8184  0.3738
18217TIP3    H276067   4.932   3.161  14.098 -1.4939  1.4594 -0.1079
18218TIP3   OH276068   4.808   6.619  13.088  0.4090  0.0951  0.6457
18218TIP3    H176069   4.857   6.646  13.165  1.4687  1.3857 -0.4623
18218TIP3    H276070   4.801   6.698  13.034 -1.0093 -0.5904 -0.2251
18219TIP3   OH276071   5.526   1.832  16.945 -0.2417 -0.5746 -0.2444
18219TIP3    H176072   5.558   1.824  17.035 -2.2602 -2.1584  0.3901
18219TIP3    H276073   5.474   1.913  16.945  1.3672  0.4805 -0.5327
18220TIP3   OH276074   5.888   2.654   5.032  1.0301 -0.7463 -0.4166
18220TIP3    H176075   5.942   2.632   5.108  1.3170  0.8925 -0.1235
18220TIP3    H276076   5.877   2.749   5.037 -0.0121 -0.7812 -1.7239
18221TIP3   OH276077   3.611   3.122  16.242  0.6069  0.4367 -0.1368
18221TIP3    H176078   3.531   3.169  16.219  1.1531  2.1593  1.3367
18221TIP3    H276079   3.583   3.055  16.304  0.2549  0.8420  0.1427
18222TIP3   OH276080   6.192   1.205   3.587 -0.4886  0.5964 -0.6616
18222TIP3    H176081   6.261   1.209   3.653 -1.2586 -0.8530  0.2495
18222TIP3    H276082   6.229   1.153   3.516 -0.5597 -0.0229 -0.2511
18223TIP3   OH276083   2.989   1.767  11.422 -0.4053 -0.2847 -0.1013
18223TIP3    H176084   3.041   1.779  11.343 -0.1346 -1.4661 -0.1140
18223TIP3    H276085   2.932   1.844  11.426  1.1757  0.9150 -0.1981
18224TIP3   OH276086   3.761   3.907  13.702  0.1079  0.1870  0.4849
18224TIP3    H176087   3.784   3.907  13.794  0.0176  2.9453  0.5287
18224TIP3    H276088   3.689   3.969  13.694 -0.7845 -0.9947 -1.2519
18225TIP3   OH276089   5.371   4.938   2.230  0.1105 -0.5897 -0.2202
18225TIP3    H176090   5.313   4.873   2.188 -0.3509  0.1913 -0.8178
18225TIP3    H276091   5.327   5.022   2.214 -1.1229 -0.4215  3.5571
18226TIP3   OH276092   2.349   0.339   0.431 -0.2403  0.3170 -0.3274
18226TIP3    H176093   2.295   0.292   0.495 -0.6724  1.0902 -0.1273
18226TIP3    H276094   2.358   0.427   0.466  0.4228  0.4397 -0.7993
18227TIP3   OH276095   6.402   1.069   4.307  0.1114 -0.5845 -0.0803
18227TIP3    H176096   6.421   0.993   4.253 -0.7183  0.4335 -1.8350
18227TIP3    H276097   6.446   1.142   4.264  1.7748 -0.1988  2.1528
18228TIP3   OH276098   4.457   2.616   5.694  0.5184  0.1899 -0.1935
18228TIP3    H176099   4.453   2.607   5.789 -3.6651 -1.9129 -0.4356
18228TIP3    H276100   4.530   2.560   5.667 -0.1533 -1.6097  1.5931
18229TIP3   OH276101   2.254   1.905  14.475 -0.9598 -0.2668 -0.1617
18229TIP3    H176102   2.296   1.860  14.548 -0.5707  0.6307  0.1762
18229TIP3    H276103   2.181   1.848  14.451 -0.1867 -1.3122 -0.0710
18230TIP3   OH276104   5.056   5.424  16.151 -0.1321  0.4677 -0.2964
18230TIP3    H176105   5.111   5.347  16.136  1.9533  1.6551  1.0986
18230TIP3    H276106   4.996   5.425  16.076 -0.5009 -2.7320 -0.1407
18231TIP3   OH276107   2.403   5.235  15.483  0.3586  0.1977 -0.2636
18231TIP3    H176108   2.417   5.314  15.431 -1.3044 -0.5445 -1.9136
18231TIP3    H276109   2.462   5.171  15.445 -1.7403 -0.7038 -2.1364
18232TIP3   OH276110   0.418   3.774  13.174  0.5152 -0.3835  0.0001
18232TIP3    H176111   0.432   3.832  13.100 -1.6993  1.8148  1.2318
18232TIP3    H276112   0.370   3.699  13.138  2.7193 -1.1147 -1.4528
18233TIP3   OH276113   1.402   4.543   0.665  0.3907  0.4642 -0.0064
18233TIP3    H176114   1.342   4.561   0.592  0.6641 -2.0199 -0.9116
18233TIP3    H276115   1.384   4.612   0.728 -1.1233  1.6529 -1.6668
18234TIP3   OH276116   0.447   5.837   1.427  0.6307  0.4367 -0.8480
18234TIP3    H176117   0.474   5.745   1.430 -1.2303 -0.0997 -0.2024
18234TIP3    H276118   0.528   5.884   1.409  1.4881 -1.3839 -1.9535
18235TIP3   OH276119   4.815   3.637  17.043 -0.8124  0.6441 -0.1455
18235TIP3    H176120   4.812   3.703  17.113 -2.6974 -0.3449  0.7532
18235TIP3    H276121   4.745   3.576  17.065  1.6841 -2.3476 -0.3399
18236TIP3   OH276122   5.828   0.403  13.170  0.3479  0.1735 -0.1424
18236TIP3    H176123   5.746   0.363  13.200  1.3521 -0.5765  1.6981
18236TIP3    H276124   5.849   0.356  13.089  0.2812 -1.4247  0.7470
18237TIP3   OH276125   6.331   1.514   1.302  0.3724 -0.6426 -0.0550
18237TIP3    H176126   6.291   1.531   1.387  0.1810 -2.3258  0.2117
18237TIP3    H276127   6.360   1.423   1.307  2.0937 -0.1739 -1.1006
18238TIP3   OH276128   6.263   2.082  14.670  0.5551  0.3025 -0.4512
18238TIP3    H176129   6.318   2.011  14.701  0.9543  0.5129 -0.6708
18238TIP3    H276130   6.186   2.039  14.632  0.9263 -0.0203 -0.8428
18239TIP3   OH276131   4.635   1.301  11.718 -0.8732  0.1023  0.0764
18239TIP3    H176132   4.668   1.362  11.784  1.1451 -0.5914 -0.2706
18239TIP3    H276133   4.547   1.334  11.698 -0.9652  1.1656  2.0334
18240TIP3   OH276134   5.691   1.618   4.947  0.6924 -0.0120 -0.6868
18240TIP3    H176135   5.757   1.671   4.902  0.4101  0.2057 -0.8531
18240TIP3    H276136   5.703   1.638   5.040  0.8530  0.0365 -0.7188
18241TIP3   OH276137   2.663   3.294  13.337 -0.2522 -0.0747 -0.0122
18241TIP3    H176138   2.728   3.322  13.273  0.0528 -0.7751 -0.0162
18241TIP3    H276139   2.626   3.375  13.372  1.3464  0.3476  0.7201
18242TIP3   OH276140   1.610   3.529   0.903 -0.3528 -0.1579  0.0168
18242TIP3    H176141   1.525   3.486   0.896  0.3305 -1.8770  1.8105
18242TIP3    H276142   1.605   3.580   0.984 -0.2418  1.1223 -0.7584
18243TIP3   OH276143   0.207   1.556  13.509  0.1078  0.2605 -0.5397
18243TIP3    H176144   0.298   1.551  13.541 -0.2676  1.5780  0.7882
18243TIP3    H276145   0.161   1.605  13.577 -1.3390  0.6816 -1.8129
18244TIP3   OH276146   5.752   2.137   0.170  0.6080  0.0895 -0.4693
18244TIP3    H176147   5.790   2.223   0.149  0.2693  0.4634  0.4036
18244TIP3    H276148   5.664   2.157   0.202  1.0349 -0.4610  1.0737
18245TIP3   OH276149   3.071   0.412   4.797 -0.3635  0.3908 -0.0568
18245TIP3    H176150   3.115   0.457   4.725  0.5678  0.3443  0.4787
18245TIP3    H276151   3.037   0.483   4.852 -0.4048  0.4314 -0.1347
18246TIP3   OH276152   1.459   4.452   2.827  0.2711 -0.0528 -0.2194
18246TIP3    H176153   1.533   4.429   2.770  1.1165  0.5478  0.6323
18246TIP3    H276154   1.485   4.420   2.913 -0.8544 -0.6347 -0.0948
18247TIP3   OH276155   4.895   5.645  14.216  0.3335 -0.0508 -0.7967
18247TIP3    H176156   4.837   5.710  14.255  2.5233  2.7556 -2.0168
18247TIP3    H276157   4.952   5.617  14.288 -0.6195 -0.6425 -0.2664
18248TIP3   OH276158   6.216   2.927  11.045 -0.1965 -0.2614  0.1650
18248TIP3    H176159   6.288   2.983  11.015  0.8147 -0.5843  1.8744
18248TIP3    H276160   6.185   2.883  10.966  1.4675 -0.0607 -0.6346
18249TIP3   OH276161   5.964   4.499  13.932 -0.1763  0.1472 -0.4355
18249TIP3    H176162   5.976   4.407  13.909  3.4356  0.3816  0.1621
18249TIP3    H276163   5.977   4.501  14.027 -1.3085  1.1450 -0.2892
18250TIP3   OH276164   5.905   0.647  12.957  0.6882  0.4128  0.2839
18250TIP3    H176165   5.958   0.605  13.025 -0.1040  0.8318  1.1754
18250TIP3    H276166   5.923   0.741  12.968  2.5959  0.3457 -1.8159
18251TIP3   OH276167   5.569   4.160   4.225  0.1359  0.1029 -0.1324
18251TIP3    H176168   5.488   4.212   4.227  1.5480  2.3989 -0.0249
18251TIP3    H276169   5.617   4.194   4.150  1.8611  0.1845  0.9813
18252TIP3   OH276170   6.107   4.615  12.082  0.1307  0.2010  0.0272
18252TIP3    H176171   6.179   4.672  12.057  0.5118  0.3559  1.4434
18252TIP3    H276172   6.088   4.638  12.173 -2.2692  0.7745 -0.5629
18253TIP3   OH276173   6.469   3.470   5.608  0.0358 -0.0494  0.0858
18253TIP3    H176174   6.521   3.413   5.664 -1.9859 -0.8066  1.2336
18253TIP3    H276175   6.403   3.412   5.570  0.0678  0.8746 -1.4223
18254TIP3   OH276176   5.226   5.873  14.366 -0.3000 -0.1278  0.1305
18254TIP3    H176177   5.317   5.904  14.359 -0.2452 -0.0785  0.9672
18254TIP3    H276178   5.174   5.945  14.332 -0.2479  1.4250  3.0978
18255TIP3   OH276179   1.472   2.008  15.682 -0.0876  0.0677  0.0156
18255TIP3    H176180   1.408   1.978  15.618  1.6429 -1.1461 -1.1556
18255TIP3    H276181   1.428   1.996  15.767 -1.9706  0.6919 -0.8444
18256TIP3   OH276182   6.253   2.456  16.314  0.7213  0.2484 -0.2438
18256TIP3    H176183   6.160   2.457  16.338  0.6840  0.9390 -0.3858
18256TIP3    H276184   6.291   2.529  16.364  1.1788 -0.0035 -0.2191
18257TIP3   OH276185   1.319   2.979  15.571  0.4744 -0.4874 -0.0925
18257TIP3    H176186   1.265   3.016  15.640  0.9446  0.6574 -0.3331
18257TIP3    H276187   1.265   2.910  15.533 -0.3020 -0.2289  0.5232
18258TIP3   OH276188   1.883   1.625  16.504 -0.0732  0.3293 -0.1918
18258TIP3    H176189   1.927   1.654  16.424  0.4165  0.3494  0.0837
18258TIP3    H276190   1.869   1.706  16.554 -0.2474  0.2983 -0.1899
18259TIP3   OH276191   1.579   4.589   4.919 -0.1527 -0.1244  0.4886
18259TIP3    H176192   1.501   4.557   4.965  0.5438 -2.8011 -0.0949
18259TIP3    H276193   1.646   4.522   4.937  2.1540  2.3446  1.3360
18260TIP3   OH276194   2.691   6.568   4.066 -0.2014  0.3781  0.2060
18260TIP3    H176195   2.602   6.544   4.093 -0.5937  1.1497 -0.3712
18260TIP3    H276196   2.702   6.658   4.097  0.7079 -0.0132  1.0397
18261TIP3   OH276197   4.371   2.575  12.372 -0.4348  0.2686 -0.2864
18261TIP3    H176198   4.373   2.574  12.468 -0.0315  1.3360 -0.2770
18261TIP3    H276199   4.279   2.585  12.349 -0.4240  1.1381  0.0185
18262TIP3   OH276200   4.066   1.319   4.276 -0.3971 -0.1563 -0.0964
18262TIP3    H176201   4.057   1.409   4.245 -0.7437 -0.3383 -0.5402
18262TIP3    H276202   4.030   1.319   4.365  0.7780  0.4146  0.3829
18263TIP3   OH276203   5.902   4.747   0.799  0.5289 -0.2139 -0.0545
18263TIP3    H176204   5.848   4.809   0.750  2.0404 -0.6258 -2.2758
18263TIP3    H276205   5.869   4.661   0.773  1.2555 -0.4309 -0.2694
18264TIP3   OH276206   0.575   5.280   2.391  0.2147  0.1188 -0.1038
18264TIP3    H176207   0.528   5.197   2.386  0.8034 -0.2823  1.0235
18264TIP3    H276208   0.666   5.258   2.372  0.4061  0.4876  0.3882
18265TIP3   OH276209   2.801   3.470  13.823  0.0556  0.2313 -0.1037
18265TIP3    H176210   2.780   3.558  13.855  1.4318  0.4349  0.2582
18265TIP3    H276211   2.894   3.459  13.843 -0.5645 -2.0601  1.5853
18266TIP3   OH276212   4.587   6.656   4.185  0.0166 -0.2549 -0.2887
18266TIP3    H176213   4.603   6.585   4.123 -0.0642 -0.6298  0.1139
18266TIP3    H276214   4.590   6.613   4.271 -0.6554  0.1223 -0.0766
18267TIP3   OH276215   4.438   1.732  11.566  0.0030  0.0959  0.5961
18267TIP3    H176216   4.410   1.789  11.495  0.1603  0.0247  0.4752
18267TIP3    H276217   4.439   1.789  11.643 -1.5131 -0.1622  0.8176
18268TIP3   OH276218   4.127   1.319  12.379  0.2588 -0.6880 -0.2275
18268TIP3    H176219   4.054   1.269  12.341  0.8912 -0.9865 -1.0825
18268TIP3    H276220   4.176   1.350  12.303 -0.2161  1.3983  0.2874
18269TIP3   OH276221   0.692   1.748   6.631  0.0464 -0.2705  0.0064
18269TIP3    H176222   0.758   1.706   6.575  0.8029 -1.4171  1.7236
18269TIP3    H276223   0.621   1.684   6.636 -0.2698  0.0729 -0.1137
18270TIP3   OH276224   6.694   2.630  12.818  1.1371  0.2263 -0.4904
18270TIP3    H176225   6.708   2.722  12.842  2.0540 -0.2741  0.9863
18270TIP3    H276226   6.610   2.629  12.773  0.3115  1.5634  0.9683
18271TIP3   OH276227   0.134   4.744  16.032  0.1016 -0.5703 -0.1545
18271TIP3    H176228   0.145   4.697  16.114  1.2393  0.5708  0.3668
18271TIP3    H276229   0.137   4.676  15.964 -0.4290 -1.4675  0.7173
18272TIP3   OH276230   3.259   6.101  13.407 -0.0344  0.2743 -0.3671
18272TIP3    H176231   3.205   6.075  13.332 -0.1147 -0.2332 -0.1370
18272TIP3    H276232   3.339   6.136  13.368  1.1388 -2.6289 -0.6590
18273TIP3   OH276233   4.185   6.396  10.909  0.3648 -0.1542 -0.3387
18273TIP3    H176234   4.159   6.487  10.924 -1.2558 -0.5101 -0.8292
18273TIP3    H276235   4.281   6.397  10.909  0.3590  1.3273  0.9532
18274TIP3   OH276236   4.471   6.254  16.809  0.3275 -0.3350  0.4495
18274TIP3    H176237   4.430   6.215  16.731  0.4447  3.5280 -1.6551
18274TIP3    H276238   4.561   6.272  16.781 -0.0888  2.6027  0.8763
18275TIP3   OH276239   3.125   0.947  17.157  0.0305  0.0155 -0.0576
18275TIP3    H176240   3.038   0.916  17.183  0.5408 -1.5038 -0.0961
18275TIP3    H276241   3.112   0.982  17.069 -0.4082 -0.8407 -0.3398
18276TIP3   OH276242   3.215   6.161  15.678 -0.1314  0.2969 -0.0712
18276TIP3    H176243   3.171   6.243  15.702 -0.1483  0.3901 -0.4113
18276TIP3    H276244   3.302   6.169  15.715 -0.9919 -0.7051  2.2509
18277TIP3   OH276245   3.426   3.252   1.624 -0.5267  0.5519  0.0294
18277TIP3    H176246   3.473   3.175   1.657 -0.8510 -0.8737 -2.7093
18277TIP3    H276247   3.353   3.263   1.685 -0.3807 -1.2069  0.5702
18278TIP3   OH276248   6.581   1.051  16.794  0.5000  0.1391 -0.1654
18278TIP3    H176249   6.599   1.044  16.700 -0.4249 -0.4600 -0.2969
18278TIP3    H276250   6.585   1.145  16.812 -1.3958  0.4243 -1.2087
18279TIP3   OH276251   0.601   2.183  15.696 -0.8087  0.0906  0.9163
18279TIP3    H176252   0.527   2.244  15.694 -1.0732 -0.2430  0.3751
18279TIP3    H276253   0.613   2.163  15.788 -1.3860  0.1560  1.0106
18280TIP3   OH276254   3.701   1.127  15.964  0.1044  0.2552 -0.1828
18280TIP3    H176255   3.772   1.094  16.019 -0.1069 -2.0326 -1.2286
18280TIP3    H276256   3.632   1.061  15.971 -2.1789  2.6470  1.1700
18281TIP3   OH276257   0.167   1.458   1.292 -0.3960 -0.3467 -0.0791
18281TIP3    H176258   0.245   1.514   1.295 -0.1751 -0.6235 -0.6295
18281TIP3    H276259   0.158   1.434   1.199 -0.7154 -0.9110  0.0954
18282TIP3   OH276260   2.425   4.394  13.162 -0.0123 -0.3104  0.1546
18282TIP3    H176261   2.456   4.467  13.108 -0.8486 -0.1632 -0.1294
18282TIP3    H276262   2.340   4.371  13.124  0.3547 -1.5908  0.0902
18283TIP3   OH276263   0.586   3.770  12.296 -0.3309 -0.0182  0.6695
18283TIP3    H176264   0.494   3.782  12.317 -0.0071  1.7508  1.1858
18283TIP3    H276265   0.588   3.760  12.201 -1.0472 -0.0899  0.6575
18284TIP3   OH276266   5.817   5.884   3.766  0.3885  0.1394  0.0577
18284TIP3    H176267   5.836   5.975   3.787  0.5517  0.1517 -0.1424
18284TIP3    H276268   5.741   5.888   3.707 -0.1768  0.0955  0.7677
18285TIP3   OH276269   4.185   4.025  14.229 -0.1799  0.5884  0.5170
18285TIP3    H176270   4.239   4.095  14.193 -0.7545  0.1158 -1.3076
18285TIP3    H276271   4.096   4.059  14.224 -0.4310 -0.1589 -0.1382
18286TIP3   OH276272   4.872   0.403  15.078  0.2390  0.3038 -0.4985
18286TIP3    H176273   4.794   0.454  15.058  0.6791  1.9977  1.9738
18286TIP3    H276274   4.922   0.402  14.996 -2.2955 -0.7773 -2.1043
18287TIP3   OH276275   1.623   6.093   6.224 -0.4607  0.3761 -0.7360
18287TIP3    H176276   1.542   6.049   6.201  1.2234 -3.3881  0.1424
18287TIP3    H276277   1.635   6.074   6.317  1.0240  1.5550 -0.6637
18288TIP3   OH276278   2.129   3.937   2.120  0.6615 -1.1672 -0.1769
18288TIP3    H176279   2.091   4.020   2.092  0.0158 -1.9167 -1.5419
18288TIP3    H276280   2.221   3.943   2.093  1.0660 -0.1871  1.3245
18289TIP3   OH276281   0.140   3.211   1.947  0.3236 -0.3581  0.0052
18289TIP3    H176282   0.118   3.259   1.867 -0.2692 -0.6163  0.0069
18289TIP3    H276283   0.056   3.176   1.977  0.6625 -0.9058  0.3196
18290TIP3   OH276284   3.488   2.422  14.335  0.1090 -0.0487 -0.5249
18290TIP3    H176285   3.467   2.493  14.397  0.8599  0.1789 -0.5308
18290TIP3    H276286   3.448   2.344  14.374 -1.7073  0.5822 -1.0896
18291TIP3   OH276287   5.771   1.373  13.984 -0.0648  0.6918 -0.3416
18291TIP3    H176288   5.723   1.291  13.997 -0.7254  0.9767 -0.8975
18291TIP3    H276289   5.734   1.409  13.903 -0.4764  2.0183  0.4281
18292TIP3   OH276290   4.253   0.593   2.166 -0.3806  0.7516  0.2385
18292TIP3    H176291   4.163   0.611   2.194 -0.3017 -0.8728  1.6412
18292TIP3    H276292   4.307   0.617   2.242  0.0877 -0.9848  0.4932
18293TIP3   OH276293   1.023   5.754  14.778  0.0492  0.0992  0.1601
18293TIP3    H176294   1.056   5.729  14.692  0.0174  3.4681 -0.9363
18293TIP3    H276295   0.929   5.743  14.772 -0.1138  1.7580 -0.8211
18294TIP3   OH276296   5.062   4.578   1.144 -0.1947  0.5202  0.0237
18294TIP3    H176297   5.135   4.524   1.114 -1.1980 -0.4448 -0.7414
18294TIP3    H276298   4.984   4.525   1.126 -1.1893  2.1454 -0.5946
18295TIP3   OH276299   5.807   1.475  12.939  0.0114 -0.2148  0.6770
18295TIP3    H176300   5.725   1.519  12.917  0.7610  0.8458 -0.0643
18295TIP3    H276301   5.815   1.485  13.034 -1.9727 -2.5709  1.1221
18296TIP3   OH276302   3.810   3.885   4.438  0.1132 -0.4280 -0.3218
18296TIP3    H176303   3.741   3.951   4.448  0.8057  0.1808  0.5518
18296TIP3    H276304   3.766   3.801   4.452 -0.3332 -0.0056  0.8830
18297TIP3   OH276305   6.079   4.774   4.254 -0.2785  0.3495  0.1905
18297TIP3    H176306   6.003   4.819   4.217 -0.4155 -0.6628 -0.7802
18297TIP3    H276307   6.070   4.786   4.349 -1.8046 -0.0227  0.1028
18298TIP3   OH276308   5.888   5.095   4.134 -0.3218 -0.1682  0.1535
18298TIP3    H176309   5.970   5.105   4.183 -0.9204 -3.0159  1.8490
18298TIP3    H276310   5.853   5.184   4.129  0.6745  0.4971  3.3916
18299TIP3   OH276311   3.972   2.077   1.441  0.3248  0.1028 -0.2488
18299TIP3    H176312   3.903   2.109   1.498 -0.5216 -0.8472 -0.7277
18299TIP3    H276313   4.020   2.013   1.493 -0.3978 -0.7052 -0.5689
18300TIP3   OH276314   5.761   3.469   1.808 -0.2655  0.1324 -0.2419
18300TIP3    H176315   5.696   3.511   1.751 -1.1367 -0.4084  0.3523
18300TIP3    H276316   5.840   3.465   1.754 -0.5315  1.3862 -0.7434
18301TIP3   OH276317   1.321   3.427   0.855  0.5355  0.0046 -0.1126
18301TIP3    H176318   1.307   3.340   0.892 -1.4400  0.0821 -0.6255
18301TIP3    H276319   1.302   3.487   0.927  1.6729  0.0448  0.1738
18302TIP3   OH276320   6.238   5.646   3.618 -0.0345  0.4751 -0.2191
18302TIP3    H176321   6.289   5.574   3.656  0.7161  0.9473 -0.3042
18302TIP3    H276322   6.246   5.717   3.682 -1.5685  0.1826  0.3208
18303TIP3   OH276323   0.484   3.552   3.169 -0.0087 -0.3945 -0.3548
18303TIP3    H176324   0.513   3.641   3.191 -1.8913  0.1112  0.2155
18303TIP3    H276325   0.520   3.497   3.238 -1.4238  0.4116  1.0719
18304TIP3   OH276326   0.559   4.117  17.217  0.1789  0.0304 -0.5789
18304TIP3    H176327   0.651   4.114  17.245  0.2929 -0.4649 -1.0045
18304TIP3    H276328   0.542   4.031  17.181 -0.0828  0.5398 -1.6881
18305TIP3   OH276329   0.789   2.742   5.061 -0.0940 -0.3848  0.1414
18305TIP3    H176330   0.697   2.757   5.083  0.4402 -0.5408  2.5169
18305TIP3    H276331   0.838   2.795   5.123  1.4341  0.3698 -1.6543
18306TIP3   OH276332   0.482   5.922   4.095  0.8565  0.2792 -0.1315
18306TIP3    H176333   0.395   5.891   4.068  0.2034  2.2269 -0.3678
18306TIP3    H276334   0.528   5.843   4.122 -0.9612 -0.8057 -0.0932
18307TIP3   OH276335   3.856   1.853  15.197 -0.6451  0.2415 -0.1966
18307TIP3    H176336   3.828   1.764  15.222 -1.2170  0.3030 -0.6031
18307TIP3    H276337   3.831   1.860  15.105  0.6951  0.3183 -0.5550
18308TIP3   OH276338   3.505   1.218  11.746 -0.2834  0.5442  0.2992
18308TIP3    H176339   3.449   1.205  11.823 -0.5652  2.1528  0.3830
18308TIP3    H276340   3.485   1.144  11.689 -0.6012 -0.2826  1.4591
18309TIP3   OH276341   6.474   5.735   4.065 -0.2201 -0.3035  0.2496
18309TIP3    H176342   6.402   5.774   4.116  0.1213 -0.5503  0.9262
18309TIP3    H276343   6.552   5.780   4.095 -0.1604  0.4376 -0.9731
18310TIP3   OH276344   2.860   3.454   3.238  0.1146 -0.2824  0.5250
18310TIP3    H176345   2.852   3.379   3.297 -0.7684  1.0535  2.1755
18310TIP3    H276346   2.928   3.429   3.176  3.6407 -0.4284  4.2259
18311TIP3   OH276347   0.995   0.803  16.496  0.1565 -0.2894 -0.1206
18311TIP3    H176348   0.975   0.711  16.510 -0.1510 -0.4165 -1.3281
18311TIP3    H276349   1.083   0.803  16.458  0.2150 -0.0700  0.0119
18312TIP3   OH276350   1.637   3.478   2.180 -0.7111  0.3617 -0.0811
18312TIP3    H176351   1.564   3.420   2.202  0.0627 -0.4646  0.3469
18312TIP3    H276352   1.657   3.523   2.262  0.8538 -1.2284  0.4387
18313TIP3   OH276353   6.136   2.575  11.036  0.2129  0.6308 -0.5705
18313TIP3    H176354   6.077   2.507  11.005 -0.8235  1.7008 -1.0018
18313TIP3    H276355   6.221   2.553  10.997  0.0390 -0.7314 -0.2126
18314TIP3   OH276356   0.958   3.707   2.263  0.0326 -0.4675 -0.0214
18314TIP3    H176357   0.964   3.677   2.173  0.7472 -1.1409  0.2469
18314TIP3    H276358   0.872   3.677   2.294 -0.2591 -0.1357 -0.5090
18315TIP3   OH276359   2.060   2.242  16.802  0.2825 -0.5215  0.2548
18315TIP3    H176360   1.997   2.219  16.734 -0.2171  0.6482  0.3006
18315TIP3    H276361   2.040   2.334  16.823  1.3860 -0.4249  0.9401
18316TIP3   OH276362   0.918   0.807   2.655 -0.4222  0.2405  0.0468
18316TIP3    H176363   0.937   0.898   2.629  0.2098  0.3808  0.9423
18316TIP3    H276364   0.899   0.762   2.573  0.1241  0.9878 -0.5057
18317TIP3   OH276365   4.982   3.923  14.513 -0.9492  0.3293  0.3065
18317TIP3    H176366   5.033   3.983  14.568 -0.3681 -0.2960  0.4540
18317TIP3    H276367   4.997   3.953  14.424  0.9996 -0.8315  0.2129
18318TIP3   OH276368   2.396   3.424   0.759 -0.2800  0.2562 -0.3614
18318TIP3    H176369   2.367   3.406   0.670 -0.7165  1.2041 -0.4186
18318TIP3    H276370   2.492   3.420   0.754 -0.3595 -1.8764 -0.3897
18319TIP3   OH276371   1.501   0.983   6.109 -0.4827  0.1025  0.2014
18319TIP3    H176372   1.597   0.981   6.113 -0.4686 -2.1394 -0.5153
18319TIP3    H276373   1.472   0.914   6.168 -1.6987  1.2524  0.9774
18320TIP3   OH276374   0.075   2.918   2.549 -0.3854  0.3574  0.5825
18320TIP3    H176375  -0.009   2.896   2.590  0.2752 -1.6805  0.9176
18320TIP3    H276376   0.116   2.833   2.531  0.3532  1.2405 -2.2469
18321TIP3   OH276377   2.550   3.172  12.884 -0.0305 -0.4693  0.0043
18321TIP3    H176378   2.546   3.258  12.926 -1.2015  0.6690 -2.3221
18321TIP3    H276379   2.569   3.191  12.792  1.4245 -2.8238 -0.2183
18322TIP3   OH276380   2.173   0.099  16.448  0.0486  0.4683 -0.5898
18322TIP3    H176381   2.109   0.044  16.493  0.8956 -0.8167 -0.9396
18322TIP3    H276382   2.234   0.126  16.516 -0.5919  1.3263 -0.3417
18323TIP3   OH276383   4.244   1.351  13.875  0.6806  0.2510  0.1100
18323TIP3    H176384   4.292   1.351  13.792  0.8636 -3.2573  0.1178
18323TIP3    H276385   4.161   1.307  13.853  0.5015 -0.1905  1.6532
18324TIP3   OH276386   6.263   4.848  16.699 -0.1601 -0.3939  0.2833
18324TIP3    H176387   6.314   4.770  16.721 -1.9396 -1.3029  1.2283
18324TIP3    H276388   6.308   4.919  16.746  0.7799 -1.0206  0.3566
18325TIP3   OH276389   6.018   2.461  16.521  0.2849  0.2496 -0.2804
18325TIP3    H176390   6.102   2.433  16.556  0.6291 -0.2415 -1.4504
18325TIP3    H276391   5.957   2.455  16.594  1.1560  0.0820  0.4355
18326TIP3   OH276392   1.445   4.939  14.498  1.2784  0.8783 -0.2080
18326TIP3    H176393   1.442   4.932  14.402 -0.3430 -2.8845  0.0394
18326TIP3    H276394   1.377   5.003  14.519  0.1789  0.1504 -1.4649
18327TIP3   OH276395   6.176   3.654   2.270 -0.0957  0.4604  0.2556
18327TIP3    H176396   6.089   3.679   2.238  0.3708  2.1097  0.2098
18327TIP3    H276397   6.237   3.709   2.220  1.0441 -1.2500 -0.2936
18328TIP3   OH276398   4.063   6.287  12.722  0.0604 -0.0833  0.1929
18328TIP3    H176399   4.077   6.317  12.633  2.5815 -2.4618 -0.3003
18328TIP3    H276400   4.042   6.366  12.772  0.0216  1.4595 -2.2170
18329TIP3   OH276401   4.117   0.990   4.591 -0.0454 -0.1060  0.4696
18329TIP3    H176402   4.187   1.055   4.583 -1.3736  1.1954 -0.7370
18329TIP3    H276403   4.163   0.906   4.587  1.4409  0.7175 -0.4792
18330TIP3   OH276404   0.625   0.815  16.598  0.1713 -0.3650  0.1505
18330TIP3    H176405   0.663   0.902  16.589  0.1157 -0.4417 -0.8615
18330TIP3    H276406   0.641   0.773  16.514 -1.0402 -0.8346  0.1443
18331TIP3   OH276407   6.525   3.707  14.154  0.2020  0.4980 -0.0794
18331TIP3    H176408   6.457   3.660  14.201 -1.2094  1.3626 -1.1775
18331TIP3    H276409   6.511   3.684  14.062  1.9326  0.0291 -0.2419
18332TIP3   OH276410   2.183   6.077  16.346 -0.2598  0.8696  0.5460
18332TIP3    H176411   2.111   6.035  16.394  0.0316 -0.4354 -0.1233
18332TIP3    H276412   2.208   6.012  16.280 -1.0560  2.8476 -1.7796
18333TIP3   OH276413   0.650   3.453  12.487 -0.4785  0.2948  0.1073
18333TIP3    H176414   0.589   3.468  12.415 -1.8668 -1.4636  0.8485
18333TIP3    H276415   0.656   3.538  12.532 -0.9549  0.9489 -1.0476
18334TIP3   OH276416   4.025   1.278  17.063  0.2804 -0.3031 -0.0367
18334TIP3    H176417   4.101   1.328  17.033  0.3858 -0.7494 -0.5086
18334TIP3    H276418   3.996   1.230  16.986  0.1620 -0.9469  0.4124
18335TIP3   OH276419   5.660   5.947  13.226  0.7637 -0.3655 -0.2541
18335TIP3    H176420   5.625   5.858  13.223 -0.2014 -0.0007  0.0409
18335TIP3    H276421   5.586   6.003  13.202  1.3047  0.3753 -0.2147
18336TIP3   OH276422   0.275   0.872   2.617 -0.3414  0.0000 -0.2943
18336TIP3    H176423   0.247   0.781   2.626 -0.5982 -0.0882 -1.8556
18336TIP3    H276424   0.195   0.923   2.628 -0.2754  0.0223  0.1083
18337TIP3   OH276425   6.573   3.804   3.505 -0.2482 -0.3042  0.4331
18337TIP3    H176426   6.536   3.890   3.526 -1.0434 -0.9880  1.8666
18337TIP3    H276427   6.662   3.823   3.475 -0.6893  1.0845 -0.0648
18338TIP3   OH276428   4.638   4.821  13.004 -0.6087  0.0151  0.3998
18338TIP3    H176429   4.549   4.829  13.039 -1.1238  0.4300 -0.9677
18338TIP3    H276430   4.690   4.883  13.055 -1.6220  1.5720 -0.4378
18339TIP3   OH276431   3.324   3.018  14.768  0.0443 -0.2586  0.0128
18339TIP3    H176432   3.400   2.976  14.807  0.6051  0.3413 -0.4286
18339TIP3    H276433   3.259   2.947  14.759 -0.1087 -0.3957  2.0457
18340TIP3   OH276434   6.130   4.828  12.742  0.3045  0.0992  0.4947
18340TIP3    H176435   6.041   4.792  12.746  0.1981  0.2689 -0.2144
18340TIP3    H276436   6.117   4.922  12.732  0.5749  0.2030  1.1229
18341TIP3   OH276437   5.637   1.906   5.758 -0.3217 -0.0173 -0.1259
18341TIP3    H176438   5.663   1.954   5.836  0.6052 -2.1357  0.9120
18341TIP3    H276439   5.541   1.913   5.756 -0.3509  0.0615  1.1948
18342TIP3   OH276440   3.312   5.679   0.353 -0.1537 -0.7769 -0.4785
18342TIP3    H176441   3.312   5.652   0.445 -1.3796 -1.8793 -0.7777
18342TIP3    H276442   3.405   5.682   0.329  0.1777 -0.4792  0.7908
18343TIP3   OH276443   2.592   3.876   5.808  0.1907 -0.1350  0.4331
18343TIP3    H176444   2.686   3.892   5.796  0.1363  0.3627  0.6303
18343TIP3    H276445   2.587   3.803   5.869  0.4584 -0.8541 -0.4066
18344TIP3   OH276446   6.261   1.034   2.931 -0.0810  0.2974  0.1903
18344TIP3    H176447   6.308   0.989   2.861  0.7829  2.2026 -0.4930
18344TIP3    H276448   6.327   1.046   3.000 -1.2417 -2.7227  1.9449
18345TIP3   OH276449   4.002   2.919  16.433  0.1330 -0.0360 -0.3680
18345TIP3    H176450   3.917   2.935  16.474 -0.3933 -0.2729 -1.3509
18345TIP3    H276451   3.981   2.872  16.353  1.3031 -1.2847  0.0473
18346TIP3   OH276452   3.681   2.347  16.810  0.3195  0.1797 -0.3793
18346TIP3    H176453   3.606   2.377  16.861  0.9077  0.7184  0.1835
18346TIP3    H276454   3.689   2.254  16.832 -0.7342 -0.1045 -1.1559
18347TIP3   OH276455   6.296   6.676  12.667 -0.8147 -0.1564  0.3483
18347TIP3    H176456   6.249   6.688  12.585  0.6365  0.0833 -0.4747
18347TIP3    H276457   6.270   6.589  12.697 -2.1466  0.1720  0.1705
18348TIP3   OH276458   0.172   3.066   4.284  0.4090 -0.1984 -0.2999
18348TIP3    H176459   0.171   3.062   4.188  0.4600 -1.1817 -0.2716
18348TIP3    H276460   0.131   3.150   4.306  2.0586  0.8653 -1.2252
18349TIP3   OH276461   3.690   4.845  16.756  0.0407 -0.1874  0.3135
18349TIP3    H176462   3.736   4.926  16.776  1.2137 -0.6370 -0.5200
18349TIP3    H276463   3.601   4.859  16.788  0.5293  1.0137  1.1556
18350TIP3   OH276464   1.520   0.373   3.473 -0.3208 -0.2058  0.3297
18350TIP3    H176465   1.521   0.280   3.495 -0.8104 -1.0302 -2.9476
18350TIP3    H276466   1.440   0.385   3.421  0.4953  1.7407 -0.5268
18351TIP3   OH276467   6.024   6.739   0.399  0.2550  0.3679  0.2011
18351TIP3    H176468   6.079   6.805   0.358  0.3338  0.9157  1.1645
18351TIP3    H276469   6.069   6.717   0.481 -1.6348  1.8694  1.6899
18352TIP3   OH276470   4.315   0.771  17.135 -0.3577 -0.3586  0.2002
18352TIP3    H176471   4.405   0.769  17.168  0.5102  0.6562 -2.0142
18352TIP3    H276472   4.279   0.854  17.168  0.1624  0.1584 -0.5199
18353TIP3   OH276473   1.063   6.659   5.150 -0.2647  0.9435 -0.3205
18353TIP3    H176474   1.074   6.737   5.096  0.7511  1.0549  0.0202
18353TIP3    H276475   1.144   6.609   5.136 -0.4018  0.5258  0.3570
18354TIP3   OH276476   2.126   2.790   5.218  0.2681  0.2290  0.8017
18354TIP3    H176477   2.115   2.848   5.143  1.4599 -0.9543 -0.3078
18354TIP3    H276478   2.202   2.826   5.265  1.0508 -0.4530  0.0754
18355TIP3   OH276479   4.719   1.396  13.725  0.2729  0.3034  0.2728
18355TIP3    H176480   4.803   1.366  13.760 -0.1721 -1.9138 -0.4343
18355TIP3    H276481   4.720   1.367  13.633 -1.4214 -0.0956  0.3661
18356TIP3   OH276482   5.683   5.369  13.096 -0.6703 -0.2399 -0.1846
18356TIP3    H176483   5.614   5.303  13.089 -0.2409 -0.7351  0.2092
18356TIP3    H276484   5.704   5.371  13.189  1.4054 -1.6959 -0.5810
18357TIP3   OH276485   2.621   0.133  13.655 -0.1879  0.0305  0.5947
18357TIP3    H176486   2.594   0.139  13.563 -1.5723  1.0348  1.0459
18357TIP3    H276487   2.709   0.170  13.657  0.6374 -1.7531 -0.6365
18358TIP3   OH276488   6.351   0.228   5.598  0.1076 -0.8909  0.0955
18358TIP3    H176489   6.318   0.229   5.508  1.5214 -1.3007 -0.4468
18358TIP3    H276490   6.288   0.174   5.646 -0.3974 -1.0714 -0.7623
18359TIP3   OH276491   4.590   2.971   0.639 -0.1285 -0.2878  0.2704
18359TIP3    H176492   4.601   2.887   0.685  1.2715  0.0626  0.6173
18359TIP3    H276493   4.678   3.009   0.639 -0.9670  1.6995  1.1025
18360TIP3   OH276494   3.804   6.208  16.135 -0.2646 -0.1880  0.1629
18360TIP3    H176495   3.773   6.151  16.065 -0.9450  0.7584 -0.3201
18360TIP3    H276496   3.724   6.248  16.171  0.2433  0.9432  0.0693
18361TIP3   OH276497   1.230   3.875   0.608  0.1572 -0.7254  0.6604
18361TIP3    H176498   1.265   3.964   0.617 -0.8991 -0.3760  1.3410
18361TIP3    H276499   1.211   3.848   0.698 -1.0730 -1.0043  0.3257
18362TIP3   OH276500   3.215   1.570  11.545  0.1153  0.7912 -0.1758
18362TIP3    H176501   3.281   1.633  11.517  0.1026  0.6943 -0.4253
18362TIP3    H276502   3.151   1.622  11.594  0.1119  0.9691 -0.3671
18363TIP3   OH276503   1.294   3.671  13.490  0.0017  0.1629  0.4970
18363TIP3    H176504   1.231   3.608  13.525 -2.8046  2.3277 -0.3587
18363TIP3    H276505   1.316   3.637  13.403 -0.5660 -0.2699  0.5161
18364TIP3   OH276506   3.734   5.774   6.569  0.0244  0.0828 -0.0418
18364TIP3    H176507   3.734   5.869   6.558  0.5295  0.0619 -0.2512
18364TIP3    H276508   3.794   5.742   6.501 -0.0136 -0.3694  0.1359
18365TIP3   OH276509   6.368   0.855   2.607 -0.0504  1.0245 -0.7314
18365TIP3    H176510   6.353   0.774   2.654  0.5060  0.8964 -0.7739
18365TIP3    H276511   6.280   0.883   2.578 -0.1446  0.0144 -1.4297
18366TIP3   OH276512   6.367   0.345   1.664 -0.0669  0.2076  0.4898
18366TIP3    H176513   6.392   0.388   1.746  1.3253  1.1236 -0.3914
18366TIP3    H276514   6.326   0.414   1.612  0.6033  0.0584 -0.2499
18367TIP3   OH276515   0.608   1.428  14.682 -0.5808  0.2186 -0.2714
18367TIP3    H176516   0.644   1.354  14.633  0.7622  1.4758 -1.2261
18367TIP3    H276517   0.672   1.445  14.751 -1.1802  0.1382  0.3199
18368TIP3   OH276518   0.718   2.643  10.720  0.1925 -0.4863 -0.2295
18368TIP3    H176519   0.776   2.714  10.691 -0.2782 -0.8223 -2.0202
18368TIP3    H276520   0.652   2.636  10.651 -0.3009 -2.0666  0.3814
18369TIP3   OH276521   3.314   5.127  16.277  0.1183  0.1013  0.0870
18369TIP3    H176522   3.372   5.181  16.222  0.7652 -1.6094 -0.9591
18369TIP3    H276523   3.243   5.186  16.302  1.7188  1.9219  0.4324
18370TIP3   OH276524   0.816   2.913   4.826  0.0006 -0.2781  0.2421
18370TIP3    H176525   0.823   2.839   4.885  1.5087 -0.9469 -0.7398
18370TIP3    H276526   0.779   2.877   4.745  1.3967 -0.1359 -0.4829
18371TIP3   OH276527   1.818   0.200  13.869 -0.0276 -0.1899 -0.0690
18371TIP3    H176528   1.785   0.288  13.890 -0.9013 -0.2392 -1.1635
18371TIP3    H276529   1.751   0.141  13.905  0.5101 -0.4098  0.5781
18372TIP3   OH276530   5.504   5.295   4.407  0.6781  0.2713 -0.6174
18372TIP3    H176531   5.418   5.259   4.428  0.7456  1.0192  0.9618
18372TIP3    H276532   5.565   5.223   4.423  0.4782  0.0979 -0.6351
18373TIP3   OH276533   1.640   3.485  13.415  0.0814 -0.2580  0.1220
18373TIP3    H176534   1.714   3.470  13.356 -0.2658 -0.1091 -0.3473
18373TIP3    H276535   1.598   3.564  13.381 -1.4023 -1.3955 -0.7142
18374TIP3   OH276536   5.039   4.923  12.512  0.3814 -0.0851 -0.0670
18374TIP3    H176537   5.086   4.840  12.514 -1.0397 -0.8993  0.8327
18374TIP3    H276538   4.949   4.899  12.487  0.2032  1.3056 -0.8007
18375TIP3   OH276539   0.197   4.522  12.988  0.0723  0.0009 -0.4708
18375TIP3    H176540   0.222   4.495  12.899 -0.8070 -0.1841 -0.6718
18375TIP3    H276541   0.128   4.461  13.013 -2.0480  2.1049 -0.9933
18376TIP3   OH276542   2.693   3.373   1.910  0.1352  0.2808  0.1031
18376TIP3    H176543   2.657   3.303   1.965  0.1496  0.5704  0.4835
18376TIP3    H276544   2.618   3.429   1.889  0.1448  0.2168 -0.1098
18377TIP3   OH276545   4.905   1.726  15.883  0.0992  0.1403  0.3185
18377TIP3    H176546   4.937   1.653  15.831 -1.4721 -0.0415 -0.3947
18377TIP3    H276547   4.840   1.769  15.828  0.2794  1.4899  1.1235
18378TIP3   OH276548   2.765   2.519   4.702 -0.5787 -0.1925 -1.0419
18378TIP3    H176549   2.791   2.611   4.699 -1.1280 -0.0555 -1.5806
18378TIP3    H276550   2.729   2.501   4.615 -1.8954 -0.4939 -0.4409
18379TIP3   OH276551   1.113   0.221  14.493  0.7117 -0.6838 -0.1026
18379TIP3    H176552   1.041   0.182  14.543  0.9562  0.3891  1.1033
18379TIP3    H276553   1.136   0.300  14.542  0.8957  0.4386 -1.9821
18380TIP3   OH276554   0.472   6.232   5.247  0.2812  0.8142  0.0820
18380TIP3    H176555   0.514   6.313   5.216 -1.1913  1.6148  0.1065
18380TIP3    H276556   0.456   6.181   5.168  2.4226 -0.0656  0.1945
18381TIP3   OH276557   1.551   5.347   0.760 -0.0703 -0.2374  0.4739
18381TIP3    H176558   1.631   5.338   0.708  0.5134  1.2607  1.0810
18381TIP3    H276559   1.481   5.320   0.701  0.7448 -0.2123 -0.5239
18382TIP3   OH276560   4.809   1.835  11.708  0.4722  0.3284  0.7381
18382TIP3    H176561   4.777   1.747  11.685 -2.9622  1.4472  0.8940
18382TIP3    H276562   4.808   1.836  11.804 -0.9300  0.9920  0.7279
18383TIP3   OH276563   2.956   5.840   2.999 -0.0593  0.1870 -0.2610
18383TIP3    H176564   2.953   5.761   3.054  2.2938  0.8559  0.9071
18383TIP3    H276565   2.909   5.906   3.050  0.6221  0.3423  0.1760
18384TIP3   OH276566   5.059   2.811  14.903  0.3170  0.1441  1.0613
18384TIP3    H176567   5.074   2.897  14.864  1.2249 -1.4368 -2.3479
18384TIP3    H276568   4.994   2.825  14.971 -2.8084  2.8475 -2.3214
18385TIP3   OH276569   2.646   5.845  15.095  0.6845 -0.0986  0.1149
18385TIP3    H176570   2.727   5.800  15.119  1.1254  0.6489  0.0110
18385TIP3    H276571   2.672   5.911  15.031 -0.1198 -0.3603 -0.4872
18386TIP3   OH276572   5.837   5.743  12.433  0.1548 -0.1644 -0.1413
18386TIP3    H176573   5.869   5.669  12.382 -0.4944  0.0364 -0.8589
18386TIP3    H276574   5.746   5.721  12.452  0.2004  0.0721  0.3570
18387TIP3   OH276575   0.977   0.907   3.635  0.1532  0.1995  0.6043
18387TIP3    H176576   0.976   0.906   3.731 -1.9544  1.3241  0.6379
18387TIP3    H276577   0.939   0.992   3.612  1.3204  0.2467 -1.2410
18388TIP3   OH276578   0.347   3.708   0.249  0.2248  0.1875 -0.3141
18388TIP3    H176579   0.413   3.755   0.199  0.9773  0.4965  0.9512
18388TIP3    H276580   0.290   3.776   0.284 -0.3187 -0.0304 -0.7550
18389TIP3   OH276581   0.452   2.329  12.603  0.7625  0.0422 -0.1146
18389TIP3    H176582   0.518   2.276  12.557  0.3514 -0.8682  0.3429
18389TIP3    H276583   0.491   2.346  12.688  0.3197 -0.6941  0.2427
18390TIP3   OH276584   2.114   5.466   0.383 -0.1257 -0.2083  0.1328
18390TIP3    H176585   2.047   5.533   0.368 -0.3302 -0.6185 -0.8794
18390TIP3    H276586   2.102   5.405   0.310  0.0969 -1.3069  1.0036
18391TIP3   OH276587   4.961   2.226   0.320  0.3735 -0.5443 -0.2498
18391TIP3    H176588   4.928   2.147   0.277 -1.1659  0.0782 -0.2389
18391TIP3    H276589   4.893   2.248   0.384  1.1186  0.4110  0.2179
18392TIP3   OH276590   1.795   6.342  11.682 -0.0654  0.1432  0.4997
18392TIP3    H176591   1.761   6.419  11.727 -2.0014  0.1540 -0.9389
18392TIP3    H276592   1.738   6.270  11.711  1.1873 -0.5996  1.1676
18393TIP3   OH276593   2.466   1.298   1.829 -0.2513 -0.0190  0.4865
18393TIP3    H176594   2.479   1.392   1.835 -1.3552  0.1874 -0.1019
18393TIP3    H276595   2.471   1.279   1.735  1.0618 -0.7229  0.6860
18394TIP3   OH276596   1.973   1.670  11.924 -0.2070  0.7078 -0.4295
18394TIP3    H176597   1.896   1.723  11.944 -0.2552  0.8627 -1.0170
18394TIP3    H276598   1.938   1.583  11.902 -0.0289 -0.1022  2.2463
18395TIP3   OH276599   2.857   0.357  16.625 -0.2837  0.2542 -0.3704
18395TIP3    H176600   2.938   0.398  16.593 -0.8851  1.3930 -0.4731
18395TIP3    H276601   2.834   0.293  16.558  0.3895  0.1224 -0.4792
18396TIP3   OH276602   5.462   5.815   0.704  0.2210  0.7230  0.4588
18396TIP3    H176603   5.487   5.886   0.645 -0.0368  1.6280  1.4306
18396TIP3    H276604   5.419   5.751   0.647  0.9954  1.0634 -0.5226
18397TIP3   OH276605   6.672   0.913  13.758  0.7063  0.1977 -0.2318
18397TIP3    H176606   6.679   0.946  13.668 -0.2172  1.8045  0.2531
18397TIP3    H276607   6.750   0.947  13.802 -0.6756  2.5854  0.4931
18398TIP3   OH276608   1.819   1.466  16.732  0.0611 -0.2442  0.5848
18398TIP3    H176609   1.837   1.552  16.769 -0.7434  0.1811  0.0119
18398TIP3    H276610   1.837   1.477  16.638 -0.5982 -0.5344  0.4244
18399TIP3   OH276611   3.695   6.010  13.752 -1.0189 -0.0168  0.4467
18399TIP3    H176612   3.770   6.069  13.744  0.1487 -1.4653  0.5144
18399TIP3    H276613   3.730   5.923  13.733 -2.5459 -0.8130  1.1503
18400TIP3   OH276614   0.294   5.311  17.090  0.5092  0.4971  0.5022
18400TIP3    H176615   0.290   5.297  16.995  1.8659  0.0492  0.4995
18400TIP3    H276616   0.254   5.397  17.103 -2.5111 -0.7393 -0.1313
18401TIP3   OH276617   3.373   3.426   3.054 -0.4030  0.3950 -0.0522
18401TIP3    H176618   3.391   3.431   3.148  1.4062  1.6602 -0.4350
18401TIP3    H276619   3.308   3.494   3.038  0.2240  1.0217  0.0715
18402TIP3   OH276620   5.530   1.038  14.642  0.3295 -0.2425 -0.2571
18402TIP3    H176621   5.591   0.996  14.703  0.0730 -0.2215  0.0138
18402TIP3    H276622   5.547   1.132  14.652  1.0026 -0.2767 -0.9673
18403TIP3   OH276623   2.099   4.641   2.953  0.0684  0.5346 -0.3506
18403TIP3    H176624   2.109   4.576   2.883 -1.2809 -0.4476  0.3380
18403TIP3    H276625   2.055   4.593   3.023  0.9696  1.6407  0.9893
18404TIP3   OH276626   5.465   1.409  11.442 -0.2611  0.3254  0.1890
18404TIP3    H176627   5.491   1.480  11.383  1.8578  0.3078  1.0620
18404TIP3    H276628   5.506   1.431  11.526  0.6129 -2.0020  0.4302
18405TIP3   OH276629   3.084   2.921   3.727 -0.7111 -0.3192  0.0752
18405TIP3    H176630   3.059   2.956   3.812 -2.1876 -0.4092 -0.2923
18405TIP3    H276631   3.050   2.831   3.727  2.1908 -1.4563  0.6431
18406TIP3   OH276632   1.911   4.161  13.495  0.1294  0.2423 -0.6774
18406TIP3    H176633   1.955   4.114  13.424  1.8600  1.3946 -0.3917
18406TIP3    H276634   1.947   4.123  13.575  0.9763  1.5226 -0.4420
18407TIP3   OH276635   0.028   6.502   3.316 -0.4346 -0.0830  0.2209
18407TIP3    H176636   0.119   6.508   3.284  0.3863 -1.2205  2.2572
18407TIP3    H276637   0.017   6.578   3.373 -0.0412 -1.0679  1.6489
18408TIP3   OH276638   5.756   5.290   2.291 -0.3732  0.2829 -0.4067
18408TIP3    H176639   5.744   5.249   2.377 -2.0841  3.1716  0.8053
18408TIP3    H276640   5.848   5.315   2.289  0.0135 -1.0815 -0.0184
18409TIP3   OH276641   2.434   2.167  12.441  0.7874  0.1920 -0.3252
18409TIP3    H176642   2.342   2.141  12.448  0.5698  0.2863 -2.6062
18409TIP3    H276643   2.441   2.244  12.497 -0.7139  0.6378 -0.7238
18410TIP3   OH276644   3.789   4.982   1.703 -0.2463 -0.1708  0.4744
18410TIP3    H176645   3.750   5.068   1.721 -1.6424 -1.0913  2.0086
18410TIP3    H276646   3.717   4.930   1.667  0.4242 -0.9007  0.1701
18411TIP3   OH276647   1.661   1.285  12.226  0.3098  0.0134  0.3236
18411TIP3    H176648   1.602   1.320  12.160  2.1605 -0.9185 -1.8995
18411TIP3    H276649   1.622   1.310  12.310 -1.2314  2.6237 -1.1309
18412TIP3   OH276650   1.508   0.410  13.864 -0.2205 -0.1301 -0.3561
18412TIP3    H176651   1.432   0.459  13.895 -0.8458 -0.7514 -0.8782
18412TIP3    H276652   1.536   0.359  13.940  1.7955  2.6622  0.8472
18413TIP3   OH276653   4.851   0.475  16.799 -0.2403  0.4064  0.0448
18413TIP3    H176654   4.896   0.558  16.817 -0.6030  0.9185 -1.4142
18413TIP3    H276655   4.761   0.500  16.778 -0.3264 -0.3460 -0.4880
18414TIP3   OH276656   1.680   3.166  12.780 -0.0371  0.1195  0.7135
18414TIP3    H176657   1.590   3.156  12.750 -0.1815 -1.7497  1.6723
18414TIP3    H276658   1.702   3.080  12.817  2.4680  0.2263 -0.4237
18415TIP3   OH276659   3.984   2.757   3.950  0.0607 -0.1341 -0.5924
18415TIP3    H176660   3.978   2.663   3.967 -0.7979  0.0649  0.2174
18415TIP3    H276661   3.894   2.786   3.939  0.2836  0.6914 -0.3081
18416TIP3   OH276662   4.564   3.113  16.266  0.2841 -0.3256  0.0440
18416TIP3    H176663   4.659   3.121  16.259  0.2983 -0.2965  0.2610
18416TIP3    H276664   4.531   3.159  16.189  0.4713 -1.0952 -0.5014
18417TIP3   OH276665   4.381   0.212   3.562 -0.0537 -0.1025 -0.4744
18417TIP3    H176666   4.355   0.234   3.652  0.9307  0.4439 -0.3177
18417TIP3    H276667   4.299   0.212   3.513 -0.2079  3.0159 -0.2901
18418TIP3   OH276668   1.752   2.074   0.058 -0.2392 -0.0879  0.1592
18418TIP3    H176669   1.807   2.024  -0.002 -1.2331  0.6902 -1.4510
18418TIP3    H276670   1.705   2.008   0.109 -1.3773 -0.8259 -1.7853
18419TIP3   OH276671   0.923   0.145  15.682  0.0272 -0.4748 -0.7798
18419TIP3    H176672   0.980   0.085  15.633 -0.8103 -1.4365 -0.5981
18419TIP3    H276673   0.976   0.224  15.693  1.9395 -1.9078  0.7667
18420TIP3   OH276674   2.998   1.526  14.104 -0.4424 -0.3550  0.3401
18420TIP3    H176675   2.907   1.520  14.133 -0.2605  0.5485  1.1250
18420TIP3    H276676   3.032   1.605  14.147  0.3839 -0.0539 -0.8542
18421TIP3   OH276677   6.178   4.247  16.680 -0.2775 -0.7327  0.1505
18421TIP3    H176678   6.147   4.186  16.612 -1.3824 -0.9363  0.8279
18421TIP3    H276679   6.207   4.191  16.752  0.7751 -0.5106 -0.0876
18422TIP3   OH276680   0.865   1.779   4.375  1.0273 -0.2496 -0.1488
18422TIP3    H176681   0.894   1.865   4.405  0.0974 -0.1459  0.4668
18422TIP3    H276682   0.825   1.796   4.290  2.8863 -0.4187 -1.0866
18423TIP3   OH276683   5.288   4.202  14.675  0.5555  0.1936  0.3093
18423TIP3    H176684   5.215   4.172  14.730  1.0247 -0.0725  0.7941
18423TIP3    H276685   5.366   4.185  14.728  1.0265 -0.2323 -0.5170
18424TIP3   OH276686   0.443   5.001  14.836 -0.0749  0.5698 -0.1478
18424TIP3    H176687   0.423   5.040  14.921  1.0743  1.0754 -0.0925
18424TIP3    H276688   0.520   4.945  14.853  0.2057  0.7305 -0.8642
18425TIP3   OH276689   3.326   5.483  10.799  0.4300  0.3820  0.1425
18425TIP3    H176690   3.410   5.440  10.814  0.0717 -0.5895 -0.6050
18425TIP3    H276691   3.262   5.412  10.802 -0.2991  1.0252  0.0323
18426TIP3   OH276692   6.643   5.942  11.911 -0.2794 -0.0540  0.3188
18426TIP3    H176693   6.561   5.941  11.961 -1.0887  0.9947 -0.9504
18426TIP3    H276694   6.656   6.034  11.888  2.2865  0.0787  2.1294
18427TIP3   OH276695   5.030   1.829   5.948 -0.4870 -0.1844 -0.8629
18427TIP3    H176696   5.092   1.757   5.957 -0.1529  0.3822  1.6779
18427TIP3    H276697   5.061   1.895   6.010 -0.7637  2.1879 -3.1546
18428TIP3   OH276698   1.926   0.088  11.856 -0.0433 -0.3123 -0.5092
18428TIP3    H176699   1.965   0.077  11.943  1.0490  0.0784 -0.9399
18428TIP3    H276700   1.958   0.013  11.805  0.7218  0.3763 -1.0622
18429TIP3   OH276701   6.039   1.352  12.875 -0.6398 -0.2934 -0.2000
18429TIP3    H176702   5.964   1.410  12.891 -0.2579 -0.0096  0.5748
18429TIP3    H276703   6.026   1.279  12.934  0.1002  0.1330  0.5007
18430TIP3   OH276704   4.128   0.262  17.055 -0.2036  0.1774  0.1210
18430TIP3    H176705   4.189   0.188  17.052  2.1458  1.9943  1.7089
18430TIP3    H276706   4.099   0.265  17.146 -0.1492  1.3020  0.1010
18431TIP3   OH276707   0.582   0.836  15.093  0.9652  0.2635  0.3812
18431TIP3    H176708   0.610   0.802  15.178 -0.1117  0.5287  0.8560
18431TIP3    H276709   0.656   0.889  15.063  1.5313 -0.1921  0.9384
18432TIP3   OH276710   5.149   2.883  15.610 -0.1629 -0.2677 -0.0657
18432TIP3    H176711   5.106   2.911  15.529  1.4029 -0.3311 -0.9330
18432TIP3    H276712   5.201   2.959  15.637 -0.7037 -0.2304  0.9106
18433TIP3   OH276713   3.067   0.412  12.712 -0.3148 -0.1742  0.2391
18433TIP3    H176714   3.001   0.415  12.781 -2.1060 -1.1424 -1.3856
18433TIP3    H276715   3.121   0.336  12.732 -1.0513 -0.6555  0.3731
18434TIP3   OH276716   5.309   5.033  13.069  0.4606 -0.7126  0.4086
18434TIP3    H176717   5.362   5.094  13.119 -1.3895 -0.1118  1.6704
18434TIP3    H276718   5.339   5.044  12.978  0.0194  2.2059  0.5877
18435TIP3   OH276719   0.767   4.166   1.006 -0.0206 -0.5708 -0.0860
18435TIP3    H176720   0.686   4.124   0.978 -0.0037 -1.3218  0.9414
18435TIP3    H276721   0.836   4.110   0.970  0.0081 -1.1620  0.8675
18436TIP3   OH276722   6.319   1.136   5.854  0.0259 -0.1841 -0.1687
18436TIP3    H176723   6.290   1.201   5.790  0.4827  0.4081  0.2104
18436TIP3    H276724   6.273   1.056   5.831 -0.4771  0.2576 -0.7009
18437TIP3   OH276725   6.001   3.825   3.008 -0.3316 -0.2853  0.4190
18437TIP3    H176726   5.969   3.913   2.991  0.9510  0.1840  0.3486
18437TIP3    H276727   6.057   3.805   2.932 -1.3804 -1.5307 -0.0313
18438TIP3   OH276728   6.284   0.197   2.075  0.1887 -0.6089 -0.3734
18438TIP3    H176729   6.192   0.221   2.066 -0.2983 -1.7209  1.4390
18438TIP3    H276730   6.297   0.129   2.008 -0.7438 -1.6193  0.4534
18439TIP3   OH276731   3.475   6.210   2.816 -0.2713 -0.2121 -0.0056
18439TIP3    H176732   3.524   6.213   2.898 -1.2477  0.8960  0.5620
18439TIP3    H276733   3.530   6.257   2.753 -0.6872  1.2497  0.6880
18440TIP3   OH276734   0.719   4.501   6.226  0.3364  0.2927 -0.3027
18440TIP3    H176735   0.758   4.480   6.141 -1.5075 -0.9133 -0.8806
18440TIP3    H276736   0.738   4.425   6.281  1.1031  0.8617  0.2328
18441TIP3   OH276737   1.041   3.654  13.676  0.1157 -0.8663  0.2032
18441TIP3    H176738   0.956   3.675  13.637  0.4738 -1.6710 -1.0500
18441TIP3    H276739   1.067   3.573  13.634  2.3001  0.2736 -0.7217
18442TIP3   OH276740   1.927   3.839  12.405 -0.2079  0.1489  0.4745
18442TIP3    H176741   1.882   3.755  12.416  1.7662 -0.8524  1.1708
18442TIP3    H276742   1.928   3.877  12.492 -0.6540  0.6691  0.2538
18443TIP3   OH276743   2.194   6.416   5.903  0.4031  0.5013 -0.4719
18443TIP3    H176744   2.122   6.444   5.960  0.6891  0.5989 -0.1563
18443TIP3    H276745   2.247   6.358   5.957  0.3860  0.1706 -0.8056
18444TIP3   OH276746   2.332   0.817   0.921 -0.5597 -0.2577  0.0648
18444TIP3    H176747   2.400   0.831   0.855 -0.4253  0.5150  0.3491
18444TIP3    H276748   2.255   0.861   0.886 -0.4335  0.3255  0.4959
18445TIP3   OH276749   4.286   5.595   2.486 -0.7193 -0.2086 -0.2534
18445TIP3    H176750   4.192   5.609   2.474 -1.2287 -2.9854  0.1676
18445TIP3    H276751   4.300   5.605   2.580 -0.2594  1.9134 -0.5273
18446TIP3   OH276752   4.768   2.686   0.433 -0.4948 -0.3694 -0.1721
18446TIP3    H176753   4.746   2.668   0.525 -0.7587  2.4113  0.3485
18446TIP3    H276754   4.839   2.625   0.413 -0.4185 -1.0002  1.8736
18447TIP3   OH276755   2.196   0.969  15.864 -0.4866  0.3149 -0.5374
18447TIP3    H176756   2.280   0.988  15.905 -0.1449 -1.5515 -0.3436
18447TIP3    H276757   2.133   1.023  15.913  0.0871 -0.8931  1.5951
18448TIP3   OH276758   3.698   3.436  13.494  0.3733 -1.1683 -0.1528
18448TIP3    H176759   3.725   3.394  13.576  0.7198 -2.5676 -0.9625
18448TIP3    H276760   3.607   3.410  13.483 -0.5314  1.2854  1.1688
18449TIP3   OH276761   6.487   0.719   2.034 -0.1465 -0.0391 -0.0962
18449TIP3    H176762   6.399   0.711   2.071 -0.1669 -0.6231 -0.2604
18449TIP3    H276763   6.487   0.804   1.989 -0.3418  0.3624  0.6533
18450TIP3   OH276764   4.910   6.781   0.597  0.1712  0.2553  0.0761
18450TIP3    H176765   4.878   6.779   0.507  1.9766  0.6989 -0.6145
18450TIP3    H276766   4.915   6.690   0.624 -2.0431  0.2061  0.3618
18451TIP3   OH276767   5.076   6.418  14.171 -0.4914  0.3204 -0.2433
18451TIP3    H176768   5.139   6.419  14.098  1.7961  1.3819  1.6627
18451TIP3    H276769   4.999   6.464  14.138  0.9126  1.6983 -1.6615
18452TIP3   OH276770   2.887   6.625  15.347 -0.2285 -0.1703 -0.0747
18452TIP3    H176771   2.980   6.624  15.325 -0.3041 -1.0070 -0.3436
18452TIP3    H276772   2.885   6.650  15.440  0.1885  1.2058 -0.4209
18453TIP3   OH276773   5.173   5.539  10.951  0.7003  0.4440 -0.1154
18453TIP3    H176774   5.159   5.608  10.887  2.0251  0.4599 -0.4001
18453TIP3    H276775   5.184   5.459  10.899 -1.4022 -0.1055  0.2269
18454TIP3   OH276776   3.625   3.815   4.094  0.1438 -0.2479 -0.0101
18454TIP3    H176777   3.664   3.900   4.074  0.5477 -0.2841  0.5991
18454TIP3    H276778   3.555   3.834   4.157 -0.3564 -0.2631 -0.5634
18455TIP3   OH276779   5.681   4.852  14.054 -0.3480  0.6883 -0.5044
18455TIP3    H176780   5.642   4.894  13.978 -0.3655 -1.5809 -1.8087
18455TIP3    H276781   5.757   4.906  14.076  0.4283  0.6288 -2.9743
18456TIP3   OH276782   4.918   0.896  11.642  0.0269 -0.3116 -0.1044
18456TIP3    H176783   4.988   0.950  11.680 -0.2470  0.3804 -0.5743
18456TIP3    H276784   4.936   0.897  11.548 -0.5590 -0.2164 -0.2142
18457TIP3   OH276785   4.533   5.266  13.178  0.2312 -0.1499  0.1912
18457TIP3    H176786   4.490   5.233  13.257  0.1209  0.2600  0.3046
18457TIP3    H276787   4.626   5.250  13.193  0.1556 -0.7203  0.0966
18458TIP3   OH276788   2.523   4.369   0.503  0.6298 -0.0694 -0.8403
18458TIP3    H176789   2.563   4.283   0.491  1.0686  0.0347 -0.1608
18458TIP3    H276790   2.451   4.353   0.565 -0.8927 -0.3983 -2.6439
18459TIP3   OH276791   3.115   6.010  13.184 -0.0811 -0.4165 -0.1936
18459TIP3    H176792   3.145   5.924  13.157 -0.8418 -0.6410 -0.3476
18459TIP3    H276793   3.123   6.064  13.105 -0.1591 -0.5006 -0.2601
18460TIP3   OH276794   2.107   6.463   5.058  0.4611 -0.0672 -0.8459
18460TIP3    H176795   2.160   6.408   5.001 -0.1810  1.0922 -2.5916
18460TIP3    H276796   2.146   6.550   5.052 -0.8772  0.5217 -1.1612
18461TIP3   OH276797   2.866   4.789  15.561 -0.1784 -0.1254 -0.5196
18461TIP3    H176798   2.811   4.718  15.593 -2.7057  0.0607 -4.1457
18461TIP3    H276799   2.818   4.869  15.582  0.2067  0.2268 -0.9474
18462TIP3   OH276800   3.412   3.416  11.633 -0.0164 -0.1316 -0.1917
18462TIP3    H176801   3.367   3.345  11.586 -0.7812  1.0423 -1.2562
18462TIP3    H276802   3.342   3.462  11.679  0.2945  0.7856 -0.6359
18463TIP3   OH276803   5.871   6.678   0.737  0.3695 -0.2189  0.3809
18463TIP3    H176804   5.922   6.752   0.770  1.9346 -0.4930 -1.3481
18463TIP3    H276805   5.787   6.686   0.782  0.3095  2.9103 -0.1284
18464TIP3   OH276806   3.825   3.100  15.303  0.5657 -0.1047 -0.5070
18464TIP3    H176807   3.862   3.076  15.218  0.1580  1.0618 -1.0207
18464TIP3    H276808   3.867   3.040  15.365  1.0579 -0.7920 -1.4924
18465TIP3   OH276809   4.086   4.090   3.151 -0.0764  0.3758 -0.7094
18465TIP3    H176810   4.158   4.097   3.088  0.3445 -0.3846 -0.3314
18465TIP3    H276811   4.067   4.180   3.177  2.7702  0.4363  1.4531
18466TIP3   OH276812   4.287   1.648  16.166 -0.0606 -0.7400  0.0928
18466TIP3    H176813   4.373   1.657  16.124  0.3955 -1.2727  0.9018
18466TIP3    H276814   4.306   1.612  16.253 -0.9914  0.4201  0.7937
18467TIP3   OH276815   6.273   5.287  12.752  0.1681 -0.2167  0.7393
18467TIP3    H176816   6.217   5.338  12.694  0.3921 -0.8280 -0.0416
18467TIP3    H276817   6.302   5.349  12.819  0.8555  0.8184 -0.4854
18468TIP3   OH276818   5.666   2.034  11.837  0.1370 -0.5290 -0.4252
18468TIP3    H176819   5.673   1.971  11.765 -0.5968 -1.1835  0.0658
18468TIP3    H276820   5.685   1.982  11.916 -3.1780 -0.7947  0.2643
18469TIP3   OH276821   5.632   1.729   6.080 -0.4960 -0.1133 -0.2598
18469TIP3    H176822   5.678   1.799   6.034  1.5556 -0.3027  1.4087
18469TIP3    H276823   5.623   1.659   6.015  0.8000  0.2734 -0.8773
18470TIP3   OH276824   5.284   6.709   1.688  0.3227 -0.1005 -0.1747
18470TIP3    H176825   5.369   6.719   1.730 -1.0956  0.1081  2.8216
18470TIP3    H276826   5.242   6.795   1.697 -0.5988 -0.4813 -0.7010
18471TIP3   OH276827   2.681   3.151  15.047  0.3394  0.3051  1.0481
18471TIP3    H176828   2.654   3.179  14.960 -0.2942 -0.9389  0.8235
18471TIP3    H276829   2.776   3.158  15.047  0.4557 -1.0621 -0.2508
18472TIP3   OH276830   0.325   3.115   2.110  0.0001 -0.6225  0.0217
18472TIP3    H176831   0.238   3.134   2.074 -1.3509 -2.5772  2.1043
18472TIP3    H276832   0.333   3.176   2.184  0.4978 -0.3101 -0.2878
18473TIP3   OH276833   4.772   0.517  15.690 -0.1790 -0.3655  0.1163
18473TIP3    H176834   4.677   0.500  15.685 -0.6417  2.4760 -2.5944
18473TIP3    H276835   4.810   0.451  15.632 -0.6552 -0.6675  0.1390
18474TIP3   OH276836   4.932   5.136  15.297 -0.3610 -0.2482  0.0751
18474TIP3    H176837   4.907   5.225  15.322 -2.9048 -1.2107  1.0819
18474TIP3    H276838   4.937   5.088  15.379  0.7750 -1.1163 -0.4819
18475TIP3   OH276839   4.006   5.918  13.741 -0.2194  0.8429  0.0237
18475TIP3    H176840   3.930   5.861  13.729 -0.3574  0.6380  1.7553
18475TIP3    H276841   4.079   5.857  13.752  0.0167  1.0286 -0.5173
18476TIP3   OH276842   6.337   3.927   3.019  0.6009  0.2120 -0.3431
18476TIP3    H176843   6.246   3.948   3.001  0.2912  0.3765  1.3773
18476TIP3    H276844   6.342   3.919   3.114  2.8686  2.5529 -0.2037
18477TIP3   OH276845   6.286   5.177   5.784 -0.4333 -0.2457  0.2048
18477TIP3    H176846   6.197   5.209   5.767 -0.5936 -0.6606  0.2594
18477TIP3    H276847   6.312   5.136   5.702  0.0578  0.6734 -0.1127
18478TIP3   OH276848   3.865   1.826   2.930  0.4099  0.6195 -0.0176
18478TIP3    H176849   3.895   1.811   3.019  1.7823 -0.9988 -0.7218
18478TIP3    H276850   3.770   1.812   2.934  0.5353  0.0298  1.0807
18479TIP3   OH276851   6.276   1.620   5.749  0.0717 -0.2252 -0.3396
18479TIP3    H176852   6.212   1.653   5.812 -0.6059  0.8726 -1.5507
18479TIP3    H276853   6.351   1.679   5.758 -0.4282  0.5821 -1.2356
18480TIP3   OH276854   0.899   2.317  17.178  0.1745 -0.3068  0.6440
18480TIP3    H176855   0.926   2.332  17.268  0.2685 -0.3442  0.6229
18480TIP3    H276856   0.972   2.268  17.139  0.8082  1.0413  0.1173
18481TIP3   OH276857   2.051   4.435   2.706 -0.7296 -0.1392 -0.0096
18481TIP3    H176858   1.999   4.378   2.649 -0.6377  0.0747 -0.3064
18481TIP3    H276859   2.095   4.495   2.646 -0.7908  0.2168  0.3024
18482TIP3   OH276860   4.394   2.395  14.426  0.7137 -0.0753 -0.3596
18482TIP3    H176861   4.467   2.410  14.366  1.5331 -2.4289  0.0225
18482TIP3    H276862   4.327   2.354  14.371  0.9892 -1.0585  0.0217
18483TIP3   OH276863   1.761   1.197   1.229  0.8561 -0.2354 -0.0806
18483TIP3    H176864   1.734   1.120   1.279  0.8053 -0.3040 -0.2136
18483TIP3    H276865   1.850   1.176   1.199  1.0845  0.0149  0.4076
18484TIP3   OH276866   4.567   3.168  16.772 -0.1394 -0.1236  0.0822
18484TIP3    H176867   4.595   3.222  16.698 -0.6376  0.6817  0.4714
18484TIP3    H276868   4.503   3.223  16.818 -0.1722 -0.7991  0.8457
18485TIP3   OH276869   2.770   4.606  12.598  0.2215 -0.3891  0.0281
18485TIP3    H176870   2.787   4.668  12.527  0.4875 -0.5757 -0.0722
18485TIP3    H276871   2.682   4.629  12.628  0.6895  0.6563  0.6308
18486TIP3   OH276872   0.334   2.324  11.615  0.2351  0.0487  0.0553
18486TIP3    H176873   0.356   2.291  11.528  0.5864 -0.2915  0.2763
18486TIP3    H276874   0.239   2.335  11.613  0.4438  1.8408 -1.0158
18487TIP3   OH276875   6.004   4.899   4.947 -0.0727  0.3008 -0.2716
18487TIP3    H176876   6.011   4.814   4.905  3.4364  0.9571 -1.1635
18487TIP3    H276877   6.025   4.962   4.878  1.4303  1.6226  1.3369
18488TIP3   OH276878   4.475   2.327  11.458 -0.2338  0.0589  0.1524
18488TIP3    H176879   4.454   2.305  11.367 -1.1017  0.9987  0.1285
18488TIP3    H276880   4.502   2.418  11.455 -1.8741  0.5907  1.0845
18489TIP3   OH276881   3.411   5.966   5.818  0.7578  0.0020  0.1721
18489TIP3    H176882   3.380   5.877   5.836  0.7281 -0.3141 -1.3683
18489TIP3    H276883   3.346   6.023   5.857 -0.0969 -0.6551 -0.2812
18490TIP3   OH276884   6.517   4.224   5.286  0.1690 -0.6489 -0.2766
18490TIP3    H176885   6.514   4.301   5.228 -0.8335 -0.3246  0.1825
18490TIP3    H276886   6.466   4.157   5.240 -1.5143 -0.0601  0.6652
18491TIP3   OH276887   4.516   1.991  12.608 -0.7470  0.1913  0.2762
18491TIP3    H176888   4.550   2.053  12.543 -1.0141 -0.8620 -0.8744
18491TIP3    H276889   4.515   2.041  12.690  2.5483  0.5983  0.1429
18492TIP3   OH276890   0.734   1.262  15.105 -0.0074  0.1669 -0.3897
18492TIP3    H176891   0.826   1.236  15.099 -0.2953 -0.6774 -1.1530
18492TIP3    H276892   0.737   1.355  15.127  1.0396 -0.5188  2.6041
18493TIP3   OH276893   0.614   3.172  16.627  0.2443 -0.3818  0.2498
18493TIP3    H176894   0.519   3.170  16.619  0.2922 -1.0270 -0.1861
18493TIP3    H276895   0.635   3.265  16.639 -0.6495 -0.4592  2.9173
18494TIP3   OH276896   4.012   5.435  15.277  0.1454 -0.1995  0.1007
18494TIP3    H176897   4.042   5.513  15.230 -2.0326  0.2803 -0.5440
18494TIP3    H276898   3.954   5.469  15.345  2.2083 -0.9967  2.3401
18495TIP3   OH276899   0.324   3.275  12.873 -0.4165 -0.5345 -0.8009
18495TIP3    H176900   0.230   3.256  12.869  0.1968 -3.7152 -1.3253
18495TIP3    H276901   0.364   3.190  12.890  2.2211  1.1623  1.8938
18496TIP3   OH276902   0.510   6.027   2.829  0.0379  0.4677  0.0523
18496TIP3    H176903   0.525   6.102   2.886 -0.7067 -0.5418  1.5868
18496TIP3    H276904   0.416   6.027   2.814  0.3972  1.8019 -2.7216
18497TIP3   OH276905   3.640   4.601   4.671  0.1600 -0.0368  0.2444
18497TIP3    H176906   3.695   4.586   4.748  0.2626  1.4670  0.4741
18497TIP3    H276907   3.581   4.671   4.697 -1.5525 -1.2823 -0.1872
18498TIP3   OH276908   4.740   2.201  13.438  0.0965  0.2983 -0.7714
18498TIP3    H176909   4.669   2.174  13.379 -1.1031  0.8470  0.3913
18498TIP3    H276910   4.695   2.229  13.518  1.7235 -1.0441  0.6668
18499TIP3   OH276911   4.316   4.774  13.645  0.4869  0.0689 -0.4836
18499TIP3    H176912   4.282   4.712  13.580 -0.9637  0.9083 -0.5401
18499TIP3    H276913   4.238   4.812  13.685  1.3807  0.1069  1.2308
18500TIP3   OH276914   5.822   2.868   0.391 -0.1453 -0.7868 -0.2453
18500TIP3    H176915   5.827   2.962   0.410  2.7111 -1.3162  2.0833
18500TIP3    H276916   5.891   2.853   0.326 -0.3771 -1.3353 -0.3699
18501TIP3   OH276917   6.222   6.612   5.899 -0.9379 -0.6635 -0.2069
18501TIP3    H176918   6.167   6.534   5.904  1.0585 -2.0435  1.0651
18501TIP3    H276919   6.294   6.586   5.841  0.8108 -0.4901  1.8188
18502TIP3   OH276920   5.366   1.097   2.204 -0.4660  0.4639 -0.4310
18502TIP3    H176921   5.352   1.069   2.113  1.3960  0.0105 -0.5983
18502TIP3    H276922   5.279   1.097   2.243 -1.3477  1.0977 -2.3471
18503TIP3   OH276923   1.100   5.705  16.515 -0.0642  0.5900 -0.0779
18503TIP3    H176924   1.036   5.690  16.445 -0.1879 -0.3814  0.2332
18503TIP3    H276925   1.169   5.757  16.475 -1.2955  2.0682 -0.2892
18504TIP3   OH276926   1.873   1.846  17.153 -0.5229  0.2188 -0.2357
18504TIP3    H176927   1.831   1.833  17.068  0.1623  1.3388 -0.7626
18504TIP3    H276928   1.965   1.861  17.131 -0.7698  3.0101  0.5164
18505TIP3   OH276929   0.108   6.147  15.095  0.5364  0.3333 -0.1928
18505TIP3    H176930   0.138   6.059  15.073  0.7601  0.3978 -0.1443
18505TIP3    H276931   0.055   6.135  15.174 -0.6424  0.0394 -1.0045
18506TIP3   OH276932   6.297   1.181  13.926 -0.3994  0.3534 -0.3225
18506TIP3    H176933   6.300   1.277  13.933  0.5752  0.3555 -0.7444
18506TIP3    H276934   6.373   1.151  13.975  0.3901 -0.1074 -1.7928
18507TIP3   OH276935   4.213   5.376   3.614 -0.0176 -0.1203  0.3052
18507TIP3    H176936   4.177   5.289   3.598  0.7620 -0.7765  2.0272
18507TIP3    H276937   4.144   5.436   3.587 -0.0114 -1.1979 -2.3683
18508TIP3   OH276938   3.860   0.784  10.662  0.2123 -0.0543 -0.4580
18508TIP3    H176939   3.888   0.714  10.721 -0.4473 -1.0268 -1.2852
18508TIP3    H276940   3.774   0.755  10.630  0.1255  0.9352 -1.1324
18509TIP3   OH276941   0.976   0.691   4.806  0.5215  0.2041  0.2961
18509TIP3    H176942   0.971   0.633   4.881  0.5695 -0.8077 -0.4719
18509TIP3    H276943   1.041   0.651   4.748  0.4332  0.9313 -0.3243
18510TIP3   OH276944   6.639   6.549  11.401 -0.2244 -0.1292  0.6662
18510TIP3    H176945   6.727   6.522  11.426 -0.6717  0.0930  2.5761
18510TIP3    H276946   6.649   6.591  11.315  1.3021 -1.3357  0.2325
18511TIP3   OH276947   0.519   4.224  13.126  0.7232  0.2102 -0.1586
18511TIP3    H176948   0.528   4.151  13.065 -1.8190 -0.4183  0.1627
18511TIP3    H276949   0.577   4.292  13.091  0.5238 -0.7134 -2.3768
18512TIP3   OH276950   6.497   1.268   1.976 -0.1242 -0.1026 -0.2609
18512TIP3    H176951   6.495   1.364   1.976  0.4980 -0.0908 -1.6712
18512TIP3    H276952   6.589   1.246   1.994 -0.4350 -0.4464  0.9634
18513TIP3   OH276953   6.285   5.218   4.701 -0.3430  0.0221  0.7183
18513TIP3    H176954   6.257   5.244   4.789  1.4097  2.0064  0.7306
18513TIP3    H276955   6.253   5.288   4.644 -0.4329 -0.6514 -0.0780
18514TIP3   OH276956   3.969   6.783  13.339 -0.0506 -0.1552 -0.2985
18514TIP3    H176957   3.952   6.877  13.338  1.4451  0.1207 -0.8928
18514TIP3    H276958   4.016   6.766  13.258  0.7185 -1.2135  0.3465
18515TIP3   OH276959   5.220   3.858   3.773  0.6791 -0.5137 -0.8293
18515TIP3    H176960   5.131   3.823   3.764  0.9846 -1.4565 -0.2457
18515TIP3    H276961   5.222   3.933   3.714 -0.9970  0.4464  0.2789
18516TIP3   OH276962   1.106   1.608   4.557 -0.0508 -0.2922  0.1953
18516TIP3    H176963   1.028   1.664   4.565 -0.6575 -0.8936 -1.2504
18516TIP3    H276964   1.124   1.579   4.646 -1.3399  0.0558  0.5844
18517TIP3   OH276965   5.963   5.243  16.528  0.0956  0.1885  0.0829
18517TIP3    H176966   6.041   5.214  16.481 -0.1632  0.2341 -0.3749
18517TIP3    H276967   5.895   5.181  16.503 -0.4875  1.2350 -0.9839
18518TIP3   OH276968   6.665   1.476   1.365 -0.6048 -0.2115 -0.2576
18518TIP3    H176969   6.644   1.567   1.346  0.7602 -0.1214 -1.4163
18518TIP3    H276970   6.759   1.469   1.348 -0.2956 -1.3373  1.8518
18519TIP3   OH276971   3.402   5.700  13.242  0.4119  0.0517  0.0320
18519TIP3    H176972   3.419   5.746  13.324  0.3105 -0.9368  0.6087
18519TIP3    H276973   3.488   5.679  13.207  0.4374 -1.2578  0.8659
18520TIP3   OH276974   3.038   2.477   1.158 -0.1504  0.1848 -0.5462
18520TIP3    H176975   3.023   2.547   1.094 -0.8044  0.0584 -0.5290
18520TIP3    H276976   3.104   2.421   1.117 -0.5190  0.1385 -1.0809
18521TIP3   OH276977   4.059   2.781  11.638  0.5608 -0.3779  0.0445
18521TIP3    H176978   4.024   2.870  11.644 -0.2108 -0.7631  1.4825
18521TIP3    H276979   4.080   2.770  11.545  2.6622  2.0389  0.1916
18522TIP3   OH276980   5.223   4.802   2.867  0.5008  0.0858  0.2634
18522TIP3    H176981   5.170   4.832   2.941  1.5434  1.9705  0.2675
18522TIP3    H276982   5.305   4.849   2.875  0.7782  0.0285 -1.8785
18523TIP3   OH276983   0.585   2.525   4.153 -0.6216  0.0426 -0.5880
18523TIP3    H176984   0.601   2.570   4.069 -1.1683  0.7168 -0.3337
18523TIP3    H276985   0.495   2.495   4.147 -0.3829 -0.6810 -0.5927
18524TIP3   OH276986   3.224   5.288  12.731 -0.2173 -0.2265 -0.2835
18524TIP3    H176987   3.215   5.348  12.658  0.2542  2.1525  1.5360
18524TIP3    H276988   3.309   5.310  12.770 -0.7336 -1.0119  1.3407
18525TIP3   OH276989   5.651   3.700   5.257  0.1243 -0.1803 -0.2911
18525TIP3    H176990   5.657   3.722   5.164  0.6676 -0.4809 -0.3312
18525TIP3    H276991   5.717   3.755   5.298  0.2793 -0.4652 -0.1588
18526TIP3   OH276992   1.866   0.851  11.726  0.4424 -0.3077 -0.1275
18526TIP3    H176993   1.926   0.777  11.724 -0.1319 -0.7569 -1.6552
18526TIP3    H276994   1.786   0.818  11.684  0.0186  1.0364 -0.4126
18527TIP3   OH276995   2.798   5.859  13.903  0.4881  0.2581 -0.8765
18527TIP3    H176996   2.704   5.846  13.909  0.5945  0.1633  0.9005
18527TIP3    H276997   2.831   5.778  13.864  0.0192 -0.4230  0.1291
18528TIP3   OH276998   3.929   1.297  16.468  0.0818  0.1490 -0.4526
18528TIP3    H176999   3.998   1.283  16.533 -0.4472 -0.0036  0.0825
18528TIP3    H277000   3.962   1.257  16.388  1.0290  0.9266 -0.4536
18529TIP3   OH277001   1.036   3.371   3.781  1.0113  0.2214  0.1096
18529TIP3    H177002   0.946   3.341   3.794  0.9588  0.2232 -0.2429
18529TIP3    H277003   1.083   3.294   3.749  0.5828  0.8131 -2.0630
18530TIP3   OH277004   4.922   5.753   1.906 -0.4445 -0.2075 -0.5868
18530TIP3    H177005   4.898   5.820   1.969 -1.3243  0.2184 -1.3756
18530TIP3    H277006   4.994   5.792   1.856 -0.1181 -0.3335 -0.2157
18531TIP3   OH277007   5.704   4.712  14.599  0.1228  0.3278 -0.4234
18531TIP3    H177008   5.674   4.753  14.680 -1.2863 -0.0338 -0.7531
18531TIP3    H277009   5.739   4.785  14.547  1.7062  0.4512  0.7930
18532TIP3   OH277010   5.598   5.496   4.872 -0.2391  0.3655  0.5411
18532TIP3    H177011   5.523   5.553   4.891 -1.7843 -2.4183  3.1370
18532TIP3    H277012   5.561   5.424   4.822  1.0275 -0.2128  0.4301
18533TIP3   OH277013   1.737   2.973  17.157  0.4849  0.5135 -0.1956
18533TIP3    H177014   1.804   2.962  17.089 -1.0365 -1.1100 -1.4989
18533TIP3    H277015   1.682   3.044  17.125  0.5612  0.6559 -0.0049
18534TIP3   OH277016   3.320   2.237  17.136  0.3002 -0.0815 -0.2474
18534TIP3    H177017   3.397   2.244  17.193  0.0945  0.1442  0.0090
18534TIP3    H277018   3.248   2.272  17.189 -0.7000 -3.7055  0.8715
18535TIP3   OH277019   3.762   3.758  14.929  0.2819 -0.6088 -0.0700
18535TIP3    H177020   3.679   3.801  14.948 -0.6908 -1.8908 -1.3030
18535TIP3    H277021   3.802   3.813  14.861  0.0340 -0.4819 -0.1144
18536TIP3   OH277022   6.382   2.180   4.190 -0.0627  0.3814 -0.0272
18536TIP3    H177023   6.447   2.213   4.252  0.6784  1.1568 -1.1820
18536TIP3    H277024   6.346   2.258   4.148 -1.4998 -0.0608  0.3397
18537TIP3   OH277025   3.762   1.080  13.037 -0.2711 -0.1553  0.2433
18537TIP3    H177026   3.819   1.152  13.011 -1.1028  1.3665  2.4780
18537TIP3    H277027   3.812   1.033  13.104 -0.6920 -0.2390  0.4993
18538TIP3   OH277028   2.852   3.428  15.106  0.3374  0.7841 -0.5042
18538TIP3    H177029   2.906   3.350  15.092  0.6135  0.8450  0.1855
18538TIP3    H277030   2.911   3.502  15.089 -0.3469  0.8481 -2.7103
18539TIP3   OH277031   6.011   1.982  13.407 -0.2593 -0.4325  0.1266
18539TIP3    H177032   5.985   1.967  13.316 -0.2410  0.2158  0.0092
18539TIP3    H277033   6.091   2.035  13.400 -0.3906 -0.1813  0.5225
18540TIP3   OH277034   4.178   6.025  14.455  0.1291  0.1370  0.1557
18540TIP3    H177035   4.101   6.082  14.460  0.1632  0.2018 -0.0725
18540TIP3    H277036   4.244   6.077  14.409 -0.4019 -0.7159 -1.5930
18541TIP3   OH277037   2.065   4.005   5.607 -0.2225 -0.4167 -0.4027
18541TIP3    H177038   2.057   4.049   5.692  0.7883  0.5868 -0.8137
18541TIP3    H277039   2.073   3.912   5.628  0.9545 -0.0910  0.6513
18542TIP3   OH277040   3.676   1.037  12.168 -0.3300  0.0634  0.0957
18542TIP3    H177041   3.658   0.947  12.195  0.9531 -0.1764  0.2023
18542TIP3    H277042   3.600   1.087  12.198 -1.1549 -1.0195 -0.1757
18543TIP3   OH277043   6.681   0.678  13.955  0.2881 -0.3401  0.1935
18543TIP3    H177044   6.596   0.722  13.959 -0.1901 -1.3907  1.8501
18543TIP3    H277045   6.660   0.585  13.951  1.3613 -0.6408  1.2013
18544TIP3   OH277046   3.142   4.788  15.075  0.4480  0.1849 -0.1672
18544TIP3    H177047   3.203   4.824  15.140 -2.2065  1.4172  1.7793
18544TIP3    H277048   3.116   4.864  15.023 -1.8987  0.3761  1.1829
18545TIP3   OH277049   4.638   5.634  13.970 -0.1302  0.3785  0.2020
18545TIP3    H177050   4.704   5.700  13.951  0.5184 -0.4712 -0.5504
18545TIP3    H277051   4.600   5.661  14.054  0.4504  1.4324  0.1309
18546TIP3   OH277052   2.120   1.441   5.988 -0.5535 -0.4875 -0.9076
18546TIP3    H177053   2.194   1.385   6.013 -0.4933  0.1300  0.3432
18546TIP3    H277054   2.144   1.528   6.020 -1.9734 -0.3474 -0.1716
18547TIP3   OH277055   1.182   5.005  11.611 -0.0340 -0.0663  0.1370
18547TIP3    H177056   1.087   4.991  11.606 -0.1918  1.3192 -0.9249
18547TIP3    H277057   1.213   4.990  11.522  0.8529 -1.1339  0.6109
18548TIP3   OH277058   0.957   3.572   2.022  0.3284  0.2900  0.4714
18548TIP3    H177059   0.948   3.617   1.938  0.3531 -2.2097 -0.9100
18548TIP3    H277060   0.871   3.532   2.037  0.4822  0.2979  1.4005
18549TIP3   OH277061   3.314   1.857   3.452 -0.3302 -0.0238 -0.2492
18549TIP3    H177062   3.221   1.868   3.472 -0.2393  1.4476 -0.5750
18549TIP3    H277063   3.360   1.900   3.524  0.1490 -2.0410  0.6922
18550TIP3   OH277064   6.662   3.385  13.021 -0.0006 -0.5969 -0.0201
18550TIP3    H177065   6.663   3.406  12.928 -0.9207  0.1726  0.1359
18550TIP3    H277066   6.686   3.466  13.065 -0.8019 -0.6172  0.4690
18551TIP3   OH277067   5.640   4.881  12.714  0.0308 -0.0371  0.4094
18551TIP3    H177068   5.612   4.839  12.795  3.0396 -0.6608  1.2058
18551TIP3    H277069   5.675   4.965  12.741  0.1360  0.1765 -0.3660
18552TIP3   OH277070   6.457   3.884  12.308 -0.3360 -0.7252 -0.1706
18552TIP3    H177071   6.372   3.925  12.319 -0.6202 -1.3868  0.1491
18552TIP3    H277072   6.513   3.926  12.374 -1.1377 -2.2318  1.5135
18553TIP3   OH277073   4.624   3.795  13.599  0.0968 -0.9982  0.5009
18553TIP3    H177074   4.708   3.831  13.570  0.1341  0.9084  2.8351
18553TIP3    H277075   4.558   3.845  13.551  0.2516 -0.6540  0.6404
18554TIP3   OH277076   3.970   4.921   5.853  1.3086  0.0360 -0.3542
18554TIP3    H177077   3.929   4.930   5.767 -0.8091  0.3342  0.6456
18554TIP3    H277078   4.006   5.008   5.871  0.8079  0.2797 -0.5013
18555TIP3   OH277079   3.578   2.894  13.773 -0.5819 -0.1372 -0.0777
18555TIP3    H177080   3.565   2.918  13.682  2.5936 -0.5148 -0.6812
18555TIP3    H277081   3.647   2.953  13.804  1.1136 -2.5489  0.9263
18556TIP3   OH277082   5.300   0.803  11.410 -0.2443  0.1460 -0.0205
18556TIP3    H177083   5.281   0.768  11.322 -0.6134  1.7884 -0.6094
18556TIP3    H277084   5.230   0.768  11.465  0.9821 -2.3686  0.0332
18557TIP3   OH277085   0.083   2.994  15.108 -0.0225  0.0125 -0.4473
18557TIP3    H177086   0.145   2.923  15.127  0.1350 -0.0449 -1.1501
18557TIP3    H277087   0.098   3.059  15.176  2.0199  0.7812 -1.6067
18558TIP3   OH277088   1.278   0.960  14.240  0.8234 -0.3830 -0.2592
18558TIP3    H177089   1.308   0.880  14.198 -0.4775 -0.7940 -0.4069
18558TIP3    H277090   1.340   0.974  14.312  1.7118 -0.9042 -0.9204
18559TIP3   OH277091   2.075   1.914   5.267 -0.3153 -0.4465  0.3320
18559TIP3    H177092   2.075   2.009   5.277 -0.9755 -0.4445  0.3826
18559TIP3    H277093   2.163   1.892   5.236  0.5148 -0.0432  2.3394
18560TIP3   OH277094   1.245   1.326   3.855 -0.0396 -0.1610 -0.4055
18560TIP3    H177095   1.255   1.330   3.760 -0.6568  1.4202 -0.4176
18560TIP3    H277096   1.152   1.345   3.870  0.0388 -0.4784  0.5062
18561TIP3   OH277097   2.938   2.575   2.595 -0.7156 -0.5026 -0.5938
18561TIP3    H177098   2.852   2.552   2.630 -1.2649 -0.0370 -1.6299
18561TIP3    H277099   2.972   2.494   2.559 -0.3704 -0.8698  0.5318
18562TIP3   OH277100   6.436   6.074   2.531  0.2953  0.0053  0.0284
18562TIP3    H177101   6.469   6.082   2.441  1.9144 -2.2535  0.3591
18562TIP3    H277102   6.341   6.063   2.520  0.6194 -1.7115 -1.5524
18563TIP3   OH277103   2.011   1.738  14.729 -0.4712  0.4926  0.1676
18563TIP3    H177104   2.091   1.782  14.702  0.8686 -1.8164  0.2494
18563TIP3    H277105   2.031   1.644  14.721 -2.8024 -0.1317  1.1909
18564TIP3   OH277106   3.891   4.144  12.516 -0.0703  0.3043  0.3161
18564TIP3    H177107   3.952   4.209  12.481 -0.6728  0.7060 -0.0035
18564TIP3    H277108   3.898   4.153  12.611  1.5896 -0.8069  0.3151
18565TIP3   OH277109   3.084   3.109  16.143 -0.0792 -0.0657  0.2500
18565TIP3    H177110   3.093   3.031  16.197  1.0205 -1.0505 -1.2957
18565TIP3    H277111   2.991   3.133  16.149 -0.9718 -2.9855 -1.2597
18566TIP3   OH277112   6.071   5.922  12.239 -0.1627 -0.2573 -0.5778
18566TIP3    H177113   6.060   5.864  12.163  1.3979  0.9574 -1.7747
18566TIP3    H277114   5.994   5.978  12.238 -0.6733 -0.9536 -0.6248
18567TIP3   OH277115   0.892   4.770  13.609 -0.6107  0.0959 -0.0244
18567TIP3    H177116   0.808   4.780  13.656 -0.6953 -0.2923 -0.0923
18567TIP3    H277117   0.872   4.796  13.519 -1.4503 -2.9444 -0.7987
18568TIP3   OH277118   6.355   5.640   5.290 -0.1162 -0.0877  0.4009
18568TIP3    H177119   6.388   5.718   5.334  0.5538 -0.1136 -0.0421
18568TIP3    H277120   6.312   5.589   5.359 -0.5483  0.6654  0.6917
18569TIP3   OH277121   0.740   4.295   1.263 -0.3122  0.1455  0.0360
18569TIP3    H177122   0.752   4.382   1.226 -1.4138  0.1716 -0.2890
18569TIP3    H277123   0.777   4.236   1.197 -0.5536  0.3096 -0.2517
18570TIP3   OH277124   1.403   4.761  17.076 -0.0263  0.5052  0.1294
18570TIP3    H177125   1.352   4.681  17.078  0.6655  0.0641  0.3038
18570TIP3    H277126   1.370   4.809  17.000 -0.5361  0.1269  0.1103
18571TIP3   OH277127   1.224   2.979  13.906 -0.1970 -0.1808  0.4174
18571TIP3    H177128   1.195   2.944  13.991  0.2616  0.3908  0.8206
18571TIP3    H277129   1.319   2.991  13.917  0.2092 -2.0954 -0.8946
18572TIP3   OH277130   2.475   4.603   0.796  0.5560  0.4750 -0.0867
18572TIP3    H177131   2.549   4.633   0.849 -0.0844  0.6643  0.7122
18572TIP3    H277132   2.487   4.647   0.712  0.2621  2.0839  0.6982
18573TIP3   OH277133   4.820   0.277  15.509 -0.2529  0.1987  0.1031
18573TIP3    H177134   4.842   0.243  15.596 -1.5166 -0.4994  0.1646
18573TIP3    H277135   4.894   0.333  15.486  0.6481 -0.5309  1.1319
18574TIP3   OH277136   4.038   3.720  14.199  0.4261  0.0064  0.4446
18574TIP3    H177137   4.068   3.783  14.133  2.2385 -0.4248  0.8269
18574TIP3    H277138   4.077   3.637  14.173 -0.0740 -0.4781  1.2129
18575TIP3   OH277139   1.255   3.616  14.295 -0.3280 -0.1482 -0.3009
18575TIP3    H177140   1.178   3.559  14.289 -0.7218  0.3157  0.2880
18575TIP3    H277141   1.321   3.563  14.340  0.2210 -1.0859 -2.1518
18576TIP3   OH277142   2.969   1.289  16.149  0.5300 -0.1979  0.5816
18576TIP3    H177143   2.965   1.364  16.090 -1.6536 -1.6955 -1.2523
18576TIP3    H277144   2.892   1.297  16.205  0.3032 -1.0247  0.4028
18577TIP3   OH277145   3.024   4.453   1.084  0.0018 -0.0770 -0.2146
18577TIP3    H177146   3.109   4.492   1.106 -0.2290 -0.3294  1.1771
18577TIP3    H277147   2.989   4.424   1.168 -1.2945 -0.3229 -0.8338
18578TIP3   OH277148   2.117   1.542   1.373 -0.7377 -0.2166 -0.1894
18578TIP3    H177149   2.079   1.500   1.296 -0.3998 -1.3359  0.2488
18578TIP3    H277150   2.043   1.558   1.431 -1.3341  2.6572 -1.6551
18579TIP3   OH277151   5.917   1.691   0.675 -0.3018 -0.2787  0.2516
18579TIP3    H177152   5.864   1.765   0.647  0.9012  0.3803 -0.3208
18579TIP3    H277153   5.894   1.678   0.767 -1.0766  0.3060  0.1462
18580TIP3   OH277154   1.011   2.447   5.852  0.2479  0.6503  0.2251
18580TIP3    H177155   0.976   2.484   5.933  1.1361 -0.4567  1.1448
18580TIP3    H277156   1.031   2.523   5.797 -3.2047  1.3081 -0.1904
18581TIP3   OH277157   0.726   2.710   0.075 -0.4625 -0.3900  0.1136
18581TIP3    H177158   0.701   2.626   0.114 -1.1918 -1.1116 -1.8188
18581TIP3    H277159   0.816   2.697   0.046  0.1423  0.2074  1.6872
18582TIP3   OH277160   4.978   0.295  14.854 -0.0706  0.2134  0.3992
18582TIP3    H177161   5.031   0.300  14.775 -0.3871  0.2569  0.1932
18582TIP3    H277162   5.038   0.258  14.920 -0.0791 -0.7082 -0.0977
18583TIP3   OH277163   1.313   3.190  15.995  0.2309  0.4668 -0.4229
18583TIP3    H177164   1.297   3.100  15.965  0.1776 -0.3802  2.0827
18583TIP3    H277165   1.402   3.188  16.030  0.4467  1.5495 -0.8981
18584TIP3   OH277166   1.337   1.737   0.409 -0.2451  0.7331 -0.2747
18584TIP3    H177167   1.366   1.687   0.333 -1.3818  2.3993 -1.8590
18584TIP3    H277168   1.351   1.828   0.384 -1.0273  1.3235  1.3523
18585TIP3   OH277169   6.119   3.332   5.533  0.0384 -0.3997 -0.0073
18585TIP3    H177170   6.179   3.352   5.461 -0.3445 -0.4676 -0.3471
18585TIP3    H277171   6.131   3.239   5.550  2.3060  0.2025  2.0107
18586TIP3   OH277172   4.123   1.883   1.560 -0.3917 -0.3227  0.1599
18586TIP3    H177173   4.107   1.867   1.653 -1.3710 -0.4846 -0.0333
18586TIP3    H277174   4.184   1.814   1.535 -1.2456 -1.1537  0.3492
18587TIP3   OH277175   4.209   0.438  14.026  0.7251  0.4028  0.2349
18587TIP3    H177176   4.283   0.380  14.045  0.3476  0.1018  0.7895
18587TIP3    H277177   4.176   0.408  13.941  0.3688 -0.3642  0.6390
18588TIP3   OH277178   5.086   1.804  16.433  0.2376 -0.1332 -0.9726
18588TIP3    H177179   5.010   1.750  16.453  0.5037 -0.7619 -1.6283
18588TIP3    H277180   5.066   1.844  16.348  1.0442 -1.0756 -1.6190
18589TIP3   OH277181   1.381   6.636  13.641  0.0363 -0.7176  0.2223
18589TIP3    H177182   1.405   6.577  13.570  0.0378  0.9181 -1.1798
18589TIP3    H277183   1.420   6.597  13.719 -0.2147 -2.6992 -0.6055
18590TIP3   OH277184   1.735   6.316   0.586 -0.2978  0.4356  0.2623
18590TIP3    H177185   1.642   6.338   0.587 -0.8981 -2.0218  0.4035
18590TIP3    H277186   1.743   6.247   0.520  1.8912  2.4965 -1.7201
18591TIP3   OH277187   2.159   6.004   2.330  0.0246 -0.1143  0.0805
18591TIP3    H177188   2.130   5.998   2.239  0.1952 -0.8226  0.0715
18591TIP3    H277189   2.177   6.097   2.343 -0.7549  0.1124 -0.3772
18592TIP3   OH277190   0.820   0.555  13.069 -0.0887  0.2924  0.2365
18592TIP3    H177191   0.816   0.628  13.007 -0.1552 -1.6696 -2.1629
18592TIP3    H277192   0.913   0.531  13.071 -0.0828  0.3714  0.9363
18593TIP3   OH277193   0.815   4.482   1.747  0.1090  0.0546  0.2197
18593TIP3    H177194   0.779   4.410   1.799  1.0243 -0.6871 -0.1694
18593TIP3    H277195   0.862   4.438   1.676 -0.3264  1.0500 -0.6918
18594TIP3   OH277196   4.856   0.440   5.383  0.0281 -0.6867 -0.3647
18594TIP3    H177197   4.830   0.478   5.299  1.7321 -1.3380 -1.2241
18594TIP3    H277198   4.951   0.451   5.386  0.2317 -2.3941  0.5908
18595TIP3   OH277199   4.826   5.597   0.095  0.3061  0.2091  0.2138
18595TIP3    H177200   4.828   5.679   0.143 -0.5990 -0.9519  2.3211
18595TIP3    H277201   4.845   5.621   0.004 -0.3237  2.7682  0.7299
18596TIP3   OH277202   4.906   6.786   1.638 -1.0405  0.1423 -0.1171
18596TIP3    H177203   4.993   6.779   1.600 -1.0125 -1.5803  0.1993
18596TIP3    H277204   4.859   6.847   1.582  0.6907  1.9453  0.3463
18597TIP3   OH277205   6.235   4.584   3.311 -0.8370 -0.1685  0.6083
18597TIP3    H177206   6.308   4.645   3.303 -1.4159  0.4943  0.3663
18597TIP3    H277207   6.263   4.507   3.262 -0.7180  0.4698 -0.3319
18598TIP3   OH277208   0.218   6.317   2.000 -0.1916 -0.1413  0.6779
18598TIP3    H177209   0.147   6.304   2.062  0.3981  0.9849  1.6184
18598TIP3    H277210   0.294   6.336   2.054  0.8801 -1.4991 -0.3046
18599TIP3   OH277211   2.655   4.395   5.793 -0.3099 -0.0547 -0.2621
18599TIP3    H177212   2.634   4.313   5.836  1.1666 -0.9338 -1.1812
18599TIP3    H277213   2.652   4.460   5.863 -2.4344 -0.7196  0.2809
18600TIP3   OH277214   3.103   1.371   3.014  0.8509  0.6169 -0.0682
18600TIP3    H177215   3.102   1.392   2.921  2.8010  0.4074 -0.1552
18600TIP3    H277216   3.103   1.455   3.058 -1.5697  0.7163 -0.2117
18601TIP3   OH277217   0.289   0.142  15.265  0.6070 -0.3931 -0.6159
18601TIP3    H177218   0.241   0.158  15.346  1.1296  1.3388 -0.6232
18601TIP3    H277219   0.238   0.075  15.220  0.8612 -2.1080  1.5924
18602TIP3   OH277220   2.440   2.587   0.896 -0.2503  0.4456 -0.3507
18602TIP3    H177221   2.536   2.592   0.898 -0.2020 -0.9119  1.4298
18602TIP3    H277222   2.412   2.651   0.961 -0.4452 -1.2063  1.2292
18603TIP3   OH277223   5.750   1.687  13.983  0.0875  0.5276  0.2914
18603TIP3    H177224   5.687   1.647  13.923  1.3835  0.9223 -1.3919
18603TIP3    H277225   5.797   1.613  14.022 -0.4631  0.2842  0.5020
18604TIP3   OH277226   6.040   6.518  13.375  0.0399 -0.9401  0.5131
18604TIP3    H177227   6.044   6.451  13.443 -0.8368 -2.2050 -0.6440
18604TIP3    H277228   6.092   6.483  13.303  0.4114  0.0860  0.2666
18605TIP3   OH277229   3.177   4.460   4.235 -0.0714  0.2793  0.3230
18605TIP3    H177230   3.231   4.538   4.246 -0.0322  0.3603 -0.4649
18605TIP3    H277231   3.177   4.443   4.141  0.2364 -0.8966  0.5241
18606TIP3   OH277232   5.479   1.009   0.962 -0.1653  0.1605  0.7714
18606TIP3    H177233   5.409   0.971   0.908 -0.4299 -1.0524  1.9400
18606TIP3    H277234   5.465   1.103   0.957  1.0151  0.2412 -2.9202
18607TIP3   OH277235   2.399   4.669   4.530  0.0528 -0.1895 -0.0873
18607TIP3    H177236   2.374   4.668   4.437  1.8259 -0.7529 -0.5820
18607TIP3    H277237   2.344   4.738   4.569 -2.1395 -1.2977 -1.1258
18608TIP3   OH277238   0.578   4.335  16.735 -0.1680 -0.4794  0.2490
18608TIP3    H177239   0.667   4.316  16.706  0.0343 -0.8863  1.1191
18608TIP3    H277240   0.587   4.412  16.791 -0.5668  0.3483 -0.8079
18609TIP3   OH277241   1.459   2.517   0.300  0.0270 -0.1571  0.4028
18609TIP3    H177242   1.427   2.608   0.302  1.5440  0.4265 -0.6631
18609TIP3    H277243   1.525   2.514   0.369  0.7025 -0.1642 -0.2418
18610TIP3   OH277244   5.619   6.632  15.212  0.3909 -0.2238 -0.2122
18610TIP3    H177245   5.536   6.607  15.254  0.6987 -1.2365 -0.1860
18610TIP3    H277246   5.653   6.550  15.176  0.9089  0.3570 -1.0758
18611TIP3   OH277247   1.851   6.030   2.457  0.2774  0.8009 -0.4104
18611TIP3    H177248   1.913   5.982   2.402 -2.5192 -1.0864 -2.0631
18611TIP3    H277249   1.786   5.964   2.483 -1.8816  3.0056 -0.0165
18612TIP3   OH277250   1.155   1.252   0.255  0.3355 -0.4184 -0.2305
18612TIP3    H177251   1.130   1.334   0.297 -1.0241 -1.2843  0.6907
18612TIP3    H277252   1.183   1.277   0.167  3.1020  1.4127  1.1101
18613TIP3   OH277253   6.688   3.630   5.293  0.0909 -0.4761 -0.6004
18613TIP3    H177254   6.634   3.679   5.355 -1.3653 -0.7889 -1.5934
18613TIP3    H277255   6.759   3.594   5.347  1.0684  2.4713  0.1976
18614TIP3   OH277256   1.678   4.695   0.316 -0.0843 -0.3522  0.7279
18614TIP3    H177257   1.689   4.676   0.223  1.9422  0.3729  0.8107
18614TIP3    H277258   1.596   4.745   0.320  0.8646  1.4309 -0.9424
18615TIP3   OH277259   1.043   3.301   2.456 -0.1500 -0.4598 -0.3087
18615TIP3    H177260   1.066   3.276   2.366  0.7007 -1.4067  0.1536
18615TIP3    H277261   0.997   3.225   2.491 -1.0420  0.1535 -0.1467
18616TIP3   OH277262   4.868   4.951  16.532  0.0166 -0.4851  0.1604
18616TIP3    H177263   4.862   5.046  16.542 -0.2622 -0.7893  3.5791
18616TIP3    H277264   4.815   4.931  16.455  0.8531  2.2097 -1.1426
18617TIP3   OH277265   3.641   4.886  17.161  0.1479  0.3166  0.6708
18617TIP3    H177266   3.727   4.928  17.156  0.3057 -0.2140 -1.6564
18617TIP3    H277267   3.626   4.872  17.254  1.8398  1.9391  1.2114
18618TIP3   OH277268   2.718   5.854   5.320  0.2324 -0.8785  0.0928
18618TIP3    H177269   2.669   5.936   5.326  0.0868 -1.0002  0.6875
18618TIP3    H277270   2.810   5.881   5.323  0.2289 -0.5875 -1.8518
18619TIP3   OH277271   6.225   2.124  13.817 -0.0643 -0.8630  0.1553
18619TIP3    H177272   6.141   2.149  13.779  0.6581 -1.4258 -1.8654
18619TIP3    H277273   6.284   2.196  13.794  0.5731 -1.5918 -0.5385
18620TIP3   OH277274   4.032   6.616  10.989 -0.0167 -0.2075  0.0953
18620TIP3    H177275   3.978   6.600  11.067  0.1829  0.9348  0.4683
18620TIP3    H277276   4.011   6.705  10.963  0.1680 -0.4718 -0.9770
18621TIP3   OH277277   1.156   0.522   1.033  0.1424  0.0243 -0.5477
18621TIP3    H177278   1.103   0.584   1.083 -1.7354 -1.0607 -1.1692
18621TIP3    H277279   1.131   0.537   0.942  0.7491 -0.6492 -0.8317
18622TIP3   OH277280   0.632   4.175   3.832  0.1036 -0.1200  0.0493
18622TIP3    H177281   0.544   4.142   3.852  0.2700  0.3380  1.6817
18622TIP3    H277282   0.617   4.263   3.798 -0.1792 -0.8281 -1.7136
18623TIP3   OH277283   0.377   1.636   1.240  0.0149  0.4305 -0.6432
18623TIP3    H177284   0.431   1.715   1.237  0.6167  0.0120 -0.9708
18623TIP3    H277285   0.341   1.629   1.152  2.6951 -1.5303 -1.6423
18624TIP3   OH277286   0.026   2.226   4.002 -0.3570  0.2577  0.6614
18624TIP3    H177287   0.003   2.281   3.928  0.4417 -0.5403 -0.2018
18624TIP3    H277288  -0.002   2.138   3.977 -0.0216 -0.0316  1.2710
18625TIP3   OH277289   5.239   4.084   5.829  0.4094  0.7219 -0.4431
18625TIP3    H177290   5.246   4.178   5.813 -0.1758  1.0489  1.0565
18625TIP3    H277291   5.145   4.068   5.837  0.6046  0.4247  1.5327
18626TIP3   OH277292   5.536   1.061  12.114  0.4000  0.4911 -0.1174
18626TIP3    H177293   5.451   1.097  12.089 -0.7230 -1.4551  0.8135
18626TIP3    H277294   5.553   0.992  12.050  0.1624 -0.7054  1.1038
18627TIP3   OH277295   3.025   5.426  16.950 -0.0562 -0.1344 -0.2005
18627TIP3    H177296   3.114   5.460  16.952 -0.1427  0.1547 -0.9399
18627TIP3    H277297   3.035   5.331  16.955  0.1752 -0.0050  2.0174
18628TIP3   OH277298   6.121   6.416  16.952 -0.4688 -0.6144  0.4201
18628TIP3    H177299   6.050   6.448  16.896  0.4940  0.5098 -0.1553
18628TIP3    H277300   6.092   6.437  17.041 -0.8807 -0.2092  0.1918
18629TIP3   OH277301   2.742   2.613   3.804 -0.1689  0.3042 -0.7450
18629TIP3    H177302   2.691   2.532   3.818 -1.3608  1.3217  1.0346
18629TIP3    H277303   2.680   2.672   3.761 -0.0393  1.0621  0.1152
18630TIP3   OH277304   4.468   2.430   2.646 -0.1812 -0.4956 -0.4330
18630TIP3    H177305   4.489   2.406   2.736 -0.9023 -0.5554 -0.2758
18630TIP3    H277306   4.539   2.393   2.594 -0.2902 -1.3288  0.0073
18631TIP3   OH277307   4.710   6.709  15.257 -0.1206  0.2850 -0.0112
18631TIP3    H177308   4.677   6.754  15.335  1.5053  0.8684  0.3532
18631TIP3    H277309   4.774   6.770  15.220 -1.4759  0.3616 -2.2715
18632TIP3   OH277310   3.137   6.439  13.949 -0.2609 -0.1104  0.8200
18632TIP3    H177311   3.121   6.381  13.874  0.0265  0.4736  0.3044
18632TIP3    H277312   3.147   6.526  13.910  2.4523 -0.1667  1.2905
18633TIP3   OH277313   3.876   6.043   0.392  0.1757 -0.7151 -0.6606
18633TIP3    H177314   3.938   5.970   0.397 -1.0872 -1.7047  1.4252
18633TIP3    H277315   3.805   6.010   0.337 -0.3863 -1.0710  0.2670
18634TIP3   OH277316   6.396   1.548  16.161 -0.3683  0.3853  0.8453
18634TIP3    H177317   6.488   1.551  16.187 -0.3559 -0.5717  0.8948
18634TIP3    H277318   6.397   1.507  16.074 -0.4702  2.9932 -0.4587
18635TIP3   OH277319   1.661   1.434  16.936 -0.4412 -0.3330 -0.2760
18635TIP3    H177320   1.699   1.449  16.849 -0.0235 -1.7166 -0.3353
18635TIP3    H277321   1.735   1.406  16.990 -1.1635 -1.9969 -0.1235
18636TIP3   OH277322   3.101   3.595   1.650 -0.2433  0.2186  0.3801
18636TIP3    H177323   3.014   3.595   1.610  0.5075 -0.5625 -1.3103
18636TIP3    H277324   3.092   3.540   1.727 -1.1394 -0.2289 -0.0354
18637TIP3   OH277325   2.207   3.480   6.401  0.6491 -0.4469 -0.3471
18637TIP3    H177326   2.279   3.537   6.427  1.9381 -1.9261 -0.5768
18637TIP3    H277327   2.130   3.519   6.442  1.9777 -0.3496  2.1646
18638TIP3   OH277328   2.143   2.384   3.620 -1.0184  0.1732  0.1882
18638TIP3    H177329   2.207   2.447   3.653  1.2837 -1.2859 -1.3784
18638TIP3    H277330   2.126   2.326   3.695 -2.5623  2.1095  1.3988
18639TIP3   OH277331   4.875   6.086   2.365 -0.2126  0.1104  0.4712
18639TIP3    H177332   4.826   6.105   2.446 -2.0320  2.2273 -1.0637
18639TIP3    H277333   4.823   6.127   2.296  1.6447 -1.1437 -1.7111
18640TIP3   OH277334   1.342   6.643  12.272  0.6012 -0.1480 -0.2425
18640TIP3    H177335   1.384   6.728  12.257 -1.2164  0.5552 -1.5941
18640TIP3    H277336   1.371   6.590  12.198  1.7842 -0.7526  0.6344
18641TIP3   OH277337   5.250   1.440  13.793  0.1547  0.8000 -0.0437
18641TIP3    H177338   5.280   1.419  13.705 -2.3267  0.5951 -0.8795
18641TIP3    H277339   5.299   1.381  13.850  0.5390 -0.2538 -1.4554
18642TIP3   OH277340   3.700   1.943  10.896 -0.2814 -0.0017 -0.4377
18642TIP3    H177341   3.664   1.966  10.810 -0.8190  2.5598  0.4379
18642TIP3    H277342   3.624   1.928  10.951  0.0632 -2.4875 -0.5717
18643TIP3   OH277343   0.297   6.425   3.565  0.1236 -0.1871  0.3328
18643TIP3    H177344   0.278   6.471   3.647  2.6944 -0.7367  1.2802
18643TIP3    H277345   0.313   6.495   3.501  0.4564  0.2300  0.8753
18644TIP3   OH277346   3.168   2.345   0.199 -0.5127 -0.6989  0.0850
18644TIP3    H177347   3.113   2.310   0.269 -0.0152  1.0740  1.4050
18644TIP3    H277348   3.112   2.342   0.121 -1.1243 -2.5644  0.5799
18645TIP3   OH277349   3.026   6.460   5.503  0.4612  0.0326 -0.7731
18645TIP3    H177350   2.932   6.477   5.498  0.3389 -0.6937 -0.9455
18645TIP3    H277351   3.049   6.481   5.593 -0.4115 -2.4795  0.0780
18646TIP3   OH277352   1.813   4.032   3.879  0.3531 -0.3937  0.1169
18646TIP3    H177353   1.765   3.949   3.892  0.2200 -0.0958  1.5894
18646TIP3    H277354   1.800   4.080   3.961  1.3999  0.6010 -0.2955
18647TIP3   OH277355   6.778   5.980  16.009 -0.0603  0.9482  0.6853
18647TIP3    H177356   6.759   6.010  16.098  1.4813 -1.5574  1.9179
18647TIP3    H277357   6.873   5.972  16.006  0.0889  3.1429 -1.9469
18648TIP3   OH277358   1.472   4.069   0.190  0.2334  0.2975 -0.7315
18648TIP3    H177359   1.488   3.975   0.192  0.4893  0.3402 -0.7497
18648TIP3    H277360   1.451   4.092   0.280  0.8579  0.3425 -0.5965
18649TIP3   OH277361   3.414   6.663   3.920  0.0497 -0.3616  0.1063
18649TIP3    H177362   3.355   6.676   3.994 -2.0582  0.0521 -1.5952
18649TIP3    H277363   3.392   6.733   3.859  1.7208 -0.7287 -0.9649
18650TIP3   OH277364   6.548   4.380  14.978 -0.8592  0.1739 -0.3073
18650TIP3    H177365   6.632   4.335  14.985  0.1617  1.9413 -0.9515
18650TIP3    H277366   6.558   4.459  15.032 -2.2951  0.1467  0.0361
18651TIP3   OH277367   1.963   3.451  13.385 -0.3141 -0.0647  0.0202
18651TIP3    H177368   2.033   3.394  13.416  1.1041  0.4627 -2.1150
18651TIP3    H277369   1.970   3.530  13.439 -2.5177 -1.9355  3.2424
18652TIP3   OH277370   6.677   5.609  14.091 -0.2446  0.0464  0.4505
18652TIP3    H177371   6.723   5.591  14.009  0.5092  2.9139  0.1863
18652TIP3    H277372   6.717   5.550  14.155  0.2546 -1.0912 -0.8963
18653TIP3   OH277373   2.428   4.207  16.984  0.0148 -0.5264  0.4453
18653TIP3    H177374   2.479   4.240  16.910 -0.8145  0.0008  0.1124
18653TIP3    H277375   2.357   4.158  16.944 -0.6382  0.0581  0.8817
18654TIP3   OH277376   0.884   2.723  12.043 -0.2434 -0.1875  0.3581
18654TIP3    H177377   0.951   2.767  11.991 -0.3891  0.9946  1.1506
18654TIP3    H277378   0.893   2.760  12.130 -1.1229 -0.9262  0.7743
18655TIP3   OH277379   5.169   0.691   1.937 -0.0971  0.2588 -0.2914
18655TIP3    H177380   5.140   0.600   1.939  1.1496 -0.1147  1.1662
18655TIP3    H277381   5.094   0.739   1.902 -1.2117 -1.1465  0.1278
18656TIP3   OH277382   3.573   1.374  12.051  0.0822 -0.2649 -0.3543
18656TIP3    H177383   3.634   1.370  11.977 -1.5675 -1.0099 -1.7044
18656TIP3    H277384   3.525   1.291  12.047 -1.5688  0.6426  0.2006
18657TIP3   OH277385   4.348   0.007  13.948 -0.1477 -0.2396 -0.1594
18657TIP3    H177386   4.317   0.031  14.035 -0.6165 -1.5863  0.0564
18657TIP3    H277387   4.270   0.010  13.893  0.0274 -0.0046 -0.3897
18658TIP3   OH277388   4.255   5.008  11.110  0.1701  0.0715  0.1076
18658TIP3    H177389   4.276   5.047  11.025  0.9528  1.7761  1.0547
18658TIP3    H277390   4.226   5.082  11.164 -0.6811 -1.0452  1.2099
18659TIP3   OH277391   2.858   4.373   3.876 -0.0033  0.0910 -0.0660
18659TIP3    H177392   2.777   4.378   3.927 -0.9802  0.5272 -1.5892
18659TIP3    H277393   2.872   4.280   3.862 -0.4882  0.0285 -0.1580
18660TIP3   OH277394   6.621   5.112  14.066 -0.0250 -0.0685  0.3340
18660TIP3    H177395   6.621   5.076  13.977 -0.1632 -0.9646  0.6850
18660TIP3    H277396   6.553   5.180  14.065 -0.8350 -0.8700  0.0536
18661TIP3   OH277397   5.062   4.901  11.634  0.5573 -0.0269 -0.2828
18661TIP3    H177398   5.146   4.938  11.661  0.5121 -0.0438 -0.1243
18661TIP3    H277399   5.085   4.841  11.562  0.7523 -0.4850  0.1578
18662TIP3   OH277400   1.884   5.047  17.127 -0.0186 -0.3275 -0.0700
18662TIP3    H177401   1.865   4.965  17.081  1.2729 -0.1937 -0.8582
18662TIP3    H277402   1.941   5.096  17.067  0.1720  0.6496  0.8894
18663TIP3   OH277403   6.765   5.719   2.429 -0.2061  0.2434 -0.0676
18663TIP3    H177404   6.748   5.670   2.348  1.7289  0.3082 -0.5355
18663TIP3    H277405   6.827   5.665   2.478 -0.5787  0.6883  0.9199
18664TIP3   OH277406   4.760   6.573   5.627  0.4332  0.1750  0.5654
18664TIP3    H177407   4.698   6.634   5.588  1.1895  1.0400  0.6995
18664TIP3    H277408   4.756   6.591   5.721  1.1978  0.5299  0.5322
18665TIP3   OH277409   1.592   5.024   4.557 -0.2007  0.1464  0.2730
18665TIP3    H177410   1.598   4.989   4.646  1.4312 -1.7699 -0.5581
18665TIP3    H277411   1.672   5.075   4.545 -1.1926  1.7898  0.4461
18666TIP3   OH277412   0.610   1.846   3.414  0.9845  0.2903  0.3378
18666TIP3    H177413   0.686   1.819   3.362 -0.6940 -2.3436 -0.8804
18666TIP3    H277414   0.638   1.833   3.505  1.0879 -3.4774 -0.1405
18667TIP3   OH277415   1.746   1.007  14.278  0.2476  0.8330 -0.1724
18667TIP3    H177416   1.730   0.914  14.293  0.0288  0.8433 -0.3456
18667TIP3    H277417   1.813   1.031  14.342  0.1861  0.5940 -0.0215
18668TIP3   OH277418   0.130   1.720   2.898 -0.7506 -0.1003 -0.0614
18668TIP3    H177419   0.093   1.635   2.874 -0.3404 -0.7341  1.4795
18668TIP3    H277420   0.152   1.761   2.814 -0.0122 -1.9514 -0.8103
18669TIP3   OH277421   1.130   5.292  13.542  0.2719  0.2174  0.0801
18669TIP3    H177422   1.068   5.233  13.499  1.9385 -1.1054 -0.5440
18669TIP3    H277423   1.178   5.333  13.470 -1.1886  2.7421  0.4786
18670TIP3   OH277424   1.368   6.217   6.427 -0.0990  0.2582 -0.3903
18670TIP3    H177425   1.353   6.312   6.433 -1.3683  0.0847 -0.6819
18670TIP3    H277426   1.293   6.184   6.378  0.9525 -0.7415 -1.3530
18671TIP3   OH277427   6.248   2.296  14.393  0.0623 -0.1504 -0.0619
18671TIP3    H177428   6.266   2.306  14.487 -0.0334  0.5222 -0.1102
18671TIP3    H277429   6.330   2.262  14.357  0.7230  1.3488 -0.0249
18672TIP3   OH277430   6.702   6.003  12.232 -0.0053  0.6160  0.6567
18672TIP3    H177431   6.739   6.000  12.144 -0.8052 -0.6856  0.3540
18672TIP3    H277432   6.693   6.097  12.251 -0.2431  0.9002 -0.8146
18673TIP3   OH277433   5.230   3.872  16.620  0.5716  0.3960 -0.0500
18673TIP3    H177434   5.226   3.946  16.681 -0.8640  1.1555 -1.0346
18673TIP3    H277435   5.288   3.901  16.550 -2.2004  1.7612 -1.8872
18674TIP3   OH277436   4.626   1.731  15.453  0.3401  0.0825 -0.3954
18674TIP3    H177437   4.578   1.710  15.373 -0.7025  0.0328  0.2315
18674TIP3    H277438   4.563   1.782  15.506  1.2524  0.7243  0.0883
18675TIP3   OH277439   5.715   3.070  14.407  0.2778  0.2907  0.0645
18675TIP3    H177440   5.700   2.982  14.372 -0.9670  0.1959  0.7943
18675TIP3    H277441   5.688   3.129  14.336  2.0911  0.0904 -0.8041
18676TIP3   OH277442   1.073   5.456  15.277  0.2422  0.5823  0.1597
18676TIP3    H177443   1.057   5.536  15.229 -2.5965  0.0936  0.1914
18676TIP3    H277444   1.078   5.483  15.369  1.0142  0.9406  0.0078
18677TIP3   OH277445   1.664   2.839  10.514 -0.5646 -0.2973  0.3266
18677TIP3    H177446   1.714   2.762  10.540 -2.0122 -1.2442  0.3516
18677TIP3    H277447   1.724   2.889  10.459  0.9739 -0.5546  1.7466
18678TIP3   OH277448   0.824   6.423  16.056  0.8047 -0.0379 -0.7458
18678TIP3    H177449   0.916   6.396  16.053  0.0351 -2.8012 -0.5517
18678TIP3    H277450   0.795   6.400  16.144 -0.2158  0.3928 -0.9621
18679TIP3   OH277451   1.608   0.380  11.612 -0.3188  0.0849  0.5195
18679TIP3    H177452   1.519   0.393  11.644 -0.5016  0.4584 -0.1271
18679TIP3    H277453   1.597   0.364  11.518  0.1866 -1.2130  0.6799
18680TIP3   OH277454   1.989   5.412   3.256 -0.5599  0.3708 -0.3595
18680TIP3    H177455   1.975   5.413   3.351  1.2018  0.7567 -0.0985
18680TIP3    H277456   1.997   5.320   3.234  1.6439  0.3978  0.2678
18681TIP3   OH277457   4.434   0.115   4.439  0.4526 -0.1485 -0.1727
18681TIP3    H177458   4.350   0.120   4.393 -0.7182 -0.3844  1.9019
18681TIP3    H277459   4.461   0.206   4.449 -0.0352 -0.0275  0.0378
18682TIP3   OH277460   4.885   6.173  15.662  0.1026  0.2009  0.2353
18682TIP3    H177461   4.849   6.203  15.745 -0.7312 -1.5811  0.5465
18682TIP3    H277462   4.856   6.238  15.598 -0.1982  0.9844  1.1676
18683TIP3   OH277463   4.441   5.998  13.851 -0.1079 -0.0634 -0.2481
18683TIP3    H177464   4.476   5.927  13.798  1.6792 -0.1032  0.9339
18683TIP3    H277465   4.501   6.071  13.837 -0.6770  0.5120  0.2512
18684TIP3   OH277466   6.024   2.402  13.322  0.6019 -0.7482  0.1314
18684TIP3    H177467   6.032   2.386  13.416  1.1068  0.6856  0.3420
18684TIP3    H277468   5.932   2.421  13.308  0.2131 -2.5788  0.0608
18685TIP3   OH277469   5.662   1.644  15.790  0.0782  0.9692 -0.4889
18685TIP3    H177470   5.749   1.645  15.829 -0.4911  1.7172  0.7891
18685TIP3    H277471   5.602   1.650  15.864 -1.0499  1.2300 -1.4017
18686TIP3   OH277472   1.016   0.490   6.078 -0.2735 -0.1663  0.0137
18686TIP3    H177473   1.076   0.564   6.088 -1.0194  0.3216  0.9565
18686TIP3    H277474   1.074   0.414   6.065  0.5240  0.3945  0.2505
18687TIP3   OH277475   0.361   5.629   0.561 -0.7592  0.5419  0.4576
18687TIP3    H177476   0.409   5.602   0.639 -1.7259 -1.5388  0.3585
18687TIP3    H277477   0.429   5.664   0.503  0.5273 -1.5413  0.6560
18688TIP3   OH277478   3.211   6.648   2.970  0.2022 -0.3303 -0.2765
18688TIP3    H177479   3.234   6.558   2.946  0.2475 -0.5270  0.5026
18688TIP3    H277480   3.149   6.675   2.902 -0.4854 -1.2545 -0.0204
18689TIP3   OH277481   4.842   4.525  11.023 -0.6546  0.1259  0.2279
18689TIP3    H177482   4.897   4.569  10.959 -2.5103 -0.9835 -2.1916
18689TIP3    H277483   4.849   4.432  11.002 -0.5261 -0.3599  2.2609
18690TIP3   OH277484   2.159   5.989   1.539 -0.2903  0.2648  0.0463
18690TIP3    H177485   2.222   6.019   1.474  0.0177  1.1874  0.7653
18690TIP3    H277486   2.115   5.915   1.497 -1.8757  2.4203 -2.2237
18691TIP3   OH277487   2.630   2.029  13.138  0.0924  0.6456  0.0916
18691TIP3    H177488   2.663   1.951  13.094 -0.6760  1.3744 -1.8836
18691TIP3    H277489   2.696   2.051  13.203  0.7087 -1.1652  0.0873
18692TIP3   OH277490   3.376   2.754  12.744  0.6740 -0.0353 -0.0484
18692TIP3    H177491   3.432   2.722  12.815  0.3893 -0.4528 -0.0056
18692TIP3    H277492   3.287   2.731  12.773  0.3833  1.6237  0.4128
18693TIP3   OH277493   3.895   1.288  14.755 -0.0267 -0.4806  0.3501
18693TIP3    H177494   3.955   1.286  14.680 -0.2611 -1.1695  0.1779
18693TIP3    H277495   3.952   1.286  14.832  0.1960 -0.2950  0.1931
18694TIP3   OH277496   6.560   1.204  14.174  0.2546  0.3773 -0.4017
18694TIP3    H177497   6.600   1.119  14.189 -0.0920 -0.4905 -3.9997
18694TIP3    H277498   6.537   1.235  14.262 -0.1005 -3.4278  0.9438
18695TIP3   OH277499   3.904   4.688  16.091 -0.0443 -0.0574  0.1979
18695TIP3    H177500   3.844   4.723  16.157  1.6690  2.8391  0.3237
18695TIP3    H277501   3.970   4.640  16.142 -0.5446 -0.6332  0.3094
18696TIP3   OH277502   4.165   2.623   4.179 -0.1492  0.8078  0.0002
18696TIP3    H177503   4.253   2.654   4.203  1.0737 -1.9412 -0.7324
18696TIP3    H277504   4.150   2.548   4.236 -1.6356  0.6594 -0.5649
18697TIP3   OH277505   3.009   2.850  14.364 -0.0025 -0.3785 -0.2541
18697TIP3    H177506   2.942   2.917  14.370 -1.0518 -0.9717 -4.0488
18697TIP3    H277507   2.991   2.791  14.437 -1.7276  1.1197  0.5507
18698TIP3   OH277508   2.673   3.186  11.456  0.2448 -0.8497 -0.0089
18698TIP3    H177509   2.693   3.257  11.517  0.4828 -0.1400 -0.9042
18698TIP3    H277510   2.653   3.230  11.373  0.7315 -1.8388 -0.6661
18699TIP3   OH277511   4.308   3.411   6.035  0.2110  0.1411 -0.2714
18699TIP3    H177512   4.329   3.337   5.979  1.7488 -0.1645  0.6665
18699TIP3    H277513   4.314   3.376   6.124  2.1317  1.6204  0.2383
18700TIP3   OH277514   5.606   3.540   2.558 -0.6277  0.0740 -0.0763
18700TIP3    H177515   5.571   3.605   2.619 -1.4375 -0.2192 -0.2282
18700TIP3    H277516   5.692   3.518   2.594 -0.1093  1.6455 -0.3451
18701TIP3   OH277517   1.053   1.996   2.348  1.0737 -0.4984  0.4455
18701TIP3    H177518   1.093   1.935   2.410 -1.0994 -2.0071  0.4332
18701TIP3    H277519   0.990   2.046   2.400  0.3182 -0.7269 -0.2402
18702TIP3   OH277520   0.660   6.634   0.175  0.2484  0.4461 -0.3215
18702TIP3    H177521   0.574   6.643   0.133  0.1125  0.9022  0.0485
18702TIP3    H277522   0.653   6.687   0.255  0.7288  0.1251 -0.0688
18703TIP3   OH277523   3.159   6.455   1.835  0.9601  0.0919 -0.2065
18703TIP3    H177524   3.107   6.385   1.795 -1.7451  2.2039 -0.5045
18703TIP3    H277525   3.121   6.467   1.922  1.7799  0.8138  0.0564
18704TIP3   OH277526   6.086   3.319  11.640  0.7098  0.6975 -0.4928
18704TIP3    H177527   6.078   3.395  11.582  0.5127 -0.6816 -2.3135
18704TIP3    H277528   5.996   3.296  11.663  0.5707 -0.6851 -2.2595
18705TIP3   OH277529   3.377   4.407   1.373  0.0719  0.6872  0.7394
18705TIP3    H177530   3.460   4.363   1.394  0.6303  1.0328 -0.6434
18705TIP3    H277531   3.313   4.335   1.368  0.9330  0.0127 -1.2740
18706TIP3   OH277532   2.516   4.529   3.223 -0.4577 -0.2601 -0.4419
18706TIP3    H177533   2.537   4.448   3.177 -0.8585  0.5335 -2.0574
18706TIP3    H277534   2.421   4.540   3.212 -0.3204  0.7198 -0.7636
18707TIP3   OH277535   1.447   1.000   5.005 -0.0776  0.2985  0.0621
18707TIP3    H177536   1.460   1.093   4.990  0.8194  0.2979  0.7835
18707TIP3    H277537   1.521   0.974   5.060 -0.6414 -0.7100  0.3603
18708TIP3   OH277538   1.448   6.579  11.760  0.1886 -0.2103 -0.2756
18708TIP3    H177539   1.367   6.560  11.807 -0.2826  0.6018 -0.7445
18708TIP3    H277540   1.433   6.666  11.722  0.9448 -0.4383 -1.0935
18709TIP3   OH277541   4.758   2.948  12.291 -0.0554  0.0669  0.0843
18709TIP3    H177542   4.841   2.903  12.307 -0.4217 -0.8490 -0.6042
18709TIP3    H277543   4.777   3.009  12.219 -0.3489 -1.1684 -1.0454
18710TIP3   OH277544   5.053   4.030  14.256 -0.2122 -1.5700 -0.0481
18710TIP3    H177545   5.105   4.108  14.275 -0.7235 -1.8398  2.7667
18710TIP3    H277546   5.115   3.968  14.218  0.4616 -0.2185 -1.1777
18711TIP3   OH277547   0.082   5.311  15.801  0.0765  0.4898 -0.0520
18711TIP3    H177548  -0.005   5.284  15.830  0.3524  1.0014  1.2679
18711TIP3    H277549   0.123   5.347  15.879  2.3245 -1.8257 -0.0923
18712TIP3   OH277550   1.436   0.373   1.996 -0.6816  0.2527 -0.8029
18712TIP3    H177551   1.341   0.375   2.011 -0.7010  0.7168 -0.9884
18712TIP3    H277552   1.454   0.450   1.942 -0.0981  0.5491 -0.1988
18713TIP3   OH277553   5.466   5.154  12.055  0.0475 -0.7133 -0.1968
18713TIP3    H177554   5.401   5.084  12.063  0.8236 -1.4855 -0.4984
18713TIP3    H277555   5.543   5.111  12.017 -0.3449  0.8537 -2.9191
18714TIP3   OH277556   1.364   1.071   0.239  0.4571 -0.4018  0.3390
18714TIP3    H177557   1.287   1.119   0.269  1.6917  1.2475  0.9091
18714TIP3    H277558   1.437   1.132   0.249  1.6109 -1.3635 -1.7576
18715TIP3   OH277559   0.502   2.091   5.717  1.0427 -0.5318 -0.2342
18715TIP3    H177560   0.558   2.126   5.786  2.7162 -0.7712 -1.4338
18715TIP3    H277561   0.560   2.081   5.642 -0.5552 -1.0793 -1.4273
18716TIP3   OH277562   0.525   4.905  13.030 -0.3310 -0.4420  0.6565
18716TIP3    H177563   0.587   4.906  12.956  0.1814 -2.4106  1.0540
18716TIP3    H277564   0.551   4.981  13.083  0.5976 -0.1972 -0.1255
18717TIP3   OH277565   5.897   0.251  13.689 -0.9319 -0.5524  0.1152
18717TIP3    H177566   5.926   0.243  13.598 -0.3362 -0.5359  0.3035
18717TIP3    H277567   5.915   0.166  13.728 -4.6740 -1.8532 -0.7499
18718TIP3   OH277568   6.506   0.050  12.984  0.1630  0.2343 -0.5897
18718TIP3    H177569   6.550  -0.020  12.935  1.6020  0.6434  0.0942
18718TIP3    H277570   6.573   0.085  13.042 -1.5549 -0.4440  1.9267
18719TIP3   OH277571   0.378   4.674   3.406 -0.9443  0.4094  0.3673
18719TIP3    H177572   0.346   4.603   3.351  0.2579  0.5347 -0.5321
18719TIP3    H277573   0.438   4.723   3.349  0.0551  0.7540  1.6835
18720TIP3   OH277574   2.216   6.730  17.042 -0.0129  0.0261 -0.0163
18720TIP3    H177575   2.271   6.805  17.064  0.2567 -0.7676  2.1214
18720TIP3    H277576   2.275   6.654  17.046 -0.8035 -0.5869  0.2744
18721TIP3   OH277577   5.914   6.616  14.001  0.0199 -0.3450  0.3218
18721TIP3    H177578   5.973   6.560  13.951 -1.2303 -1.2454 -0.1483
18721TIP3    H277579   5.933   6.705  13.970 -0.4144 -0.8488 -1.4070
18722TIP3   OH277580   6.255   1.000  11.071 -0.3031  0.6455  0.2479
18722TIP3    H177581   6.188   1.035  11.012 -1.0682  1.9556  1.8585
18722TIP3    H277582   6.337   1.036  11.038 -0.6120  0.5782 -0.6000
18723TIP3   OH277583   1.946   6.728   0.373  0.5144  0.3931  0.0818
18723TIP3    H177584   1.882   6.781   0.421 -1.5511 -2.3827  0.4733
18723TIP3    H277585   2.016   6.714   0.436  0.0814  0.8457  0.6744
18724TIP3   OH277586   1.660   3.088   6.225  0.1230  0.4937 -0.3390
18724TIP3    H177587   1.738   3.117   6.271 -1.8798  1.6274  2.4964
18724TIP3    H277588   1.689   3.015   6.172  2.9264  0.2977  1.3761
18725TIP3   OH277589   6.139   5.133  16.318 -0.0585  0.1063  0.1860
18725TIP3    H177590   6.060   5.131  16.265  0.0167  0.9958  0.0311
18725TIP3    H277591   6.149   5.044  16.351 -1.0326 -0.0457  0.0681
18726TIP3   OH277592   2.864   2.560   6.206 -0.4891 -0.3396 -0.3582
18726TIP3    H177593   2.958   2.564   6.185 -0.2549 -1.5084  0.4768
18726TIP3    H277594   2.831   2.647   6.182  0.9762  0.3666  0.1610
18727TIP3   OH277595   4.301   1.389  12.169 -0.4833 -0.2606  0.1986
18727TIP3    H177596   4.260   1.403  12.084 -0.1944  1.5700  0.3515
18727TIP3    H277597   4.372   1.453  12.172  0.2638 -1.1202  1.3354
18728TIP3   OH277598   5.632   2.576   5.013  0.0953 -0.1625  0.3008
18728TIP3    H177599   5.724   2.602   5.016 -0.5565  2.3524 -0.5266
18728TIP3    H277600   5.593   2.615   5.091 -0.6903  0.5325 -0.4265
18729TIP3   OH277601   0.498   0.864  13.531  0.1845  0.5420 -0.3572
18729TIP3    H177602   0.445   0.909  13.596 -0.7059 -1.5600  0.4186
18729TIP3    H277603   0.588   0.891  13.551  0.0425 -0.8017  2.4179
18730TIP3   OH277604   0.674   0.185  13.811  0.3525  0.4498  0.3922
18730TIP3    H177605   0.769   0.193  13.817  0.5498 -2.2750  1.4725
18730TIP3    H277606   0.641   0.220  13.893  0.6926 -1.9325  1.5897
18731TIP3   OH277607   5.192   3.023  10.814  0.0132 -0.4427 -0.2987
18731TIP3    H177608   5.193   3.023  10.910  0.7896  1.8130 -0.2874
18731TIP3    H277609   5.179   3.115  10.790 -0.4606 -1.0304 -2.3577
18732TIP3   OH277610   1.378   5.655  15.431  0.5364 -0.1873 -0.9114
18732TIP3    H177611   1.296   5.691  15.396  0.1284 -0.2397 -0.0152
18732TIP3    H277612   1.446   5.693  15.375  0.0554  1.4401 -0.4165
18733TIP3   OH277613   3.037   4.775   5.700  0.4492  1.1349 -0.0845
18733TIP3    H177614   2.952   4.745   5.666  0.7613  0.7810 -0.5707
18733TIP3    H277615   3.046   4.731   5.784  0.6771  0.2383 -0.5684
18734TIP3   OH277616   3.162   4.378  16.659 -0.4251 -0.2415 -0.1957
18734TIP3    H177617   3.127   4.289  16.668 -1.3492  0.3233  2.0529
18734TIP3    H277618   3.170   4.391  16.564 -1.4946 -2.2367 -0.5890
18735TIP3   OH277619   2.473   5.163  11.705  0.7442 -0.1117 -0.9456
18735TIP3    H177620   2.471   5.079  11.660  0.4462 -1.0802  0.8152
18735TIP3    H277621   2.522   5.146  11.786  0.3457  1.3085 -0.3790
18736TIP3   OH277622   0.772   5.583  12.495 -0.5718  0.0330 -0.0234
18736TIP3    H177623   0.700   5.633  12.456 -0.6318  0.7976  1.0347
18736TIP3    H277624   0.741   5.562  12.583  1.0471  1.6369  0.9798
18737TIP3   OH277625   6.626   1.959   5.556 -0.1579 -0.2804  0.3567
18737TIP3    H177626   6.677   2.029   5.516 -2.0645  0.8537 -0.1923
18737TIP3    H277627   6.658   1.954   5.646 -0.4695  1.7952  0.6120
18738TIP3   OH277628   1.365   4.246   5.916 -0.1023 -0.4016 -0.5294
18738TIP3    H177629   1.451   4.248   5.873  0.9557  0.2116  1.5351
18738TIP3    H277630   1.326   4.330   5.895  1.3759  0.8550  1.5211
18739TIP3   OH277631   2.041   2.068  12.147 -0.1387  0.1277  0.0971
18739TIP3    H177632   2.077   2.157  12.144  0.4647 -0.1012  0.4861
18739TIP3    H277633   1.985   2.063  12.069  0.5268  0.5468 -0.4151
18740TIP3   OH277634   0.337   1.205   1.960  0.4319 -0.4311 -0.3300
18740TIP3    H177635   0.275   1.271   1.989  1.2850 -0.1576  0.9449
18740TIP3    H277636   0.289   1.152   1.896  0.3194  2.5942 -2.8550
18741TIP3   OH277637   0.830   3.632  13.498  0.1314 -0.4442 -0.1136
18741TIP3    H177638   0.873   3.573  13.437 -0.7347 -2.1058  0.8436
18741TIP3    H277639   0.740   3.638  13.465  1.0587  3.3097 -2.3323
18742TIP3   OH277640   4.959   5.834  13.157  0.0431  0.1664 -0.1604
18742TIP3    H177641   4.900   5.771  13.116 -0.4555  1.5333 -1.6192
18742TIP3    H277642   4.941   5.917  13.111  1.5452  1.0861  0.8633
18743TIP3   OH277643   6.037   0.949  15.783 -0.3419 -0.1112  0.1826
18743TIP3    H177644   6.058   1.007  15.710 -0.5777 -1.5105 -1.0230
18743TIP3    H277645   5.941   0.951  15.788 -0.2871  0.6245  0.9909
18744TIP3   OH277646   0.448   1.348  15.790 -0.2441 -0.0328 -0.6876
18744TIP3    H177647   0.514   1.323  15.726  2.1752 -0.0911  1.7474
18744TIP3    H277648   0.452   1.443  15.793  0.9509 -0.1136  0.6737
18745TIP3   OH277649   3.659   4.761  15.223 -0.0390  0.0306  0.9124
18745TIP3    H177650   3.676   4.845  15.180  1.2837 -0.4662  0.4213
18745TIP3    H277651   3.583   4.777  15.278 -0.1537  1.3981  0.3793
18746TIP3   OH277652   0.802   3.162   0.094 -0.0439 -0.5774  0.3432
18746TIP3    H177653   0.862   3.178   0.167 -0.4011 -1.4167  0.8263
18746TIP3    H277654   0.751   3.243   0.087  0.3926 -0.2721  0.6440
18747TIP3   OH277655   4.223   5.716  11.866 -0.8018 -0.1536 -0.4182
18747TIP3    H177656   4.223   5.752  11.955  0.8413 -0.0553 -0.4466
18747TIP3    H277657   4.271   5.780  11.814 -1.9347 -0.1119 -1.4327
18748TIP3   OH277658   6.708   5.856   0.143 -0.2736  0.2166  0.0185
18748TIP3    H177659   6.660   5.801   0.205 -0.2649  1.6331  1.3209
18748TIP3    H277660   6.652   5.933   0.131  1.6038  1.8607  1.5120
18749TIP3   OH277661   5.731   0.913   5.753  0.2090  0.5573 -0.8717
18749TIP3    H177662   5.673   0.955   5.816  0.6032 -0.1656 -0.0179
18749TIP3    H277663   5.816   0.956   5.766  0.5443 -0.3142 -0.1882
18750TIP3   OH277664   1.333   1.465   3.569 -0.3107 -0.0137  0.0600
18750TIP3    H177665   1.322   1.517   3.489 -0.4294 -0.8688 -0.4922
18750TIP3    H277666   1.427   1.467   3.587 -0.0635 -1.1296 -1.0182
18751TIP3   OH277667   5.151   5.285   2.543 -0.1342  0.0026  0.7558
18751TIP3    H177668   5.097   5.346   2.494  0.6387 -0.3661 -0.5927
18751TIP3    H277669   5.094   5.210   2.560 -0.1259 -0.2880 -0.4586
18752TIP3   OH277670   1.037   5.129  12.421  0.0669  0.5020 -0.3294
18752TIP3    H177671   0.957   5.100  12.378 -0.0591  0.0702  0.1875
18752TIP3    H277672   1.020   5.220  12.445 -0.9912 -0.1457  1.4529
18753TIP3   OH277673   3.233   1.935   5.528 -0.3175  0.5736  0.3169
18753TIP3    H177674   3.267   1.890   5.605 -0.3623  1.2090  0.7104
18753TIP3    H277675   3.175   2.002   5.563 -1.6814 -0.2308 -0.3299
18754TIP3   OH277676   5.478   6.689  13.043  0.1964 -0.5919  0.7722
18754TIP3    H177677   5.457   6.766  13.095  0.5988 -0.6994  1.0966
18754TIP3    H277678   5.424   6.619  13.079  1.0612 -0.8594  1.5799
18755TIP3   OH277679   4.190   5.129   2.503 -0.1406  0.0635 -0.3517
18755TIP3    H177680   4.249   5.131   2.579  0.5693  2.0467 -0.9211
18755TIP3    H277681   4.103   5.117   2.540  0.3554 -0.4192  0.6790
18756TIP3   OH277682   0.471   0.842   5.727  0.0327  0.0904 -0.6206
18756TIP3    H177683   0.510   0.899   5.793  0.5932 -1.3237  0.2958
18756TIP3    H277684   0.377   0.854   5.739  0.0633 -1.8079  1.9774
18757TIP3   OH277685   1.666   0.179   5.834  0.0360 -0.3280 -0.2116
18757TIP3    H177686   1.647   0.107   5.896  1.2279 -0.6764 -0.2333
18757TIP3    H277687   1.642   0.258   5.882 -0.2479 -0.6743  0.2290
18758TIP3   OH277688   0.254   1.194   2.461  0.0820  0.0631 -0.1343
18758TIP3    H177689   0.199   1.143   2.520  0.3068 -0.1689 -0.1231
18758TIP3    H277690   0.335   1.145   2.456  0.9448  1.3192  1.2235
18759TIP3   OH277691   4.502   3.013  11.582  0.2403 -0.0911  0.1110
18759TIP3    H177692   4.430   3.062  11.543 -0.4038 -1.1504 -0.0570
18759TIP3    H277693   4.460   2.960  11.650  0.2807 -3.4110 -2.3628
18760TIP3   OH277694   2.907   3.486  12.631 -0.1537  0.5673  0.0239
18760TIP3    H177695   2.905   3.579  12.652  0.6286  0.7627 -0.7142
18760TIP3    H277696   2.896   3.483  12.536  1.6653  0.0166 -0.1781
18761TIP3   OH277697   4.644   3.316   1.175  0.0593 -0.5235  0.5603
18761TIP3    H177698   4.553   3.288   1.188 -0.4647 -0.3595 -2.2395
18761TIP3    H277699   4.640   3.411   1.172  0.8351 -0.3621  3.5119
18762TIP3   OH277700   4.670   5.336  14.103  0.1572 -0.0268  0.1328
18762TIP3    H177701   4.676   5.358  14.196 -0.1066  1.2266 -0.1437
18762TIP3    H277702   4.590   5.379  14.073  0.2914 -0.3462 -0.7039
18763TIP3   OH277703   3.784   4.254  10.839 -0.1322 -0.1256  0.0525
18763TIP3    H177704   3.864   4.211  10.810  0.5617  0.1738  1.4668
18763TIP3    H277705   3.752   4.199  10.911 -1.5944 -0.6362 -0.9677
18764TIP3   OH277706   1.143   1.684   1.638  0.0891 -0.2493 -0.1246
18764TIP3    H177707   1.173   1.597   1.611  2.5712  0.6370 -0.3925
18764TIP3    H277708   1.223   1.738   1.637 -1.5421  2.2159 -0.6810
18765TIP3   OH277709   2.906   6.235   0.213  0.3929  0.4080  0.6951
18765TIP3    H177710   2.850   6.193   0.149  0.1995  0.9654  0.4971
18765TIP3    H277711   2.941   6.163   0.266  0.2670 -0.0171  0.1993
18766TIP3   OH277712   0.808   1.707   0.583 -0.3509 -0.0470  0.2707
18766TIP3    H177713   0.885   1.728   0.530 -2.1485 -0.2160 -2.5329
18766TIP3    H277714   0.816   1.613   0.600 -0.8530 -0.4567 -1.6310
18767TIP3   OH277715   5.261   5.482   0.355 -0.2243 -0.0185  0.5078
18767TIP3    H177716   5.195   5.546   0.382 -0.5688 -0.8711  1.6910
18767TIP3    H277717   5.237   5.459   0.265 -0.7355  0.6882  0.4615
18768TIP3   OH277718   5.860   3.760  11.710  0.5973  0.0479  0.1361
18768TIP3    H177719   5.768   3.783  11.717  1.2029  2.6322  0.1461
18768TIP3    H277720   5.881   3.771  11.618  0.5697 -1.9918 -0.1411
18769TIP3   OH277721   5.625   3.156  14.168  0.3691 -0.0562 -0.3204
18769TIP3    H177722   5.700   3.177  14.112 -0.3765  0.7875 -1.0244
18769TIP3    H277723   5.564   3.110  14.111 -1.1380  2.3142 -0.6976
18770TIP3   OH277724   5.268   5.415   5.930 -0.1365 -0.1660  0.0932
18770TIP3    H177725   5.206   5.471   5.883  0.5694  0.8746  0.3789
18770TIP3    H277726   5.346   5.414   5.874  0.3031  0.1730  0.6896
18771TIP3   OH277727   5.774   4.869   4.223 -0.0392  0.3079  0.2815
18771TIP3    H177728   5.709   4.820   4.172 -2.0774  0.3937  2.7447
18771TIP3    H277729   5.806   4.936   4.162 -1.6993 -0.1950 -1.1882
18772TIP3   OH277730   0.223   4.311  11.522  0.7311  0.0258  0.4970
18772TIP3    H177731   0.165   4.348  11.455  2.6032  2.4195  0.1349
18772TIP3    H277732   0.172   4.316  11.603  0.0184  1.1138  0.0006
18773TIP3   OH277733   1.492   5.631   1.386  0.3749  0.1541 -0.2796
18773TIP3    H177734   1.510   5.644   1.293 -0.6159  1.7016 -0.2662
18773TIP3    H277735   1.549   5.695   1.430  0.0244  0.1957  0.1134
18774TIP3   OH277736   4.644   2.906   4.478 -0.2653 -0.1481  0.2645
18774TIP3    H177737   4.712   2.941   4.421 -0.2553 -0.5664  0.0223
18774TIP3    H277738   4.586   2.981   4.493  0.7940  0.4851  1.3080
18775TIP3   OH277739   0.532   6.240  16.359 -0.2154 -0.0967 -0.1360
18775TIP3    H177740   0.549   6.170  16.296  0.2812 -1.0715  1.0604
18775TIP3    H277741   0.510   6.194  16.440  0.7830  1.1262  0.8429
18776TIP3   OH277742   2.855   3.205   3.962  0.1451  0.0383 -0.2091
18776TIP3    H177743   2.777   3.167   3.921  0.7800 -1.1695 -0.3418
18776TIP3    H277744   2.922   3.137   3.951  0.8471  0.5068  1.1082
18777TIP3   OH277745   6.303   4.525   5.034  0.1776 -0.0082 -0.0786
18777TIP3    H177746   6.297   4.492   5.123 -1.5067  1.8823  0.5641
18777TIP3    H277747   6.379   4.583   5.034  0.3147 -0.1902  0.0777
18778TIP3   OH277748   6.234   4.171  15.848  0.1893 -0.2299  0.1083
18778TIP3    H177749   6.206   4.127  15.929 -0.6119  1.2638  0.6653
18778TIP3    H277750   6.329   4.176  15.856  0.0514  0.8150  1.4728
18779TIP3   OH277751   1.888   4.066   3.047  0.0034 -0.2851 -0.1866
18779TIP3    H177752   1.898   4.006   3.121  0.5663 -0.3173 -0.2854
18779TIP3    H277753   1.965   4.050   2.992 -0.3809 -0.2243 -0.7523
18780TIP3   OH277754   3.630   0.377   6.445  0.0024 -0.6882 -0.6668
18780TIP3    H177755   3.616   0.360   6.352  0.7849  0.6165 -1.0328
18780TIP3    H277756   3.585   0.305   6.490 -0.9010 -0.9906 -2.0328
18781TIP3   OH277757   0.041   5.439  15.068 -0.1193 -0.0300  0.4589
18781TIP3    H177758  -0.020   5.384  15.020 -0.5900 -1.8963  3.1002
18781TIP3    H277759   0.120   5.385  15.077  0.5702  0.9404  0.3516
18782TIP3   OH277760   4.768   2.570  16.170 -0.2400  0.4946  0.2719
18782TIP3    H177761   4.722   2.571  16.254  0.0255  2.7809  0.4112
18782TIP3    H277762   4.856   2.601  16.190 -0.1555  1.0100 -0.8408
18783TIP3   OH277763   1.983   5.043  12.564  0.3578  0.2079  0.4894
18783TIP3    H177764   1.944   5.128  12.544  0.6449  0.9061  2.6783
18783TIP3    H277765   2.077   5.060  12.567  0.5218 -0.5063 -0.4643
18784TIP3   OH277766   0.847   3.279  14.089  0.3275 -0.3113  0.3501
18784TIP3    H177767   0.901   3.354  14.114  1.1274 -1.0165  0.7643
18784TIP3    H277768   0.859   3.271  13.994 -0.3120  0.5112  0.2015
18785TIP3   OH277769   4.038   5.430   4.482  0.4184 -0.1092  0.4464
18785TIP3    H177770   4.076   5.474   4.558 -0.6953 -0.2896  1.1212
18785TIP3    H277771   3.961   5.483   4.460  2.0027  1.2421 -1.9723
18786TIP3   OH277772   1.836   0.740   1.330 -0.4377 -0.0359  0.3780
18786TIP3    H177773   1.766   0.694   1.377  0.7137  0.8495  3.0817
18786TIP3    H277774   1.914   0.687   1.346  0.1476  0.7739  0.2111
18787TIP3   OH277775   6.589   2.491  13.175  0.4189 -0.0763 -0.5764
18787TIP3    H177776   6.520   2.517  13.114  0.1741  1.2222  0.2337
18787TIP3    H277777   6.630   2.573  13.202  0.3351 -0.5906  1.2178
18788TIP3   OH277778   5.448   2.994   5.217  0.1492 -0.8323  0.3264
18788TIP3    H177779   5.508   3.029   5.152  0.8816 -2.8079 -0.0770
18788TIP3    H277780   5.361   3.001   5.177 -0.1095  3.0270  1.3309
18789TIP3   OH277781   3.920   3.032  11.762 -0.1570  0.2477  0.4093
18789TIP3    H177782   3.843   3.025  11.817  0.0580  0.5653  0.7545
18789TIP3    H277783   3.886   3.035  11.673 -0.5629  0.6865  0.5764
18790TIP3   OH277784   2.872   2.680   4.034 -0.1308  0.3868 -0.6020
18790TIP3    H177785   2.825   2.661   3.953 -0.3470 -2.6253  0.1766
18790TIP3    H277786   2.956   2.716   4.005 -0.2348 -0.5969 -2.1871
18791TIP3   OH277787   6.283   0.730  13.133 -0.2139  0.0531  0.2415
18791TIP3    H177788   6.285   0.743  13.038 -0.9039  2.4590  0.5111
18791TIP3    H277789   6.207   0.674  13.148  0.8737 -1.7340 -0.7368
18792TIP3   OH277790   0.869   4.231  16.275 -0.1510  0.0484 -0.0915
18792TIP3    H177791   0.776   4.232  16.297 -0.2478 -2.0215 -0.2713
18792TIP3    H277792   0.871   4.243  16.180 -0.2388 -0.0581 -0.1067
18793TIP3   OH277793   3.705   4.128  16.516 -0.8209 -0.2480 -0.5699
18793TIP3    H177794   3.722   4.090  16.602 -0.7921 -0.2353 -0.5700
18793TIP3    H277795   3.663   4.212  16.534  0.2320  0.2808 -0.5506
18794TIP3   OH277796   4.688   3.365   5.158  0.1593 -0.5803 -0.1089
18794TIP3    H177797   4.720   3.321   5.236  0.0605  0.4495  0.5247
18794TIP3    H277798   4.602   3.400   5.184 -0.3124 -1.0731 -0.9772
18795TIP3   OH277799   4.489   5.663   6.058  0.0935 -0.3245 -0.1218
18795TIP3    H177800   4.492   5.569   6.078 -2.3561 -0.4473 -0.2300
18795TIP3    H277801   4.504   5.705   6.142 -1.3187 -0.8340  0.4018
18796TIP3   OH277802   3.715   5.219  11.668 -0.0473 -0.1826 -0.2274
18796TIP3    H177803   3.777   5.287  11.691 -0.2845 -0.2082  0.4814
18796TIP3    H277804   3.750   5.139  11.708 -1.0771 -0.0005  1.0518
18797TIP3   OH277805   0.230   4.022   4.072 -0.1286  0.3456 -0.0803
18797TIP3    H177806   0.145   3.978   4.068  0.2264 -0.7031  3.1444
18797TIP3    H277807   0.236   4.054   4.162  2.0025  2.2547 -0.8725
18798TIP3   OH277808   0.758   2.815  16.535  0.0846 -0.1375 -0.2421
18798TIP3    H177809   0.705   2.739  16.561 -0.9812  0.9957  0.9751
18798TIP3    H277810   0.831   2.816  16.596  0.0063 -0.0865 -0.1481
18799TIP3   OH277811   0.439   4.521  14.720 -0.2794  0.0500 -0.2857
18799TIP3    H177812   0.518   4.468  14.719 -0.8568 -0.8699  1.1630
18799TIP3    H277813   0.442   4.567  14.804  0.3246  2.5046 -1.5985
18800TIP3   OH277814   0.873   0.891  14.805  0.4644  0.5760 -0.3816
18800TIP3    H177815   0.808   0.958  14.825  0.5428  0.7621 -0.7516
18800TIP3    H277816   0.895   0.905  14.713 -0.3147 -0.6416 -0.7475
18801TIP3   OH277817   2.776   2.078   6.604 -0.0161  0.3546 -0.1537
18801TIP3    H177818   2.716   2.089   6.678 -1.2940 -2.5996 -0.6876
18801TIP3    H277819   2.854   2.129   6.629 -1.8403  2.4418  1.5259
18802TIP3   OH277820   3.519   3.788  15.260  0.0921  0.0407  0.5067
18802TIP3    H177821   3.507   3.843  15.182  0.1395  1.4648  1.4792
18802TIP3    H277822   3.597   3.736  15.240 -0.0405  0.2086 -0.4952
18803TIP3   OH277823   6.128   5.977  15.023  0.0504  0.0002 -0.3822
18803TIP3    H177824   6.215   6.009  15.045  0.3321  0.3679 -1.9463
18803TIP3    H277825   6.073   6.003  15.097  1.1721  0.1821  0.3951
18804TIP3   OH277826   1.770   1.661   0.074  0.3146  0.2969  0.3185
18804TIP3    H177827   1.798   1.736   0.023  0.7768  0.2383  0.4852
18804TIP3    H277828   1.816   1.586   0.035  2.2861  0.5347  2.1047
18805TIP3   OH277829   2.221   1.169   4.458 -0.0813 -0.0606  0.3751
18805TIP3    H177830   2.270   1.196   4.381 -0.1333  0.4712  0.5288
18805TIP3    H277831   2.288   1.139   4.520 -0.0342 -0.4060  0.1591
18806TIP3   OH277832   6.374   0.319  15.303 -0.3671 -1.1276 -0.1600
18806TIP3    H177833   6.332   0.388  15.354 -1.0131 -1.4441 -0.2579
18806TIP3    H277834   6.411   0.364  15.227 -2.6420 -1.1432 -1.3497
18807TIP3   OH277835   6.674   5.842  16.817 -0.1098 -0.3275 -0.4782
18807TIP3    H177836   6.717   5.922  16.788 -0.0334 -0.8582 -1.9001
18807TIP3    H277837   6.718   5.818  16.898  0.4347  0.6036 -0.4977
18808TIP3   OH277838   4.257   4.780   3.394 -0.0444 -0.1893  0.4399
18808TIP3    H177839   4.176   4.779   3.343 -1.6727  1.1915  2.8958
18808TIP3    H277840   4.247   4.709   3.457  1.0835 -0.6275  0.1323
18809TIP3   OH277841   2.450   5.113  16.642 -0.1066  0.0034 -0.5203
18809TIP3    H177842   2.516   5.060  16.687  1.2840  0.9682 -1.3986
18809TIP3    H277843   2.412   5.168  16.711  0.2473 -0.3012 -0.0823
18810TIP3   OH277844   4.215   5.301  11.234 -0.2404  0.5666  0.5800
18810TIP3    H177845   4.197   5.381  11.186 -0.5947  0.3596  0.3603
18810TIP3    H277846   4.310   5.291  11.232 -0.2347  0.7124  0.1789
18811TIP3   OH277847   0.714   0.672   5.645 -0.3294 -0.1240  0.0639
18811TIP3    H177848   0.634   0.717   5.669 -0.1014 -0.3075  1.1807
18811TIP3    H277849   0.692   0.624   5.565 -2.0184 -2.0678  1.6541
18812TIP3   OH277850   5.889   2.397   0.472 -0.3215 -0.2304 -0.1632
18812TIP3    H177851   5.958   2.404   0.538  1.3841 -0.0064 -1.8891
18812TIP3    H277852   5.912   2.463   0.407 -1.7706 -0.6603 -1.1378
18813TIP3   OH277853   1.142   1.699  13.288 -0.8842  0.3608 -0.3616
18813TIP3    H177854   1.215   1.759  13.282 -0.4039 -0.3097 -1.3318
18813TIP3    H277855   1.125   1.672  13.198  0.0251 -2.2559  0.1929
18814TIP3   OH277856   3.425   4.769  11.920  0.5629 -0.0178  0.1077
18814TIP3    H177857   3.423   4.860  11.889  0.8855  0.1712  0.6232
18814TIP3    H277858   3.446   4.718  11.842  0.4705  0.3603 -0.1699
18815TIP3   OH277859   6.032   4.006  13.054 -0.7707 -0.1750 -0.1849
18815TIP3    H177860   5.948   4.050  13.048 -0.8762 -0.2824  0.4163
18815TIP3    H277861   6.019   3.937  13.120 -0.1766 -0.0891  0.0355
18816TIP3   OH277862   4.062   3.969  12.345 -0.3967  0.3784 -0.2494
18816TIP3    H177863   4.025   4.025  12.414  1.3145  0.4895  0.5959
18816TIP3    H277864   4.088   3.889  12.390 -1.4591 -0.5182 -1.2022
18817TIP3   OH277865   3.843   0.375  15.758  0.2108  0.5872  0.2912
18817TIP3    H177866   3.913   0.315  15.731 -0.2344  0.0362  0.3505
18817TIP3    H277867   3.888   0.453  15.790  0.7838  0.7126 -0.7873
18818TIP3   OH277868   1.738   6.571   0.123 -0.4068  0.8218  0.1966
18818TIP3    H177869   1.795   6.641   0.153 -0.6819  0.5859  1.2813
18818TIP3    H277870   1.650   6.598   0.151 -0.4783 -0.0794  0.8560
18819TIP3   OH277871   0.581   4.823   0.120  0.3390  0.6815  0.4684
18819TIP3    H177872   0.548   4.891   0.062  1.1826 -0.2174 -1.0928
18819TIP3    H277873   0.659   4.861   0.160 -0.9143  1.7377  1.9372
18820TIP3   OH277874   1.983   6.020  16.518  0.5704 -0.2019 -0.0834
18820TIP3    H177875   1.915   6.014  16.585  0.2748 -2.5137 -0.5523
18820TIP3    H277876   2.059   6.056  16.564 -0.7581  1.8603  0.5752
18821TIP3   OH277877   2.260   3.645   0.135 -0.1930  0.2895  0.0952
18821TIP3    H177878   2.316   3.636   0.212 -0.0053  0.5186 -0.0166
18821TIP3    H277879   2.205   3.566   0.137  1.0478 -0.5950 -0.5374
18822TIP3   OH277880   0.139   2.756  12.401 -0.7039 -0.4254 -0.4422
18822TIP3    H177881   0.176   2.767  12.314  0.7925  1.1557  0.3610
18822TIP3    H277882   0.189   2.684  12.439 -0.1519  0.0322 -0.2827
18823TIP3   OH277883   1.766   6.230   2.250 -0.3976 -0.1605  0.1325
18823TIP3    H177884   1.697   6.271   2.303 -2.4500 -3.0451 -0.2024
18823TIP3    H277885   1.801   6.161   2.306  0.7961 -0.0801 -0.4984
18824TIP3   OH277886   4.919   5.513  16.612 -0.3356  0.5849 -0.1821
18824TIP3    H177887   4.905   5.456  16.687  3.3950  0.7445  0.7065
18824TIP3    H277888   4.928   5.601  16.651 -2.6427  1.3344 -1.2412
18825TIP3   OH277889   1.594   4.111  14.585 -0.0840 -0.4649 -0.0153
18825TIP3    H177890   1.676   4.061  14.584 -0.2004 -0.7422  1.7617
18825TIP3    H277891   1.539   4.065  14.650 -1.4987 -0.0489 -0.8826
18826TIP3   OH277892   3.587   3.040   1.699 -0.1601 -0.0040  0.1196
18826TIP3    H177893   3.547   2.957   1.674  0.6126 -0.0360 -1.0793
18826TIP3    H277894   3.680   3.018   1.713 -0.2063  0.4027  1.1042
18827TIP3   OH277895   0.034   1.213   0.766  0.0615  0.2780 -0.6526
18827TIP3    H177896   0.025   1.119   0.779  1.7840 -0.2729 -3.2466
18827TIP3    H277897  -0.056   1.246   0.762 -0.5432 -1.2744 -0.1290
18828TIP3   OH277898   1.413   3.407   4.210  0.0550  0.2292 -0.0627
18828TIP3    H177899   1.414   3.383   4.303  1.5150  2.6522  0.5922
18828TIP3    H277900   1.505   3.403   4.184 -0.0132  2.2003 -0.6729
18829TIP3   OH277901   1.086   1.614  14.832 -0.1360 -0.4698  0.4381
18829TIP3    H177902   1.128   1.599  14.917  0.4691 -0.0625  0.2150
18829TIP3    H277903   1.011   1.669  14.852 -1.9043 -3.0225  1.1600
18830TIP3   OH277904   2.811   3.738  14.337 -0.3771  0.5569 -0.0325
18830TIP3    H177905   2.868   3.680  14.287 -0.6731  0.0525  0.2162
18830TIP3    H277906   2.868   3.811  14.363 -0.2053  0.7856 -1.0342
18831TIP3   OH277907   5.372   5.195   1.377  0.1328  0.6194 -0.6418
18831TIP3    H177908   5.297   5.244   1.343  0.6396  1.9344  0.0871
18831TIP3    H277909   5.339   5.106   1.390 -1.2950  1.1810 -0.3301
18832TIP3   OH277910   5.735   4.947   2.817 -0.6063  0.0808  0.0895
18832TIP3    H177911   5.646   4.964   2.845 -0.1771  1.3069  0.7514
18832TIP3    H277912   5.790   4.993   2.880  0.5503 -1.8811  0.5808
18833TIP3   OH277913   5.628   6.311   3.787  0.3528  0.0719  0.2474
18833TIP3    H177914   5.721   6.308   3.806  0.2343  2.6060  1.3460
18833TIP3    H277915   5.622   6.293   3.693  1.9992  0.5763  0.0437
18834TIP3   OH277916   6.722   0.846  11.681  0.3224 -0.4794 -0.4790
18834TIP3    H177917   6.726   0.831  11.775  1.5016 -0.3683 -0.4986
18834TIP3    H277918   6.676   0.929  11.672 -0.6449 -0.9641 -0.0525
18835TIP3   OH277919   1.637   6.180   5.786  0.0245  0.1793 -0.3360
18835TIP3    H177920   1.580   6.103   5.793 -3.2048  2.5251  0.4792
18835TIP3    H277921   1.615   6.219   5.702  0.8646  0.8181 -0.2670
18836TIP3   OH277922   0.276   0.664  14.516  0.4076 -0.0054 -0.4891
18836TIP3    H177923   0.297   0.696  14.428 -1.1338 -0.4263 -1.0397
18836TIP3    H277924   0.192   0.619  14.505 -0.7082  1.5168  1.5531
18837TIP3   OH277925   4.550   0.906  12.228  0.0622 -0.0968  0.5897
18837TIP3    H177926   4.474   0.854  12.254 -0.7250  1.5115  1.6042
18837TIP3    H277927   4.522   0.952  12.148  0.2068 -0.0554  0.5623
18838TIP3   OH277928   3.053   0.362  13.379  0.1848  0.2892  0.0649
18838TIP3    H177929   3.121   0.392  13.439 -0.3159 -0.9807  1.2937
18838TIP3    H277930   2.973   0.404  13.410 -0.0748 -0.3597  0.2826
18839TIP3   OH277931   2.248   4.542   3.878  0.3501 -0.1151  0.2423
18839TIP3    H177932   2.191   4.475   3.916  0.6504  0.3223  1.5152
18839TIP3    H277933   2.285   4.502   3.800  0.0504 -1.2048  0.6536
18840TIP3   OH277934   3.773   0.371  11.702 -0.0892  0.2556  0.5223
18840TIP3    H177935   3.834   0.297  11.694  0.7277  1.1159 -1.4707
18840TIP3    H277936   3.820   0.436  11.754  1.3887  1.5825 -2.3910
18841TIP3   OH277937   6.016   6.227  12.033  0.5325 -0.2530 -0.0062
18841TIP3    H177938   6.094   6.206  11.981  2.0348  1.4016  1.5115
18841TIP3    H277939   6.037   6.310  12.076 -1.9946  0.1189  0.6087
18842TIP3   OH277940   4.706   5.357  13.732 -0.3956  0.1426 -0.5293
18842TIP3    H177941   4.661   5.441  13.719 -0.5012  0.0055 -1.0963
18842TIP3    H277942   4.757   5.369  13.811 -1.6041  0.2301  0.2503
18843TIP3   OH277943   3.757   5.465  12.351  0.0480 -0.4076  0.1647
18843TIP3    H177944   3.801   5.382  12.369  1.1489  0.0302 -0.4045
18843TIP3    H277945   3.801   5.498  12.272  0.2953  1.1610  0.9290
18844TIP3   OH277946   6.727   0.591  11.528  0.5267 -0.9169  0.4214
18844TIP3    H177947   6.770   0.608  11.444 -1.9246  0.0096 -0.7010
18844TIP3    H277948   6.743   0.671  11.579 -0.9862  0.0045 -0.5064
18845TIP3   OH277949   0.902   3.112  16.400 -0.2663 -0.4232  0.0786
18845TIP3    H177950   0.840   3.101  16.327 -0.2890  0.5946 -0.0507
18845TIP3    H277951   0.890   3.202  16.429  0.5124 -0.5015  0.6515
18846TIP3   OH277952   6.739   3.759   2.927  0.0366 -0.3168  0.2192
18846TIP3    H177953   6.742   3.710   3.009 -1.3314 -1.4134 -0.3453
18846TIP3    H277954   6.806   3.719   2.872 -1.2478 -1.7753 -0.3304
18847TIP3   OH277955   3.436   0.436   1.620 -0.6562  0.2932 -0.0518
18847TIP3    H177956   3.460   0.376   1.550  0.2486  0.1849  0.3366
18847TIP3    H277957   3.501   0.419   1.689 -0.2053  1.9151 -0.0604
18848TIP3   OH277958   0.990   1.960  15.278 -0.4115  0.5428  0.0106
18848TIP3    H177959   0.924   1.963  15.347 -0.0676  1.5235  0.3048
18848TIP3    H277960   1.036   2.043  15.285  1.3670 -0.4284  0.3031
18849TIP3   OH277961   1.408   6.340  12.727  0.0576  0.0429  0.4937
18849TIP3    H177962   1.408   6.273  12.658  2.4652  1.4125 -0.9322
18849TIP3    H277963   1.328   6.325  12.776  0.2613 -3.5046 -0.1608
18850TIP3   OH277964   4.174   1.724  12.630  0.1423 -0.2610  0.2358
18850TIP3    H177965   4.168   1.736  12.535 -0.7889  0.9411  0.4240
18850TIP3    H277966   4.267   1.725  12.648  0.3413 -0.8061 -0.7045
18851TIP3   OH277967   4.677   0.331   2.064 -0.0554 -0.0531 -0.6399
18851TIP3    H177968   4.718   0.253   2.026 -1.1003 -1.9290  1.9001
18851TIP3    H277969   4.588   0.330   2.029 -0.2462 -0.3549 -0.1561
18852TIP3   OH277970   0.824   5.705  12.904  0.3635 -0.3060  0.0941
18852TIP3    H177971   0.731   5.685  12.916 -0.0654  0.5928 -1.6208
18852TIP3    H277972   0.861   5.703  12.993 -1.8211  1.9933  1.1192
18853TIP3   OH277973   5.868   2.905  10.496 -0.3695  0.8046 -0.6444
18853TIP3    H177974   5.937   2.935  10.554 -1.5050  2.8529 -0.3089
18853TIP3    H277975   5.857   2.813  10.517 -1.9299  1.8481  3.6445
18854TIP3   OH277976   6.203   0.041   4.294 -0.6863  0.1531  0.3596
18854TIP3    H177977   6.258   0.017   4.369  0.8749  1.5492 -0.3101
18854TIP3    H277978   6.263   0.084   4.233 -1.9103 -1.0366 -1.7427
18855TIP3   OH277979   1.721   6.049  13.423  0.4331  0.1825  0.0622
18855TIP3    H177980   1.651   5.985  13.439 -1.1252  1.8408  0.0714
18855TIP3    H277981   1.705   6.080  13.334  3.2595 -1.9223 -1.2372
18856TIP3   OH277982   4.226   1.575   4.560  0.4448  0.2992 -0.3734
18856TIP3    H177983   4.248   1.597   4.469 -0.2767  0.2402 -0.5594
18856TIP3    H277984   4.209   1.659   4.602 -0.0574  0.2645 -0.5072
18857TIP3   OH277985   4.344   0.525   6.186  0.5810  0.1373 -0.3249
18857TIP3    H177986   4.375   0.578   6.259 -0.6280  1.6936 -0.8957
18857TIP3    H277987   4.249   0.519   6.200  0.5781 -0.9968 -0.8255
18858TIP3   OH277988   2.382   1.240   4.234  0.9529  0.1013  0.5180
18858TIP3    H177989   2.454   1.302   4.237  1.8697 -0.8814 -0.6839
18858TIP3    H277990   2.386   1.203   4.146 -0.4199 -0.6664  0.7630
18859TIP3   OH277991   6.697   6.081   0.450 -0.4017  0.2700 -0.3271
18859TIP3    H177992   6.625   6.025   0.423 -2.9114  3.4130 -0.3431
18859TIP3    H277993   6.692   6.081   0.546  0.0199 -0.0135 -0.3012
18860TIP3   OH277994   5.361   0.721  12.764  0.6947 -0.2023  0.1219
18860TIP3    H177995   5.291   0.747  12.703  0.0711  1.1512  1.3940
18860TIP3    H277996   5.427   0.681  12.707 -0.7736 -0.8470 -1.1972
18861TIP3   OH277997   1.170   2.233  14.486  0.4521 -0.2688  0.4792
18861TIP3    H177998   1.233   2.162  14.482 -0.8859 -1.4328 -0.3504
18861TIP3    H277999   1.218   2.310  14.454  1.6336 -0.9918  0.5058
18862TIP3   OH278000   1.949   4.467   4.320 -0.2549  0.2578  0.2406
18862TIP3    H178001   1.901   4.521   4.258  1.8766  1.2545 -0.5825
18862TIP3    H278002   1.961   4.383   4.275 -2.1413 -0.3808  0.8825
18863TIP3   OH278003   5.569   1.860  15.056 -0.1543  0.5449  0.3856
18863TIP3    H178004   5.518   1.931  15.018  0.5508  0.4005 -0.8557
18863TIP3    H278005   5.651   1.900  15.084  0.6824  0.0497 -1.2820
18864TIP3   OH278006   5.763   4.652  13.783 -0.3854 -0.2952 -1.0632
18864TIP3    H178007   5.822   4.595  13.833 -1.0976  0.0298  0.1455
18864TIP3    H278008   5.675   4.618  13.801 -0.7794  0.8578 -0.7427
18865TIP3   OH278009   1.231   6.511  11.071 -0.4038 -0.1889 -0.1499
18865TIP3    H178010   1.246   6.447  11.002  0.1992 -0.6312  0.3902
18865TIP3    H278011   1.244   6.596  11.029  0.0870 -0.4630 -0.5454
18866TIP3   OH278012   2.680   2.523  12.593  0.8311  0.7014 -0.2765
18866TIP3    H178013   2.729   2.601  12.617 -0.5385  1.1143  1.2758
18866TIP3    H278014   2.716   2.454  12.650  0.3771  0.7418  0.0542
18867TIP3   OH278015   1.116   5.193   5.070 -0.9756 -0.0576  0.0944
18867TIP3    H178016   1.109   5.205   4.975 -1.8978 -0.0302  0.1643
18867TIP3    H278017   1.049   5.128   5.091 -0.8363  0.0049  0.7430
18868TIP3   OH278018   3.810   1.695  13.356  0.4243  0.5038  0.2623
18868TIP3    H178019   3.843   1.782  13.331 -1.0919  0.9850 -0.1527
18868TIP3    H278020   3.740   1.714  13.418  0.8692 -0.4932  1.0777
18869TIP3   OH278021   1.677   0.763   5.759  0.2034  0.5097 -0.0253
18869TIP3    H178022   1.688   0.857   5.752  1.2012  0.2565 -2.0594
18869TIP3    H278023   1.594   0.752   5.807  1.4016  2.3923  2.6244
18870TIP3   OH278024   5.448   5.810  11.038  0.0662 -0.4692 -0.1458
18870TIP3    H178025   5.523   5.866  11.058  0.4200 -0.7368 -0.6628
18870TIP3    H278026   5.416   5.780  11.123 -1.1606  1.8089  0.2266
18871TIP3   OH278027   0.278   1.557   0.425  0.3877  0.0133  0.2563
18871TIP3    H178028   0.253   1.488   0.487  0.7804  0.2808  0.7167
18871TIP3    H278029   0.195   1.592   0.394  0.1868 -0.0935  0.6656
18872TIP3   OH278030   6.504   4.761  16.153 -0.1416  0.4252 -0.2005
18872TIP3    H178031   6.553   4.692  16.197 -0.8498  0.0934  0.0771
18872TIP3    H278032   6.484   4.724  16.066 -0.8100  0.1514  0.0707
18873TIP3   OH278033   0.400   3.421   0.218 -0.1489 -0.2153  0.1540
18873TIP3    H178034   0.378   3.513   0.235  1.6955 -0.1546  2.4254
18873TIP3    H278035   0.408   3.382   0.305  0.5085 -2.2124 -0.7723
18874TIP3   OH278036   3.753   1.530  12.606  0.4419 -0.1881  0.1557
18874TIP3    H178037   3.780   1.613  12.645  2.4989 -0.1750 -1.1963
18874TIP3    H278038   3.824   1.469  12.629 -1.0628 -1.5890  1.1774
18875TIP3   OH278039   1.961   2.982   5.857 -0.2448 -0.5898  0.0627
18875TIP3    H178040   1.902   3.023   5.794  2.1957  0.8396 -1.3863
18875TIP3    H278041   2.048   2.996   5.821  0.9873 -3.0588  1.8975
18876TIP3   OH278042   5.595   4.513   4.270  0.2877  0.5792 -0.1125
18876TIP3    H178043   5.510   4.482   4.239  0.6534 -1.4679  0.8422
18876TIP3    H278044   5.589   4.513   4.365  0.3312  3.5141 -0.0512
18877TIP3   OH278045   1.080   4.934   0.650 -0.4213 -0.2385 -0.0718
18877TIP3    H178046   1.176   4.930   0.642 -0.1730  1.8424  1.5603
18877TIP3    H278047   1.062   4.900   0.738 -1.1607 -0.3551 -0.2646
18878TIP3   OH278048   1.338   1.347   6.650  0.1964  0.0313  0.1116
18878TIP3    H178049   1.269   1.280   6.648  2.1834 -2.1327  1.3723
18878TIP3    H278050   1.419   1.297   6.639  1.7132  2.3002  0.7257
18879TIP3   OH278051   6.149   2.196   2.694 -0.0655 -0.8038 -0.6306
18879TIP3    H178052   6.164   2.133   2.764 -0.0389 -0.0594  0.0447
18879TIP3    H278053   6.228   2.194   2.641  0.5063 -0.3159  0.1983
18880TIP3   OH278054   1.329   0.553   6.091  0.3189  0.2624  0.5972
18880TIP3    H178055   1.323   0.506   6.174  0.7559  0.1017  0.5421
18880TIP3    H278056   1.272   0.629   6.102  1.5730  1.0801  1.6053
18881TIP3   OH278057   5.287   5.747  12.125 -0.0967  0.3218  0.1959
18881TIP3    H178058   5.192   5.745  12.135 -0.1342  0.1369 -0.1717
18881TIP3    H278059   5.313   5.834  12.155 -0.3600  0.3006  0.4870
18882TIP3   OH278060   2.123   1.170  12.972 -0.2288  0.1903 -0.4915
18882TIP3    H178061   2.048   1.225  12.992 -2.0537 -2.0462 -0.9496
18882TIP3    H278062   2.125   1.106  13.043  0.0284 -0.9857 -1.5390
18883TIP3   OH278063   5.760   6.568  13.021  0.0037 -0.5707  0.0361
18883TIP3    H178064   5.836   6.618  13.051 -0.8526 -0.8653  2.8932
18883TIP3    H278065   5.688   6.632  13.023 -0.1346 -0.6730 -1.1957
18884TIP3   OH278066   2.928   0.898  12.643  0.2329 -0.0531 -0.6602
18884TIP3    H178067   2.940   0.990  12.622 -0.1376 -0.1807 -1.4416
18884TIP3    H278068   2.935   0.853  12.559 -1.2732 -0.5673 -0.5239
18885TIP3   OH278069   1.960   0.644  16.289 -0.4631  0.7273  0.1423
18885TIP3    H178070   1.972   0.734  16.320  1.0377  0.5372  0.1802
18885TIP3    H278071   1.966   0.591  16.368 -3.3071  0.7077  0.3883
18886TIP3   OH278072   0.757   1.002  14.157  0.4400 -0.0817 -0.1935
18886TIP3    H178073   0.792   1.063  14.221  0.0459 -0.7359  0.6564
18886TIP3    H278074   0.725   1.057  14.086  2.6279  0.5645 -0.7202
18887TIP3   OH278075   0.191   0.974   3.406 -0.9442 -0.7675 -0.1774
18887TIP3    H178076   0.265   0.915   3.424  0.5442  0.9968 -0.2768
18887TIP3    H278077   0.190   1.034   3.481 -0.9710  0.4704 -1.1463
18888TIP3   OH278078   0.627   3.709  11.470  0.0802  0.6764 -0.3505
18888TIP3    H178079   0.582   3.625  11.470  0.9605  0.1914  0.6352
18888TIP3    H278080   0.558   3.774  11.461 -0.8778 -0.0283  1.6127
18889TIP3   OH278081   1.658   1.085   0.528 -0.4246  0.4713  0.4790
18889TIP3    H178082   1.600   1.020   0.568 -1.0072  1.1631  0.7675
18889TIP3    H278083   1.702   1.127   0.601  3.5005 -2.7873  0.1319
18890TIP3   OH278084   4.958   3.049   1.393  0.3708  0.4720  0.2984
18890TIP3    H178085   4.969   3.134   1.436 -0.5954  0.4578  0.5978
18890TIP3    H278086   4.880   3.012   1.435  0.9582 -0.6907  0.3780
18891TIP3   OH278087   2.951   4.151  16.639  0.1537 -0.0316 -0.2409
18891TIP3    H178088   2.886   4.214  16.670 -1.5385 -1.6181 -0.4837
18891TIP3    H278089   2.917   4.066  16.665  1.5348 -0.9848 -1.4378
18892TIP3   OH278090   1.966   0.051   1.559  0.2531  0.2137 -0.4185
18892TIP3    H178091   1.999   0.107   1.490  2.5014 -1.0489 -0.4272
18892TIP3    H278092   1.920  -0.019   1.513  1.3141 -0.3551 -0.6258
18893TIP3   OH278093   5.094   2.990  11.077  0.2554  0.0518 -0.2896
18893TIP3    H178094   5.056   2.980  11.164  0.2384  1.4565 -0.1296
18893TIP3    H278095   5.070   2.909  11.031 -1.0389 -0.0272  0.5031
18894TIP3   OH278096   5.306   6.271  13.796  0.1746  0.0985  0.6282
18894TIP3    H178097   5.361   6.300  13.724  0.1150 -0.3874  0.3848
18894TIP3    H278098   5.299   6.347  13.853 -1.0206  0.9408 -0.6270
18895TIP3   OH278099   1.705   5.382  12.075 -0.6444 -0.2397  0.0100
18895TIP3    H178100   1.724   5.331  12.154  2.4677 -1.7289 -1.5717
18895TIP3    H278101   1.736   5.470  12.095  0.3736 -0.6757  0.4155
18896TIP3   OH278102   2.901   2.345  10.949 -0.1231  0.2470 -0.3242
18896TIP3    H178103   2.995   2.345  10.966 -0.4393 -0.7567  1.6123
18896TIP3    H278104   2.889   2.284  10.876  0.5472 -1.0627  0.6436
18897TIP3   OH278105   3.316   6.707  16.614 -0.0020 -0.0516  0.2972
18897TIP3    H178106   3.245   6.720  16.677  0.8476  1.5397  0.9340
18897TIP3    H278107   3.394   6.696  16.668  0.2287 -1.9922 -0.3939
18898TIP3   OH278108   2.738   3.945   4.288  0.0044  0.1823 -0.0150
18898TIP3    H178109   2.755   4.024   4.236 -0.0634 -0.4500 -1.0206
18898TIP3    H278110   2.644   3.929   4.276 -0.4947  1.3015  2.1496
18899TIP3   OH278111   1.085   3.201  17.208 -0.2429  0.0969  0.3091
18899TIP3    H178112   1.055   3.171  17.122 -1.3499 -0.3246  0.8355
18899TIP3    H278113   1.033   3.279  17.225 -0.2090  0.0285  0.7195
18900TIP3   OH278114   2.294   1.872   1.930  0.3967  0.1051  0.6417
18900TIP3    H178115   2.364   1.912   1.982  1.2576 -0.6057  0.0339
18900TIP3    H278116   2.319   1.888   1.839 -1.8229  2.6079  0.3910
18901TIP3   OH278117   3.137   4.006  13.154 -0.6624 -0.0652  1.3208
18901TIP3    H178118   3.119   4.070  13.085 -1.1290 -1.2204  0.3324
18901TIP3    H278119   3.231   4.015  13.171 -0.4191 -0.1515  0.1118
18902TIP3   OH278120   5.457   0.916   4.323  0.0811 -0.2327 -0.4210
18902TIP3    H178121   5.464   0.875   4.409 -2.2865 -0.0040 -0.0887
18902TIP3    H278122   5.491   1.005   4.336 -2.6462  0.6620  0.9540
18903TIP3   OH278123   6.115   5.811  16.295 -0.1575 -0.1692  0.2204
18903TIP3    H178124   6.026   5.832  16.324 -0.8822  1.6842 -3.0607
18903TIP3    H278125   6.166   5.890  16.314  0.4939 -0.7468  0.8935
18904TIP3   OH278126   0.434   0.239   2.114 -0.1594 -0.1847 -0.7675
18904TIP3    H178127   0.391   0.307   2.062 -0.5472  0.0187 -0.1893
18904TIP3    H278128   0.364   0.204   2.170  0.1486 -0.7182 -0.7116
18905TIP3   OH278129   5.454   5.215   3.202 -0.6282  0.0388  0.0207
18905TIP3    H178130   5.508   5.288   3.172  0.0361 -1.1786 -1.8143
18905TIP3    H278131   5.430   5.238   3.292  4.1997 -0.0516  1.4744
18906TIP3   OH278132   5.201   5.437   2.756 -0.5858 -0.4205 -0.2652
18906TIP3    H178133   5.225   5.515   2.705  1.0918 -0.6223  0.1827
18906TIP3    H278134   5.186   5.369   2.690 -0.9917 -0.0057 -0.6059
18907TIP3   OH278135   1.267   6.018   1.428  0.6269  0.2967  0.2625
18907TIP3    H178136   1.271   6.057   1.341  0.9950 -1.0796 -0.3571
18907TIP3    H278137   1.201   6.068   1.474  0.6349  1.2240 -0.7226
18908TIP3   OH278138   0.863   2.629  10.969 -0.1103  0.1102  0.3009
18908TIP3    H178139   0.815   2.684  11.031 -0.9472 -0.1765 -0.0903
18908TIP3    H278140   0.803   2.618  10.895  0.8782  0.4589 -0.5693
18909TIP3   OH278141   0.862   1.419  10.763  0.6472 -0.2770  0.4171
18909TIP3    H178142   0.923   1.484  10.796  0.7627 -0.5509  0.7388
18909TIP3    H278143   0.776   1.461  10.769  0.4587 -0.9550  2.6541
18910TIP3   OH278144   1.872   0.564   5.787 -0.1939  0.2299  0.5934
18910TIP3    H178145   1.847   0.501   5.854 -1.0602 -0.1542 -0.0711
18910TIP3    H278146   1.793   0.616   5.772 -0.5303 -0.7472 -1.2655
18911TIP3   OH278147   4.014   6.423  13.540 -0.3540 -0.7114 -0.0154
18911TIP3    H178148   4.066   6.418  13.620 -0.0503  1.6449 -0.0068
18911TIP3    H278149   4.036   6.509  13.503 -2.2252 -0.8034 -1.4250
18912TIP3   OH278150   0.388   2.118  14.880 -0.2143 -0.2573 -0.4483
18912TIP3    H178151   0.429   2.161  14.805 -2.3828  3.2040  0.2167
18912TIP3    H278152   0.363   2.190  14.938 -0.4909 -2.7209  2.6319
18913TIP3   OH278153   2.906   1.051   0.966 -1.0405  0.3947 -0.4698
18913TIP3    H178154   2.897   1.053   1.061 -0.6862 -0.4638 -0.4112
18913TIP3    H278155   2.933   1.140   0.942  1.5561 -0.0938  0.5088
18914TIP3   OH278156   0.024   0.736  14.945  0.5030 -0.0916  0.1999
18914TIP3    H178157  -0.055   0.741  14.891  0.1363  1.0702  0.8376
18914TIP3    H278158   0.018   0.652  14.989  0.3440 -0.6445 -0.8540
18915TIP3   OH278159   4.251   2.341  15.354 -0.2142 -0.5213  0.1086
18915TIP3    H178160   4.187   2.278  15.322  0.1095 -0.2609 -1.0776
18915TIP3    H278161   4.222   2.425  15.318  0.1875 -0.2281  0.4620
18916TIP3   OH278162   6.177   1.060  12.045  0.0733  0.3435  0.1808
18916TIP3    H178163   6.117   1.006  11.993 -0.8998  1.8967 -0.3615
18916TIP3    H278164   6.260   1.057  11.997 -0.7960  1.7024 -1.4651
18917TIP3   OH278165   3.833   3.921  14.717 -0.1838  0.4485  0.5981
18917TIP3    H178166   3.826   4.016  14.729  0.5835  0.6335 -0.3490
18917TIP3    H278167   3.839   3.909  14.622 -0.5570 -0.5660  0.6956
18918TIP3   OH278168   2.027   2.231   3.793  0.1571 -0.4235 -0.4292
18918TIP3    H178169   2.078   2.164   3.838  0.1955  0.8433  1.4974
18918TIP3    H278170   1.938   2.195   3.787  0.0783 -0.4763  0.9933
18919TIP3   OH278171   3.620   1.643  11.976 -0.1921 -0.2692  0.1679
18919TIP3    H178172   3.563   1.577  12.015 -0.0774 -0.5689 -0.1741
18919TIP3    H278173   3.609   1.632  11.882 -0.7051  0.6737  0.1195
18920TIP3   OH278174   6.344   1.375  16.900 -0.1481  0.7950  0.5810
18920TIP3    H178175   6.311   1.376  16.811  0.6618 -0.4010  0.2573
18920TIP3    H278176   6.271   1.343  16.953  0.4189 -1.8062 -0.1219
18921TIP3   OH278177   4.764   4.421   3.416  0.6368 -0.0516 -0.3277
18921TIP3    H178178   4.721   4.335   3.425 -1.1663  0.9311  0.7261
18921TIP3    H278179   4.708   4.470   3.356  0.8987  0.8540  0.1553
18922TIP3   OH278180   4.802   5.832  17.107  0.1459  0.5321  0.4347
18922TIP3    H178181   4.780   5.921  17.133 -2.3867 -0.4479  1.8907
18922TIP3    H278182   4.743   5.812  17.035 -0.7655 -0.6436  1.4792
18923TIP3   OH278183   5.307   1.850   6.385  0.2236  0.1831  0.1617
18923TIP3    H178184   5.279   1.807   6.466  0.0411 -2.1451 -1.1111
18923TIP3    H278185   5.394   1.815   6.368 -0.0593  0.0656 -1.0754
18924TIP3   OH278186   1.081   0.339   2.807 -0.4092 -0.0614 -0.3772
18924TIP3    H178187   1.146   0.334   2.877  0.3097 -0.3935 -1.0675
18924TIP3    H278188   1.126   0.308   2.729 -1.1421  0.5002 -1.0434
18925TIP3   OH278189   3.956   0.479   0.822  0.2822  0.3307  0.2781
18925TIP3    H178190   3.964   0.573   0.805 -0.5451  0.4147  0.3525
18925TIP3    H278191   3.996   0.467   0.908 -0.5987  0.7887  0.7549
18926TIP3   OH278192   2.978   5.287   2.613  0.2448  0.1356 -0.2625
18926TIP3    H178193   2.920   5.304   2.539  1.7758  1.1214 -1.2582
18926TIP3    H278194   2.991   5.192   2.611  1.5168  0.3009 -2.2626
18927TIP3   OH278195   5.251   0.428   3.145 -0.2032  0.7114  0.1205
18927TIP3    H178196   5.344   0.427   3.122  0.2987  1.2602  1.9760
18927TIP3    H278197   5.206   0.405   3.065  1.5383  0.6080 -0.8579
18928TIP3   OH278198   3.548   1.123  14.792  0.3167  0.6197  0.5743
18928TIP3    H178199   3.525   1.112  14.885  0.1901 -0.6419  0.4067
18928TIP3    H278200   3.642   1.142  14.793  0.2235  1.0679  0.9933
18929TIP3   OH278201   1.564   3.061  15.492 -0.5604  0.2873  0.1410
18929TIP3    H178202   1.569   3.090  15.401 -0.9786 -0.4855 -0.1373
18929TIP3    H278203   1.485   3.008  15.496  0.7260 -1.6746  0.3646
18930TIP3   OH278204   5.255   2.746  16.499  0.2350 -0.1114  0.4848
18930TIP3    H178205   5.258   2.661  16.455 -0.8117  0.1159 -0.0439
18930TIP3    H278206   5.292   2.729  16.586  1.2710 -0.8059 -0.0757
18931TIP3   OH278207   3.230   3.583  14.101  0.1069 -0.3030  0.0448
18931TIP3    H178208   3.166   3.654  14.092 -0.0702 -0.1479  2.1286
18931TIP3    H278209   3.177   3.506  14.125  0.3983 -0.8995 -1.2093
18932TIP3   OH278210   3.834   6.393   4.581  0.0390 -0.0936  0.2989
18932TIP3    H178211   3.821   6.298   4.583 -3.0762  0.2596  0.5414
18932TIP3    H278212   3.817   6.422   4.671 -1.2658  0.8844 -0.2282
18933TIP3   OH278213   4.705   4.486  14.379 -0.4897 -0.3148  0.3445
18933TIP3    H178214   4.680   4.402  14.417  0.9309 -0.7773  0.3109
18933TIP3    H278215   4.638   4.504  14.313 -0.8789 -1.3596  0.4494
18934TIP3   OH278216   5.782   5.050  12.983 -0.4332  0.3245  0.5207
18934TIP3    H178217   5.864   5.093  13.008 -0.3051 -0.2551  1.0953
18934TIP3    H278218   5.772   5.071  12.890  1.5310 -1.4753 -0.1374
18935TIP3   OH278219   4.004   3.770   3.733 -0.9575  0.0381  0.5580
18935TIP3    H178220   4.075   3.792   3.673  0.2593 -0.3297  1.8369
18935TIP3    H278221   4.046   3.720   3.803 -2.6748 -1.2054  0.7416
18936TIP3   OH278222   4.376   6.096   5.974  0.2802  0.2319 -0.3519
18936TIP3    H178223   4.404   6.072   6.062  0.7794  1.7229 -0.0840
18936TIP3    H278224   4.409   6.026   5.918 -1.1739 -1.4038  0.8056
18937TIP3   OH278225   2.555   6.105  13.741 -0.1444  0.2908  0.0438
18937TIP3    H178226   2.526   6.026  13.695  0.2464 -0.2148  0.6526
18937TIP3    H278227   2.498   6.174  13.708 -1.6406 -0.5748  0.7394
18938TIP3   OH278228   4.374   3.994  15.586 -0.0947 -0.1507 -0.3292
18938TIP3    H178229   4.368   3.981  15.680  0.9741  0.5493 -0.1559
18938TIP3    H278230   4.390   3.906  15.551 -0.9970 -0.4888  0.0841
18939TIP3   OH278231   2.266   1.947   3.442  0.0711 -0.8584  0.1569
18939TIP3    H178232   2.221   1.931   3.524  0.2248 -2.1804 -0.0022
18939TIP3    H278233   2.198   1.938   3.375  0.5460 -2.9593 -0.0911
18940TIP3   OH278234   3.695   3.826   1.767  0.0265  0.1239 -0.2075
18940TIP3    H178235   3.704   3.745   1.717 -0.5915  0.3334 -0.6633
18940TIP3    H278236   3.652   3.800   1.848  1.5343 -0.3103  0.4736
18941TIP3   OH278237   1.500   6.522  14.325  0.3168  0.3002 -0.2099
18941TIP3    H178238   1.409   6.495  14.310  0.2333  0.3701  0.1616
18941TIP3    H278239   1.496   6.617  14.332  0.2929  0.2393  0.6559
18942TIP3   OH278240   0.104   6.706   3.504 -0.1520 -0.1302 -0.9433
18942TIP3    H178241   0.152   6.787   3.490 -1.6433  0.7025 -1.2836
18942TIP3    H278242   0.135   6.674   3.589  0.7356  0.5764 -1.0031
18943TIP3   OH278243   1.973   0.206  11.460  0.2799 -0.0122 -0.3291
18943TIP3    H178244   1.897   0.160  11.425 -1.3237  0.2530  2.7351
18943TIP3    H278245   1.957   0.299  11.441 -0.4748  0.1081  0.8969
18944TIP3   OH278246   2.181   3.317  11.602 -0.3345  0.3202 -0.0579
18944TIP3    H178247   2.104   3.344  11.552 -0.8814  1.2709  1.2796
18944TIP3    H278248   2.169   3.356  11.688  1.4029  0.0594  0.3221
18945TIP3   OH278249   1.203   5.251  17.075  0.3631  0.8119  0.0701
18945TIP3    H178250   1.252   5.318  17.122 -0.0375  2.5900 -1.9783
18945TIP3    H278251   1.191   5.287  16.987 -1.4611 -1.1581 -0.5324
18946TIP3   OH278252   6.347   4.128  11.067 -0.0274  0.5541  0.6587
18946TIP3    H178253   6.259   4.098  11.043 -0.0312  0.0723  1.2664
18946TIP3    H278254   6.339   4.224  11.070 -0.7704  0.4774  1.5914
18947TIP3   OH278255   5.342   6.508  11.569  0.4586 -0.5100 -0.1869
18947TIP3    H178256   5.262   6.479  11.525 -0.5115 -0.3864  1.4467
18947TIP3    H278257   5.374   6.431  11.616  1.5205 -0.6591 -1.1283
18948TIP3   OH278258   0.545   0.307   2.493  0.3677  0.1085 -0.3279
18948TIP3    H178259   0.618   0.306   2.430  0.3889  1.3971 -0.3247
18948TIP3    H278260   0.514   0.397   2.492 -0.2137 -0.0791  0.8485
18949TIP3   OH278261   1.759   2.180   3.408 -0.3641 -0.2300  0.3574
18949TIP3    H178262   1.848   2.204   3.382 -1.2173  0.8588 -1.6110
18949TIP3    H278263   1.754   2.205   3.501  0.6874  1.6887 -0.0842
18950TIP3   OH278264   4.005   0.172   4.574  0.1619 -0.2696 -0.1585
18950TIP3    H178265   4.021   0.116   4.650  2.6930  1.4260  0.6365
18950TIP3    H278266   3.923   0.140   4.536 -0.9282 -1.4268  3.0474
18951TIP3   OH278267   0.264   4.303  14.861  0.4065 -0.3536  0.2125
18951TIP3    H178268   0.289   4.296  14.952  0.0120  1.3515  0.4671
18951TIP3    H278269   0.215   4.385  14.855 -0.7647 -1.1145 -1.2500
18952TIP3   OH278270   4.992   4.359  14.903  0.0746  0.4833  0.3316
18952TIP3    H178271   4.991   4.328  14.994 -2.1242 -0.3738  0.0473
18952TIP3    H278272   4.901   4.381  14.885 -0.0650 -2.2568 -2.6362
18953TIP3   OH278273   2.192   2.436  11.649 -0.3359  0.2425 -0.1886
18953TIP3    H178274   2.274   2.472  11.615  1.0148 -1.4900  1.1453
18953TIP3    H278275   2.178   2.483  11.732 -0.3404  0.0645 -0.0890
18954TIP3   OH278276   2.334   3.370   2.185  0.2922  0.3067  0.4869
18954TIP3    H178277   2.305   3.317   2.111 -1.7437 -0.1997  1.5989
18954TIP3    H278278   2.394   3.314   2.234  1.5395  0.6005 -0.6948
18955TIP3   OH278279   6.300   3.416  16.120  0.3454  0.7539 -0.3134
18955TIP3    H178280   6.334   3.341  16.071 -1.3305 -0.9754  1.0980
18955TIP3    H278281   6.351   3.416  16.201 -2.3699 -1.3977  1.4842
18956TIP3   OH278282   3.512   6.203  11.522  0.3916  0.6948  0.6459
18956TIP3    H178283   3.587   6.202  11.582  1.1227 -0.6083 -0.2573
18956TIP3    H278284   3.546   6.165  11.441 -0.6005  2.4150 -0.6028
18957TIP3   OH278285   0.031   1.947   5.822  0.3519 -0.1915  0.0882
18957TIP3    H178286   0.029   1.880   5.890  0.7621 -0.3202 -0.0262
18957TIP3    H278287  -0.034   2.011   5.850  0.6563 -0.1438  0.7027
18958TIP3   OH278288   1.009   6.052  11.447  0.6862 -0.4701  0.0182
18958TIP3    H178289   1.088   6.024  11.493  1.3752  2.7283  0.9515
18958TIP3    H278290   1.041   6.099  11.370 -0.3653 -1.2116 -0.8897
18959TIP3   OH278291   6.285   3.320  14.432  0.4164  0.1803 -0.0861
18959TIP3    H178292   6.334   3.329  14.350  1.9479  2.8904  1.0667
18959TIP3    H278293   6.293   3.405  14.474 -1.6907 -0.6898  2.1689
18960TIP3   OH278294   5.528   4.747  11.865  0.3003  0.6011 -0.5810
18960TIP3    H178295   5.546   4.841  11.873 -0.2535  0.7068 -0.5856
18960TIP3    H278296   5.455   4.742  11.803  0.0527  0.1910 -0.2553
18961TIP3   OH278297   0.428   1.580  13.682  0.5029  0.2830 -0.0159
18961TIP3    H178298   0.448   1.496  13.723  2.1423  0.6837  0.0654
18961TIP3    H278299   0.514   1.623  13.674 -0.2108  1.5758 -0.8445
18962TIP3   OH278300   2.650   1.217   2.022 -0.9652 -0.0149  0.0293
18962TIP3    H178301   2.672   1.124   2.010 -0.8116  0.0948 -0.5463
18962TIP3    H278302   2.597   1.239   1.945  3.0993  1.6793 -2.4599
18963TIP3   OH278303   5.352   1.365  16.332 -0.2836 -0.1569  0.2738
18963TIP3    H178304   5.269   1.326  16.307 -0.7126  1.6890 -1.2543
18963TIP3    H278305   5.348   1.372  16.427 -1.8480 -0.1116  0.2066
18964TIP3   OH278306   6.140   2.020   5.521  0.4925  0.5821  0.2270
18964TIP3    H178307   6.049   2.029   5.494  0.9103  0.2740 -1.3278
18964TIP3    H278308   6.164   1.931   5.495  0.9601  0.3301  1.4892
18965TIP3   OH278309   1.062   1.934  15.827  0.6563 -0.0442 -0.5641
18965TIP3    H178310   0.997   1.911  15.892 -0.4268  1.1899 -1.1718
18965TIP3    H278311   1.144   1.899  15.861 -0.4584 -2.4776 -0.2515
18966TIP3   OH278312   5.396   6.653  16.042  0.4600  0.4417  0.8405
18966TIP3    H178313   5.331   6.633  15.974 -2.1728  0.0253  3.3920
18966TIP3    H278314   5.393   6.748  16.051  0.7952  0.4953  0.4053
18967TIP3   OH278315   2.829   6.007  13.132  0.2561 -0.0696  0.2532
18967TIP3    H178316   2.893   6.029  13.199  1.1843 -0.0700 -0.6237
18967TIP3    H278317   2.881   5.975  13.058 -0.6425  1.2226 -0.9752
18968TIP3   OH278318   1.962   1.378  11.478 -0.4267  0.3216  0.1216
18968TIP3    H178319   2.026   1.309  11.464 -0.8032  0.1501 -0.8057
18968TIP3    H278320   1.964   1.429  11.396  0.5911  2.0302  1.1627
18969TIP3   OH278321   6.543   1.581   4.759 -0.0877 -0.2919  0.8368
18969TIP3    H178322   6.589   1.659   4.792 -0.0872 -0.4117  1.1148
18969TIP3    H278323   6.611   1.532   4.712 -0.4974  0.8062 -0.9585
18970TIP3   OH278324   2.447   6.246  15.817  0.3861  0.3254 -0.7836
18970TIP3    H178325   2.474   6.338  15.808  0.4958  0.3491 -0.2472
18970TIP3    H278326   2.452   6.210  15.729  1.2924  0.5749 -0.8368
18971TIP3   OH278327   3.746   4.158  11.808 -0.6589 -0.4835  0.1865
18971TIP3    H178328   3.653   4.155  11.831 -0.5171  0.6381  0.9231
18971TIP3    H278329   3.784   4.221  11.869  0.1684  0.7300 -1.5285
18972TIP3   OH278330   6.335   1.677  14.931 -0.5463  0.8022  0.3752
18972TIP3    H178331   6.334   1.599  14.875  1.9332 -0.6536  2.2643
18972TIP3    H278332   6.253   1.671  14.980  1.3247 -2.9062  3.3832
18973TIP3   OH278333   3.419   4.300  11.918 -0.2653  0.0704  0.1048
18973TIP3    H178334   3.363   4.347  11.855  2.1235  0.5523 -1.7407
18973TIP3    H278335   3.399   4.208  11.903  0.0721  0.1953 -1.1876
18974TIP3   OH278336   1.922   3.676   5.184 -0.6469 -0.2473 -0.8894
18974TIP3    H178337   2.016   3.668   5.201 -0.5556 -1.0475 -1.7411
18974TIP3    H278338   1.881   3.654   5.268 -0.0664  0.5663 -0.3811
18975TIP3   OH278339   0.706   6.606  17.071  0.8256 -0.4990 -0.0006
18975TIP3    H178340   0.793   6.604  17.032  1.0513  0.9417  0.4011
18975TIP3    H278341   0.648   6.634  17.000  1.2147  1.9759  0.5922
18976TIP3   OH278342   4.954   1.154   1.279  0.1289 -0.1309 -0.1558
18976TIP3    H178343   5.030   1.118   1.324 -0.2154 -0.7103 -0.0364
18976TIP3    H278344   4.895   1.080   1.268  0.3035 -0.0358 -1.7879
18977TIP3   OH278345   2.041   1.151  16.427  0.7026 -0.1962  0.4188
18977TIP3    H178346   2.017   1.069  16.384  0.5867  0.0810 -0.0578
18977TIP3    H278347   1.959   1.180  16.468  0.2913  0.5609 -0.8943
18978TIP3   OH278348   3.479   0.899   3.004  0.5071 -0.3128 -0.1618
18978TIP3    H178349   3.473   0.980   3.054  1.3813  0.0039 -0.5666
18978TIP3    H278350   3.556   0.911   2.947 -0.6947 -0.4924 -1.8720
18979TIP3   OH278351   3.957   3.642   2.974  0.2644  0.1446 -0.0689
18979TIP3    H178352   3.979   3.731   3.002  1.5062 -0.5380  1.2263
18979TIP3    H278353   3.953   3.647   2.878  0.3867  1.5781 -0.0066
18980TIP3   OH278354   6.581   5.664  16.585  0.2241 -0.1629  0.0221
18980TIP3    H178355   6.490   5.636  16.585  0.5812 -1.4051  2.3434
18980TIP3    H278356   6.586   5.729  16.655  1.3200 -0.8014  0.5548
18981TIP3   OH278357   1.092   0.539   0.768  0.3300 -0.1785 -0.1016
18981TIP3    H178358   1.161   0.498   0.717  0.1523  1.1301 -1.4309
18981TIP3    H278359   1.053   0.603   0.708 -0.4433  0.7822  1.4033
18982TIP3   OH278360   5.091   1.441   3.464  0.6204 -0.3261 -0.8115
18982TIP3    H178361   5.137   1.368   3.421 -0.1917 -1.7093  0.6020
18982TIP3    H278362   5.090   1.417   3.557  0.6995  1.7076 -0.2616
18983TIP3   OH278363   1.152   4.918  17.201 -0.0452  0.0291 -0.0025
18983TIP3    H178364   1.226   4.971  17.231 -0.4408  0.7608 -0.3135
18983TIP3    H278365   1.159   4.836  17.251  0.3210  0.5362  0.7751
18984TIP3   OH278366   1.733   2.140   6.434 -0.2442  0.3641 -0.2160
18984TIP3    H178367   1.673   2.066   6.441 -0.2856  0.3800 -0.4010
18984TIP3    H278368   1.806   2.117   6.492 -0.5687  0.4837  0.2405
18985TIP3   OH278369   5.779   3.742   5.796  0.0646  0.2372  0.3851
18985TIP3    H178370   5.740   3.719   5.880  1.0082  0.6524  0.9416
18985TIP3    H278371   5.861   3.692   5.794  1.2617  2.1234  0.8172
18986TIP3   OH278372   0.258   1.334  16.347  0.2862  0.2107  0.3656
18986TIP3    H178373   0.167   1.351  16.372 -0.0090 -1.5951  0.6045
18986TIP3    H278374   0.271   1.241  16.366  0.4709 -0.9607 -4.9079
18987TIP3   OH278375   6.713   4.432   3.862  0.3485 -0.2230  0.1138
18987TIP3    H178376   6.705   4.343   3.896 -0.3083 -0.0990  0.2815
18987TIP3    H278377   6.660   4.485   3.921  0.3282  0.2021 -0.2889
18988TIP3   OH278378   1.518   1.153  15.402 -0.0295 -0.2435  0.1362
18988TIP3    H178379   1.514   1.243  15.435 -0.5436 -0.6088  1.0948
18988TIP3    H278380   1.582   1.110  15.459  0.5756 -0.3599 -0.6286
18989TIP3   OH278381   3.339   0.786  17.234  0.6190 -0.4462 -0.5880
18989TIP3    H178382   3.250   0.818  17.222  1.9639  3.7305  0.0026
18989TIP3    H278383   3.364   0.752  17.148 -1.0831 -0.4746 -1.0823
18990TIP3   OH278384   0.822   4.346  16.612 -0.1948 -0.4060  0.4585
18990TIP3    H178385   0.849   4.420  16.557  0.8551 -1.7210 -0.8338
18990TIP3    H278386   0.893   4.337  16.676  0.0989 -0.8384  0.0714
18991TIP3   OH278387   2.861   2.611   3.093  0.2185  0.3388  0.1718
18991TIP3    H178388   2.786   2.651   3.136 -0.3190  0.4339 -0.8386
18991TIP3    H278389   2.847   2.517   3.103 -0.1297  0.3527 -0.1616
18992TIP3   OH278390   3.756   3.359  15.149  0.5613 -0.0924 -0.2473
18992TIP3    H178391   3.783   3.272  15.122  2.1397  0.3811 -0.2185
18992TIP3    H278392   3.758   3.357  15.245  1.9194  0.3762 -0.2586
18993TIP3   OH278393   0.331   6.251  15.376 -0.3303  0.2010  0.0913
18993TIP3    H178394   0.338   6.168  15.423 -1.2509 -0.5886 -1.1367
18993TIP3    H278395   0.422   6.274  15.353 -0.2270 -1.4863 -1.2778
18994TIP3   OH278396   0.408   4.672  13.734  0.0537 -0.1858  0.4193
18994TIP3    H178397   0.347   4.599  13.745 -0.7616  0.3103 -0.6828
18994TIP3    H278398   0.478   4.637  13.679 -0.1417 -0.2485  0.2107
18995TIP3   OH278399   4.244   5.170   1.403  0.0545  0.5014 -0.0452
18995TIP3    H178400   4.185   5.176   1.479 -1.2697  2.9298 -1.1862
18995TIP3    H278401   4.198   5.113   1.342  0.1975  0.1357  0.1878
18996TIP3   OH278402   4.388   3.666  14.829 -0.1171 -0.2023  0.4825
18996TIP3    H178403   4.435   3.634  14.906  1.1344  0.2677 -0.0643
18996TIP3    H278404   4.340   3.743  14.860  1.4189  0.7647  0.5195
18997TIP3   OH278405   3.867   0.285   4.829 -0.6290 -0.0184 -0.3195
18997TIP3    H178406   3.794   0.336   4.795 -0.7118 -0.1843 -0.3884
18997TIP3    H278407   3.921   0.266   4.753 -0.1322  0.7228 -0.1625
18998TIP3   OH278408   2.485   1.371   0.227 -0.4526 -0.3913 -0.0334
18998TIP3    H178409   2.468   1.342   0.137 -0.0417 -0.0211 -0.2369
18998TIP3    H278410   2.407   1.347   0.276 -1.5802  1.2883 -0.9513
18999TIP3   OH278411   2.288   6.214  11.132 -0.2304  0.6272  0.1442
18999TIP3    H178412   2.332   6.208  11.047 -0.6092  0.8047 -0.0691
18999TIP3    H278413   2.223   6.143  11.130 -1.9451  2.1899 -0.7313
19000TIP3   OH278414   2.191   5.027  16.860  0.7046  0.0369  0.0569
19000TIP3    H178415   2.226   4.965  16.795  1.0587  1.0419 -0.7132
19000TIP3    H278416   2.163   4.971  16.932  1.4756 -0.9947 -0.4210
19001TIP3   OH278417   1.736   6.548   1.427  0.3563  0.3809 -0.3323
19001TIP3    H178418   1.826   6.518   1.410  0.7129  1.2877 -0.1096
19001TIP3    H278419   1.683   6.503   1.362  0.9513 -0.2832 -0.3718
19002TIP3   OH278420   4.680   6.442   2.499 -0.1256  0.0609  0.0335
19002TIP3    H178421   4.668   6.352   2.469 -1.2401 -0.3000  1.4912
19002TIP3    H278422   4.771   6.463   2.478  0.1771 -1.4518 -0.1833
19003TIP3   OH278423   3.969   0.456  14.363  0.6252 -0.2552  0.4733
19003TIP3    H178424   4.017   0.529  14.325  0.5830 -0.9745 -0.9906
19003TIP3    H278425   3.881   0.490  14.377  1.0587  0.5046  1.4642
19004TIP3   OH278426   5.074   0.686  13.608 -0.0727 -0.3482 -0.6159
19004TIP3    H178427   5.089   0.735  13.689 -0.9144  1.0469 -1.2818
19004TIP3    H278428   5.137   0.615  13.610  2.0551  1.5145 -0.2299
19005TIP3   OH278429   4.749   1.192   1.950 -0.2976  0.2592  0.1030
19005TIP3    H178430   4.839   1.184   1.982 -0.2841  0.1853  0.0472
19005TIP3    H278431   4.744   1.282   1.916  0.3379 -0.3274 -1.6397
19006TIP3   OH278432   6.697   5.927   1.100  1.0423 -0.0497  0.3992
19006TIP3    H178433   6.744   5.886   1.027  1.4711 -0.4605  0.9012
19006TIP3    H278434   6.666   6.010   1.064 -1.5358 -1.6209 -1.2239
19007TIP3   OH278435   4.501   4.015   3.345 -0.8033  0.3610  0.3482
19007TIP3    H178436   4.421   4.022   3.396  0.8973  1.9496  2.9446
19007TIP3    H278437   4.549   4.096   3.363  1.0571 -0.2126 -1.7099
19008TIP3   OH278438   3.460   1.583  16.715 -0.4731 -0.0259 -0.0143
19008TIP3    H178439   3.529   1.615  16.657 -0.4052  0.9234  0.5820
19008TIP3    H278440   3.405   1.528  16.658  1.5496 -1.9410 -0.1634
19009TIP3   OH278441   1.591   3.222  13.121 -0.1586 -0.2491  0.3889
19009TIP3    H178442   1.509   3.188  13.155 -1.3149 -0.1802 -2.2118
19009TIP3    H278443   1.566   3.293  13.062  1.7350 -0.2133 -0.4391
19010TIP3   OH278444   5.006   1.849   2.673  0.0174  0.0182 -0.0530
19010TIP3    H178445   5.016   1.781   2.740 -0.2154 -0.3295 -0.3689
19010TIP3    H278446   5.011   1.931   2.721  0.2357 -0.2261  0.3402
19011TIP3   OH278447   1.710   4.936  15.562 -0.4678 -0.5641 -0.4867
19011TIP3    H178448   1.786   4.967  15.513 -1.4128  0.2003 -1.4819
19011TIP3    H278449   1.739   4.854  15.603  1.1278  0.1270 -0.2262
19012TIP3   OH278450   3.179   5.951  10.519  0.1079  0.2738 -0.2132
19012TIP3    H178451   3.242   5.888  10.483  0.0098 -0.1751  0.4029
19012TIP3    H278452   3.234   6.015  10.566  0.2381  0.8684 -1.1541
19013TIP3   OH278453   2.666   2.301   5.384  0.0301 -0.1755 -0.2872
19013TIP3    H178454   2.690   2.303   5.477 -0.4282  1.3566 -0.1773
19013TIP3    H278455   2.749   2.288   5.338  0.5821  1.3007  0.2514
19014TIP3   OH278456   0.860   2.586  12.737  0.6830  0.0385 -0.0667
19014TIP3    H178457   0.855   2.678  12.711  0.1599 -0.1095 -0.5184
19014TIP3    H278458   0.950   2.561  12.719  0.9933  0.6401  0.6680
19015TIP3   OH278459   3.745   1.897  16.228  0.8821 -0.4158 -0.6789
19015TIP3    H178460   3.789   1.817  16.260  1.1007  0.2220  0.6476
19015TIP3    H278461   3.666   1.865  16.184 -1.2298 -1.1909  3.4436
19016TIP3   OH278462   1.770   3.447  16.632 -0.4583  0.6150  0.0395
19016TIP3    H178463   1.677   3.430  16.646 -0.7407  1.6948 -0.4869
19016TIP3    H278464   1.782   3.538  16.660  0.3757  0.5870 -0.2133
19017TIP3   OH278465   5.095   1.588  12.610  0.0646 -0.0073 -0.2450
19017TIP3    H178466   5.088   1.569  12.516  0.9623  2.4120 -0.8401
19017TIP3    H278467   5.070   1.680  12.617  1.9329  0.3887  1.6170
19018TIP3   OH278468   4.420   0.359   1.633 -0.3213 -0.0425  0.4525
19018TIP3    H178469   4.325   0.373   1.638 -0.3996  0.0418 -1.1421
19018TIP3    H278470   4.436   0.334   1.542  1.3164  0.9151  0.4560
19019TIP3   OH278471   6.169   5.352   0.258  0.4290  0.3121 -0.3298
19019TIP3    H178472   6.116   5.402   0.320  0.4334  1.5496 -1.2904
19019TIP3    H278473   6.141   5.262   0.269  0.1173  0.5785  1.1575
19020TIP3   OH278474   4.340   5.331   2.368  0.3219 -0.3284  0.2074
19020TIP3    H178475   4.345   5.423   2.393 -0.4718  0.0854 -1.0938
19020TIP3    H278476   4.300   5.288   2.444 -1.5026  0.8074 -0.0592
19021TIP3   OH278477   6.706   6.738   0.301 -0.0827  0.3778  0.7045
19021TIP3    H178478   6.731   6.807   0.240 -0.6129  0.9485  1.1208
19021TIP3    H278479   6.656   6.676   0.248 -0.0864  0.5992  0.4474
19022TIP3   OH278480   6.609   5.547   3.863 -0.7358  0.0410 -0.3644
19022TIP3    H178481   6.574   5.634   3.879 -1.9304 -0.5635  0.4054
19022TIP3    H278482   6.660   5.556   3.783  1.3129  2.0325  1.1180
19023TIP3   OH278483   3.295   0.652   2.796 -0.1316  1.0080  0.0666
19023TIP3    H178484   3.316   0.745   2.791 -0.9245  1.1375 -1.2313
19023TIP3    H278485   3.250   0.634   2.714 -2.0871  0.0076  1.3211
19024TIP3   OH278486   4.201   2.438  11.391 -0.2356  0.0182 -0.4212
19024TIP3    H178487   4.293   2.428  11.365  0.0281  0.1396  0.4706
19024TIP3    H278488   4.152   2.412  11.313  0.5573  0.5883 -1.1215
19025TIP3   OH278489   5.830   2.135  15.779  0.4351 -0.0358  0.3431
19025TIP3    H178490   5.826   2.229  15.799  2.6935  0.0827  0.2865
19025TIP3    H278491   5.855   2.094  15.862 -0.8277 -0.6312  0.4383
19026TIP3   OH278492   3.758   0.358   5.336 -0.1513  0.2601 -0.4414
19026TIP3    H178493   3.665   0.375   5.347  0.0416 -1.0351  4.4136
19026TIP3    H278494   3.763   0.283   5.278 -2.0159  1.2392 -1.9192
19027TIP3   OH278495   2.316   6.727   1.059  0.1211 -0.1520 -0.4893
19027TIP3    H178496   2.258   6.665   1.102 -1.0688  1.1681 -0.1524
19027TIP3    H278497   2.367   6.765   1.131  0.6228 -0.5058 -0.6574
19028TIP3   OH278498   5.211   1.490   3.079 -0.2096  0.1643 -0.5289
19028TIP3    H178499   5.117   1.472   3.086 -0.3324 -0.2765 -2.7956
19028TIP3    H278500   5.233   1.535   3.161 -2.8408  2.2183 -0.8601
19029TIP3   OH278501   1.081   0.975  10.634  0.2601  0.5497  0.0765
19029TIP3    H178502   0.993   1.010  10.649 -0.2705 -0.7452 -0.0045
19029TIP3    H278503   1.069   0.907  10.569  1.4735  0.9991 -0.6291
19030TIP3   OH278504   1.899   3.373   2.181  0.3595  0.4102 -0.1955
19030TIP3    H178505   1.835   3.430   2.138 -0.6301 -0.1109  0.5631
19030TIP3    H278506   1.887   3.288   2.140 -1.0578 -0.2617  1.5150
19031TIP3   OH278507   3.727   5.916   1.621 -0.0549 -0.2097 -0.2797
19031TIP3    H178508   3.673   5.852   1.575 -2.3551  1.6667 -0.2876
19031TIP3    H278509   3.751   5.873   1.703 -3.2223 -0.4155  0.6146
19032TIP3   OH278510   4.189   3.530  15.769  0.4104  0.2190 -0.6248
19032TIP3    H178511   4.281   3.522  15.795 -0.3397 -0.3041  2.0480
19032TIP3    H278512   4.168   3.622  15.782  0.6457  0.4213 -1.6231
19033TIP3   OH278513   6.183   3.707  10.416  0.2380 -0.7632 -0.3368
19033TIP3    H178514   6.137   3.628  10.444  1.2196 -1.4389 -0.6004
19033TIP3    H278515   6.275   3.689  10.435  0.6530 -0.3132 -1.8393
19034TIP3   OH278516   6.478   2.038  15.948  0.7712  0.6287 -0.4051
19034TIP3    H178517   6.480   1.958  15.895 -1.7615  0.3444 -0.1420
19034TIP3    H278518   6.511   2.106  15.890  0.7449 -0.1857 -1.3944
19035TIP3   OH278519   4.323   2.195  15.566 -0.0140  0.1112  0.5244
19035TIP3    H178520   4.243   2.160  15.604  0.3224 -1.3160 -0.0499
19035TIP3    H278521   4.295   2.238  15.485 -0.3533  0.7434  0.9671
19036TIP3   OH278522   2.910   4.668  16.047  0.2098  0.2558  0.0819
19036TIP3    H178523   2.842   4.607  16.076 -0.6992  2.1216  1.9268
19036TIP3    H278524   2.862   4.744  16.015  1.3637  0.3565 -1.4588
19037TIP3   OH278525   1.547   2.717  11.436  0.8451 -0.1830 -0.5263
19037TIP3    H178526   1.480   2.766  11.387  0.9421 -0.1214 -0.5978
19037TIP3    H278527   1.564   2.771  11.513 -2.1504 -2.1499  1.5998
19038TIP3   OH278528   4.035   2.395  11.886  0.1284  0.4686 -0.4262
19038TIP3    H178529   4.063   2.464  11.826 -0.5794  2.5793  1.6114
19038TIP3    H278530   3.962   2.353  11.841  0.5557  1.0185 -1.6763
19039TIP3   OH278531   1.008   4.912   4.359  0.4549  0.3877  0.1269
19039TIP3    H178532   1.063   4.979   4.319  0.0543  0.3651 -0.4618
19039TIP3    H278533   1.069   4.842   4.382  1.0662  1.4854  1.9074
19040TIP3   OH278534   1.758   5.452  12.837  0.2272 -0.0287 -0.6813
19040TIP3    H178535   1.701   5.506  12.891  0.0085 -0.3985 -0.5377
19040TIP3    H278536   1.699   5.402  12.781  0.3449 -1.1845  0.1987
19041TIP3   OH278537   3.332   4.448  12.303 -0.1080  0.9100 -0.2094
19041TIP3    H178538   3.392   4.519  12.281 -1.0327  0.6376 -3.9788
19041TIP3    H278539   3.247   4.478  12.272 -0.9346 -0.8408  0.3242
19042TIP3   OH278540   1.267   4.277  11.655 -0.3088  0.1966  0.7768
19042TIP3    H178541   1.280   4.366  11.623  1.9123 -0.9018 -1.5573
19042TIP3    H278542   1.347   4.257  11.705  1.7888 -2.3165 -3.3192
19043TIP3   OH278543   5.943   3.987  15.239 -0.3371  0.2518  0.3086
19043TIP3    H178544   5.869   3.958  15.293 -1.7644  1.3547 -1.0069
19043TIP3    H278545   6.005   3.914  15.243 -2.9463 -2.2165 -1.2916
19044TIP3   OH278546   4.956   6.755  16.529  0.1018 -0.2198 -0.2516
19044TIP3    H178547   4.990   6.804  16.455  1.0696 -0.3489  0.1029
19044TIP3    H278548   4.885   6.810  16.565  1.2736  0.9895  0.2453
19045TIP3   OH278549   5.006   3.501  12.849  0.7152 -0.4110 -0.1937
19045TIP3    H178550   4.956   3.577  12.819  0.2393 -0.8678 -0.5880
19045TIP3    H278551   5.094   3.534  12.865  0.4092  0.3032  0.0208
19046TIP3   OH278552   5.129   4.047   2.721  0.3372 -0.2722 -0.4987
19046TIP3    H178553   5.076   4.119   2.755  1.2078  0.2228 -0.1856
19046TIP3    H278554   5.072   4.003   2.658  0.2260  1.3848 -1.5595
19047TIP3   OH278555   4.360   4.956   5.708 -0.6376  0.1596  0.0440
19047TIP3    H178556   4.325   5.044   5.720  2.0038  1.3193 -0.4742
19047TIP3    H278557   4.340   4.911   5.791 -0.6079  1.7386  0.9304
19048TIP3   OH278558   6.782   0.952   0.841 -0.1990  0.1338  0.6101
19048TIP3    H178559   6.706   0.894   0.830 -0.7131  0.7226  1.0709
19048TIP3    H278560   6.842   0.901   0.895 -0.9336  0.2876  1.5785
19049TIP3   OH278561   2.453   3.507   1.921 -0.6474 -0.2381 -0.3089
19049TIP3    H178562   2.404   3.535   1.998  1.8233 -3.1028  2.4700
19049TIP3    H278563   2.406   3.432   1.888 -0.0385 -0.9052  0.3146
19050TIP3   OH278564   5.452   3.422   0.735  0.5928 -0.0992  0.0932
19050TIP3    H178565   5.447   3.336   0.695 -0.2576 -0.7000  1.4506
19050TIP3    H278566   5.385   3.474   0.689  1.4438 -0.0042 -1.0588
19051TIP3   OH278567   0.433   5.200  14.636  0.2161  0.5239 -0.3239
19051TIP3    H178568   0.393   5.125  14.680 -0.2316  1.3562  0.7202
19051TIP3    H278569   0.515   5.214  14.683  0.6592  0.2214 -1.0053
19052TIP3   OH278570   6.343   1.058   3.422 -0.0857 -0.1904 -0.2541
19052TIP3    H178571   6.415   1.003   3.452  0.0027 -0.1242 -0.3468
19052TIP3    H278572   6.268   0.998   3.414  0.2784 -0.5018 -1.4009
19053TIP3   OH278573   6.028   2.952   3.725  0.3659  0.1936  0.7384
19053TIP3    H178574   6.034   3.006   3.804  0.2577 -1.0839  1.6554
19053TIP3    H278575   5.996   2.867   3.758  0.5242 -0.4099 -0.6529
19054TIP3   OH278576   6.476   0.907   5.716 -0.4341 -0.0304  0.1949
19054TIP3    H178577   6.536   0.982   5.721 -0.7017  0.2907 -1.1844
19054TIP3    H278578   6.492   0.859   5.797  0.4780  0.9657  0.6304
19055TIP3   OH278579   1.008   0.020   5.445 -0.3919 -0.4819  0.3387
19055TIP3    H178580   1.006  -0.058   5.500 -1.1499  0.3367  1.4899
19055TIP3    H278581   1.045   0.089   5.501 -1.3153  0.3981 -0.1165
19056TIP3   OH278582   4.690   4.858  14.233 -0.2252 -0.2939 -0.3206
19056TIP3    H178583   4.608   4.842  14.186 -0.0660  0.1234 -0.7479
19056TIP3    H278584   4.758   4.828  14.174 -0.0772 -0.9043  0.1518
19057TIP3   OH278585   6.732   4.809   3.329  0.0547  0.5364 -0.4900
19057TIP3    H178586   6.791   4.734   3.327  0.2148  0.5881  1.2962
19057TIP3    H278587   6.761   4.860   3.404 -0.6682  1.8879 -1.1062
19058TIP3   OH278588   5.312   6.141  11.950 -0.0373  0.4267 -0.0980
19058TIP3    H178589   5.356   6.057  11.940  0.4719  0.6855 -0.0653
19058TIP3    H278590   5.312   6.157  12.045  1.6502  1.3922 -0.2406
19059TIP3   OH278591   4.292   3.746  13.513 -0.1453  0.4408 -0.4975
19059TIP3    H178592   4.319   3.726  13.603 -1.1823 -0.6914 -0.4282
19059TIP3    H278593   4.209   3.794  13.523  0.4559  1.5518 -0.8026
19060TIP3   OH278594   4.658   1.800  12.299  0.2753  0.2777  0.2462
19060TIP3    H178595   4.750   1.792  12.323  0.7309  0.5636 -1.3454
19060TIP3    H278596   4.634   1.889  12.325  0.2804  0.0077  1.1872
19061TIP3   OH278597   2.033   0.753  11.540 -0.2867  0.0252  0.5080
19061TIP3    H178598   2.089   0.719  11.470 -0.8381 -0.5582  0.3425
19061TIP3    H278599   2.091   0.804  11.595  0.3871 -0.4881  0.2731
19062TIP3   OH278600   6.447   4.190  14.576  0.2044  0.3395 -0.2287
19062TIP3    H178601   6.425   4.260  14.515 -0.7157  0.5769  0.3670
19062TIP3    H278602   6.370   4.182  14.632  0.8278 -0.2408  0.5573
19063TIP3   OH278603   5.893   3.839  16.898  0.7291  0.2024  0.0678
19063TIP3    H178604   5.855   3.923  16.924  1.0457 -0.4777  2.9690
19063TIP3    H278605   5.826   3.797  16.844 -0.5879  1.1424  0.9552
19064TIP3   OH278606   1.551   5.007  11.279  0.2965  0.0243 -0.2644
19064TIP3    H178607   1.628   4.983  11.229  0.4729 -0.8891  0.4292
19064TIP3    H278608   1.579   5.001  11.371 -0.8688 -1.3327  0.0258
19065TIP3   OH278609   3.423   0.003  17.134  0.8765 -0.3671 -0.2043
19065TIP3    H178610   3.334   0.031  17.156 -0.1558 -2.3551 -1.6692
19065TIP3    H278611   3.445  -0.062  17.201  1.4559  0.5325  0.4854
19066TIP3   OH278612   6.532   0.924  17.014 -0.6108  0.0944 -0.0055
19066TIP3    H178613   6.441   0.954  17.022 -0.5004  0.9830 -1.7706
19066TIP3    H278614   6.560   0.957  16.928 -0.1066 -4.1328 -1.5777
19067TIP3   OH278615   5.597   6.765   1.656  0.3099 -0.3260 -0.0682
19067TIP3    H178616   5.657   6.691   1.652  0.2553 -0.4466  1.1792
19067TIP3    H278617   5.616   6.806   1.741  0.8779  1.5349 -1.0547
19068TIP3   OH278618   3.328   2.028  11.433 -0.0870 -0.5255 -0.3284
19068TIP3    H178619   3.341   1.935  11.416 -2.1987 -1.1693  1.2620
19068TIP3    H278620   3.312   2.033  11.528 -1.3854  1.2641 -0.6022
19069TIP3   OH278621   4.434   0.758   5.983  0.0865  0.1644 -0.3948
19069TIP3    H178622   4.443   0.678   6.034  0.5696 -0.8173 -1.9830
19069TIP3    H278623   4.341   0.760   5.957  0.1291 -0.0180 -0.5608
19070TIP3   OH278624   2.571   0.908  14.809  0.4287  0.4613 -0.0378
19070TIP3    H178625   2.640   0.866  14.860 -1.6734 -2.4268  0.5560
19070TIP3    H278626   2.512   0.947  14.873  0.7340  1.7308 -0.5000
19071TIP3   OH278627   6.660   4.450  12.713  0.2347 -0.2305  0.0123
19071TIP3    H178628   6.710   4.475  12.635 -1.1946  0.0270 -0.8434
19071TIP3    H278629   6.569   4.461  12.687 -0.3592 -3.1142  0.6887
19072TIP3   OH278630   4.833   2.870  13.406 -0.0152  0.6856 -0.0765
19072TIP3    H178631   4.908   2.855  13.464  0.1878  0.1521 -0.4638
19072TIP3    H278632   4.776   2.929  13.454  1.4163  2.4140 -0.4290
19073TIP3   OH278633   3.789   2.983  14.057  0.6253  0.2101  0.3830
19073TIP3    H178634   3.851   2.952  13.991  0.6984  2.6329 -0.7399
19073TIP3    H278635   3.727   2.910  14.067  2.8120 -1.6923  0.5057
19074TIP3   OH278636   2.244   5.905  10.578 -0.1906  0.0076 -0.2513
19074TIP3    H178637   2.233   5.810  10.585  0.3667 -0.0313  0.1482
19074TIP3    H278638   2.299   5.928  10.653  0.8084  0.4547 -1.1128
19075TIP3   OH278639   3.490   3.746  13.906  0.4666 -0.2176  0.6243
19075TIP3    H178640   3.585   3.738  13.897  0.4424 -0.3176  0.4582
19075TIP3    H278641   3.455   3.664  13.872  0.2088  0.6869 -1.3577
19076TIP3   OH278642   2.756   4.205   4.158 -0.0981 -0.2087  0.4489
19076TIP3    H178643   2.744   4.299   4.144 -0.5297 -0.2192  0.7449
19076TIP3    H278644   2.751   4.166   4.070 -0.8946 -0.0636  0.4291
19077TIP3   OH278645   1.796   0.644  17.076 -0.1100 -0.5049 -0.0449
19077TIP3    H178646   1.829   0.564  17.035 -1.3883 -0.3888 -1.3171
19077TIP3    H278647   1.834   0.715  17.025 -2.5481 -0.3736 -1.7416
19078TIP3   OH278648   2.598   4.783   1.494 -0.8918 -0.1366  0.1403
19078TIP3    H178649   2.566   4.699   1.529 -2.7935  0.8266  0.8242
19078TIP3    H278650   2.556   4.849   1.549 -0.3140  1.3059 -1.1084
19079TIP3   OH278651   4.921   5.526   4.529  0.5535  0.0246 -0.0697
19079TIP3    H178652   4.834   5.543   4.494  0.6156  1.1618  0.3216
19079TIP3    H278653   4.966   5.480   4.459 -0.0007  0.4140 -0.6855
19080TIP3   OH278654   0.579   0.481   0.125  0.4629  0.0127  0.0854
19080TIP3    H178655   0.658   0.534   0.123  0.8519 -0.5260  0.9582
19080TIP3    H278656   0.565   0.455   0.034  1.2436  0.1703 -0.0769
19081TIP3   OH278657   0.041   6.494   6.418  0.5106 -0.2793 -0.2060
19081TIP3    H178658  -0.052   6.510   6.402  0.4734 -0.5468 -0.2589
19081TIP3    H278659   0.086   6.568   6.378  0.4152 -0.9437 -1.5724
19082TIP3   OH278660   6.673   6.586  16.569  0.1154  0.3113 -0.3704
19082TIP3    H178661   6.759   6.566  16.607  0.0467 -2.6213 -1.6236
19082TIP3    H278662   6.692   6.614  16.480 -0.2187 -0.6869 -0.7657
19083TIP3   OH278663   4.515   5.235   1.334  0.2538 -0.2275 -0.7338
19083TIP3    H178664   4.442   5.182   1.303 -0.6055  0.8329 -0.5523
19083TIP3    H278665   4.503   5.240   1.429  1.2733 -1.0814 -0.5430
19084TIP3   OH278666   2.700   0.543   3.267 -0.5279  0.6702  0.0843
19084TIP3    H178667   2.686   0.631   3.231 -1.3662  1.1345  1.5319
19084TIP3    H278668   2.760   0.502   3.205 -2.2425  1.3115 -2.1084
19085TIP3   OH278669   6.666   3.519   1.174  0.1345  0.2790 -0.1956
19085TIP3    H178670   6.648   3.554   1.087  1.1446  1.6208  0.1198
19085TIP3    H278671   6.704   3.593   1.222 -1.9513  0.0618  1.9033
19086TIP3   OH278672   3.878   0.747   6.629 -0.2656  0.2504 -0.3745
19086TIP3    H178673   3.825   0.714   6.557  1.5300  0.3233 -1.7652
19086TIP3    H278674   3.960   0.698   6.623  0.8047  1.9325  0.1553
19087TIP3   OH278675   6.544   2.664  14.038 -0.0367 -0.0734  0.0759
19087TIP3    H178676   6.547   2.618  13.955 -2.7441 -1.0978  0.5085
19087TIP3    H278677   6.574   2.600  14.102 -0.7289 -0.2114  0.2635
19088TIP3   OH278678   4.878   4.550   2.240 -0.1734 -0.7554 -0.0188
19088TIP3    H178679   4.831   4.623   2.201  0.0298 -2.3044 -3.3111
19088TIP3    H278680   4.810   4.488   2.266 -0.1811 -1.0312 -0.6835
19089TIP3   OH278681   4.008   3.118  13.651  0.1246  0.2754 -0.0145
19089TIP3    H178682   3.972   3.121  13.562 -0.1300  0.1001  0.0808
19089TIP3    H278683   3.997   3.206  13.684  1.1229  0.5968 -0.5121
19090TIP3   OH278684   4.363   5.900   4.688 -0.2138  0.4931  0.0053
19090TIP3    H178685   4.315   5.820   4.709 -1.1004  1.0297  0.0603
19090TIP3    H278686   4.442   5.896   4.743 -1.7443  1.1376  2.3420
19091TIP3   OH278687   3.341   6.505  11.543  0.7081 -0.0985 -0.1604
19091TIP3    H178688   3.329   6.410  11.552  0.8042  0.0332  1.5292
19091TIP3    H278689   3.434   6.519  11.562  0.2452  0.5558  1.7751
19092TIP3   OH278690   0.566   1.281   3.749 -0.2679 -0.1449 -0.0451
19092TIP3    H178691   0.483   1.294   3.795  0.4513 -0.1453  1.2777
19092TIP3    H278692   0.630   1.333   3.798  1.3401 -3.3624  1.4714
19093TIP3   OH278693   3.652   4.770  13.324 -0.2663 -0.7720 -0.1895
19093TIP3    H178694   3.612   4.695  13.280 -3.0407  0.2425  0.4767
19093TIP3    H278695   3.661   4.836  13.256  2.1946 -1.6431 -0.7797
19094TIP3   OH278696   3.569   5.611   2.001  0.5181  0.0622 -0.7351
19094TIP3    H178697   3.608   5.549   2.063  0.2094  1.3276  0.7852
19094TIP3    H278698   3.483   5.632   2.039  0.1265  0.4950 -1.8427
19095TIP3   OH278699   4.973   6.127   4.859  0.0007  0.3001 -0.6200
19095TIP3    H178700   5.026   6.047   4.859  0.3779  0.5504 -0.3775
19095TIP3    H278701   4.926   6.124   4.942 -0.0608  0.2765 -0.6561
19096TIP3   OH278702   2.785   2.194  16.769 -0.0876  0.1154  0.0881
19096TIP3    H178703   2.845   2.139  16.719  0.0663  1.6577 -1.4676
19096TIP3    H278704   2.698   2.157  16.751  0.1315 -0.4404  0.1490
19097TIP3   OH278705   2.193   3.987   3.163  0.0153 -0.0201 -0.5804
19097TIP3    H178706   2.237   4.010   3.245 -0.2151 -1.6407  0.0018
19097TIP3    H278707   2.170   3.895   3.172 -1.7802  0.2978 -1.6611
19098TIP3   OH278708   2.883   6.686  14.034  0.8453 -0.7321 -0.0689
19098TIP3    H178709   2.906   6.725  14.118 -1.6892  1.0551 -0.1526
19098TIP3    H278710   2.862   6.595  14.054  1.3295 -0.6037  1.0297
19099TIP3   OH278711   0.937   6.646   0.549 -0.0916 -0.0276 -0.3034
19099TIP3    H178712   0.942   6.592   0.470 -0.5297 -1.3558  0.5618
19099TIP3    H278713   0.974   6.590   0.618  0.8839  1.3578  0.3189
19100TIP3   OH278714   6.665   0.830  15.579  0.0085 -0.3239  0.3343
19100TIP3    H178715   6.716   0.908  15.600  0.0472 -0.2783  0.0735
19100TIP3    H278716   6.691   0.766  15.646 -0.3423  0.0226  0.8041
19101TIP3   OH278717   3.998   5.626   1.692 -0.5242 -0.5231 -0.3207
19101TIP3    H178718   4.023   5.647   1.782 -1.7198  1.2179 -0.3757
19101TIP3    H278719   4.073   5.653   1.639 -0.0692 -0.9752  0.0841
19102TIP3   OH278720   3.381   3.273  13.081  0.3945 -0.0250  0.4922
19102TIP3    H178721   3.432   3.329  13.023 -0.8280 -1.5196 -2.1145
19102TIP3    H278722   3.404   3.184  13.055 -1.5924 -0.7279  1.0235
19103TIP3   OH278723   3.893   1.049  13.828 -0.0752  0.1796 -0.3404
19103TIP3    H178724   3.813   1.102  13.830  0.9112  1.6738  0.5788
19103TIP3    H278725   3.959   1.106  13.789  0.5419 -1.0603 -1.1464
19104TIP3   OH278726   4.441   1.197  13.334 -0.4850  0.4584  0.6233
19104TIP3    H178727   4.496   1.219  13.410  0.7023 -0.9258  0.1888
19104TIP3    H278728   4.456   1.269  13.272  1.0150 -0.0035  0.4259
19105TIP3   OH278729   5.772   1.429  16.708 -0.5788  0.3519 -0.1341
19105TIP3    H178730   5.812   1.375  16.640 -1.5392  1.0544 -1.2724
19105TIP3    H278731   5.732   1.502  16.661 -0.4303  1.3665  1.2728
19106TIP3   OH278732   3.786   3.156  10.828 -0.5239  0.9012 -0.1367
19106TIP3    H178733   3.829   3.111  10.900 -0.1075  1.4671 -0.0295
19106TIP3    H278734   3.693   3.154  10.850 -0.4654  0.4502  0.0624
19107TIP3   OH278735   0.687   2.195   3.605 -0.1718  0.3476 -0.0972
19107TIP3    H178736   0.609   2.195   3.661  0.5501  0.2517  0.9103
19107TIP3    H278737   0.658   2.237   3.524 -0.4945  3.0242  1.3721
19108TIP3   OH278738   3.414   6.031   3.238  0.0513  0.2163  0.4133
19108TIP3    H178739   3.394   5.974   3.311 -2.0945  0.1153 -0.2245
19108TIP3    H278740   3.396   5.978   3.160  0.5595  0.9160 -0.1915
19109TIP3   OH278741   2.534   5.455  16.328 -0.1320 -0.0852 -0.6450
19109TIP3    H178742   2.626   5.456  16.302 -0.0790  0.2440 -0.4588
19109TIP3    H278743   2.516   5.364  16.350 -0.1239 -0.3278 -1.6357
19110TIP3   OH278744   6.223   3.507  17.017 -0.4787  0.3465  0.6683
19110TIP3    H178745   6.283   3.525  17.089  0.9345 -1.3384 -0.0506
19110TIP3    H278746   6.195   3.417  17.030  0.5308 -0.3098 -1.3393
19111TIP3   OH278747   1.641   3.399  12.579  0.1099  0.0332  0.3332
19111TIP3    H178748   1.602   3.378  12.493  0.8954  1.1316 -0.2942
19111TIP3    H278749   1.671   3.314  12.612 -0.4651 -0.4454 -0.3473
19112TIP3   OH278750   1.568   5.724  14.107 -0.5854  0.4748 -0.1311
19112TIP3    H178751   1.542   5.654  14.047  0.2249  0.2139 -0.1805
19112TIP3    H278752   1.664   5.725  14.103 -0.6114  2.0508 -0.6718
19113TIP3   OH278753   0.050   5.792   6.520  0.3301 -0.1161  0.4191
19113TIP3    H178754   0.102   5.871   6.531 -1.5009  1.0819  0.6882
19113TIP3    H278755   0.093   5.744   6.450  0.2882  2.1017 -1.1657
19114TIP3   OH278756   4.980   1.086   5.362  0.2123  0.2156 -0.7127
19114TIP3    H178757   4.968   1.019   5.429 -0.2059 -0.2873 -1.2766
19114TIP3    H278758   4.915   1.153   5.383 -0.5253 -0.3666 -1.1394
19115TIP3   OH278759   1.380   0.962   4.736  0.2518  0.4014  0.0359
19115TIP3    H178760   1.445   0.898   4.707  1.8123  2.5806 -1.4588
19115TIP3    H278761   1.406   0.983   4.826  1.4983  1.1042 -0.4847
19116TIP3   OH278762   6.711   6.425   1.954  0.3852 -1.2085  0.2039
19116TIP3    H178763   6.759   6.507   1.962  2.0168 -2.2869  1.6832
19116TIP3    H278764   6.769   6.367   1.905 -1.4689 -0.9735 -2.3744
19117TIP3   OH278765   0.829   2.891   0.301  0.1414 -0.1905 -0.4345
19117TIP3    H178766   0.836   2.840   0.220  1.1958  0.4272 -0.7421
19117TIP3    H278767   0.827   2.982   0.272 -2.9609 -0.0347  0.0332
19118TIP3   OH278768   3.842   1.180   5.108 -0.3602 -0.3539 -0.2053
19118TIP3    H178769   3.879   1.227   5.033  1.3123 -0.6647  0.4055
19118TIP3    H278770   3.772   1.237   5.139  0.8161  1.1598 -0.2362
19119TIP3   OH278771   2.486   2.876   0.050  0.2194  0.0720  0.8428
19119TIP3    H178772   2.458   2.948   0.107 -1.5922 -0.6507  0.8932
19119TIP3    H278773   2.451   2.798   0.092 -0.2392 -0.5685 -0.7231
19120TIP3   OH278774   4.562   0.054  11.303  0.3218  0.5756 -0.0244
19120TIP3    H178775   4.475   0.091  11.286  0.6711  1.1363 -0.6098
19120TIP3    H278776   4.565  -0.026  11.251  1.6458  2.6390 -3.2365
19121TIP3   OH278777   4.674   3.737  13.254  0.0993  0.5178  0.0221
19121TIP3    H178778   4.707   3.663  13.203 -1.4862  1.4718 -2.5260
19121TIP3    H278779   4.599   3.703  13.302  0.8176 -0.0908  0.7124
19122TIP3   OH278780   5.067   0.652  11.327 -0.7920 -0.7935  0.3278
19122TIP3    H178781   5.110   0.614  11.251  0.2455 -0.3625  0.6948
19122TIP3    H278782   5.017   0.726  11.292 -0.6487 -0.8485  0.0088
19123TIP3   OH278783   0.110   3.587   5.090  0.1871  0.2866 -0.0085
19123TIP3    H178784   0.087   3.680   5.083  0.0867  0.3073  0.6086
19123TIP3    H278785   0.163   3.581   5.169  1.1143 -0.0052 -0.6472
19124TIP3   OH278786   3.908   4.520  16.489  0.0891  0.2018  0.5134
19124TIP3    H178787   3.890   4.611  16.464  1.7086  0.4982  0.3812
19124TIP3    H278788   3.821   4.479  16.493 -0.7465  1.9838  1.4998
19125TIP3   OH278789   3.829   1.028  13.505 -0.1306 -0.2173  0.1653
19125TIP3    H178790   3.809   0.961  13.571  1.3559 -0.0214  0.8156
19125TIP3    H278791   3.762   1.095  13.518  0.1599 -0.1711  1.4801
19126TIP3   OH278792   4.026   1.500  15.371 -0.1746 -0.4390 -0.1194
19126TIP3    H178793   4.068   1.578  15.335 -1.5145  0.8092  0.9671
19126TIP3    H278794   3.986   1.529  15.452  1.8733 -2.9756  1.8900
19127TIP3   OH278795   5.463   3.202   0.510  0.5212  0.1876 -0.1437
19127TIP3    H178796   5.464   3.283   0.459 -2.0934  0.1555 -0.3231
19127TIP3    H278797   5.378   3.162   0.489  0.6852 -1.3089  1.9339
19128TIP3   OH278798   0.156   0.670  13.704  0.3167 -0.4870  0.1366
19128TIP3    H178799   0.065   0.640  13.708  0.1964 -0.0748  0.5751
19128TIP3    H278800   0.151   0.763  13.728  0.8109 -0.3800 -0.1747
19129TIP3   OH278801   1.303   5.214  16.263  0.0864 -0.6890  0.2847
19129TIP3    H178802   1.324   5.307  16.275  0.6263 -0.7527 -0.1464
19129TIP3    H278803   1.208   5.212  16.256  0.1826  0.0875 -1.7456
19130TIP3   OH278804   1.981   0.479  11.340 -0.1462 -0.3702  0.3846
19130TIP3    H178805   1.916   0.440  11.282  0.0747 -0.6818  0.3495
19130TIP3    H278806   1.977   0.573  11.320 -2.1139 -0.0787  1.9056
19131TIP3   OH278807   0.461   5.544   0.805 -0.5496  0.0842 -0.7816
19131TIP3    H178808   0.436   5.595   0.882 -1.2060 -0.2876 -0.7411
19131TIP3    H278809   0.423   5.458   0.820  1.4928 -0.7777 -0.3195
19132TIP3   OH278810   1.085   0.967   4.835  0.1137 -0.0062 -0.2116
19132TIP3    H178811   1.154   0.940   4.897  1.5066 -0.0183 -1.7286
19132TIP3    H278812   1.048   0.885   4.804 -0.0637 -0.0199  0.0367
19133TIP3   OH278813   6.155   5.098   0.012  0.3002 -0.6004 -0.3808
19133TIP3    H178814   6.198   5.180  -0.010  2.0113 -1.3727  0.0247
19133TIP3    H278815   6.076   5.124   0.060  0.1211  0.8336 -1.4298
19134TIP3   OH278816   3.019   1.277  13.078 -0.1031 -0.1496  0.0556
19134TIP3    H178817   2.947   1.338  13.063 -0.7616 -0.8900  0.1995
19134TIP3    H278818   3.056   1.304  13.162 -0.1692  0.2622 -0.0433
19135TIP3   OH278819   3.653   1.062   6.429  0.3982  0.0218 -0.1316
19135TIP3    H178820   3.626   1.009   6.354 -0.8267  1.2426 -0.5856
19135TIP3    H278821   3.695   1.139   6.390  0.6137  0.2012  0.4535
19136TIP3   OH278822   3.906   0.186   0.205  0.2141 -0.5730  0.7240
19136TIP3    H178823   3.921   0.255   0.270 -1.1562  0.4109  0.0318
19136TIP3    H278824   3.982   0.191   0.147  0.3406  0.0885  0.9356
19137TIP3   OH278825   0.238   3.458   3.647  0.9215 -0.1340 -0.2293
19137TIP3    H178826   0.246   3.545   3.686  0.0891  0.3673 -1.1804
19137TIP3    H278827   0.167   3.466   3.584  0.1050 -1.7796  0.4465
19138TIP3   OH278828   3.571   2.806  15.449  0.3649  0.1849  0.1528
19138TIP3    H178829   3.608   2.795  15.536 -1.6207 -0.0965  0.9882
19138TIP3    H278830   3.526   2.724  15.431 -1.8527  1.3590  0.1643
19139TIP3   OH278831   3.374   3.072  12.244  0.0017 -0.2270 -0.0300
19139TIP3    H178832   3.352   2.998  12.301  2.8875 -1.3212 -0.2356
19139TIP3    H278833   3.325   3.145  12.280  0.2688 -1.3376  2.7116
19140TIP3   OH278834   3.487   5.003  15.078 -0.0818  0.2377  0.3484
19140TIP3    H178835   3.445   4.974  15.159  0.9003 -1.0945  0.4130
19140TIP3    H278836   3.567   5.046  15.107 -0.9836  2.0354  0.1928
19141TIP3   OH278837   1.976   2.195   1.757  0.0243 -0.1023  0.1042
19141TIP3    H178838   2.017   2.213   1.672  1.0663 -0.2312  0.5705
19141TIP3    H278839   1.981   2.099   1.766  1.0591  0.0241  0.8771
19142TIP3   OH278840   1.659   5.775  13.512 -0.5630  0.1687  0.9509
19142TIP3    H178841   1.677   5.745  13.601  0.1733 -1.2973  0.3255
19142TIP3    H278842   1.698   5.708  13.456  0.2412  1.8118 -0.4919
19143TIP3   OH278843   2.039   6.725   2.465 -0.1705  0.1688 -0.4770
19143TIP3    H178844   2.052   6.701   2.556  2.7341  0.2868 -0.7871
19143TIP3    H278845   2.110   6.680   2.418  0.8671  3.2413 -2.0810
19144TIP3   OH278846   0.237   5.865   3.936  1.2727  0.2110 -0.6417
19144TIP3    H178847   0.167   5.908   3.888  0.7074  1.5835  1.3523
19144TIP3    H278848   0.192   5.814   4.004  2.1207 -0.2081 -0.3841
19145TIP3   OH278849   1.892   6.014   1.373 -0.1884 -0.4607  0.2926
19145TIP3    H178850   1.975   5.994   1.330 -0.6106 -0.6455 -0.4403
19145TIP3    H278851   1.909   6.093   1.423 -0.6957  1.9662 -3.2013
19146TIP3   OH278852   3.839   0.655  13.600 -0.8556 -0.7384 -0.2719
19146TIP3    H178853   3.818   0.642  13.508 -1.4986 -0.8928 -0.1007
19146TIP3    H278854   3.855   0.567  13.634  0.1338 -0.6177 -0.4169
19147TIP3   OH278855   1.465   5.498   0.170 -0.7382 -0.3056 -0.2049
19147TIP3    H178856   1.476   5.526   0.260 -0.1232 -1.2462  0.0207
19147TIP3    H278857   1.517   5.418   0.163 -0.7361 -0.2105 -1.4052
19148TIP3   OH278858   3.428   5.085  14.274 -0.0548  0.4134  0.0332
19148TIP3    H178859   3.386   5.090  14.360  0.0871  1.9184  0.0136
19148TIP3    H278860   3.358   5.105  14.213 -0.2665 -1.1154 -0.2397
19149TIP3   OH278861   4.684   4.856   4.990 -0.2192  0.3908 -0.0027
19149TIP3    H178862   4.676   4.927   5.053 -0.7252  0.1554  0.2054
19149TIP3    H278863   4.777   4.851   4.971  0.1294 -0.4436  1.7825
19150TIP3   OH278864   0.972   4.314   5.433  0.3852 -0.0188  0.3378
19150TIP3    H178865   0.909   4.287   5.500 -0.2859 -0.9311 -0.6375
19150TIP3    H278866   1.017   4.232   5.409  1.5325  0.5246  0.6080
19151TIP3   OH278867   5.467   4.562  10.911 -0.6109  0.1941 -0.2224
19151TIP3    H178868   5.461   4.466  10.907  0.0102  0.2046 -1.7120
19151TIP3    H278869   5.555   4.579  10.944 -0.9975  0.2525  0.7959
19152TIP3   OH278870   5.249   1.501   5.700  0.6047 -0.5577  0.4401
19152TIP3    H178871   5.192   1.495   5.776  1.9594  0.1303  1.5384
19152TIP3    H278872   5.198   1.465   5.628 -2.0391  2.0022  0.9318
19153TIP3   OH278873   2.814   0.333  11.178 -0.3081  0.3003  0.0933
19153TIP3    H178874   2.809   0.247  11.220 -0.0071 -0.3927 -1.2370
19153TIP3    H278875   2.743   0.383  11.216 -0.0351 -0.3073  1.4188
19154TIP3   OH278876   1.373   5.381  12.275  0.1185  0.0241  0.1949
19154TIP3    H178877   1.452   5.410  12.321  0.6361  0.2810 -0.8441
19154TIP3    H278878   1.378   5.286  12.277  0.6961  0.0440 -0.2759
19155TIP3   OH278879   3.755   4.447  12.947  0.4960 -0.2211  0.1383
19155TIP3    H178880   3.674   4.416  12.988  1.1628 -0.0839  1.6250
19155TIP3    H278881   3.811   4.370  12.945  0.7268 -0.0532  0.1681
19156TIP3   OH278882   3.598   5.755  15.214 -0.3160 -0.2440  0.0411
19156TIP3    H178883   3.531   5.723  15.154  0.1543  2.2487 -1.8814
19156TIP3    H278884   3.556   5.826  15.262  0.0747 -0.6032  0.9400
19157TIP3   OH278885   1.960   3.273   0.960  0.9346 -0.6003 -1.0868
19157TIP3    H178886   1.893   3.205   0.962  1.7129 -1.3717  0.1275
19157TIP3    H278887   1.931   3.334   0.893 -0.5146 -1.3863 -1.1992
19158TIP3   OH278888   2.725   0.331   3.743  0.1675  0.0258  0.0775
19158TIP3    H178889   2.661   0.263   3.725 -0.1341  0.6107 -1.1034
19158TIP3    H278890   2.740   0.373   3.658  1.7914  0.1745  0.4237
19159TIP3   OH278891   6.417   4.613  12.850  0.4030  0.3648 -0.2743
19159TIP3    H178892   6.445   4.687  12.796  1.8834  0.0721  0.0627
19159TIP3    H278893   6.457   4.629  12.935  1.3610 -1.2121 -0.4133
19160TIP3   OH278894   6.651   4.024   2.365  0.3085 -0.1159  0.4213
19160TIP3    H178895   6.738   4.018   2.327 -0.1296 -0.6273 -0.4932
19160TIP3    H278896   6.665   4.015   2.460  1.2419 -0.1792  0.2733
19161TIP3   OH278897   4.912   2.144  13.238 -0.2238 -0.3741 -0.4953
19161TIP3    H178898   4.860   2.193  13.174  0.0239  0.2494 -0.2218
19161TIP3    H278899   4.862   2.151  13.319  0.6436  0.8371 -0.0598
19162TIP3   OH278900   4.649   5.753  14.284 -0.4153  0.1343  0.3580
19162TIP3    H178901   4.655   5.840  14.246 -0.3862 -0.0262 -0.0086
19162TIP3    H278902   4.605   5.766  14.368  1.9531  0.8680  1.5144
19163TIP3   OH278903   1.512   0.899  16.224  0.2598 -0.2971  0.6096
19163TIP3    H178904   1.469   0.963  16.280 -0.3785 -0.1253 -0.0569
19163TIP3    H278905   1.588   0.869  16.273 -0.1809  0.0028  1.4707
19164TIP3   OH278906   3.213   4.308   1.683 -0.3094 -0.3768 -0.1669
19164TIP3    H178907   3.308   4.308   1.674 -0.2210 -1.5041  0.7252
19164TIP3    H278908   3.191   4.221   1.715 -1.6900 -0.2792 -0.7809
19165TIP3   OH278909   5.064   0.931   3.270  0.0589  0.0422  0.1631
19165TIP3    H178910   5.100   0.845   3.248  1.0825  0.6462 -0.5677
19165TIP3    H278911   5.017   0.958   3.191  2.3524  1.4965 -0.7336
19166TIP3   OH278912   6.076   0.166   3.009  0.7163 -0.5379  0.1144
19166TIP3    H178913   6.106   0.079   2.981  1.2293  0.2866 -2.0128
19166TIP3    H278914   6.011   0.148   3.077  0.9463 -2.5913 -0.1634
19167TIP3   OH278915   4.002   3.686  15.048 -0.1726 -0.0232 -0.0880
19167TIP3    H178916   3.922   3.705  14.999  0.2959  3.2340  0.3019
19167TIP3    H278917   4.030   3.600  15.016 -2.0250  0.2857 -2.6648
19168TIP3   OH278918   0.021   6.750  10.572 -0.1386 -0.0388 -0.3777
19168TIP3    H178919  -0.006   6.841  10.582 -2.8820 -0.4025 -3.5452
19168TIP3    H278920   0.079   6.750  10.496 -0.1568 -0.9369 -0.3959
19169TIP3   OH278921   3.760   0.535   4.781 -0.3016  0.4484 -0.0465
19169TIP3    H178922   3.714   0.502   4.704 -0.0740 -1.5197  0.6365
19169TIP3    H278923   3.781   0.626   4.759 -1.2769  0.2674 -1.8229
19170TIP3   OH278924   4.690   6.062  10.845  0.0799  0.1055  0.5292
19170TIP3    H178925   4.685   6.157  10.852 -0.4179  0.0880  0.4518
19170TIP3    H278926   4.741   6.035  10.921  1.0911  0.5159  0.0009
19171TIP3   OH278927   3.986   1.998  10.833 -0.0182 -0.2606  0.2093
19171TIP3    H178928   3.894   1.973  10.845  0.4665 -1.4766  1.6085
19171TIP3    H278929   4.023   1.992  10.921  1.4762 -0.0729 -0.4021
19172TIP3   OH278930   5.455   5.192  13.238  0.1406  0.5008 -0.4871
19172TIP3    H178931   5.452   5.137  13.317  0.5199  1.0148 -0.1134
19172TIP3    H278932   5.448   5.282  13.271 -0.9670  0.6638 -1.1375
19173TIP3   OH278933   4.890   2.120  11.678  0.4815 -0.1395  0.4545
19173TIP3    H178934   4.893   2.175  11.600 -0.0041  0.3158  0.7485
19173TIP3    H278935   4.826   2.052  11.657 -1.5935  1.4759  1.3952
19174TIP3   OH278936   1.076   5.992  15.566  0.3724  0.0629  0.4983
19174TIP3    H178937   1.161   6.021  15.533  1.2250 -0.9525  1.7797
19174TIP3    H278938   1.042   6.068  15.614  0.4175  0.5646 -0.2554
19175TIP3   OH278939   5.749   2.341   3.466 -0.6416 -0.0968 -0.0777
19175TIP3    H178940   5.672   2.289   3.445 -1.5424  0.5791  1.4579
19175TIP3    H278941   5.773   2.314   3.555 -0.8084  1.6942  0.5481
19176TIP3   OH278942   3.407   2.830   1.779 -0.1250  0.4127 -0.2962
19176TIP3    H178943   3.327   2.792   1.743  0.0930 -1.1831  0.8143
19176TIP3    H278944   3.477   2.789   1.730  0.1642 -1.6234  1.7028
19177TIP3   OH278945   5.648   3.893  12.461 -0.5162  0.0494  0.3837
19177TIP3    H178946   5.697   3.912  12.542  1.8547  0.9778 -1.1988
19177TIP3    H278947   5.667   3.801  12.443  0.5598  0.3506 -0.1115
19178TIP3   OH278948   3.458   3.052  12.975 -0.2425 -0.1062 -0.0680
19178TIP3    H178949   3.532   3.046  12.915 -0.8252 -1.0130 -0.7016
19178TIP3    H278950   3.410   2.970  12.962 -2.1588  1.1007 -0.7015
19179TIP3   OH278951   1.731   2.259   2.997 -0.4842 -0.3815 -0.0742
19179TIP3    H178952   1.700   2.235   2.909  0.1966 -1.5861 -0.0062
19179TIP3    H278953   1.774   2.344   2.985 -0.5632 -0.4495 -0.8707
19180TIP3   OH278954   3.883   3.033   5.506 -0.2068 -0.0466  0.5846
19180TIP3    H178955   3.841   2.969   5.448 -0.3481 -0.8778  1.5985
19180TIP3    H278956   3.873   3.117   5.459 -2.8050 -0.2401  0.6843
19181TIP3   OH278957   4.189   0.418   5.408  0.2059 -0.0531 -0.6174
19181TIP3    H178958   4.105   0.433   5.450  0.6370  0.2001  0.1526
19181TIP3    H278959   4.252   0.412   5.480  0.6593 -1.5023 -1.1167
19182TIP3   OH278960   1.084   4.019  14.556  0.8767 -0.1641  0.0951
19182TIP3    H178961   1.113   3.957  14.489 -0.0268 -1.4833  0.8988
19182TIP3    H278962   1.034   3.966  14.618 -1.3427  1.6415 -0.0616
19183TIP3   OH278963   4.655   4.338  15.736  0.2354  0.7452 -0.1131
19183TIP3    H178964   4.710   4.416  15.752 -0.0631  1.1273 -0.9066
19183TIP3    H278965   4.578   4.351  15.792 -0.0248  1.2449 -0.5836
19184TIP3   OH278966   3.365   3.927   1.140  1.1568  0.0662 -0.4923
19184TIP3    H178967   3.375   4.018   1.112  0.5177  0.1015 -0.6075
19184TIP3    H278968   3.286   3.896   1.095  0.6976 -0.1851  0.4634
19185TIP3   OH278969   4.573   0.737  15.209  0.2149 -0.5354  0.3014
19185TIP3    H178970   4.576   0.746  15.113  1.0063 -0.9436  0.2812
19185TIP3    H278971   4.615   0.817  15.241 -0.7209 -0.0547  0.3231
19186TIP3   OH278972   3.407   4.985  16.518  0.5517 -0.5934 -0.2310
19186TIP3    H178973   3.474   5.034  16.565  0.7685 -0.4799 -0.6544
19186TIP3    H278974   3.412   5.018  16.428 -0.7895  0.1740 -0.0370
19187TIP3   OH278975   4.870   3.314   2.523  0.4254  0.0263  0.1518
19187TIP3    H178976   4.916   3.397   2.521  0.3784  0.0716  0.7857
19187TIP3    H278977   4.921   3.257   2.465  0.3949  0.5220 -0.3700
19188TIP3   OH278978   4.797   2.585   1.379  0.3412  0.0343  0.7110
19188TIP3    H178979   4.723   2.614   1.326  0.4860 -0.1410  0.4123
19188TIP3    H278980   4.787   2.490   1.384  1.1290 -0.1051 -0.2088
19189TIP3   OH278981   0.063   4.494  11.305  0.0107 -0.3235  0.4672
19189TIP3    H178982   0.006   4.568  11.284 -0.4036 -0.8182 -0.1801
19189TIP3    H278983   0.152   4.529  11.295 -0.1799  0.1483  0.3905
19190TIP3   OH278984   5.582   1.042   6.794 -0.2401  0.1519  0.3682
19190TIP3    H178985   5.516   1.106   6.821  0.4151  1.3129 -0.7221
19190TIP3    H278986   5.540   0.991   6.724 -0.2306  0.4136  0.1728
19191TIP3   OH278987   0.580   5.529   5.323 -0.1245 -1.0435  0.2337
19191TIP3    H178988   0.568   5.448   5.372  0.6920 -1.2950  0.0194
19191TIP3    H278989   0.514   5.525   5.254  0.9309 -2.2456 -0.7207
19192TIP3   OH278990   1.128   3.951   4.677 -0.0547 -0.2691 -0.1378
19192TIP3    H178991   1.174   4.034   4.665 -1.4757  0.7796  1.5966
19192TIP3    H278992   1.125   3.913   4.589 -0.8939  2.3146 -1.2728
19193TIP3   OH278993   5.287   1.059  10.584  0.4638 -0.0187 -0.4188
19193TIP3    H178994   5.317   1.017  10.503 -0.8618 -0.2400 -0.8016
19193TIP3    H278995   5.345   1.025  10.652  1.3038 -0.1709 -1.2042
19194TIP3   OH278996   0.371   4.248   4.693 -0.2333  0.0785 -0.5058
19194TIP3    H178997   0.298   4.307   4.673 -0.2212  0.0408 -0.6602
19194TIP3    H278998   0.331   4.163   4.706 -0.1451 -0.0849 -1.2749
19195TIP3   OH278999   2.786   0.850  12.888  0.2666  0.1392  0.0037
19195TIP3    H179000   2.805   0.915  12.955  1.4202 -1.2909  1.0757
19195TIP3    H279001   2.846   0.870  12.817  0.6273  0.2259  0.3353
19196TIP3   OH279002   6.014   3.689   1.404  0.0021  0.2636  0.2523
19196TIP3    H179003   6.093   3.654   1.363 -1.2083 -1.6719 -0.4924
19196TIP3    H279004   5.990   3.764   1.350  0.4808 -0.0597 -0.4159
19197TIP3   OH279005   0.802   3.738  14.262 -0.0989 -1.0613 -0.4846
19197TIP3    H179006   0.868   3.750  14.330  0.5446  0.9776 -1.4291
19197TIP3    H279007   0.735   3.804  14.283  0.3890 -0.0161 -2.1316
19198TIP3   OH279008   5.911   3.434   6.237  0.2453  0.2128  0.2096
19198TIP3    H179009   5.872   3.392   6.314  0.5769  1.9142  1.3402
19198TIP3    H279010   6.001   3.401   6.234 -0.4987 -1.7368 -0.8911
19199TIP3   OH279011   4.101   6.073   0.138 -0.0649  0.0108  0.0131
19199TIP3    H179012   4.117   6.162   0.105 -2.7566  0.3741 -0.4307
19199TIP3    H279013   4.046   6.087   0.216  0.2886 -1.2139  0.4806
19200TIP3   OH279014   0.230   3.363   5.814 -0.1617  0.1183  0.0623
19200TIP3    H179015   0.269   3.314   5.887 -0.6380 -0.2015  0.0994
19200TIP3    H279016   0.192   3.296   5.758  0.1897  0.3674 -0.4773
19201TIP3   OH279017   4.913   4.652   5.527  0.9050 -0.2845 -0.0848
19201TIP3    H179018   4.964   4.571   5.538  1.6877  0.2502  0.2980
19201TIP3    H279019   4.824   4.622   5.512  1.0708 -1.2157  0.6984
19202TIP3   OH279020   2.506   1.498   4.849 -0.7441 -0.0265 -0.1019
19202TIP3    H179021   2.435   1.436   4.863 -1.2383  0.6449  0.4031
19202TIP3    H279022   2.466   1.572   4.804 -0.3088  0.2431 -0.0585
19203TIP3   OH279023   5.496   3.267  13.113  0.2100  0.2993 -0.2735
19203TIP3    H179024   5.554   3.275  13.038  1.8963 -1.0820  0.8487
19203TIP3    H279025   5.486   3.357  13.146  1.7847  0.5258 -0.4141
19204TIP3   OH279026   6.410   3.317  16.624 -0.0615 -0.0925 -0.0215
19204TIP3    H179027   6.481   3.312  16.688  2.3294  0.9890 -2.5158
19204TIP3    H279028   6.423   3.241  16.567 -0.6661  0.3497 -0.7584
19205TIP3   OH279029   0.200   1.339  13.315  0.3411  0.3203 -0.0820
19205TIP3    H179030   0.189   1.412  13.377  0.5250  0.7834 -0.5970
19205TIP3    H279031   0.136   1.357  13.246 -0.6973 -0.8195  0.5539
19206TIP3   OH279032   1.352   5.360   4.350  0.3373  0.0047  0.0130
19206TIP3    H179033   1.277   5.328   4.399 -0.6711 -0.7273 -1.9312
19206TIP3    H279034   1.335   5.454   4.338  1.4513  0.5675  2.4937
19207TIP3   OH279035   4.147   4.262  12.416  0.0540 -0.0549  0.6607
19207TIP3    H179036   4.175   4.309  12.495 -0.4893  2.4681 -0.5841
19207TIP3    H279037   4.228   4.239  12.372  0.3957 -2.4784  2.4833
19208TIP3   OH279038   6.247   2.739   0.348  0.1376 -0.1635  0.6538
19208TIP3    H179039   6.204   2.822   0.368  0.3553  0.6421 -2.0414
19208TIP3    H279040   6.339   2.755   0.368  0.4149  0.7564 -1.2547
19209TIP3   OH279041   0.327   1.484  12.324 -0.1809  0.3052 -0.4751
19209TIP3    H179042   0.307   1.392  12.341 -1.8630  0.5478 -1.0193
19209TIP3    H279043   0.371   1.483  12.239 -0.5869  0.0425 -0.6850
19210TIP3   OH279044   4.612   0.903   1.477  0.0486  0.1734 -0.0488
19210TIP3    H179045   4.585   0.963   1.546 -0.0761  1.1573 -0.9291
19210TIP3    H279046   4.586   0.816   1.508 -0.9981  0.7296  0.6453
19211TIP3   OH279047   0.013   4.678   4.742  0.1690  0.2408  0.0907
19211TIP3    H179048   0.012   4.719   4.829  0.6156 -0.5310  0.4625
19211TIP3    H279049   0.072   4.732   4.691 -1.2844  1.6105 -0.1913
19212TIP3   OH279050   3.977   2.402  14.183  0.5171  0.2481 -0.4328
19212TIP3    H179051   3.900   2.359  14.220 -0.5364  1.9094 -0.6352
19212TIP3    H279052   3.942   2.478  14.136  2.2958  1.2259 -0.2413
19213TIP3   OH279053   3.320   6.558  10.192  0.5474  0.1097  0.0023
19213TIP3    H179054   3.365   6.622  10.247  1.4304 -0.2802 -0.2501
19213TIP3    H279055   3.365   6.475  10.210 -0.2722 -0.3470 -0.0251
19214TIP3   OH279056   3.384   3.325   0.777 -0.0312 -0.1833  0.6301
19214TIP3    H179057   3.326   3.400   0.764  0.9747  0.5679  0.3627
19214TIP3    H279058   3.406   3.296   0.689  0.6664  0.0669  0.7185
19215TIP3   OH279059   3.306   4.088  15.638 -0.6630  0.6267 -0.0742
19215TIP3    H179060   3.305   4.054  15.548  3.3457 -1.3390  0.5237
19215TIP3    H279061   3.249   4.029  15.687 -0.7346  0.0846 -0.8046
19216TIP3   OH279062   4.554   3.326   3.381  0.0917 -0.4699 -0.1147
19216TIP3    H179063   4.646   3.310   3.358 -0.1288  0.4380 -1.7660
19216TIP3    H279064   4.549   3.421   3.391 -0.4816 -0.5995  0.8253
19217TIP3   OH279065   6.540   2.325   5.358 -0.2333 -0.1234 -0.0695
19217TIP3    H179066   6.578   2.347   5.443 -1.2976 -2.6607  1.1312
19217TIP3    H279067   6.457   2.282   5.379 -0.0741 -1.6593 -2.3449
19218TIP3   OH279068   0.776   2.237  16.620 -0.4017 -0.4518 -0.2356
19218TIP3    H179069   0.771   2.230  16.715 -0.6640  2.1445 -0.0283
19218TIP3    H279070   0.849   2.297  16.604 -1.6571  0.7446 -1.6010
19219TIP3   OH279071   3.686   0.244   5.985  0.8360  0.5298  0.7115
19219TIP3    H179072   3.603   0.224   5.942  1.0673  3.0595 -0.9759
19219TIP3    H279073   3.664   0.253   6.078 -0.1627 -2.1385  0.7733
19220TIP3   OH279074   2.743   3.399   5.066  0.4384  0.3886 -1.0908
19220TIP3    H179075   2.829   3.441   5.059  0.3683  0.6375 -0.4819
19220TIP3    H279076   2.681   3.471   5.060  0.3744  0.9297  3.5741
19221TIP3   OH279077   6.389   0.496  17.068 -0.5548 -1.0069 -0.0931
19221TIP3    H179078   6.396   0.412  17.023 -1.0394 -0.2785 -1.5593
19221TIP3    H279079   6.348   0.554  17.004 -0.8085  0.1800  1.1291
19222TIP3   OH279080   1.403   3.978  14.692 -0.0091  0.2467 -0.6671
19222TIP3    H179081   1.346   3.973  14.770  0.7885  1.1135 -0.0175
19222TIP3    H279082   1.444   3.892  14.687 -0.6580 -0.0686 -0.5751
19223TIP3   OH279083   1.630   4.837  10.756  0.1818  0.2670  0.2982
19223TIP3    H179084   1.644   4.792  10.673  1.3311 -1.0867  1.1912
19223TIP3    H279085   1.623   4.929  10.732  1.3358 -0.0150 -1.2196
19224TIP3   OH279086   4.769   6.576   4.509 -0.5371 -0.1796  0.3336
19224TIP3    H179087   4.796   6.487   4.532 -1.8102 -0.6023  0.2658
19224TIP3    H279088   4.674   6.577   4.526 -0.5534  1.1319  0.2352
19225TIP3   OH279089   5.158   3.736  15.644 -0.3602  0.0119  0.7427
19225TIP3    H179090   5.160   3.825  15.609  0.7472 -0.0887  0.5344
19225TIP3    H279091   5.094   3.739  15.716 -1.9237  0.4614 -0.6290
19226TIP3   OH279092   2.168   4.550   5.365  0.1067  0.4125  0.8416
19226TIP3    H179093   2.106   4.622   5.376 -1.3763 -0.5816 -0.6740
19226TIP3    H279094   2.219   4.573   5.287 -2.1017 -1.2891 -1.2165
19227TIP3   OH279095   5.974   0.003  13.749 -0.0445  0.5929  0.1679
19227TIP3    H179096   6.068  -0.011  13.763  0.2476  1.4008 -0.8578
19227TIP3    H279097   5.936  -0.085  13.746  0.6808  0.2634  0.6124
19228TIP3   OH279098   6.233   5.269   1.350  0.0850  0.1276 -0.3465
19228TIP3    H179099   6.316   5.315   1.341  0.4246 -0.6160 -0.9809
19228TIP3    H279100   6.184   5.322   1.413  2.5309 -1.5080  3.0856
19229TIP3   OH279101   2.186   4.184  13.896 -0.0621  0.1595 -0.0063
19229TIP3    H179102   2.114   4.220  13.948 -0.6125  0.2950 -0.8623
19229TIP3    H279103   2.179   4.227  13.811  0.8304 -0.0727 -0.2051
19230TIP3   OH279104   4.838   5.354   0.232 -0.1333  0.4549 -0.4417
19230TIP3    H179105   4.814   5.443   0.206 -0.4253  0.2014 -1.0481
19230TIP3    H279106   4.855   5.360   0.326 -1.6473  0.8306 -0.1863
19231TIP3   OH279107   0.566   5.953  16.203  0.3852 -0.3319 -0.0939
19231TIP3    H179108   0.516   5.872  16.210  0.8157 -0.5757  0.1715
19231TIP3    H279109   0.641   5.931  16.147  0.7893 -0.2624  0.4157
19232TIP3   OH279110   4.017   2.856  12.293  0.1240  0.2274  0.0962
19232TIP3    H179111   4.068   2.914  12.349 -0.4730  1.0268 -0.1902
19232TIP3    H279112   4.040   2.768  12.324  0.2055  0.6434  1.2443
19233TIP3   OH279113   0.787   5.847  16.081  0.2480 -0.2827  0.5244
19233TIP3    H179114   0.794   5.798  15.998  0.1561  1.2940 -0.4285
19233TIP3    H279115   0.866   5.901  16.082 -0.1781  0.3179  1.0757
19234TIP3   OH279116   1.776   5.610   5.394  0.3858  0.5113 -0.1566
19234TIP3    H179117   1.794   5.702   5.375  0.0889  0.2645 -1.7141
19234TIP3    H279118   1.795   5.600   5.487  1.1687  1.9621 -0.1546
19235TIP3   OH279119   2.716   4.740   2.319 -0.0837  0.8253  0.7993
19235TIP3    H179120   2.802   4.698   2.318 -1.2232 -1.5758  0.2410
19235TIP3    H279121   2.671   4.700   2.393 -0.8089  1.8966  0.9468
19236TIP3   OH279122   4.342   3.610  11.681 -0.3911 -0.1861  0.7837
19236TIP3    H179123   4.437   3.617  11.691 -0.4377 -0.9722  1.8633
19236TIP3    H279124   4.307   3.680  11.736 -0.3951  1.5116 -1.3123
19237TIP3   OH279125   0.798   2.443   2.105 -0.8113 -0.9839 -0.0382
19237TIP3    H179126   0.839   2.404   2.027  0.2124 -1.2424  0.6215
19237TIP3    H279127   0.870   2.484   2.152 -1.6240  0.2615  0.1479
19238TIP3   OH279128   1.937   6.780  16.591  0.3501  0.3881  0.4859
19238TIP3    H179129   1.846   6.810  16.591  0.1070 -0.1249 -2.8054
19238TIP3    H279130   1.949   6.738  16.676 -2.5800  0.1791  0.8422
19239TIP3   OH279131   4.747   5.254  15.621  0.1333  0.0456 -0.2942
19239TIP3    H179132   4.681   5.273  15.688  0.0089  1.8253 -0.8885
19239TIP3    H279133   4.818   5.211  15.668  1.2829  3.7525  1.5580
19240TIP3   OH279134   3.621   3.134  14.608  0.2718  0.0030  0.6969
19240TIP3    H179135   3.678   3.196  14.654 -0.6406  0.2841  1.4562
19240TIP3    H279136   3.555   3.188  14.566 -0.6132 -0.4592  1.4767
19241TIP3   OH279137   5.587   4.551   1.832  0.1490  0.2393 -0.3581
19241TIP3    H179138   5.553   4.628   1.877  0.2591  0.3793 -0.5137
19241TIP3    H279139   5.672   4.578   1.798  0.2704 -0.0056 -0.2580
19242TIP3   OH279140   1.749   5.057  12.700  0.4304 -0.5708  0.3949
19242TIP3    H179141   1.680   4.998  12.669  1.0846 -2.0764  1.7570
19242TIP3    H279142   1.825   5.035  12.646 -0.0734  0.9725 -0.9893
19243TIP3   OH279143   4.949   3.531   0.217  0.1103 -0.2874  0.0434
19243TIP3    H179144   4.868   3.494   0.182 -0.3337  0.7567 -0.0241
19243TIP3    H279145   4.927   3.556   0.307 -0.2637  2.0330 -0.6801
19244TIP3   OH279146   5.272   3.606   0.615  0.1043  0.1628  0.1121
19244TIP3    H179147   5.268   3.665   0.690  0.2302  0.3379 -0.0195
19244TIP3    H279148   5.226   3.651   0.545  0.1899  0.1016  0.0150
19245TIP3   OH279149   0.671   4.832  16.904  0.5770 -0.2608 -0.2865
19245TIP3    H179150   0.726   4.797  16.974  0.8161 -0.6471 -0.6621
19245TIP3    H279151   0.641   4.917  16.937  1.6845  0.1094 -0.2211
19246TIP3   OH279152   0.114   0.656   4.201  0.0213  0.0717  0.5025
19246TIP3    H179153   0.120   0.743   4.239 -0.4842  1.0658 -1.6317
19246TIP3    H279154   0.177   0.604   4.251 -1.1554  1.1094  3.1670
19247TIP3   OH279155   1.185   4.624  14.948  0.1113  0.0866  0.0639
19247TIP3    H179156   1.196   4.718  14.963 -2.1381  0.2166  1.2784
19247TIP3    H279157   1.155   4.618  14.858 -1.5099  0.7465  0.5223
19248TIP3   OH279158   5.799   6.419  12.178  0.5319 -0.1254  0.0150
19248TIP3    H179159   5.766   6.340  12.136 -0.7332  1.1528 -1.4938
19248TIP3    H279160   5.786   6.405  12.271  1.0981 -2.0195 -0.1625
19249TIP3   OH279161   2.321   2.322  14.050  0.4853  0.2127 -0.3696
19249TIP3    H179162   2.315   2.357  14.139  0.0047  0.1325 -0.3660
19249TIP3    H279163   2.385   2.251  14.057 -0.1900 -0.3685  0.1102
19250TIP3   OH279164   3.132   6.772   4.391 -0.2953  0.5862  0.3155
19250TIP3    H179165   3.192   6.814   4.330  0.2446 -0.3038  0.2265
19250TIP3    H279166   3.160   6.680   4.394  0.5849  0.8933  2.9719
19251TIP3   OH279167   6.352   1.389  12.487 -0.5028 -0.1842 -0.1280
19251TIP3    H179168   6.324   1.299  12.472  0.2192 -0.5855  0.9414
19251TIP3    H279169   6.341   1.403  12.581 -2.3033  1.4176 -0.5407
19252TIP3   OH279170   0.702   2.800  14.870 -0.0563 -0.7902  0.2984
19252TIP3    H179171   0.771   2.827  14.930  1.4720 -2.0129 -0.8654
19252TIP3    H279172   0.688   2.877  14.814  0.7731 -0.7249  0.1723
19253TIP3   OH279173   5.195   3.600   1.859  0.2726 -0.3264  0.0275
19253TIP3    H179174   5.168   3.513   1.829 -2.1607  0.1398  0.8167
19253TIP3    H279175   5.210   3.649   1.778 -1.3151 -0.5842 -0.4272
19254TIP3   OH279176   0.947   1.947  14.890 -0.0028  0.2381 -0.5582
19254TIP3    H179177   0.981   2.009  14.826  0.2164 -0.2855 -0.9557
19254TIP3    H279178   0.855   1.937  14.866  0.2785 -0.5858 -1.3047
19255TIP3   OH279179   0.751   3.793   2.013  0.1973  0.2566 -0.0474
19255TIP3    H179180   0.685   3.838   2.065  1.6166  0.1774  1.8624
19255TIP3    H279181   0.833   3.839   2.032  1.1626 -1.3180 -0.2957
19256TIP3   OH279182   0.825   3.007   2.857 -0.6727  0.0104  0.3352
19256TIP3    H179183   0.735   2.994   2.827 -0.5743 -0.8961  0.4422
19256TIP3    H279184   0.828   2.967   2.944 -0.9156  2.4908  1.5281
19257TIP3   OH279185   1.856   0.138  14.993 -0.2591 -0.2161 -0.4041
19257TIP3    H179186   1.907   0.068  15.033 -1.4018 -0.2663  1.0029
19257TIP3    H279187   1.919   0.188  14.942  0.9147 -1.1450  0.1164
19258TIP3   OH279188   1.265   0.122  14.978  0.0895  0.1938 -0.4869
19258TIP3    H179189   1.314   0.203  14.969 -1.0852  0.9774  0.1025
19258TIP3    H279190   1.298   0.066  14.907  0.1701  1.5644 -1.5532
19259TIP3   OH279191   0.846   3.522   1.241  0.0786 -0.1814  0.0386
19259TIP3    H179192   0.825   3.606   1.200  1.2804 -0.1354 -0.4924
19259TIP3    H279193   0.903   3.546   1.315 -0.9471 -0.3881  0.9151
19260TIP3   OH279194   0.520   1.042  12.894  0.2289 -0.1504  0.1315
19260TIP3    H179195   0.513   0.950  12.867  0.5424  0.2980 -1.5658
19260TIP3    H279196   0.455   1.052  12.964  0.1250 -1.6372  0.2589
19261TIP3   OH279197   2.255   0.505  14.996 -0.4145 -0.8748  0.3163
19261TIP3    H179198   2.259   0.586  15.047  1.2974 -1.0992  0.5707
19261TIP3    H279199   2.287   0.530  14.910 -1.3505 -0.9491 -0.0549
19262TIP3   OH279200   4.003   1.057   3.542  0.5917 -0.7739  0.1074
19262TIP3    H179201   4.080   1.067   3.486  0.5047  1.6287  0.3798
19262TIP3    H279202   3.929   1.060   3.482  0.6438 -1.5995  0.0004
19263TIP3   OH279203   5.095   5.960  16.494 -0.0095 -0.1610 -0.8255
19263TIP3    H179204   5.023   5.983  16.552 -0.0420 -0.4989 -0.7335
19263TIP3    H279205   5.167   5.938  16.552 -0.6029 -2.3538 -0.8735
19264TIP3   OH279206   6.601   4.551  10.275 -0.1194 -0.6522 -0.0843
19264TIP3    H179207   6.669   4.506  10.225  1.3870  1.5276 -0.1039
19264TIP3    H279208   6.639   4.563  10.361 -0.6358  0.2423  0.0245
19265TIP3   OH279209   1.184   0.538  11.403  0.3045 -0.1870  0.1778
19265TIP3    H179210   1.190   0.633  11.390  1.5530 -0.4112 -0.9189
19265TIP3    H279211   1.214   0.500  11.320 -0.5045 -1.5422  0.4926
19266TIP3   OH279212   6.355   1.620  16.514 -0.0355 -0.1274 -0.1952
19266TIP3    H179213   6.354   1.713  16.496 -0.9680 -0.0590  0.1644
19266TIP3    H279214   6.446   1.594  16.505  0.1285  0.6907 -0.9258
19267TIP3   OH279215   2.887   3.440  16.227 -0.5449 -0.5641 -0.0323
19267TIP3    H179216   2.821   3.476  16.286 -2.0727 -0.1981 -1.8966
19267TIP3    H279217   2.853   3.354  16.203  0.6329 -1.1897  0.4992
19268TIP3   OH279218   5.474   0.646  15.205 -0.1039 -0.1563  0.0671
19268TIP3    H179219   5.501   0.711  15.141 -0.8555  0.0220 -0.0766
19268TIP3    H279220   5.547   0.640  15.266 -0.0417  0.8456  0.0890
19269TIP3   OH279221   2.961   3.829  14.742  0.4937  0.1752 -0.1501
19269TIP3    H179222   2.946   3.898  14.678  1.0102 -0.0730 -0.5360
19269TIP3    H279223   2.908   3.855  14.818 -0.6825  0.1036 -0.9353
19270TIP3   OH279224   3.769   4.221   2.016 -0.0980  0.9562 -0.5188
19270TIP3    H179225   3.855   4.252   2.043 -0.2131  0.4480  0.4416
19270TIP3    H279226   3.782   4.188   1.927  0.8364  0.2959 -0.1444
19271TIP3   OH279227   3.581   5.286  14.861  0.3581 -0.2939  0.4292
19271TIP3    H179228   3.638   5.245  14.796  0.4423  1.5608 -0.6896
19271TIP3    H279229   3.640   5.340  14.913  0.1619 -1.1501  1.5555
19272TIP3   OH279230   0.259   3.702   2.013 -0.3982 -0.4345 -0.1471
19272TIP3    H179231   0.253   3.696   2.108 -2.4874  1.1195 -0.1417
19272TIP3    H279232   0.347   3.671   1.993  0.8625  1.2571  2.4708
19273TIP3   OH279233   3.757   4.947  15.810  0.1663  0.2228 -0.5210
19273TIP3    H179234   3.687   4.989  15.761  1.9365  0.9599 -2.4934
19273TIP3    H279235   3.736   4.854  15.808 -1.0214  0.4882 -0.6204
19274TIP3   OH279236   5.547   4.744  15.992 -0.0251  0.0828  0.5676
19274TIP3    H179237   5.636   4.761  15.960 -0.1532  0.7000  0.5381
19274TIP3    H279238   5.496   4.729  15.913 -0.0295  0.1189  0.5630
19275TIP3   OH279239   3.849   4.670  15.837 -0.2956 -0.2342  0.8846
19275TIP3    H179240   3.924   4.640  15.786 -0.0585 -0.6321  1.4667
19275TIP3    H279241   3.881   4.672  15.928 -1.2391 -1.2201  1.2414
19276TIP3   OH279242   5.773   2.441  13.694  0.3756 -0.1467  0.1961
19276TIP3    H179243   5.732   2.478  13.616  0.3037 -0.8005 -0.0742
19276TIP3    H279244   5.721   2.363  13.714  0.4901 -0.0687  0.8028
19277TIP3   OH279245   2.124   5.645  12.958  0.0361  0.0248 -0.0688
19277TIP3    H179246   2.136   5.594  13.038  0.9070  0.2902 -0.0308
19277TIP3    H279247   2.208   5.639  12.912 -0.1393  0.6979 -0.4892
19278TIP3   OH279248   3.800   5.190   1.356  0.1882  0.4255  0.4869
19278TIP3    H179249   3.830   5.184   1.265  0.7673 -0.3942  0.7275
19278TIP3    H279250   3.875   5.161   1.408 -1.2414 -2.3821  1.0636
19279TIP3   OH279251   3.129   2.976   4.551  0.2486  0.0959 -0.0665
19279TIP3    H179252   3.170   2.911   4.608  0.8595 -0.3716 -1.0299
19279TIP3    H279253   3.199   3.039   4.533 -0.0928  0.5352  0.1246
19280TIP3   OH279254   3.333   3.169   4.563 -0.4944  0.4360  0.4655
19280TIP3    H179255   3.351   3.263   4.566 -0.2108  0.3530  1.8971
19280TIP3    H279256   3.408   3.129   4.608 -0.3502 -0.5219 -0.5828
19281TIP3   OH279257   6.413   2.913  11.271  0.2926  0.1845 -0.0147
19281TIP3    H179258   6.362   2.892  11.193 -0.3638  0.4893  0.3293
19281TIP3    H279259   6.501   2.931  11.238  0.1735 -0.3212 -0.6149
19282TIP3   OH279260   1.387   5.104   5.112  0.2886 -0.0982 -0.2271
19282TIP3    H179261   1.399   5.035   5.047 -1.1112 -1.0073  0.4649
19282TIP3    H279262   1.297   5.134   5.099 -0.1602 -0.5930  1.5703
19283TIP3   OH279263   1.754   4.351   0.544 -0.1016  0.3898  0.5784
19283TIP3    H179264   1.835   4.301   0.551  0.3448  1.0317  0.0749
19283TIP3    H279265   1.777   4.439   0.573 -0.9110  0.2863  1.5683
19284TIP3   OH279266   4.697   3.458   5.973 -0.1988  0.0758  0.0864
19284TIP3    H179267   4.657   3.382   5.930  0.4920  0.9782 -2.1771
19284TIP3    H279268   4.786   3.431   5.992 -0.4955 -0.3126  0.9601
19285TIP3   OH279269   3.013   1.001   4.895  0.0667 -0.1929 -0.3961
19285TIP3    H179270   2.948   0.935   4.869 -0.1750 -0.9016  1.8956
19285TIP3    H279271   3.076   0.952   4.949  0.5426  1.2119  0.3312
19286TIP3   OH279272   6.714   3.639  17.128  0.0296  0.6287 -0.0513
19286TIP3    H179273   6.803   3.665  17.153 -0.2807  0.7976  0.8666
19286TIP3    H279274   6.659   3.712  17.155 -0.6540 -0.3411  1.1997
19287TIP3   OH279275   1.465   3.136   4.677  0.5556  0.5142 -0.1986
19287TIP3    H179276   1.555   3.159   4.653  0.1367  0.3194 -1.9989
19287TIP3    H279277   1.424   3.111   4.595 -1.7357  2.5657  0.2589
19288TIP3   OH279278   1.398   3.574   6.785  0.1963  0.0351 -0.0937
19288TIP3    H179279   1.438   3.488   6.768 -0.2013 -0.0327 -0.6862
19288TIP3    H279280   1.316   3.572   6.737 -0.0967  0.5260  0.3846
19289TIP3   OH279281   1.405   2.109  17.048  0.0210  0.3373  0.4716
19289TIP3    H179282   1.404   2.016  17.074  0.0596  0.1347 -0.2413
19289TIP3    H279283   1.417   2.156  17.130  0.6322 -0.3214  0.7723
19290TIP3   OH279284   1.724   4.252  13.166 -0.1123  0.0161  0.0481
19290TIP3    H179285   1.747   4.341  13.194  0.0242 -0.0335  0.0934
19290TIP3    H279286   1.706   4.206  13.248 -0.2034  0.0084  0.0229
19291TIP3   OH279287   3.585   0.546  11.293  0.2564 -0.0102 -0.0336
19291TIP3    H179288   3.492   0.552  11.313 -0.1044  0.9087 -1.8753
19291TIP3    H279289   3.588   0.535  11.198  2.0514  0.6886 -0.0725
19292TIP3   OH279290   1.606   2.198   3.741  0.2629 -0.2930  0.5905
19292TIP3    H179291   1.534   2.167   3.686 -0.2290  0.0064  1.0624
19292TIP3    H279292   1.684   2.160   3.701 -0.1044 -0.2031 -0.2269
19293TIP3   OH279293   0.807   3.116  12.824  1.1142 -0.2291 -0.0150
19293TIP3    H179294   0.768   3.091  12.907  1.2629 -0.7358 -0.0979
19293TIP3    H279295   0.732   3.139  12.769  0.9840 -0.3399  0.1147
19294TIP3   OH279296   0.767   6.218  10.774  0.7389  0.4669  0.1012
19294TIP3    H179297   0.809   6.149  10.826 -0.2832  0.3600  0.8194
19294TIP3    H279298   0.815   6.298  10.796  1.6990  0.0521 -0.4585
19295TIP3   OH279299   4.712   3.367   0.119  0.3919 -0.3452 -0.2355
19295TIP3    H179300   4.761   3.285   0.110  1.0858  0.0428 -0.0511
19295TIP3    H279301   4.660   3.356   0.199 -1.8542 -1.7903 -1.8565
19296TIP3   OH279302   4.778   3.659  15.182 -0.0535 -0.1042 -0.4920
19296TIP3    H179303   4.842   3.629  15.247 -1.0867  0.5028  0.8397
19296TIP3    H279304   4.827   3.662  15.100  0.8436 -2.5185 -0.0833
19297TIP3   OH279305   1.299   5.213  14.887  0.1935 -0.1391 -0.2269
19297TIP3    H179306   1.314   5.126  14.924  0.4374 -0.1975 -0.4586
19297TIP3    H279307   1.263   5.264  14.960  0.9795 -0.1593  0.1809
19298TIP3   OH279308   6.707   2.414  16.506 -0.3512  0.2152  0.6557
19298TIP3    H179309   6.751   2.349  16.451  0.6665 -0.2189  1.9506
19298TIP3    H279310   6.693   2.369  16.589 -2.0142  0.8118  0.7216
19299TIP3   OH279311   6.427   2.500  13.462  0.4085 -0.2326  0.1303
19299TIP3    H179312   6.374   2.437  13.414 -0.6289 -0.2811  1.3186
19299TIP3    H279313   6.517   2.467  13.455  0.2649 -0.2507 -1.7200
19300TIP3   OH279314   4.404   6.162   0.712  0.4155 -0.7471 -0.4288
19300TIP3    H179315   4.434   6.204   0.792 -0.3582 -2.2581  0.6849
19300TIP3    H279316   4.471   6.183   0.647  0.0214  2.1858  0.0729
19301TIP3   OH279317   5.041   1.274   6.170  0.2883 -0.3819 -0.4515
19301TIP3    H179318   5.128   1.307   6.193  0.4972 -1.0266 -0.3117
19301TIP3    H279319   4.981   1.329   6.220  0.7162 -1.5699  1.4249
19302TIP3   OH279320   0.414   3.296   4.350  0.0668  0.1602 -0.5385
19302TIP3    H179321   0.392   3.362   4.417 -0.6455 -0.1053 -0.5125
19302TIP3    H279322   0.493   3.331   4.308  0.5009  0.3534  0.4071
19303TIP3   OH279323   5.756   0.132  11.709 -0.1270  0.0748 -0.1243
19303TIP3    H179324   5.827   0.113  11.771 -0.1517 -0.3165 -0.2178
19303TIP3    H279325   5.775   0.221  11.679  1.0729 -0.5009 -1.1460
19304TIP3   OH279326   0.358   5.444   0.296  0.0223  0.4649 -0.5964
19304TIP3    H179327   0.354   5.540   0.291  1.0416  0.5302 -0.2644
19304TIP3    H279328   0.298   5.414   0.228 -0.6356  1.3393 -0.4219
19305TIP3   OH279329   3.788   2.268  11.782 -0.0682 -0.4526  0.7896
19305TIP3    H179330   3.731   2.201  11.818 -1.8742  0.2434 -0.7094
19305TIP3    H279331   3.736   2.310  11.713  2.1981  0.2566 -0.5629
19306TIP3   OH279332   6.309   2.636   2.209 -0.1675  0.2870  0.2470
19306TIP3    H179333   6.308   2.697   2.135 -1.0391 -2.3681 -2.0395
19306TIP3    H279334   6.355   2.559   2.174 -0.4847 -0.9674  2.5426
19307TIP3   OH279335   5.488   0.466   1.345  0.2623 -0.2547 -0.5705
19307TIP3    H179336   5.527   0.489   1.430  1.5749 -0.7425 -1.0321
19307TIP3    H279337   5.524   0.530   1.284 -0.7867  0.1758 -0.7447
19308TIP3   OH279338   4.738   4.755  11.476 -0.7923  0.4110 -0.1981
19308TIP3    H179339   4.739   4.682  11.538  0.3437 -0.0784 -0.7647
19308TIP3    H279340   4.723   4.713  11.391  1.0014  0.6971 -0.6770
19309TIP3   OH279341   6.687   6.377   2.566 -0.3537  0.0451 -0.6048
19309TIP3    H179342   6.747   6.434   2.614  1.3851 -1.5282 -0.8108
19309TIP3    H279343   6.745   6.328   2.506 -1.1235 -4.8389  2.3534
19310TIP3   OH279344   6.238   2.861  13.745 -0.3087  0.2587  0.5322
19310TIP3    H179345   6.317   2.813  13.718  0.3343  1.2017  0.7248
19310TIP3    H279346   6.261   2.899  13.830 -2.3900 -2.8901  2.6053
19311TIP3   OH279347   0.381   3.714  14.093 -0.5976  0.2372  0.0479
19311TIP3    H179348   0.396   3.786  14.033 -1.4390  0.4290  0.0574
19311TIP3    H279349   0.455   3.655  14.080  0.7578  1.7079  0.9536
19312TIP3   OH279350   2.477   4.899   5.293  0.2354  0.3185  0.7737
19312TIP3    H179351   2.499   4.807   5.308  0.8551  0.6120  1.6732
19312TIP3    H279352   2.397   4.896   5.241 -0.6634 -0.7226  2.1830
19313TIP3   OH279353   3.009   2.572   5.133 -0.1336  0.5370 -0.4335
19313TIP3    H179354   3.002   2.476   5.126  0.8271  0.5353 -1.4834
19313TIP3    H279355   2.955   2.605   5.061 -1.3991  0.8266  0.6209
19314TIP3   OH279356   0.696   1.124  15.755 -0.1603 -0.1119 -0.1371
19314TIP3    H179357   0.620   1.073  15.784 -0.2848  0.3536  0.3853
19314TIP3    H279358   0.755   1.124  15.830 -0.2758  0.7165 -0.0296
19315TIP3   OH279359   0.872   3.143  15.268 -0.3712 -0.0353  0.1755
19315TIP3    H179360   0.859   3.164  15.175  2.1672 -2.5312 -0.8071
19315TIP3    H279361   0.960   3.172  15.287 -0.3408 -0.8938  1.3950
19316TIP3   OH279362   0.749   3.502   3.018 -0.0804 -0.6591 -0.3606
19316TIP3    H179363   0.727   3.430   2.959  1.3014 -0.7518 -0.7984
19316TIP3    H279364   0.749   3.462   3.105  0.9948 -1.2808 -0.6356
19317TIP3   OH279365   6.204   0.625   2.159 -0.2482 -0.2945  0.0883
19317TIP3    H179366   6.207   0.548   2.215  0.0541  1.0605  1.9500
19317TIP3    H279367   6.162   0.693   2.212  1.3303  1.4268 -0.7779
19318TIP3   OH279368   1.447   0.875   4.157 -0.2305 -0.5346 -0.3320
19318TIP3    H179369   1.478   0.965   4.151  0.8212 -0.9227 -0.8625
19318TIP3    H279370   1.353   0.882   4.169  0.1385  0.7117  2.2519
19319TIP3   OH279371   0.613   5.106   4.230 -0.1014  0.7258  0.2570
19319TIP3    H179372   0.526   5.134   4.261 -0.4231  2.0515 -1.7261
19319TIP3    H279373   0.652   5.185   4.194  0.2800 -0.6770 -2.5662
19320TIP3   OH279374   0.455   0.465  16.509 -0.1955  0.6033  0.0384
19320TIP3    H179375   0.487   0.387  16.464 -0.6694 -0.2360  1.1242
19320TIP3    H279376   0.456   0.533  16.442 -0.0532 -0.4002 -1.0093
19321TIP3   OH279377   1.095   6.098   2.949  0.3605 -0.7676  0.5622
19321TIP3    H179378   1.179   6.122   2.909  0.4711 -1.9618  0.0528
19321TIP3    H279379   1.060   6.029   2.892 -1.1134 -0.0677  0.6049
19322TIP3   OH279380   4.547   3.356  11.084  0.4598 -0.1827  0.1494
19322TIP3    H179381   4.558   3.282  11.024  2.1525  2.0592 -2.4073
19322TIP3    H279382   4.461   3.392  11.061  1.0117  0.5426 -0.7752
19323TIP3   OH279383   5.018   1.218  11.166 -0.1868  0.2208 -0.2308
19323TIP3    H179384   4.983   1.295  11.120  0.3309  1.2768  1.0906
19323TIP3    H279385   5.091   1.253  11.218  1.4886 -1.5846 -1.3459
19324TIP3   OH279386   2.254   4.240   1.640 -0.4608 -0.1185  0.2091
19324TIP3    H179387   2.271   4.286   1.558  0.9532 -0.9717  0.0156
19324TIP3    H279388   2.211   4.306   1.695  0.6908  1.1645 -0.3858
19325TIP3   OH279389   4.889   0.465  14.287  0.1861  0.3495 -0.2034
19325TIP3    H179390   4.946   0.425  14.221  0.3771  0.4852 -0.1216
19325TIP3    H279391   4.823   0.511  14.236  1.4100  2.0070 -0.3385
19326TIP3   OH279392   6.441   0.461   5.721  0.7793  0.9107  0.7374
19326TIP3    H179393   6.400   0.386   5.679 -0.7944  2.4429 -0.5896
19326TIP3    H279394   6.397   0.468   5.806 -0.6970  1.6237 -0.0513
19327TIP3   OH279395   1.002   4.248   2.820  0.1992 -0.0894  0.1050
19327TIP3    H179396   1.080   4.271   2.871  0.5729 -0.7037 -0.1781
19327TIP3    H279397   0.967   4.170   2.862  2.2357 -2.4070 -2.3144
19328TIP3   OH279398   5.146   4.732  11.420  0.0961  0.1167  0.7921
19328TIP3    H179399   5.112   4.682  11.345 -1.4981  2.2081  0.0611
19328TIP3    H279400   5.240   4.737  11.404  0.0274 -1.0717 -0.0868
19329TIP3   OH279401   2.597   5.355   0.703 -0.5945  0.6136  0.3054
19329TIP3    H179402   2.643   5.292   0.649 -2.2575  0.5256 -1.0657
19329TIP3    H279403   2.536   5.303   0.755 -1.4823  1.0033 -0.3260
19330TIP3   OH279404   6.116   2.371  13.041 -0.3890 -0.6395  0.1361
19330TIP3    H179405   6.044   2.316  13.011 -1.6795  0.0894  1.8310
19330TIP3    H279406   6.092   2.396  13.130  0.9465  1.3043 -0.0083
19331TIP3   OH279407   5.684   2.386   2.340  0.6484 -0.2411 -0.4985
19331TIP3    H179408   5.748   2.340   2.394  0.8029  0.8170  0.2224
19331TIP3    H279409   5.712   2.370   2.250  0.9008 -1.2604 -0.2445
19332TIP3   OH279410   1.004   4.620   4.785  0.4224 -0.0130 -0.2973
19332TIP3    H179411   1.074   4.573   4.833 -0.5508  1.5252  2.7693
19332TIP3    H279412   0.923   4.579   4.817 -0.2851  1.6868  0.1090
19333TIP3   OH279413   5.559   4.048   0.562  0.2490 -0.1194  0.4087
19333TIP3    H179414   5.546   4.096   0.480 -0.0378 -0.5534  0.1983
19333TIP3    H279415   5.652   4.058   0.582  0.4956 -0.7364 -0.4218
19334TIP3   OH279416   3.427   6.531   2.646 -0.4370  0.1882 -0.1432
19334TIP3    H179417   3.520   6.534   2.669 -0.9139  0.0417  1.9390
19334TIP3    H279418   3.384   6.494   2.723 -2.3749  1.4021 -0.5852
19335TIP3   OH279419   2.116   3.420  13.096  0.1831  0.2021 -0.0556
19335TIP3    H179420   2.125   3.332  13.062 -0.6112  0.8592 -2.0304
19335TIP3    H279421   2.023   3.427  13.120  0.8507 -0.4865  3.0200
19336TIP3   OH279422   4.246   1.145  11.019  0.0675 -0.9012  0.0048
19336TIP3    H179423   4.235   1.055  10.989 -0.3384 -0.9763  0.3800
19336TIP3    H279424   4.262   1.195  10.939  3.2501 -1.7537  0.0404
19337TIP3   OH279425   4.452   3.244  17.154  0.0204  0.2353  0.9177
19337TIP3    H179426   4.530   3.189  17.155 -1.9214 -2.6514  0.4783
19337TIP3    H279427   4.417   3.238  17.243  0.2815  1.5424  1.1236
19338TIP3   OH279428   2.587   1.249   2.781 -0.1185  0.2269  0.3147
19338TIP3    H179429   2.662   1.308   2.773  0.6095 -0.7300 -0.1299
19338TIP3    H279430   2.533   1.286   2.850 -0.2788  2.0632 -0.7749
19339TIP3   OH279431   4.975   4.371   2.658  0.0855 -0.3204 -0.1648
19339TIP3    H179432   4.959   4.463   2.636  1.4569 -0.6051 -2.6118
19339TIP3    H279433   4.918   4.322   2.598  1.1765 -1.0757 -0.6063
19340TIP3   OH279434   2.094   0.351   5.992  0.4810 -0.3905 -0.2129
19340TIP3    H179435   2.095   0.262   6.027 -0.3241 -1.1248 -1.9940
19340TIP3    H279436   2.185   0.379   5.995  0.3810 -0.2801  2.8078
19341TIP3   OH279437   0.927   5.638  16.995  0.0390 -0.5823 -0.2140
19341TIP3    H179438   0.868   5.585  16.940  1.1167 -0.0627 -1.8862
19341TIP3    H279439   0.987   5.679  16.933  1.3623 -0.0904  1.3793
19342TIP3   OH279440   4.363   5.168  15.609 -0.5248 -0.2582 -0.0304
19342TIP3    H179441   4.331   5.246  15.654 -1.6021 -0.6731 -0.0530
19342TIP3    H279442   4.397   5.200  15.526  0.7008  0.4077  0.7205
19343TIP3   OH279443   4.858   4.243   0.109 -0.0561 -0.1933  0.1553
19343TIP3    H179444   4.838   4.236   0.202  2.0812  0.3860  0.6924
19343TIP3    H279445   4.781   4.285   0.071 -0.7517  0.0021  1.7398
19344TIP3   OH279446   0.185   2.699   3.451 -0.0584 -0.0974  0.1382
19344TIP3    H179447   0.253   2.704   3.384  0.3589 -1.4988  0.4481
19344TIP3    H279448   0.225   2.740   3.528  0.8376 -1.8557  0.6334
19345TIP3   OH279449   3.094   0.512  11.596 -0.2595  0.9548 -0.0692
19345TIP3    H179450   3.047   0.595  11.588 -1.0827  0.6677  1.6339
19345TIP3    H279451   3.035   0.447  11.557 -0.7238  0.7892  0.9036
19346TIP3   OH279452   2.454   5.685   2.468 -0.3578  0.3870  0.4077
19346TIP3    H179453   2.455   5.695   2.563  1.5563 -0.9822  0.5616
19346TIP3    H279454   2.448   5.591   2.453 -2.8524  0.7051 -0.8720
19347TIP3   OH279455   3.178   2.971   0.658 -0.6029 -0.0943 -0.1338
19347TIP3    H179456   3.202   3.032   0.728  0.7137 -0.7303 -0.0237
19347TIP3    H279457   3.180   3.024   0.579 -0.5058  0.2511  0.0986
19348TIP3   OH279458   3.791   0.211   5.067  0.6534  0.5125 -0.6509
19348TIP3    H179459   3.819   0.236   4.979 -0.6138 -0.9375 -1.4828
19348TIP3    H279460   3.829   0.124   5.081  0.1214  0.3629 -0.0990
19349TIP3   OH279461   1.509   4.271  11.274  0.3677 -0.4332  0.0091
19349TIP3    H179462   1.483   4.203  11.336  0.7304 -0.3157  0.2921
19349TIP3    H279463   1.441   4.269  11.206 -0.0950 -0.4804  0.4739
19350TIP3   OH279464   6.374   1.742  16.801 -0.1241  0.2121  0.1141
19350TIP3    H179465   6.367   1.683  16.726  1.4182 -0.5872  0.5713
19350TIP3    H279466   6.360   1.687  16.878  1.7395  0.3052  0.5674
19351TIP3   OH279467   3.539   2.725  12.153  0.3401  0.0721  0.6456
19351TIP3    H179468   3.469   2.749  12.093 -1.1400 -2.0761  1.4534
19351TIP3    H279469   3.537   2.792  12.221 -1.1468 -0.1414  0.8248
19352TIP3   OH279470   6.719   5.565  11.155 -0.2065 -0.6140 -0.1401
19352TIP3    H179471   6.724   5.630  11.225  0.3467  0.1989 -0.9289
19352TIP3    H279472   6.730   5.615  11.074 -0.7841 -1.5540 -0.8159
19353TIP3   OH279473   1.621   0.930  13.596  0.2489 -0.3723 -0.2499
19353TIP3    H179474   1.572   0.994  13.545  1.8374  1.0749  0.0100
19353TIP3    H279475   1.689   0.899  13.536  0.1581 -1.0196 -0.0214
19354TIP3   OH279476   0.489   2.077  12.777  0.2609 -0.4815 -0.1010
19354TIP3    H179477   0.436   2.114  12.706  1.3697 -2.7511 -2.1624
19354TIP3    H279478   0.571   2.127  12.774  0.3455 -0.6436 -0.4683
19355TIP3   OH279479   6.397   5.443  15.707  0.2203  0.0956 -0.1803
19355TIP3    H179480   6.433   5.475  15.624 -1.2000 -0.3952 -1.0051
19355TIP3    H279481   6.451   5.485  15.774  0.5026  1.5816 -1.3102
19356TIP3   OH279482   1.051   6.501   1.825 -1.0559 -0.0413  0.1389
19356TIP3    H179483   0.959   6.509   1.799 -1.4201 -0.6480  1.2251
19356TIP3    H279484   1.062   6.566   1.894 -0.2870  1.0258 -0.9575
19357TIP3   OH279485   0.069   2.232  16.354 -0.4324 -0.3946  0.0226
19357TIP3    H179486   0.078   2.196  16.266 -0.2781 -0.7650  0.1877
19357TIP3    H279487   0.155   2.270  16.374  0.1495 -2.1074  0.8066
19358TIP3   OH279488   2.462   2.844   3.308 -0.1029 -0.0874  0.2172
19358TIP3    H179489   2.434   2.796   3.230 -1.8994 -0.4159  1.0413
19358TIP3    H279490   2.473   2.778   3.375  2.0087  0.1297  0.1218
19359TIP3   OH279491   4.683   2.191   0.176  0.0023  0.1595  0.0416
19359TIP3    H179492   4.588   2.187   0.179 -0.0023 -0.1817 -0.4894
19359TIP3    H279493   4.710   2.103   0.149  0.4331  0.4274 -0.4127
19360TIP3   OH279494   1.234   6.234  14.208  0.4392 -0.1458  0.0707
19360TIP3    H179495   1.279   6.243  14.124  1.6315 -2.6289  0.3721
19360TIP3    H279496   1.199   6.320  14.227 -0.4953  0.2646 -3.3523
19361TIP3   OH279497   2.254   5.196  11.496  0.3217 -0.0056  0.2874
19361TIP3    H179498   2.341   5.201  11.534  0.7145  2.6120 -0.8441
19361TIP3    H279499   2.249   5.271  11.436 -3.4442  1.1876  1.9040
19362TIP3   OH279500   5.088   0.878   5.971 -0.1823  0.9109 -0.6530
19362TIP3    H179501   5.024   0.815   5.938  0.5728 -0.1987 -0.0315
19362TIP3    H279502   5.040   0.929   6.036 -0.5795  0.4172 -0.5515
19363TIP3   OH279503   4.012   0.388   5.056  0.4230 -0.4356 -0.2616
19363TIP3    H179504   3.982   0.368   4.967 -0.1711 -0.0101 -0.1536
19363TIP3    H279505   3.935   0.380   5.111  0.3021  1.4735 -0.1123
19364TIP3   OH279506   2.518   4.458  12.890  0.3162  0.1491 -0.1535
19364TIP3    H179507   2.474   4.395  12.833  0.3224  2.1593 -2.4611
19364TIP3    H279508   2.537   4.533  12.833 -0.8480  2.7826  2.7958
19365TIP3   OH279509   1.814   4.842   2.570  0.0306 -0.0794 -0.0204
19365TIP3    H179510   1.742   4.779   2.569 -0.1108  0.0832 -0.3240
19365TIP3    H279511   1.808   4.884   2.655 -1.1276  0.9475 -0.5864
19366TIP3   OH279512   5.762   3.699  12.931 -0.0231 -0.0253  0.0304
19366TIP3    H179513   5.771   3.623  12.873  2.1535 -0.5216  0.9587
19366TIP3    H279514   5.828   3.685  12.999 -0.8293  1.8056  1.2206
19367TIP3   OH279515   2.528   5.184  12.449  0.4625  0.2156  0.3668
19367TIP3    H179516   2.608   5.149  12.410 -0.1805 -1.1456  0.2419
19367TIP3    H279517   2.509   5.125  12.522  0.6123  1.6415  1.5914
19368TIP3   OH279518   6.312   1.012   1.377 -0.2407  0.6198 -0.1274
19368TIP3    H179519   6.379   1.080   1.370 -0.6655  1.0522 -0.0507
19368TIP3    H279520   6.328   0.970   1.462 -0.8527  1.5754  0.4742
19369TIP3   OH279521   1.432   0.844   2.517  0.2390 -0.6098  0.5509
19369TIP3    H179522   1.468   0.771   2.568 -1.7571 -0.7811  1.7475
19369TIP3    H279523   1.472   0.922   2.557 -1.1688 -0.7520  2.3065
19370TIP3   OH279524   2.807   5.044   1.830 -0.1550  0.9580  0.4794
19370TIP3    H179525   2.835   5.135   1.820  0.2152  0.6975 -1.0300
19370TIP3    H279526   2.722   5.050   1.873 -0.6506  2.0927 -0.6089
19371TIP3   OH279527   2.731   3.476   0.807  0.4131  0.8054 -0.0847
19371TIP3    H179528   2.708   3.513   0.893  2.0609  2.1985 -0.2059
19371TIP3    H279529   2.771   3.392   0.827  0.8170  1.1386  0.5132
19372TIP3   OH279530   6.436   6.409  12.252  0.2612 -0.3260 -0.1581
19372TIP3    H179531   6.357   6.373  12.212  0.1680 -0.2485 -0.0413
19372TIP3    H279532   6.405   6.465  12.322  0.3065  1.9293 -1.8998
19373TIP3   OH279533   4.191   1.053  15.733 -0.5142 -0.0354  0.5785
19373TIP3    H179534   4.119   1.006  15.775 -0.3550 -1.0387 -0.2476
19373TIP3    H279535   4.186   1.027  15.641 -0.2441  1.3474  0.1595
19374TIP3   OH279536   2.570   1.489  15.098 -0.4851  0.9338 -0.1221
19374TIP3    H179537   2.553   1.395  15.099 -0.1097  0.8491 -1.2730
19374TIP3    H279538   2.593   1.510  15.189 -2.4284  0.2770  0.5482
19375TIP3   OH279539   0.396   3.004  16.235  0.3036 -0.5710 -0.2012
19375TIP3    H179540   0.467   2.996  16.298 -0.6414 -0.1872  0.9311
19375TIP3    H279541   0.420   3.079  16.181  0.4243 -0.0007  0.6316
19376TIP3   OH279542   2.052   0.712   0.333 -0.4362 -0.2286  0.2231
19376TIP3    H179543   2.035   0.639   0.273 -0.0558  0.3354 -0.5826
19376TIP3    H279544   2.118   0.678   0.393 -0.1530 -0.5085 -0.2356
19377TIP3   OH279545   5.672   0.807   0.375 -0.4099 -0.4578 -0.1561
19377TIP3    H179546   5.671   0.742   0.446 -0.8122  0.4998  0.7393
19377TIP3    H279547   5.726   0.878   0.409 -0.1642 -0.2220 -1.0321
19378TIP3   OH279548   2.246   4.911   0.757  0.1806 -0.2526  0.1006
19378TIP3    H179549   2.156   4.917   0.789  0.5589  0.6418  1.0246
19378TIP3    H279550   2.256   4.988   0.701  0.1693 -0.7146 -0.5471
19379TIP3   OH279551   3.671   4.657  11.521  0.5868  0.4267 -0.4815
19379TIP3    H179552   3.735   4.676  11.589  0.1392 -1.0772  0.3798
19379TIP3    H279553   3.711   4.689  11.440  2.6179 -0.8927 -0.0188
19380TIP3   OH279554   0.317   0.938   4.126  0.1855 -0.1696 -0.3305
19380TIP3    H179555   0.233   0.933   4.170 -0.5029  1.6660 -1.3922
19380TIP3    H279556   0.364   1.009   4.170  1.2039 -1.1694  0.2478
19381TIP3   OH279557   0.759   5.262  16.882  0.0693 -0.6131 -0.2023
19381TIP3    H179558   0.735   5.186  16.934 -0.7180  0.2736  0.7507
19381TIP3    H279559   0.689   5.325  16.897  1.1412  0.6292 -0.2852
19382TIP3   OH279560   3.640   4.313  16.940 -0.9088 -0.0731 -0.3789
19382TIP3    H179561   3.652   4.316  17.034 -2.2051  0.6348 -0.2263
19382TIP3    H279562   3.650   4.404  16.911  1.7898 -0.6105 -1.2319
19383TIP3   OH279563   3.835   0.908  16.292  0.2225  0.4848 -0.4220
19383TIP3    H179564   3.751   0.954  16.287 -0.4480 -0.7519 -0.5243
19383TIP3    H279565   3.815   0.825  16.334  1.4422  0.2762 -0.2374
19384TIP3   OH279566   4.904   5.961  15.481  0.6011  0.1922 -0.0649
19384TIP3    H179567   4.844   5.896  15.447  0.9114  0.7869 -1.7646
19384TIP3    H279568   4.878   5.972  15.573 -0.4440 -1.1532 -0.1881
19385TIP3   OH279569   5.294   0.520   5.651 -0.2475  0.2113  0.1548
19385TIP3    H179570   5.296   0.611   5.683  1.1674  0.6955 -1.2659
19385TIP3    H279571   5.238   0.523   5.574 -1.2801 -0.3994  0.8685
19386TIP3   OH279572   3.134   0.200   3.010 -0.7494  0.0526 -0.0150
19386TIP3    H179573   3.177   0.154   3.082 -0.9821  0.0894  0.1477
19386TIP3    H279574   3.169   0.289   3.014 -2.0958  0.5430  1.1664
19387TIP3   OH279575   5.521   5.524   2.202 -0.4320 -0.3012  0.1648
19387TIP3    H179576   5.550   5.513   2.292  0.1598  2.9484  0.4395
19387TIP3    H279577   5.600   5.546   2.153 -1.0455 -0.1059 -0.7605
19388TIP3   OH279578   1.909   1.169  10.254  0.0147 -0.7134  0.1251
19388TIP3    H179579   1.833   1.116  10.277 -0.3651 -0.4610 -0.5607
19388TIP3    H279580   1.911   1.239  10.319 -0.7534 -0.3071 -0.2900
19389TIP3   OH279581   3.695   2.482  15.380  0.2477 -0.1982  1.0839
19389TIP3    H179582   3.729   2.405  15.426  0.4842 -1.5378 -1.2471
19389TIP3    H279583   3.600   2.479  15.395  0.4628  0.2003  2.6454
19390TIP3   OH279584   2.181   1.290  14.327 -0.1848 -0.2490 -0.5752
19390TIP3    H179585   2.193   1.385  14.322 -2.5787  0.1130 -0.0785
19390TIP3    H279586   2.215   1.265  14.412 -0.5606  0.3409 -0.2525
19391TIP3   OH279587   5.008   4.353   5.199  0.0477  0.2361  0.6924
19391TIP3    H179588   5.083   4.383   5.148 -0.5472  1.3167  0.4540
19391TIP3    H279589   5.030   4.376   5.289 -1.0977  2.8415  0.3327
19392TIP3   OH279590   4.262   2.714   0.482 -0.1029 -0.2387 -0.0200
19392TIP3    H179591   4.279   2.676   0.568 -1.3712 -1.7844 -0.4378
19392TIP3    H279592   4.330   2.677   0.426 -0.0754 -0.2570  0.0262
19393TIP3   OH279593   2.496   4.035   2.447 -0.2820  0.0645 -0.1103
19393TIP3    H179594   2.525   4.051   2.358 -1.3595 -0.7035 -0.6026
19393TIP3    H279595   2.554   4.089   2.501  2.2947 -1.7393 -1.0143
19394TIP3   OH279596   5.394   2.004  15.375  0.1582  0.0293 -0.0909
19394TIP3    H179597   5.461   2.010  15.443 -0.6472 -1.1237  0.8230
19394TIP3    H279598   5.433   1.950  15.306  1.4392  2.2297 -1.1303
19395TIP3   OH279599   3.215   0.529   5.271  0.3550 -0.3692 -0.4607
19395TIP3    H179600   3.147   0.569   5.325  0.3563 -0.9103 -0.0486
19395TIP3    H279601   3.170   0.457   5.225  0.2458  0.3723 -1.5383
19396TIP3   OH279602   6.246   4.849   5.723  0.4409  0.3589 -0.4175
19396TIP3    H179603   6.296   4.838   5.642  1.5426  0.7547  0.1940
19396TIP3    H279604   6.297   4.803   5.790 -0.7816 -0.5026 -0.0619
19397TIP3   OH279605   0.087   6.306   1.747 -0.3881  0.3112  0.3587
19397TIP3    H179606   0.140   6.350   1.680  0.0885 -2.6567 -1.3011
19397TIP3    H279607   0.138   6.315   1.827  1.0834  0.3285 -0.5525
19398TIP3   OH279608   1.040   2.862  10.364 -0.2909  0.2742 -0.4990
19398TIP3    H179609   1.121   2.815  10.382  0.0182  1.3131  0.8866
19398TIP3    H279610   1.068   2.950  10.340 -1.0407  1.1786  1.7803
19399TIP3   OH279611   1.818   6.135   1.072 -0.1380  0.1090  0.1752
19399TIP3    H179612   1.886   6.186   1.116  0.3325 -0.1830 -0.2181
19399TIP3    H279613   1.812   6.173   0.985 -2.0536  1.6197  0.9098
19400TIP3   OH279614   3.448   5.550   2.784 -0.3447 -0.4066 -0.2173
19400TIP3    H179615   3.491   5.587   2.707 -0.4893  0.3839  0.0743
19400TIP3    H279616   3.366   5.600   2.792 -0.3747 -0.5441  0.3945
19401TIP3   OH279617   6.236   0.524   1.499 -0.2253  0.6054  0.2831
19401TIP3    H179618   6.152   0.565   1.477 -0.8543 -0.0260  1.4799
19401TIP3    H279619   6.278   0.510   1.414 -0.1694  3.3464 -0.1911
19402TIP3   OH279620   2.980   3.325   2.053 -0.0338  0.3006 -0.1378
19402TIP3    H179621   2.995   3.231   2.057  0.3204  0.1839 -3.0787
19402TIP3    H279622   2.970   3.352   2.145 -1.1431 -2.7190  0.6855
19403TIP3   OH279623   5.096   0.657   4.158  0.0828 -0.1516 -0.5505
19403TIP3    H179624   5.019   0.602   4.151 -1.0106  1.2726  0.0777
19403TIP3    H279625   5.077   0.732   4.102  0.9592  0.2651 -0.3032
19404TIP3   OH279626   5.369   2.944   3.996  0.7088 -0.1604  0.3121
19404TIP3    H179627   5.315   2.902   3.929 -0.4938 -0.9408  1.7392
19404TIP3    H279628   5.316   3.018   4.027  0.8490 -0.3609  1.0485
19405TIP3   OH279629   1.361   5.882  13.108 -0.0527  0.0817  0.4207
19405TIP3    H179630   1.372   5.967  13.065 -2.7133  0.1950 -0.0698
19405TIP3    H279631   1.360   5.819  13.037 -1.1783 -0.0599  0.5654
19406TIP3   OH279632   4.220   6.215  13.354  0.2798 -0.0826 -0.2532
19406TIP3    H179633   4.233   6.183  13.264 -1.0320 -1.2027 -0.0627
19406TIP3    H279634   4.203   6.135  13.405  2.0048  0.4492  1.1783
19407TIP3   OH279635   2.808   3.657   5.866  0.1363 -0.2376  0.2326
19407TIP3    H179636   2.847   3.667   5.953  1.0877  1.2140 -0.3352
19407TIP3    H279637   2.868   3.703   5.807 -1.5872  0.6078 -0.9131
19408TIP3   OH279638   1.226   4.942   3.758 -0.3946  0.1861 -0.0418
19408TIP3    H179639   1.200   4.889   3.683 -1.5771 -0.5838  0.8823
19408TIP3    H279640   1.300   4.994   3.727 -0.0952 -1.0075 -1.3705
19409TIP3   OH279641   6.253   0.722   1.732 -0.3614  0.1186 -0.4643
19409TIP3    H179642   6.290   0.725   1.644  1.1341  2.5116  0.1924
19409TIP3    H279643   6.289   0.642   1.771 -1.2677 -1.1039 -2.1020
19410TIP3   OH279644   3.662   6.429  11.646  0.0520  0.1210  0.2405
19410TIP3    H179645   3.696   6.518  11.642 -0.2794  0.2814  0.9770
19410TIP3    H279646   3.700   6.392  11.725 -0.7046 -0.0173  0.5466
19411TIP3   OH279647   2.728   6.754  10.578 -0.5617 -0.4614  0.5076
19411TIP3    H179648   2.653   6.717  10.625 -1.5240 -0.0034 -0.6367
19411TIP3    H279649   2.738   6.698  10.501  0.2139 -0.4626  0.6118
19412TIP3   OH279650   5.103   2.680   4.514  0.1580  0.1844  0.3367
19412TIP3    H179651   5.156   2.714   4.442 -1.2385  1.3525 -0.1583
19412TIP3    H279652   5.044   2.752   4.537 -1.4250 -1.1749  0.6571
19413TIP3   OH279653   1.964   6.140  13.922  0.4959  0.0254  0.6927
19413TIP3    H179654   2.011   6.057  13.923  0.2691 -0.1332 -0.3468
19413TIP3    H279655   2.033   6.206  13.910  0.4635 -0.2123 -0.9135
19414TIP3   OH279656   4.713   5.648   5.335 -0.1351 -0.2026  0.6283
19414TIP3    H179657   4.633   5.700   5.339 -0.7731 -1.2534  2.1871
19414TIP3    H279658   4.702   5.583   5.405  3.2510  1.3086  2.6677
19415TIP3   OH279659   5.143   1.452  14.378  0.8057 -0.0036 -0.5319
19415TIP3    H179660   5.207   1.382  14.387 -0.0447 -0.8880 -1.2679
19415TIP3    H279661   5.092   1.449  14.460  2.5559  1.6020  0.6611
19416TIP3   OH279662   0.501   2.571  16.827  0.0714  0.3240  0.1292
19416TIP3    H179663   0.469   2.651  16.785 -0.4657 -0.8422 -1.7268
19416TIP3    H279664   0.596   2.573  16.812 -0.3358 -1.1695 -3.2025
19417TIP3   OH279665   1.965   1.641   4.138  0.7170  0.0263  0.2404
19417TIP3    H179666   2.059   1.657   4.130  0.5863  0.4174 -0.5928
19417TIP3    H279667   1.942   1.678   4.224  0.7080  3.0994 -1.0090
19418TIP3   OH279668   3.766   1.476   5.793 -0.4445  0.5949 -0.5725
19418TIP3    H179669   3.834   1.539   5.769 -0.0726 -0.5115 -2.6054
19418TIP3    H279670   3.811   1.413   5.850 -0.0771  0.5941 -0.8560
19419TIP3   OH279671   5.104   2.859  12.578 -0.0180  0.3785 -0.5187
19419TIP3    H179672   5.009   2.862  12.572 -0.0661  1.0263  0.3492
19419TIP3    H279673   5.125   2.915  12.653  0.8532 -2.0902  1.1386
19420TIP3   OH279674   5.236   6.384  14.710 -0.1744  0.3523  0.1187
19420TIP3    H179675   5.228   6.405  14.617 -2.4654  0.8458  0.3817
19420TIP3    H279676   5.173   6.312  14.723  2.5208 -1.9999  0.6409
19421TIP3   OH279677   2.517   2.423  13.716 -0.1221  0.0925  0.6412
19421TIP3    H179678   2.492   2.336  13.684  0.1653  0.3896 -0.4044
19421TIP3    H279679   2.602   2.439  13.677 -1.9710  2.6117 -2.6286
19422TIP3   OH279680   4.032   6.211  14.326 -0.0110 -0.2629 -0.2986
19422TIP3    H179681   4.034   6.177  14.237  1.3587  1.8926 -1.1291
19422TIP3    H279682   3.957   6.271  14.328 -0.1870 -0.4898  0.0743
19423TIP3   OH279683   2.299   0.213   6.230 -0.1978  0.1829 -0.3853
19423TIP3    H179684   2.205   0.210   6.249  0.1115 -0.1579  1.2178
19423TIP3    H279685   2.340   0.204   6.316  1.3351 -2.6735 -1.3630
19424TIP3   OH279686   4.161   6.252   4.215  0.1395 -0.2673  0.2452
19424TIP3    H179687   4.203   6.170   4.241 -1.4407 -1.5948 -1.2420
19424TIP3    H279688   4.098   6.271   4.284  1.2835  0.3074  1.1469
19425TIP3   OH279689   4.602   2.687  16.645  0.2304  0.6338 -0.2966
19425TIP3    H179690   4.550   2.709  16.722 -0.5757 -0.0084 -0.6491
19425TIP3    H279691   4.591   2.761  16.586 -1.7331 -0.2662 -1.0989
19426TIP3   OH279692   1.712   6.350  13.237 -0.2462 -0.7902 -0.0457
19426TIP3    H179693   1.650   6.381  13.302  0.3391 -1.2469  0.7433
19426TIP3    H279694   1.667   6.276  13.194  0.3330 -2.1224  1.5871
19427TIP3   OH279695   1.746   6.191   4.273 -0.2828 -0.0681  0.0743
19427TIP3    H179696   1.745   6.199   4.177 -2.6856  1.0366  0.1555
19427TIP3    H279697   1.787   6.273   4.302 -0.9176  0.2615  0.0417
19428TIP3   OH279698   5.883   6.220   3.250  0.3375 -0.3501  0.2554
19428TIP3    H179699   5.932   6.146   3.283 -0.4403 -0.4394  1.2378
19428TIP3    H279700   5.867   6.275   3.327 -1.0879 -0.3271 -0.0341
19429TIP3   OH279701   5.978   5.535  13.759  0.6911 -0.0013 -0.1159
19429TIP3    H179702   6.066   5.559  13.728  1.2618 -0.9968  0.7093
19429TIP3    H279703   5.978   5.556  13.852 -0.3344  1.0390 -0.3333
19430TIP3   OH279704   1.631   2.870  14.279  0.4343 -0.0299  0.1654
19430TIP3    H179705   1.551   2.850  14.230 -1.0954 -1.2163  3.0383
19430TIP3    H279706   1.691   2.799  14.257 -1.0419 -1.7902  1.6895
19431TIP3   OH279707   5.047   2.395   0.148 -0.3340  0.4609 -0.4120
19431TIP3    H179708   5.001   2.324   0.194 -1.0633  0.5032 -1.0630
19431TIP3    H279709   4.979   2.461   0.134 -0.0822  0.4960 -1.4524
19432TIP3   OH279710   0.430   5.453  11.509 -0.0521 -0.4382  0.1441
19432TIP3    H179711   0.478   5.455  11.426 -0.7769 -0.8080 -0.2930
19432TIP3    H279712   0.432   5.543  11.540 -3.3309  0.5957 -2.3544
19433TIP3   OH279713   5.396   0.006  12.784  0.0119  0.5867  0.1494
19433TIP3    H179714   5.406  -0.014  12.877  1.5629  3.1449  0.5747
19433TIP3    H279715   5.465   0.069  12.765 -0.2905  0.1235 -2.7579
19434TIP3   OH279716   6.372   0.796  15.189  0.2025  0.3783 -0.0617
19434TIP3    H179717   6.331   0.743  15.121 -1.3556  2.5761 -0.9186
19434TIP3    H279718   6.419   0.734  15.244 -0.4384 -1.6961 -1.8082
19435TIP3   OH279719   2.029   0.896  10.965  0.0814  0.3430  0.2742
19435TIP3    H179720   1.956   0.954  10.944  2.2289  2.8208 -0.6574
19435TIP3    H279721   2.070   0.936  11.041  0.9628 -0.5579  0.2835
19436TIP3   OH279722   4.328   1.066   0.754 -0.3659 -0.1585  0.3642
19436TIP3    H179723   4.269   1.037   0.823 -0.1865  1.0255  1.0439
19436TIP3    H279724   4.392   0.996   0.745 -1.1541 -0.8980  0.4884
19437TIP3   OH279725   3.184   6.447  11.844  0.2611 -0.2738  0.2692
19437TIP3    H179726   3.178   6.513  11.774  0.3150  0.0152  0.5390
19437TIP3    H279727   3.240   6.379  11.807 -0.6214 -0.6578 -0.4019
19438TIP3   OH279728   6.649   3.373  15.873  0.2475  0.1421  0.5568
19438TIP3    H179729   6.669   3.424  15.952 -1.4536  0.2345  0.9464
19438TIP3    H279730   6.560   3.341  15.887 -0.0660  0.1394 -1.3264
19439TIP3   OH279731   6.252   3.091   1.868  0.5286 -0.5198 -0.0148
19439TIP3    H179732   6.179   3.109   1.926  2.0482  0.4181  1.6829
19439TIP3    H279733   6.228   3.134   1.786  0.0561  1.5575  1.1658
19440TIP3   OH279734   5.145   0.221  13.886  0.0501 -0.2630 -0.4044
19440TIP3    H179735   5.104   0.256  13.807  1.0510  2.5130  0.2582
19440TIP3    H279736   5.235   0.199  13.859 -0.4050 -1.8559 -0.6779
19441TIP3   OH279737   4.113   0.050   6.355 -0.0033 -0.2700 -0.7388
19441TIP3    H179738   4.167   0.025   6.430 -0.4117 -1.9368 -0.9884
19441TIP3    H279739   4.166   0.028   6.279  0.2867  1.1459 -0.9530
19442TIP3   OH279740   3.529   1.671  15.146  0.2154 -0.6529  0.1052
19442TIP3    H179741   3.613   1.686  15.103 -0.3316  0.8716 -0.4487
19442TIP3    H279742   3.547   1.680  15.239  0.5373  0.3840 -0.0538
19443TIP3   OH279743   1.916   5.673   3.684 -0.1937  0.3006 -0.7041
19443TIP3    H179744   1.871   5.648   3.765 -0.1439  0.0020 -0.7675
19443TIP3    H279745   1.860   5.740   3.646 -1.0991 -0.7580 -1.2714
19444TIP3   OH279746   2.143   3.269   5.998  0.0700  0.1052  0.2321
19444TIP3    H179747   2.196   3.349   5.993  0.4001 -0.1207  0.0906
19444TIP3    H279748   2.196   3.202   5.955  0.3409 -0.4771  1.4429
19445TIP3   OH279749   1.402   3.027   5.977  0.2088  0.0441 -0.4992
19445TIP3    H179750   1.327   2.972   5.958 -0.8716  1.1402  0.5364
19445TIP3    H279751   1.440   2.989   6.056 -1.0633  1.2939  0.7313
19446TIP3   OH279752   4.085   6.292  10.651 -0.1000 -0.0414 -0.3984
19446TIP3    H179753   4.103   6.386  10.648  0.4773 -0.1789 -1.1329
19446TIP3    H279754   4.034   6.281  10.732  1.8845  0.5323  0.9591
19447TIP3   OH279755   2.800   6.573  12.709  0.0531 -0.2551  0.0545
19447TIP3    H179756   2.757   6.542  12.789  0.8499 -0.1004  0.5423
19447TIP3    H279757   2.839   6.657  12.734 -0.4803  0.2405 -0.7470
19448TIP3   OH279758   3.814   0.889   2.158  0.3483  0.2734  0.4319
19448TIP3    H179759   3.905   0.894   2.128  0.4553  1.4058  0.9606
19448TIP3    H279760   3.789   0.798   2.141  1.5783 -0.0460  0.2954
19449TIP3   OH279761   6.569   0.850   5.461  0.5946  0.0518 -0.1173
19449TIP3    H179762   6.533   0.850   5.550  1.5437 -1.5435  0.2906
19449TIP3    H279763   6.634   0.921   5.462  0.4176  0.2107  0.3817
19450TIP3   OH279764   3.249   0.690   1.269  0.3855  0.6425 -0.0829
19450TIP3    H179765   3.154   0.699   1.258  0.8590  3.8489 -2.4065
19450TIP3    H279766   3.265   0.709   1.361 -1.4186 -2.1845  0.8518
19451TIP3   OH279767   6.657   2.357   0.754 -0.0577 -0.3033  0.4048
19451TIP3    H179768   6.749   2.371   0.735 -0.1277 -0.2436  0.0949
19451TIP3    H279769   6.611   2.405   0.685 -0.3330  0.7960  1.3242
19452TIP3   OH279770   3.119   6.356   0.952 -0.1726  0.0218  0.2399
19452TIP3    H179771   3.212   6.335   0.947  0.1872  1.3874  0.9619
19452TIP3    H279772   3.116   6.445   0.986 -1.6806  0.9814 -2.2776
19453TIP3   OH279773   2.613   0.869  16.744 -0.8746 -0.0654 -0.1296
19453TIP3    H179774   2.625   0.948  16.691  1.1124 -0.2754 -0.0278
19453TIP3    H279775   2.663   0.802  16.699 -0.7569 -0.7297  0.9716
19454TIP3   OH279776   3.359   3.546   1.829  0.4503  0.2126  0.2141
19454TIP3    H179777   3.278   3.496   1.824 -0.1556  1.2094 -0.2020
19454TIP3    H279778   3.330   3.636   1.844  1.5425  0.3186  1.8490
19455TIP3   OH279779   5.100   5.280  14.613  0.6676 -0.2541 -0.3430
19455TIP3    H179780   5.036   5.302  14.546  1.4065 -1.7656 -1.5951
19455TIP3    H279781   5.185   5.292  14.570  1.1943  0.2791  0.8245
19456TIP3   OH279782   4.579   5.647  11.871  0.0806  0.8741 -0.3453
19456TIP3    H179783   4.507   5.659  11.933 -0.4550 -2.0471 -0.3066
19456TIP3    H279784   4.539   5.602  11.797  1.4605  1.0112 -1.1845
19457TIP3   OH279785   6.579   5.828   2.622 -0.4145 -0.7084  0.1128
19457TIP3    H179786   6.547   5.908   2.582  0.6604 -0.4287 -0.1922
19457TIP3    H279787   6.632   5.786   2.554  1.3513 -0.2722  1.2044
19458TIP3   OH279788   0.846   2.609   4.709  0.1688  0.0430  0.4422
19458TIP3    H179789   0.926   2.650   4.742  0.6584 -0.9175  0.4430
19458TIP3    H279790   0.801   2.679   4.661  0.3768  0.9264  1.5282
19459TIP3   OH279791   2.753   5.479  15.206  1.0415  0.1827 -0.0764
19459TIP3    H179792   2.830   5.489  15.263 -0.2544  1.3894  1.5194
19459TIP3    H279793   2.720   5.392  15.226  0.7593  0.4905  0.8522
19460TIP3   OH279794   0.412   6.532   6.647  0.1562 -0.0985 -0.1151
19460TIP3    H179795   0.393   6.624   6.627  0.4243  0.3351  1.5268
19460TIP3    H279796   0.501   6.519   6.615 -0.6370 -0.4170 -2.3024
19461TIP3   OH279797   6.197   1.288  13.495 -0.0599 -0.4478  0.1382
19461TIP3    H179798   6.224   1.205  13.535  1.1375 -0.5252 -0.8116
19461TIP3    H279799   6.228   1.355  13.556  1.0708 -0.6001 -0.2572
19462TIP3   OH279800   0.313   4.627  11.302  0.1457 -0.4970 -0.0179
19462TIP3    H179801   0.388   4.569  11.302 -0.9803 -1.9939 -1.3646
19462TIP3    H279802   0.344   4.707  11.343  2.7362 -0.7546 -1.3873
19463TIP3   OH279803   6.568   6.682   1.034 -0.2169 -0.0212 -0.0007
19463TIP3    H179804   6.600   6.645   0.952 -0.3967  0.4723 -0.2948
19463TIP3    H279805   6.574   6.610   1.097  0.9284 -0.0922 -0.1869
19464TIP3   OH279806   3.018   4.878  14.535  0.3590 -0.2495 -0.1433
19464TIP3    H179807   3.042   4.801  14.484  0.7405 -1.4708  1.8400
19464TIP3    H279808   3.099   4.904  14.579 -0.4261 -0.3999  1.4021
19465TIP3   OH279809   0.388   6.215  13.137 -0.6386 -0.0255  0.6414
19465TIP3    H179810   0.449   6.215  13.211  0.7391 -1.4736 -0.4798
19465TIP3    H279811   0.349   6.128  13.138 -0.2213 -0.2277 -0.6698
19466TIP3   OH279812   5.618   5.025  11.854 -0.1386 -0.1192  0.6480
19466TIP3    H179813   5.703   5.053  11.888  0.2737 -0.9883  0.3613
19466TIP3    H279814   5.634   5.007  11.762 -1.0667  1.4406  0.1758
19467TIP3   OH279815   0.553   0.253   0.826 -0.1104 -0.2983 -0.3440
19467TIP3    H179816   0.639   0.239   0.866 -0.4081 -0.7508  0.1420
19467TIP3    H279817   0.548   0.348   0.812 -0.6994  0.1010  2.3135
19468TIP3   OH279818   1.449   4.738  12.961  0.2624  0.3971  0.3663
19468TIP3    H179819   1.523   4.778  13.006  0.5312  1.7154 -1.2329
19468TIP3    H279820   1.455   4.645  12.985  3.2434  0.2172 -0.8331
19469TIP3   OH279821   6.359   1.016  15.368  0.3031 -0.3406 -0.2579
19469TIP3    H179822   6.317   0.979  15.446  2.3266 -1.4959  0.3212
19469TIP3    H279823   6.365   0.942  15.307  0.1319  0.1803 -0.9043
19470TIP3   OH279824   4.112   0.896   1.273 -0.6878  0.3046 -0.0357
19470TIP3    H179825   4.060   0.966   1.313 -0.3434  0.3830  0.2782
19470TIP3    H279826   4.202   0.914   1.301 -0.8853 -1.6228  2.0514
19471TIP3   OH279827   6.551   3.150  11.202 -0.0606  0.1192 -0.0314
19471TIP3    H179828   6.552   3.190  11.289  2.1867 -0.5361  0.2729
19471TIP3    H279829   6.460   3.156  11.174 -0.5724  1.4862  1.8366
19472TIP3   OH279830   1.672   4.206   0.009  0.0051  0.5525  0.4750
19472TIP3    H179831   1.755   4.227   0.052  0.5589  0.3966 -0.5036
19472TIP3    H279832   1.627   4.147   0.070  1.1560 -0.3616  0.4533
19473TIP3   OH279833   2.633   0.243  15.350  0.3817  0.3027  0.1925
19473TIP3    H179834   2.653   0.212  15.438 -1.5121 -0.1300  0.4939
19473TIP3    H279835   2.541   0.219  15.336  0.3763  1.2199 -1.5267
19474TIP3   OH279836   2.989   5.970  12.175 -0.0886 -0.0698  0.4976
19474TIP3    H179837   3.085   5.975  12.174 -0.0486 -0.7202 -0.0976
19474TIP3    H279838   2.962   6.025  12.102 -0.0138 -2.2071 -1.1948
19475TIP3   OH279839   0.422   2.338   6.182  0.8958 -0.8062 -0.0199
19475TIP3    H179840   0.343   2.353   6.131  0.7399 -1.1650  0.1154
19475TIP3    H279841   0.477   2.414   6.164  0.8284 -0.9170 -0.6983
19476TIP3   OH279842   6.246   1.868   3.093  0.4869 -0.2690  0.4728
19476TIP3    H179843   6.334   1.901   3.107  1.1976 -2.3897  1.1911
19476TIP3    H279844   6.227   1.887   3.001  0.4920  2.8906  1.0791
19477TIP3   OH279845   6.413   6.682  16.170  0.2127 -0.5274 -0.2972
19477TIP3    H179846   6.387   6.628  16.245  0.0320 -0.4627 -0.3153
19477TIP3    H279847   6.384   6.633  16.093  0.5933 -0.6990 -0.3339
19478TIP3   OH279848   0.641   1.862  15.845  0.4994  0.3722  0.3576
19478TIP3    H179849   0.680   1.943  15.878 -1.3791  2.5751 -2.5324
19478TIP3    H279850   0.708   1.824  15.788  1.0636  0.3721  1.0261
19479TIP3   OH279851   6.660   6.705   3.729  0.5020 -0.5884  0.2296
19479TIP3    H179852   6.574   6.718   3.770  0.9010  1.5004  0.4430
19479TIP3    H279853   6.723   6.717   3.800  1.0670  0.0403 -0.3750
19480TIP3   OH279854   5.077   2.359   3.747 -0.0704 -0.2333 -0.5417
19480TIP3    H179855   5.065   2.426   3.680 -1.0266  1.2661  1.1220
19480TIP3    H279856   5.087   2.407   3.829 -1.0374 -2.1147  0.7183
19481TIP3   OH279857   4.074   4.578   1.967 -0.5068  0.1596 -0.0550
19481TIP3    H179858   4.021   4.595   1.889 -0.5284  0.0670 -0.0605
19481TIP3    H279859   4.068   4.659   2.018  1.5677  1.1903 -1.3595
19482TIP3   OH279860   3.076   3.680   2.742 -0.3555  1.1491 -0.3392
19482TIP3    H179861   2.990   3.709   2.711 -0.3532 -0.8227 -2.3547
19482TIP3    H279862   3.138   3.736   2.696 -0.4936  0.8985 -0.8388
19483TIP3   OH279863   2.383   4.686   5.652 -0.1257 -0.2390  0.3259
19483TIP3    H179864   2.455   4.709   5.711  0.2485  2.0870 -0.9898
19483TIP3    H279865   2.424   4.672   5.567 -0.9724 -1.0285  0.0347
19484TIP3   OH279866   2.294   6.027   3.583  0.7214 -0.7062 -0.4010
19484TIP3    H179867   2.242   5.951   3.609  0.0221  0.9994  3.4969
19484TIP3    H279868   2.385   5.999   3.598  0.4708 -0.8172  0.9686
19485TIP3   OH279869   3.523   0.910  16.749 -0.2073 -0.0101 -0.0466
19485TIP3    H179870   3.496   0.834  16.801  2.1673 -1.6980 -1.1832
19485TIP3    H279871   3.499   0.985  16.802 -0.2399 -1.6137  2.2998
19486TIP3   OH279872   0.662   4.637  16.322 -0.1455  0.1062  0.3546
19486TIP3    H179873   0.739   4.598  16.362  0.4822 -1.6377 -2.3563
19486TIP3    H279874   0.643   4.579  16.247 -2.3622  2.1101 -0.6839
19487TIP3   OH279875   5.395   0.172   5.141 -0.0612  0.6353 -0.0228
19487TIP3    H179876   5.381   0.176   5.046 -0.7033 -1.8980 -0.0552
19487TIP3    H279877   5.317   0.211   5.179 -0.5196  0.2148 -0.5194
19488TIP3   OH279878   4.021   3.550  12.661  0.6479  0.8616  0.2558
19488TIP3    H179879   3.927   3.558  12.649  0.4877 -0.6467  0.4051
19488TIP3    H279880   4.031   3.505  12.745  1.3258 -3.2315 -1.8647
19489TIP3   OH279881   6.579   5.915  10.502  0.2319  0.2573 -0.5297
19489TIP3    H179882   6.521   5.840  10.517  2.3858 -1.7604 -1.8832
19489TIP3    H279883   6.659   5.894  10.551  1.2647  1.1304 -1.8025
19490TIP3   OH279884   2.236   4.434   4.369  0.1451  1.1012  0.0757
19490TIP3    H179885   2.267   4.519   4.338 -0.0723  1.1815  0.0753
19490TIP3    H279886   2.145   4.430   4.339  0.1466  0.8839  0.1059
19491TIP3   OH279887   1.679   2.631  15.078  0.6779  0.4109  0.0474
19491TIP3    H179888   1.623   2.587  15.143  0.8648  0.5561  0.3051
19491TIP3    H279889   1.645   2.601  14.994  1.0697 -0.5630  0.2269
19492TIP3   OH279890   2.374   1.539  17.065  0.1590  0.1094 -0.2330
19492TIP3    H179891   2.424   1.519  16.986  0.4855  3.1340 -0.8198
19492TIP3    H279892   2.434   1.591  17.119 -0.5387 -0.7484  1.4153
19493TIP3   OH279893   2.884   3.055   1.219  0.3021 -0.1683 -1.0583
19493TIP3    H179894   2.932   2.987   1.267  1.3201  0.2680 -1.4387
19493TIP3    H279895   2.906   3.136   1.265 -0.4450 -0.0275 -0.9560
19494TIP3   OH279896   0.746   3.503  10.647 -0.1209  0.3814 -0.4584
19494TIP3    H179897   0.813   3.520  10.713  0.7693  0.1774 -1.2919
19494TIP3    H279898   0.706   3.588  10.631 -0.5053  0.3923  0.5037
19495TIP3   OH279899   3.152   4.291  12.960 -0.6828  0.4071  0.9743
19495TIP3    H179900   3.173   4.296  13.053 -0.8267  0.8130  0.9848
19495TIP3    H279901   3.234   4.262  12.919 -0.7185 -0.1051  1.2638
19496TIP3   OH279902   3.853   0.078   2.056  0.1229  0.7546  0.0492
19496TIP3    H179903   3.796   0.004   2.077 -0.1158  0.9715  0.1758
19496TIP3    H279904   3.941   0.040   2.048  0.1492  0.5914  0.9999
19497TIP3   OH279905   1.465   0.057  17.120  0.1117 -0.1313  0.0846
19497TIP3    H179906   1.560   0.067  17.111  0.1654 -0.3284  0.4452
19497TIP3    H279907   1.453   0.013  17.204 -0.2906 -0.2722 -0.0473
19498TIP3   OH279908   3.957   4.548  13.302 -0.2099 -0.0458 -0.0841
19498TIP3    H179909   3.884   4.607  13.285 -0.7358 -0.4794  0.6358
19498TIP3    H279910   4.022   4.570  13.235  0.1254  2.2094  0.9083
19499TIP3   OH279911   2.018   5.147  13.361 -0.7629 -0.9620  0.0104
19499TIP3    H179912   1.924   5.158  13.376 -1.1094 -1.9399 -1.3950
19499TIP3    H279913   2.024   5.083  13.290  1.0010 -1.8149  0.9165
19500TIP3   OH279914   6.158   2.884  16.483  0.1525 -0.3037  0.4900
19500TIP3    H179915   6.212   2.827  16.429  2.6033  2.7875 -0.5104
19500TIP3    H279916   6.075   2.892  16.436  0.5735 -1.3186 -0.4329
19501TIP3   OH279917   1.047   1.357   2.836 -0.4510  0.3007 -0.0802
19501TIP3    H179918   0.979   1.384   2.897 -1.0185  0.1412 -0.6366
19501TIP3    H279919   1.004   1.296   2.776 -0.0507  0.8772 -0.9779
19502TIP3   OH279920   6.399   2.971   6.255 -1.2220  0.2119 -0.4100
19502TIP3    H179921   6.321   2.940   6.209 -2.2931  1.7873  0.3021
19502TIP3    H279922   6.417   2.903   6.320 -0.8963 -1.0478 -1.7841
19503TIP3   OH279923   6.020   6.417  17.220  0.7244 -0.4337 -1.3357
19503TIP3    H179924   5.957   6.368  17.273  0.0393 -1.6653 -3.2373
19503TIP3    H279925   6.052   6.486  17.279 -0.2842 -1.5205  0.5451
19504TIP3   OH279926   1.409   0.219  16.263 -0.1092 -0.3333 -0.6870
19504TIP3    H179927   1.412   0.125  16.284  1.0984 -0.1109  0.2046
19504TIP3    H279928   1.500   0.247  16.268 -0.4668  0.8850 -0.9786
19505TIP3   OH279929   0.525   6.703  14.197  0.2118  0.5069 -0.2123
19505TIP3    H179930   0.561   6.740  14.277  0.4941 -0.2575  0.0199
19505TIP3    H279931   0.475   6.627  14.226 -0.9204  1.0807 -0.6109
19506TIP3   OH279932   1.856   1.680  15.436 -0.3258 -0.2223 -0.5179
19506TIP3    H179933   1.792   1.738  15.478  0.1005  0.4081 -0.7287
19506TIP3    H279934   1.871   1.719  15.350 -1.3030 -1.5898 -1.3311
19507TIP3   OH279935   1.958   6.710  16.290  0.7040  0.5369 -0.6614
19507TIP3    H179936   1.962   6.615  16.285  0.6066  0.4207  1.0320
19507TIP3    H279937   1.970   6.730  16.383 -0.4563  2.1201 -0.8161
19508TIP3   OH279938   1.625   5.972   1.291  0.4400  0.3993  0.1465
19508TIP3    H179939   1.587   6.050   1.251 -3.1432 -0.1394  2.3049
19508TIP3    H279940   1.715   5.999   1.314  0.0237  3.1222 -1.1572
19509TIP3   OH279941   3.758   1.181   6.207  0.5553 -0.3815  0.3395
19509TIP3    H179942   3.795   1.205   6.122  1.4372  0.0758  0.8464
19509TIP3    H279943   3.685   1.123   6.185 -0.0930  0.8401 -0.7810
19510TIP3   OH279944   2.286   3.457   3.247 -0.4568 -0.0444 -0.1886
19510TIP3    H179945   2.274   3.548   3.221 -2.3733  0.0737  1.0727
19510TIP3    H279946   2.346   3.421   3.181  1.0775  2.3587 -0.1529
19511TIP3   OH279947   0.025   2.365   5.210  0.0580  0.0686  0.0830
19511TIP3    H179948  -0.069   2.343   5.211  0.0430  0.1905  1.0889
19511TIP3    H279949   0.063   2.303   5.148 -0.8915  0.8435 -1.3115
19512TIP3   OH279950   5.768   1.545   5.862 -0.0502  0.7825 -0.0797
19512TIP3    H179951   5.792   1.529   5.771 -1.2322 -0.1855 -0.2338
19512TIP3    H279952   5.747   1.459   5.897 -0.2875  1.2333  0.9059
19513TIP3   OH279953   5.042   6.030  10.784  0.1109 -0.1235  0.4096
19513TIP3    H179954   5.126   5.998  10.751  0.5941  0.9070  0.6068
19513TIP3    H279955   5.065   6.078  10.864 -0.6774  0.1154  0.4938
19514TIP3   OH279956   6.582   3.069   2.944 -0.0292  0.5397 -0.3112
19514TIP3    H179957   6.581   3.158   2.979 -1.6869  0.0547  0.9536
19514TIP3    H279958   6.577   3.012   3.021 -1.8639 -0.5809 -1.2021
19515TIP3   OH279959   2.718   1.614   5.544 -0.0369 -0.8993 -0.4116
19515TIP3    H179960   2.752   1.526   5.560  0.3873 -0.4612  1.2015
19515TIP3    H279961   2.786   1.657   5.494  1.0966 -0.5541  1.3832
19516TIP3   OH279962   5.891   5.743  17.116 -0.0937 -0.4879  0.1490
19516TIP3    H179963   5.949   5.689  17.170 -0.5160 -0.2283  0.8721
19516TIP3    H279964   5.929   5.831  17.122 -0.5641 -0.3148  0.6344
19517TIP3   OH279965   0.295   1.733  13.875  0.9264 -0.2577  0.1392
19517TIP3    H179966   0.215   1.696  13.914 -0.6462  1.7887 -1.0502
19517TIP3    H279967   0.327   1.664  13.817 -0.1288 -1.0020  0.4165
19518TIP3   OH279968   2.065   5.416  16.691 -0.3766 -0.0713 -0.3637
19518TIP3    H179969   2.124   5.397  16.617  0.0270  0.0026 -0.0660
19518TIP3    H279970   2.121   5.461  16.755  0.0935 -2.9438  1.3484
19519TIP3   OH279971   2.991   2.296  14.523  0.2958 -0.3870  0.2224
19519TIP3    H179972   2.997   2.214  14.474 -0.8348 -1.1185  1.2830
19519TIP3    H279973   3.014   2.272  14.613 -0.3279  0.3975  0.5975
19520TIP3   OH279974   5.539   0.056   0.504  0.5952 -0.1398 -0.6727
19520TIP3    H179975   5.576  -0.030   0.486  0.6215 -0.1064 -0.7795
19520TIP3    H279976   5.597   0.093   0.571 -0.2976 -0.8096  0.4777
19521TIP3   OH279977   3.133   5.273  14.683 -0.2324  0.2714  0.2373
19521TIP3    H179978   3.110   5.212  14.752 -3.6245  0.2893 -0.7596
19521TIP3    H279979   3.174   5.347  14.728  1.1080 -1.3811  1.7668
19522TIP3   OH279980   1.937   3.751   2.156 -0.4026 -0.3659  0.4316
19522TIP3    H179981   1.999   3.682   2.180  0.3108  0.2818  0.4689
19522TIP3    H279982   1.991   3.829   2.148 -1.1311  0.0792 -0.1287
19523TIP3   OH279983   4.472   5.517  14.255 -0.8103  0.2672 -0.2186
19523TIP3    H179984   4.551   5.561  14.285 -1.3732  1.2639 -0.1690
19523TIP3    H279985   4.416   5.515  14.333 -0.7531 -0.6221 -0.1991
19524TIP3   OH279986   3.074   0.574  17.158 -0.0285 -0.5922 -0.1874
19524TIP3    H179987   3.101   0.507  17.221  1.9815 -0.3752 -0.7651
19524TIP3    H279988   3.075   0.529  17.073  0.5953 -0.0239 -0.4839
19525TIP3   OH279989   3.684   1.693   0.030  0.5568 -0.0356  0.2741
19525TIP3    H179990   3.653   1.778  -0.001 -1.1679 -0.5893  0.4308
19525TIP3    H279991   3.692   1.704   0.125  1.7262  0.3694  0.1406
19526TIP3   OH279992   4.769   6.686  12.352  0.4111  0.4879  0.4781
19526TIP3    H179993   4.816   6.608  12.324  0.3794  0.3880  0.7052
19526TIP3    H279994   4.792   6.753  12.287 -1.1052 -0.2324 -0.8241
19527TIP3   OH279995   1.077   1.896   1.882  0.3386 -0.0934  0.2125
19527TIP3    H179996   1.091   1.967   1.819  1.8996 -0.3825  0.2152
19527TIP3    H279997   0.991   1.914   1.920 -0.2865  0.4944 -1.4589
19528TIP3   OH279998   6.722   2.231  14.840 -0.2971 -0.3002  0.2910
19528TIP3    H179999   6.634   2.269  14.850 -0.7647 -0.9881 -1.1119
19528TIP3    H280000   6.712   2.163  14.773  0.9710 -1.5117  1.3023
19529TIP3   OH280001   5.774   3.915   4.295 -0.1894 -0.3450 -0.3591
19529TIP3    H180002   5.752   3.873   4.212  0.6625  1.1190 -1.3436
19529TIP3    H280003   5.855   3.963   4.277 -0.2938  0.4407  1.1687
19530TIP3   OH280004   2.176   5.076   4.123 -0.1860  0.7243 -0.1804
19530TIP3    H180005   2.097   5.070   4.070  0.2320 -1.8140 -0.6073
19530TIP3    H280006   2.240   5.023   4.075  1.5156  2.0138  0.6120
19531TIP3   OH280007   3.002   5.077  14.299  0.5287  0.0131 -0.1068
19531TIP3    H180008   2.954   5.088  14.382 -1.6561 -0.4644 -1.2843
19531TIP3    H280009   3.066   5.009  14.318 -0.1287 -0.2871  1.1206
19532TIP3   OH280010   5.854   6.108  13.357 -0.0498  0.1253 -0.0378
19532TIP3    H180011   5.786   6.057  13.314  1.5419 -1.2167 -1.0415
19532TIP3    H280012   5.919   6.122  13.288  1.9760 -0.9965  1.5983
19533TIP3   OH280013   3.912   3.483   4.344  0.0653  0.5541 -0.0677
19533TIP3    H180014   4.003   3.510   4.336  0.5465 -1.2701 -1.0533
19533TIP3    H280015   3.916   3.402   4.395 -0.9471  0.1148 -0.6828
19534TIP3   OH280016   2.300   2.495   4.372 -0.1561  0.0851  0.0351
19534TIP3    H180017   2.302   2.543   4.454  1.7568 -1.4956  0.9589
19534TIP3    H280018   2.214   2.515   4.334 -0.5615  1.8230  1.7978
19535TIP3   OH280019   4.436   1.927  14.295 -0.0363  0.5511  0.2519
19535TIP3    H180020   4.382   1.850  14.282 -1.1799  1.1246  1.4308
19535TIP3    H280021   4.384   1.983  14.353  1.4706  1.4765  0.7471
19536TIP3   OH280022   1.749   1.261   5.292  0.2115 -0.2055 -0.3111
19536TIP3    H180023   1.792   1.326   5.236  0.1084  0.8952  0.8399
19536TIP3    H280024   1.816   1.237   5.356 -1.0666  2.1403  2.0035
19537TIP3   OH280025   4.919   4.241   2.890 -0.5661  0.3373 -0.5025
19537TIP3    H180026   4.925   4.295   2.812 -0.3865  0.2204 -0.5701
19537TIP3    H280027   4.841   4.187   2.876 -0.3195  0.0489 -0.7716
19538TIP3   OH280028   3.303   6.238   0.173 -0.2179 -0.0265  0.5185
19538TIP3    H180029   3.323   6.200   0.259  0.4517 -0.1626  0.3098
19538TIP3    H280030   3.243   6.310   0.192  0.3730  0.3093  1.1692
19539TIP3   OH280031   5.136   3.386   0.741  0.1547  0.3663  0.0693
19539TIP3    H180032   5.041   3.394   0.750 -0.2788 -2.1999 -1.6457
19539TIP3    H280033   5.165   3.472   0.711 -1.8838  0.6218 -1.2524
19540TIP3   OH280034   2.318   1.385  15.420  0.1245  0.3017 -0.7982
19540TIP3    H180035   2.303   1.308  15.475  0.1263  0.3325 -0.7540
19540TIP3    H280036   2.301   1.354  15.331  0.3854  0.1847 -0.8057
19541TIP3   OH280037   0.873   4.416   0.002  0.2948  0.0339 -0.3925
19541TIP3    H180038   0.823   4.363  -0.060  1.0841 -0.6454 -0.4571
19541TIP3    H280039   0.964   4.389  -0.012  0.6582  1.1327 -0.1552
19542TIP3   OH280040   5.461   3.897   2.618  0.9042 -0.2087  0.6165
19542TIP3    H180041   5.442   3.987   2.592  1.2445 -0.1559  0.5557
19542TIP3    H280042   5.478   3.902   2.712 -0.5517 -0.4336  0.9034
19543TIP3   OH280043   0.968   5.659  16.292 -0.2459  0.4969  0.1437
19543TIP3    H180044   0.973   5.749  16.258 -1.5312  0.0318 -1.3416
19543TIP3    H280045   0.998   5.605  16.219  1.1017 -0.2642  1.2415
19544TIP3   OH280046   0.587   4.664  12.175  0.0859 -0.2883 -0.2493
19544TIP3    H180047   0.605   4.718  12.098  1.7247 -0.4670 -0.0157
19544TIP3    H280048   0.635   4.582  12.158  0.6979 -0.2066  1.0927
19545TIP3   OH280049   5.911   6.432   0.428  0.1806 -0.0806  0.2946
19545TIP3    H180050   5.935   6.365   0.492  0.3096 -1.0674 -0.7862
19545TIP3    H280051   5.980   6.498   0.435  0.6435 -0.5998  0.5739
19546TIP3   OH280052   6.006   5.776  14.251  0.3838  0.5894  0.2708
19546TIP3    H180053   6.087   5.734  14.280 -0.7193 -1.6831  0.0953
19546TIP3    H280054   5.963   5.711  14.195 -0.0772  2.9229 -2.2079
19547TIP3   OH280055   6.522   0.761  14.856 -0.3612  0.1972 -0.3045
19547TIP3    H180056   6.469   0.736  14.932 -1.0720 -0.0597 -0.8805
19547TIP3    H280057   6.471   0.829  14.812  0.4900  1.0240 -0.0336
19548TIP3   OH280058   2.612   3.146   5.649  0.2607  0.5017 -0.1105
19548TIP3    H180059   2.575   3.058   5.656  0.4010  0.4919  0.5349
19548TIP3    H280060   2.590   3.188   5.732  0.2935  1.0389 -0.3709
19549TIP3   OH280061   6.076   3.817  11.442 -0.3042  0.5372 -0.3363
19549TIP3    H180062   6.141   3.747  11.455  1.1139  2.2357  2.0923
19549TIP3    H280063   6.066   3.823  11.347  1.8633 -0.9052 -0.6943
19550TIP3   OH280064   0.133   2.993  16.339 -0.4567  0.4871  0.2487
19550TIP3    H180065   0.216   2.959  16.305 -0.6079  0.1858  0.1818
19550TIP3    H280066   0.079   2.915  16.351 -1.3411  0.8296 -1.3427
19551TIP3   OH280067   5.992   5.870   5.803  0.8440  0.1728 -0.2303
19551TIP3    H180068   6.088   5.867   5.802  0.8649  0.8849 -0.4575
19551TIP3    H280069   5.966   5.809   5.734  1.1249 -0.0999 -0.1023
19552TIP3   OH280070   1.349   2.186  11.361 -0.4130 -0.1576 -0.2510
19552TIP3    H180071   1.387   2.115  11.414 -1.1010  0.0273  0.4933
19552TIP3    H280072   1.255   2.173  11.367 -0.5001  0.0515 -1.1851
19553TIP3   OH280073   1.235   3.399  12.937 -0.4656 -0.0720 -0.6381
19553TIP3    H180074   1.183   3.464  12.890 -0.1379 -0.0602 -0.9884
19553TIP3    H280075   1.196   3.315  12.913 -0.2078 -0.0765 -1.0582
19554TIP3   OH280076   3.462   2.839   0.686  0.3599 -0.2049  0.8122
19554TIP3    H180077   3.482   2.884   0.767 -0.8076  1.6901  0.0942
19554TIP3    H280078   3.453   2.909   0.621 -0.3637 -1.5459 -0.5819
19555TIP3   OH280079   1.065   6.136  16.902 -0.8276 -0.0953 -1.4949
19555TIP3    H180080   1.015   6.165  16.825 -0.7058  0.5997 -1.3186
19555TIP3    H280081   1.044   6.200  16.970 -1.1030 -0.8301 -0.8813
19556TIP3   OH280082   4.248   5.687   3.692  0.7723 -0.0620  0.6468
19556TIP3    H180083   4.170   5.681   3.637  1.3926 -0.4096 -0.2021
19556TIP3    H280084   4.306   5.618   3.659  0.1418 -1.9563  3.3593
19557TIP3   OH280085   3.609   3.483   4.961  0.2194  0.4179  0.5804
19557TIP3    H180086   3.542   3.507   4.897  0.3137  0.9765  0.6812
19557TIP3    H280087   3.681   3.544   4.944  1.2715 -1.0781 -0.4319
19558TIP3   OH280088   0.805   4.487  13.394  0.1993  0.2377  0.4132
19558TIP3    H180089   0.842   4.455  13.312 -0.3075  0.5631  0.0576
19558TIP3    H280090   0.881   4.503  13.450  0.4745 -1.3170  0.5037
19559TIP3   OH280091   5.136   5.398  16.459 -0.2728 -0.4227 -0.8256
19559TIP3    H180092   5.223   5.419  16.427 -0.1108 -1.3703 -1.0303
19559TIP3    H280093   5.145   5.394  16.554 -0.0895 -0.5271 -0.8477
19560TIP3   OH280094   6.734   2.461   2.058 -0.1709 -0.0748 -0.0196
19560TIP3    H180095   6.738   2.452   1.963  1.9804  3.4905 -0.3745
19560TIP3    H280096   6.819   2.428   2.088 -0.0629  0.6307  0.4601
19561TIP3   OH280097   5.338   2.179   2.120  0.0305  0.1090  0.8460
19561TIP3    H180098   5.373   2.090   2.133 -0.6024 -0.5512 -1.6565
19561TIP3    H280099   5.263   2.184   2.180 -0.5322 -1.4378  0.3084
19562TIP3   OH280100   5.043   1.451  12.862  0.7239 -0.5641  0.3261
19562TIP3    H180101   5.024   1.449  12.768 -1.0392 -1.1080  0.6674
19562TIP3    H280102   5.104   1.378  12.875  1.0724 -0.4134 -0.4049
19563TIP3   OH280103   1.881   0.322  13.544 -0.3936  0.1040  0.2715
19563TIP3    H180104   1.804   0.373  13.571 -0.4617  0.0848  0.1113
19563TIP3    H280105   1.933   0.383  13.492 -1.0650 -0.3501 -0.9375
19564TIP3   OH280106   1.361   2.751   2.217  0.7602  0.2773 -0.5167
19564TIP3    H180107   1.441   2.745   2.164  1.1475 -0.2082  0.1103
19564TIP3    H280108   1.291   2.726   2.156  1.4414 -2.5068 -0.2654
19565TIP3   OH280109   4.571   4.496   2.264  0.5281  0.5638 -0.3796
19565TIP3    H180110   4.549   4.589   2.275  1.6079  1.1511 -2.8043
19565TIP3    H280111   4.487   4.454   2.245  0.4418  1.6008 -2.4730
19566TIP3   OH280112   6.054   6.639   5.265  0.0771 -0.1464 -0.0410
19566TIP3    H180113   5.977   6.682   5.302  0.4625  0.3215  0.2135
19566TIP3    H280114   6.034   6.630   5.172 -0.3472 -0.1573  0.0516
19567TIP3   OH280115   2.793   6.085   0.667  0.3961  0.3359 -0.0269
19567TIP3    H180116   2.859   6.105   0.733 -0.0700 -0.1482  0.5830
19567TIP3    H280117   2.779   5.991   0.674 -0.6681  0.5038  0.1314
19568TIP3   OH280118   0.214   3.865  13.849 -0.2902 -0.1536  0.0472
19568TIP3    H180119   0.184   3.954  13.828 -0.9682 -0.0350  1.5098
19568TIP3    H280120   0.134   3.812  13.850 -0.6457  0.3020  4.6674
19569TIP3   OH280121   4.324   3.172  16.077  0.2296 -0.1074 -0.2094
19569TIP3    H180122   4.263   3.218  16.134  1.5417  0.3660  0.8504
19569TIP3    H280123   4.291   3.082  16.074 -2.2671  0.8215 -2.1748
19570TIP3   OH280124   5.730   4.780  16.441  0.3732  0.5080 -0.0387
19570TIP3    H180125   5.641   4.804  16.468 -0.6093 -1.1582 -1.6194
19570TIP3    H280126   5.755   4.709  16.500  0.1625  0.1692 -0.3503
19571TIP3   OH280127   1.059   0.395  10.890 -0.3960  0.1849 -0.0821
19571TIP3    H180128   1.151   0.401  10.864 -0.3825  2.5102  0.3881
19571TIP3    H280129   1.035   0.485  10.913 -2.0273 -0.8534  2.4315
19572TIP3   OH280130   3.935   3.637   2.666 -0.1391 -0.1751 -0.0871
19572TIP3    H180131   3.870   3.707   2.659  0.4937  0.6115  1.7352
19572TIP3    H280132   3.882   3.558   2.682 -0.6546  0.5248  1.8175
19573TIP3   OH280133   6.704   6.425   5.066  0.5526  0.1608 -0.0109
19573TIP3    H180134   6.782   6.371   5.079 -0.1297 -0.4106  1.8297
19573TIP3    H280135   6.681   6.456   5.153 -1.3749  0.1775 -0.4926
19574TIP3   OH280136   3.759   4.782  10.946  0.5659 -0.2619 -0.7352
19574TIP3    H180137   3.672   4.794  10.983  0.6154 -1.4055 -0.2103
19574TIP3    H280138   3.780   4.690  10.963  1.9993  0.0759 -0.5733
19575TIP3   OH280139   3.944   5.580   1.244  0.4358 -0.1060  0.5120
19575TIP3    H180140   4.014   5.523   1.276 -0.6437 -1.7210  0.0735
19575TIP3    H280141   3.921   5.634   1.320  1.5927 -0.1118  0.8832
19576TIP3   OH280142   1.979   1.179  15.803 -0.1598 -0.0786 -0.0886
19576TIP3    H180143   1.946   1.178  15.893 -0.0832 -0.3043 -0.0643
19576TIP3    H280144   1.917   1.235  15.756 -0.0481  0.2591  0.1618
19577TIP3   OH280145   5.773   0.861  15.540 -0.0827 -0.3375 -0.1529
19577TIP3    H180146   5.747   0.949  15.514 -2.3431 -0.8474  0.2654
19577TIP3    H280147   5.781   0.865  15.635 -0.0192 -0.5487 -0.1469
19578TIP3   OH280148   3.684   5.978   5.241 -0.5702  0.7143  0.2874
19578TIP3    H180149   3.595   6.003   5.265 -1.1347  0.5177 -1.4767
19578TIP3    H280150   3.700   5.897   5.290 -1.7147  0.2647 -0.0558
19579TIP3   OH280151   6.305   4.279  14.281 -0.6057 -0.5386 -0.1272
19579TIP3    H180152   6.324   4.188  14.305  0.3997 -0.2600  0.1627
19579TIP3    H280153   6.214   4.277  14.252 -1.1854 -1.2912  1.6377
19580TIP3   OH280154   5.669   3.901   2.454 -0.9588 -0.3722 -0.6333
19580TIP3    H180155   5.698   3.816   2.421 -2.8431 -0.6253 -1.7172
19580TIP3    H280156   5.587   3.882   2.500 -0.5412  0.6256  0.5376
19581TIP3   OH280157   2.423   3.034  14.529  0.5112  0.5273  0.0431
19581TIP3    H180158   2.360   3.068  14.466 -1.1193 -0.5870  1.0388
19581TIP3    H280159   2.393   2.945  14.548  2.7325 -0.2548  0.0838
19582TIP3   OH280160   0.238   5.027  15.815  0.0971  0.3419 -0.2189
19582TIP3    H180161   0.308   5.043  15.878 -0.3312 -1.6711  0.8385
19582TIP3    H280162   0.157   5.050  15.861 -0.1375 -0.1104 -0.3908
19583TIP3   OH280163   6.388   0.348   6.850 -0.4849 -0.2360 -0.0664
19583TIP3    H180164   6.342   0.334   6.767  0.4582  0.7307 -0.7528
19583TIP3    H280165   6.367   0.438   6.875  0.4716 -0.0195 -0.0330
19584TIP3   OH280166   2.468   6.318   2.036  0.0061 -0.0601  0.1551
19584TIP3    H180167   2.517   6.266   1.971 -1.0322 -0.4036 -0.3739
19584TIP3    H280168   2.463   6.406   1.998  1.5747  0.3781  0.9477
19585TIP3   OH280169   2.168   5.660  15.770  0.6728  0.0951 -0.2303
19585TIP3    H180170   2.103   5.600  15.807  0.1308  1.9592  1.9988
19585TIP3    H280171   2.133   5.684  15.684 -1.6561  1.1203  0.9584
19586TIP3   OH280172   2.617   4.797   4.621  0.3165  0.1077  0.1030
19586TIP3    H180173   2.660   4.801   4.535  0.4253 -0.2208  0.1443
19586TIP3    H280174   2.539   4.744   4.606  0.1831  0.2901  0.1428
19587TIP3   OH280175   6.774   5.208  12.214  0.2875 -0.1905 -0.4208
19587TIP3    H180176   6.721   5.192  12.292 -2.1502  0.4919 -1.8602
19587TIP3    H280177   6.757   5.132  12.158  1.1408 -0.1510 -0.7269
19588TIP3   OH280178   1.265   3.210   5.786 -0.1195  0.6514  0.0416
19588TIP3    H180179   1.313   3.145   5.837  0.3637  0.4102 -0.7071
19588TIP3    H280180   1.192   3.235   5.842 -0.5226 -0.8143  0.1880
19589TIP3   OH280181   2.501   5.278  15.761  0.7890 -0.8481  0.2031
19589TIP3    H180182   2.472   5.310  15.676 -0.9037  0.4727  1.2338
19589TIP3    H280183   2.597   5.285  15.759  0.6069  2.0525 -0.5119
19590TIP3   OH280184   2.558   3.850  13.723  0.3820 -0.1135 -0.0848
19590TIP3    H180185   2.495   3.921  13.736  0.2049 -0.7667  3.0920
19590TIP3    H280186   2.643   3.888  13.747  0.4048 -0.7451  0.8393
19591TIP3   OH280187   5.821   1.373   0.376  0.0827 -0.3569 -0.1909
19591TIP3    H180188   5.914   1.392   0.392 -0.0798  0.5600 -0.3143
19591TIP3    H280189   5.815   1.364   0.281  0.0241 -0.3347 -0.1891
19592TIP3   OH280190   3.872   3.535   1.373 -0.2379  0.1844 -0.1840
19592TIP3    H180191   3.793   3.517   1.324  0.2835  1.6546 -1.5985
19592TIP3    H280192   3.902   3.449   1.403 -2.6568 -0.3356  0.8942
19593TIP3   OH280193   3.088   6.660  13.173 -0.1947 -0.1046 -0.4032
19593TIP3    H180194   3.136   6.685  13.094 -0.7525  1.0935 -0.3692
19593TIP3    H280195   3.057   6.742  13.210 -0.8711 -0.7388  0.4815
19594TIP3   OH280196   5.443   6.036  14.363 -0.3151  0.0900 -0.2812
19594TIP3    H180197   5.465   6.084  14.443 -1.6446 -0.4092  0.3881
19594TIP3    H280198   5.507   6.067  14.299  0.5856  0.7083  0.8849
19595TIP3   OH280199   5.947   2.752  13.385  0.3360 -0.4271 -0.3822
19595TIP3    H180200   6.024   2.697  13.395  0.5357 -0.5495 -2.3017
19595TIP3    H280201   5.897   2.712  13.313 -1.2610 -0.0626  0.4821
19596TIP3   OH280202   2.108   2.089   0.216 -0.3123 -0.5528 -0.0218
19596TIP3    H180203   2.085   2.140   0.138  0.9867 -0.7930 -0.5697
19596TIP3    H280204   2.031   2.095   0.272 -0.5037  1.3614 -0.4313
19597TIP3   OH280205   1.444   0.061  11.691 -0.1563  0.6212 -0.4226
19597TIP3    H180206   1.539   0.066  11.698 -0.0748 -0.4113 -0.6971
19597TIP3    H280207   1.424   0.110  11.611  0.4551 -1.8067 -2.1168
19598TIP3   OH280208   0.594   0.408   5.443  0.3274 -0.3625 -0.5543
19598TIP3    H180209   0.593   0.318   5.412  0.3800 -0.1391 -1.2237
19598TIP3    H280210   0.515   0.417   5.496 -0.4451 -0.3925 -1.6765
19599TIP3   OH280211   0.483   1.048  12.406  0.0005  0.3813 -0.0534
19599TIP3    H180212   0.510   1.125  12.455  1.6540  0.5121 -1.1491
19599TIP3    H280213   0.530   1.054  12.323  0.0987 -1.7651 -0.1883
19600TIP3   OH280214   5.406   0.526   4.847 -0.7352 -0.0455  0.5455
19600TIP3    H180215   5.471   0.594   4.828 -0.0260 -0.5477  1.1425
19600TIP3    H280216   5.423   0.501   4.938  1.0027 -3.1387 -0.5733
19601TIP3   OH280217   6.212   2.623   4.066  0.3355 -0.0095 -0.6112
19601TIP3    H180218   6.165   2.702   4.093  0.2185  0.1204 -1.1895
19601TIP3    H280219   6.195   2.559   4.136  1.1482  0.7440  0.2991
19602TIP3   OH280220   0.872   3.344  16.185  0.2987 -0.3738  0.5569
19602TIP3    H180221   0.857   3.254  16.156  0.6926 -0.5917  1.0241
19602TIP3    H280222   0.934   3.380  16.121  1.9952 -1.1861  1.7056
19603TIP3   OH280223   2.305   0.567   5.521  0.5353 -0.1919  0.4431
19603TIP3    H180224   2.216   0.541   5.497 -0.1229 -0.4102  2.9496
19603TIP3    H280225   2.312   0.545   5.614  2.1367  2.7576  1.0792
19604TIP3   OH280226   2.075   5.038   1.020  0.4111  0.0990 -0.2419
19604TIP3    H180227   2.091   4.947   1.044 -0.9181  0.2076  1.0894
19604TIP3    H280228   2.026   5.033   0.938 -1.0971 -0.4261  0.6822
19605TIP3   OH280229   2.696   1.315  15.927 -0.1128 -0.2733  0.2527
19605TIP3    H180230   2.606   1.288  15.910  0.2780 -0.1845 -2.1026
19605TIP3    H280231   2.690   1.371  16.004 -2.1733  0.2283 -0.2421
19606TIP3   OH280232   5.950   6.401   0.765  0.4373  0.5244  0.6272
19606TIP3    H180233   5.944   6.493   0.739  0.5747 -0.3222 -2.5910
19606TIP3    H280234   5.870   6.361   0.732  1.4450 -0.9683 -0.0668
19607TIP3   OH280235   2.570   4.800   0.267 -0.2388  0.6625 -0.7489
19607TIP3    H180236   2.543   4.767   0.182  2.5416  0.1590 -1.4557
19607TIP3    H280237   2.657   4.837   0.253  0.4730  0.1191  1.9672
19608TIP3   OH280238   4.290   3.852  11.825 -0.2081 -0.4921 -0.0705
19608TIP3    H180239   4.215   3.874  11.881 -0.4520 -0.1034 -0.5414
19608TIP3    H280240   4.263   3.880  11.737  1.4103  1.8845  0.1445
19609TIP3   OH280241   0.729   0.263   3.411 -0.5640  0.0611  0.0453
19609TIP3    H180242   0.722   0.358   3.423  1.7182  0.2066  0.4437
19609TIP3    H280243   0.809   0.252   3.359 -1.0386 -1.6203 -0.3426
19610TIP3   OH280244   2.450   2.422  16.918  0.5783 -0.0475 -0.3143
19610TIP3    H180245   2.444   2.392  17.009 -0.9933  0.6193 -0.1900
19610TIP3    H280246   2.510   2.497  16.921  1.2619 -0.5960  0.0143
19611TIP3   OH280247   4.378   0.641   0.676 -0.0116 -0.1685  0.6552
19611TIP3    H180248   4.392   0.658   0.583 -1.4158 -0.4858  0.3615
19611TIP3    H280249   4.456   0.593   0.704 -0.1444 -1.2291 -0.6832
19612TIP3   OH280250   6.141   2.837   4.510  0.2177  0.7892 -0.1530
19612TIP3    H180251   6.218   2.822   4.565 -0.4455 -1.8289  0.1075
19612TIP3    H280252   6.101   2.917   4.546  2.3788  1.7479  0.1602
19613TIP3   OH280253   6.043   4.315  12.301 -0.0699 -0.5268  0.2260
19613TIP3    H180254   5.985   4.330  12.226  0.7175  0.6322 -0.1662
19613TIP3    H280255   6.033   4.222  12.321 -2.1295 -0.3345  0.2135
19614TIP3   OH280256   3.091   4.284  13.795  0.4964  0.3048  0.3668
19614TIP3    H180257   3.044   4.306  13.875  1.6679  0.9986  0.8851
19614TIP3    H280258   3.059   4.197  13.771 -0.0116  0.1728  1.4820
19615TIP3   OH280259   6.452   2.027   3.146 -0.3973  0.2062  0.8341
19615TIP3    H180260   6.414   2.075   3.220  1.4024 -0.6661  2.3667
19615TIP3    H280261   6.541   2.007   3.174 -0.4816 -2.2998 -0.5896
19616TIP3   OH280262   3.340   0.899   2.746 -0.4902  0.2289  0.5688
19616TIP3    H180263   3.421   0.877   2.700 -0.4790  0.7472  0.3370
19616TIP3    H280264   3.367   0.965   2.810 -0.5297 -0.4015  1.2315
19617TIP3   OH280265   2.616   6.193  17.089 -0.2880  0.2314 -0.1509
19617TIP3    H180266   2.626   6.185  17.184 -0.4409  2.6959  0.1086
19617TIP3    H280267   2.583   6.108  17.061 -1.2912 -0.1839  2.1531
19618TIP3   OH280268   0.715   3.969   0.267 -0.2368 -0.7101  0.5316
19618TIP3    H180269   0.787   4.030   0.280 -0.2416 -0.9356  1.6819
19618TIP3    H280270   0.636   4.019   0.286 -0.4819 -0.1359 -1.8806
19619TIP3   OH280271   0.346   4.805   3.654  0.6399 -0.0719 -0.4046
19619TIP3    H180272   0.351   4.754   3.573  1.6971  1.6258 -1.4267
19619TIP3    H280273   0.323   4.740   3.721  0.3076 -1.5957 -1.9477
19620TIP3   OH280274   4.892   6.737   2.160  0.4479  0.0687  0.1837
19620TIP3    H180275   4.987   6.738   2.147  0.3653 -2.0586 -0.8572
19620TIP3    H280276   4.856   6.764   2.075  0.1319  1.7708  0.8529
19621TIP3   OH280277   6.187   0.173   0.317 -0.0845  0.1742  0.2897
19621TIP3    H180278   6.185   0.178   0.221  0.1993  0.7850  0.3118
19621TIP3    H280279   6.124   0.239   0.345  0.0228  0.1727  0.5284
19622TIP3   OH280280   2.686   1.528   3.119 -0.3954  0.2897  0.5721
19622TIP3    H180281   2.728   1.483   3.192 -0.2359 -1.2462 -0.4326
19622TIP3    H280282   2.709   1.620   3.131  1.0624 -0.1772  1.4947
19623TIP3   OH280283   3.051   2.175  10.730 -0.6663 -0.1016  0.1089
19623TIP3    H180284   3.053   2.101  10.669 -1.8504  0.3445 -0.4960
19623TIP3    H280285   3.067   2.252  10.675  3.8374 -0.1324  1.2001
19624TIP3   OH280286   4.579   2.121   5.725 -0.3581  0.7867  0.3139
19624TIP3    H180287   4.659   2.088   5.764  0.0627  0.8169 -0.5015
19624TIP3    H280288   4.508   2.076   5.771  0.1442  0.3614  0.6676
19625TIP3   OH280289   3.014   6.251   1.749  0.0561  0.3207 -0.3257
19625TIP3    H180290   3.028   6.163   1.714  0.3013 -0.1242  0.8507
19625TIP3    H280291   2.937   6.243   1.805  2.0181  0.0140  2.4686
19626TIP3   OH280292   2.622   4.783   5.746 -0.1144 -0.0948 -0.3538
19626TIP3    H180293   2.650   4.851   5.685  3.2192 -0.1439  0.9970
19626TIP3    H280294   2.593   4.830   5.824  1.6561 -0.1316  0.3644
19627TIP3   OH280295   6.069   6.021   0.747  0.1327 -0.5426 -0.6426
19627TIP3    H180296   6.123   5.995   0.821 -0.5394  0.8551  0.3519
19627TIP3    H280297   5.981   6.031   0.783 -0.7571 -2.5331 -2.1978
19628TIP3   OH280298   2.826   5.027   1.325  0.2692 -0.2558 -0.4045
19628TIP3    H180299   2.755   5.046   1.265  0.0791  1.3025  0.2947
19628TIP3    H280300   2.795   5.058   1.410  1.3532 -0.5353  0.1050
19629TIP3   OH280301   0.953   3.175   5.541  0.1470  0.4804  0.1436
19629TIP3    H180302   0.934   3.215   5.625 -1.1874 -1.2936  0.7265
19629TIP3    H280303   0.940   3.245   5.477  1.9181  2.0303  1.4680
19630TIP3   OH280304   1.233   6.501  13.333  0.5042 -0.0768  0.7268
19630TIP3    H180305   1.159   6.511  13.393 -0.0479  0.7704 -0.0769
19630TIP3    H280306   1.310   6.498  13.390 -0.0060  0.7862  1.4679
19631TIP3   OH280307   1.877   4.005  16.771  0.2639  0.1531 -0.0793
19631TIP3    H180308   1.961   4.037  16.738  0.5490  0.3430  0.8153
19631TIP3    H280309   1.901   3.945  16.842 -0.3603  0.1797  0.1547
19632TIP3   OH280310   4.850   0.860  17.136 -0.1592 -0.1673  0.3710
19632TIP3    H180311   4.774   0.803  17.148  0.2666 -0.7776  0.1596
19632TIP3    H280312   4.864   0.860  17.041  2.5864 -3.2920  0.6974
19633TIP3   OH280313   3.003   6.169  16.195  0.1747 -0.0341 -0.1862
19633TIP3    H180314   2.935   6.106  16.170  0.7888 -0.6144 -0.4395
19633TIP3    H280315   3.085   6.120  16.184  0.6361  0.6909  0.0065
19634TIP3   OH280316   4.434   3.336   2.503  0.6551 -0.0716  0.4752
19634TIP3    H180317   4.489   3.405   2.467 -0.7108  0.3792 -0.7533
19634TIP3    H280318   4.363   3.326   2.441  0.6692 -2.3987  0.7665
19635TIP3   OH280319   0.267   3.251  11.898  0.3381 -0.6923 -0.6827
19635TIP3    H180320   0.267   3.276  11.805  1.5197 -0.1491 -0.5398
19635TIP3    H280321   0.296   3.160  11.898 -0.4070 -0.9370 -0.8999
19636TIP3   OH280322   1.792   5.820  12.605  0.1374  0.4682 -0.3699
19636TIP3    H180323   1.778   5.835  12.698  2.0077  0.1045 -0.0236
19636TIP3    H280324   1.713   5.774  12.576  0.0324 -0.3968  1.2529
19637TIP3   OH280325   0.147   1.168  16.792  0.5003 -0.3464 -0.1738
19637TIP3    H180326   0.105   1.232  16.734 -0.0686 -0.2176  0.3780
19637TIP3    H280327   0.176   1.219  16.867 -1.8449 -1.0793  1.2529
19638TIP3   OH280328   5.713   5.183   2.524 -1.1318 -0.3983 -0.1667
19638TIP3    H180329   5.801   5.156   2.553 -1.3402 -0.8508  0.0497
19638TIP3    H280330   5.662   5.102   2.526 -1.3841 -0.2568 -0.9286
19639TIP3   OH280331   0.230   2.136  12.574 -0.4134  0.3417 -0.5403
19639TIP3    H180332   0.293   2.205  12.554 -0.9138  0.4524 -1.7953
19639TIP3    H280333   0.175   2.131  12.496  0.5179 -2.4687 -1.1023
19640TIP3   OH280334   2.234   4.346  13.383 -0.0743  0.0157  0.4018
19640TIP3    H180335   2.310   4.373  13.331 -0.3979 -0.3689 -0.2779
19640TIP3    H280336   2.243   4.251  13.391 -0.4026 -0.0133  0.4393
19641TIP3   OH280337   4.974   2.001  14.306  0.3537  0.2869 -0.7102
19641TIP3    H180338   5.000   1.967  14.221 -1.6636  0.7317 -1.5440
19641TIP3    H280339   4.887   1.964  14.321 -0.0683  1.6377  0.3066
19642TIP3   OH280340   1.701   0.986   0.120  0.2351  0.2848 -0.3015
19642TIP3    H180341   1.648   1.065   0.126 -1.0844 -0.5836 -0.1016
19642TIP3    H280342   1.744   0.978   0.205  0.2547  0.7012 -0.2732
19643TIP3   OH280343   3.970   0.984  15.093  0.5482  0.0819 -0.2498
19643TIP3    H180344   4.062   0.960  15.088  0.1311 -1.5097 -0.5600
19643TIP3    H280345   3.948   0.979  15.186  0.3116 -1.3505 -0.3786
19644TIP3   OH280346   0.487   3.532   0.559 -0.2605  0.3786  0.4069
19644TIP3    H180347   0.523   3.611   0.520  1.4182 -0.6533 -0.1822
19644TIP3    H280348   0.559   3.493   0.608 -0.8316 -1.1908  0.0500
19645TIP3   OH280349   4.983   1.461  14.613  0.4601 -0.1133 -0.9216
19645TIP3    H180350   5.017   1.547  14.638 -1.8655  0.7600 -0.6361
19645TIP3    H280351   4.990   1.409  14.693 -0.9236  0.7375 -0.2242
19646TIP3   OH280352   2.185   1.217  14.998 -0.7329 -0.1693  0.1929
19646TIP3    H180353   2.202   1.295  14.944  0.4063 -0.1580  0.5658
19646TIP3    H280354   2.096   1.190  14.973 -1.8880  2.3520  1.4222
19647TIP3   OH280355   3.084   4.190   0.981  0.3285  0.3651 -0.2174
19647TIP3    H180356   3.001   4.179   0.934 -1.5877 -0.8608  3.2502
19647TIP3    H280357   3.075   4.274   1.025 -0.1711 -0.8792  2.1349
19648TIP3   OH280358   6.719   2.899  13.180 -0.4707  0.3485 -0.2931
19648TIP3    H180359   6.755   2.815  13.210 -0.2666  0.6954  0.4337
19648TIP3    H280360   6.637   2.876  13.137  0.0385 -0.3258 -0.9290
19649TIP3   OH280361   0.855   0.297  15.334  0.7250  0.1153  0.2378
19649TIP3    H180362   0.893   0.215  15.301  0.4750  0.5490 -1.1396
19649TIP3    H280363   0.930   0.344  15.372  1.4090  0.5038 -1.5421
19650TIP3   OH280364   5.504   2.493   4.094  0.3113  0.0109 -0.3391
19650TIP3    H180365   5.587   2.500   4.141  1.0254 -1.8012 -1.2964
19650TIP3    H280366   5.449   2.440   4.151 -1.4907  4.1888  1.9952
19651TIP3   OH280367   4.276   2.011  16.580 -0.2274  1.0041 -0.3314
19651TIP3    H180368   4.257   1.918  16.571 -0.3040  1.2607 -2.9837
19651TIP3    H280369   4.276   2.026  16.675  1.0355 -1.9267  0.1742
19652TIP3   OH280370   6.423   0.421  16.583  0.3719 -0.2065  0.5660
19652TIP3    H180371   6.334   0.386  16.592  0.2110  0.5060  1.8667
19652TIP3    H280372   6.413   0.516  16.591  1.1873 -0.0828  0.1793
19653TIP3   OH280373   3.507   1.010  11.562  0.5172 -0.0554  0.0654
19653TIP3    H180374   3.558   1.010  11.481 -0.2260 -0.3050 -0.4142
19653TIP3    H280375   3.497   0.917  11.584 -0.7921 -0.0694 -0.5330
19654TIP3   OH280376   0.523   2.404   4.593 -0.3054 -0.1581 -0.1924
19654TIP3    H180377   0.561   2.393   4.506  0.8682 -1.8772  0.5098
19654TIP3    H280378   0.573   2.476   4.631 -0.1922 -0.0208 -0.5927
19655TIP3   OH280379   6.442   2.742   4.387 -0.2251  0.6203  0.1584
19655TIP3    H180380   6.443   2.795   4.466  1.6823  1.3291 -0.3375
19655TIP3    H280381   6.516   2.772   4.336 -2.6691  1.7021 -2.9324
19656TIP3   OH280382   1.529   2.263  15.713 -0.4597  0.3518 -0.1423
19656TIP3    H180383   1.510   2.170  15.710  1.2144  0.0317 -1.5233
19656TIP3    H280384   1.454   2.302  15.758 -1.1382 -1.6520  0.4750
19657TIP3   OH280385   3.112   4.518  15.006 -0.3325 -0.3106  0.4215
19657TIP3    H180386   3.019   4.530  14.987  0.3213  2.0314 -1.6067
19657TIP3    H280387   3.145   4.607  15.017  2.0423 -1.0203 -0.7390
19658TIP3   OH280388   3.627   4.068  13.339  0.2094  0.4757  0.4380
19658TIP3    H180389   3.668   3.990  13.376  0.1945  0.3308  0.1458
19658TIP3    H280390   3.656   4.139  13.396 -1.1100  0.0361  1.7003
19659TIP3   OH280391   3.587   2.423  12.820  0.0561 -0.5730 -0.5906
19659TIP3    H180392   3.670   2.462  12.846 -0.2433  0.0266 -0.5286
19659TIP3    H280393   3.603   2.389  12.732  0.3005 -0.2573 -0.6695
19660TIP3   OH280394   1.637   6.188  16.905  1.0324  0.1814  0.3609
19660TIP3    H180395   1.630   6.188  17.000 -0.1167  1.4317  0.2936
19660TIP3    H280396   1.549   6.210  16.874  1.9746  2.3510 -0.9094
19661TIP3   OH280397   2.113   3.066   3.711 -0.0943 -0.0448 -0.4664
19661TIP3    H180398   2.087   3.150   3.673  1.3063 -0.5571 -2.6773
19661TIP3    H280399   2.119   3.007   3.636  0.9916 -1.5811  0.7928
19662TIP3   OH280400   5.510   2.075  14.414 -0.3162  0.5574 -0.3662
19662TIP3    H180401   5.550   2.130  14.347 -0.8119  0.9798 -0.3159
19662TIP3    H280402   5.445   2.022  14.368 -0.2160  0.3935 -0.3224
19663TIP3   OH280403   2.640   4.566  16.135 -0.1190  0.0142  0.4071
19663TIP3    H180404   2.601   4.504  16.073 -1.1813  0.7795  0.2972
19663TIP3    H280405   2.631   4.523  16.220  0.7583 -0.7567  0.1173
19664TIP3   OH280406   2.144   6.100   6.018 -0.8268 -0.1597  0.2440
19664TIP3    H180407   2.131   6.006   6.026 -0.2164 -0.2651  0.0219
19664TIP3    H280408   2.056   6.135   6.004 -0.9997 -0.7411 -0.1392
19665TIP3   OH280409   5.232   0.333  14.698  0.0275 -0.7575  0.6867
19665TIP3    H180410   5.301   0.344  14.633  0.0525  1.0287  0.9895
19665TIP3    H280411   5.271   0.278  14.766 -0.3990 -3.7088 -1.3590
19666TIP3   OH280412   6.030   3.569  13.630  0.1477 -0.2956  0.0648
19666TIP3    H180413   6.005   3.562  13.722  0.6555 -1.5673  0.1182
19666TIP3    H280414   6.035   3.478  13.600  0.4570  0.1002 -1.0901
19667TIP3   OH280415   3.140   1.275   4.451  0.7775  0.3431  0.0190
19667TIP3    H180416   3.121   1.205   4.513 -1.8602  0.9413 -0.0524
19667TIP3    H280417   3.123   1.236   4.365  0.8276  0.6038 -0.1118
19668TIP3   OH280418   6.387   4.809   1.764  0.7265 -0.3932 -0.3482
19668TIP3    H180419   6.373   4.714   1.765  0.9244 -0.4191  0.6602
19668TIP3    H280420   6.302   4.846   1.788  0.0185 -0.2173 -3.0087
19669TIP3   OH280421   3.587   4.232  12.691 -0.3767  0.1664 -0.0287
19669TIP3    H180422   3.612   4.168  12.624 -1.4221 -0.0546 -0.2318
19669TIP3    H280423   3.500   4.203  12.720 -0.8194  1.4344 -0.0477
19670TIP3   OH280424   4.655   0.961   2.100 -0.0036 -0.5570 -0.5721
19670TIP3    H180425   4.727   0.902   2.079 -0.3236 -0.7262 -1.2032
19670TIP3    H280426   4.689   1.048   2.081  0.4994 -0.5251  0.4455
19671TIP3   OH280427   2.787   6.545   2.623 -0.1335 -0.3264 -0.2748
19671TIP3    H180428   2.819   6.456   2.635 -1.2113 -1.0285 -2.4612
19671TIP3    H280429   2.699   6.535   2.587  0.1774  1.6292 -1.6773
19672TIP3   OH280430   0.626   2.845  15.297  0.1250 -0.3033 -0.0908
19672TIP3    H180431   0.672   2.785  15.356 -2.4047  0.7405  3.1352
19672TIP3    H280432   0.554   2.792  15.262  0.3311 -0.3062 -0.5065
19673TIP3   OH280433   0.898   0.131   6.480 -0.2840 -0.3282 -0.2593
19673TIP3    H180434   0.983   0.173   6.466 -0.1745 -0.5447 -0.2438
19673TIP3    H280435   0.852   0.142   6.397 -0.0422 -0.6682 -0.4415
19674TIP3   OH280436   0.725   3.477   4.581  0.7259  0.0622  1.3533
19674TIP3    H180437   0.660   3.497   4.649  1.0607  1.2449  1.3465
19674TIP3    H280438   0.785   3.415   4.623 -0.9650 -1.8445  1.0289
19675TIP3   OH280439   5.013   1.046   1.863  0.1722  0.3860 -0.5476
19675TIP3    H180440   5.034   1.114   1.928 -0.9842 -0.4563  0.7184
19675TIP3    H280441   4.974   1.094   1.790  0.0273  1.1707  0.0404
19676TIP3   OH280442   1.848   1.005  11.475  0.4890  0.0856 -0.0218
19676TIP3    H180443   1.802   1.070  11.528  1.4520  1.3917 -0.7500
19676TIP3    H280444   1.854   0.928  11.531 -2.1303  0.0407  0.2531
19677TIP3   OH280445   0.863   0.702   3.969 -0.0145  0.2684 -0.2694
19677TIP3    H180446   0.947   0.664   3.993 -0.2178  0.0591  0.1095
19677TIP3    H280447   0.816   0.630   3.926 -1.0012 -0.3807  1.8244
19678TIP3   OH280448   1.667   5.191  15.652 -0.1081  0.6249 -0.7734
19678TIP3    H180449   1.682   5.102  15.621  0.5106  0.4553 -0.0011
19678TIP3    H280450   1.578   5.211  15.625 -0.5471 -0.5365 -0.2230
19679TIP3   OH280451   0.638   4.321  16.374 -0.1430 -0.2547 -0.1321
19679TIP3    H180452   0.661   4.314  16.467  0.2969  1.8291 -0.0599
19679TIP3    H280453   0.549   4.285  16.369 -0.3937  0.1354  1.2064
19680TIP3   OH280454   5.391   3.645  12.254 -0.2000  0.1339 -0.2239
19680TIP3    H180455   5.410   3.727  12.209 -1.7125  2.0892  2.5737
19680TIP3    H280456   5.471   3.627  12.304  0.0838 -0.0638 -0.7390
19681TIP3   OH280457   5.749   2.636   4.214  0.2094  0.3406  0.3403
19681TIP3    H180458   5.804   2.560   4.193 -0.7587  0.0169 -1.0764
19681TIP3    H280459   5.788   2.672   4.294  2.2033 -0.1564 -0.3675
19682TIP3   OH280460   1.601   1.804   1.463  0.0735  0.4583  0.1076
19682TIP3    H180461   1.654   1.881   1.484 -0.5495  1.0812 -0.5983
19682TIP3    H280462   1.511   1.835   1.466 -0.3223 -0.8104  2.1763
19683TIP3   OH280463   6.396   6.223  11.675 -0.3052 -0.2509 -0.0982
19683TIP3    H180464   6.451   6.248  11.601 -1.4821  1.0684 -0.5536
19683TIP3    H280465   6.384   6.304  11.725 -0.6357 -0.8352  0.8005
19684TIP3   OH280466   6.221   6.236   6.430  0.0718 -0.2707  0.9564
19684TIP3    H180467   6.296   6.277   6.474 -0.1167  1.4266 -0.2500
19684TIP3    H280468   6.150   6.299   6.441  0.0235  0.2166 -1.7711
19685TIP3   OH280469   3.641   4.592  16.940  0.4430 -0.3189  0.0383
19685TIP3    H180470   3.632   4.635  17.025  0.1914  0.8195 -0.5491
19685TIP3    H280471   3.653   4.664  16.878  0.3514 -1.1237 -0.9276
19686TIP3   OH280472   0.145   1.498   3.631 -0.4462  0.4227  0.4974
19686TIP3    H180473   0.228   1.463   3.598 -0.1723  0.8569  0.7285
19686TIP3    H280474   0.150   1.592   3.616 -0.5200  0.5650  1.3453
19687TIP3   OH280475   0.188   0.921  13.761 -0.0541 -0.0848  0.0914
19687TIP3    H180476   0.173   0.987  13.693 -0.6757 -0.3531 -0.0351
19687TIP3    H280477   0.212   0.971  13.838 -1.0756  0.3285  0.1453
19688TIP3   OH280478   6.589   4.820   0.126 -0.1461  0.5911  0.2649
19688TIP3    H180479   6.575   4.914   0.109 -1.5444  0.7600  2.1633
19688TIP3    H280480   6.604   4.815   0.220  3.0358 -0.7925 -0.2582
19689TIP3   OH280481   4.671   3.533  13.502 -0.4273 -0.2170  0.7750
19689TIP3    H180482   4.666   3.614  13.553 -1.1929  0.4008 -0.2620
19689TIP3    H280483   4.623   3.552  13.422  1.9544 -0.6926 -0.8275
19690TIP3   OH280484   2.427   1.599  11.672  0.0890  0.0728 -0.0869
19690TIP3    H180485   2.421   1.666  11.604  2.0678 -0.6489 -1.0068
19690TIP3    H280486   2.344   1.552  11.666 -0.3358  0.9202 -1.0497
19691TIP3   OH280487   6.020   1.956  14.623 -0.4299 -0.6104 -0.2945
19691TIP3    H180488   6.058   1.871  14.647 -1.7160 -0.9259  0.6523
19691TIP3    H280489   5.927   1.938  14.610 -0.4864  0.4137 -1.3486
19692TIP3   OH280490   3.473   6.509   6.139  0.5195  0.3787  0.9154
19692TIP3    H180491   3.423   6.490   6.219  1.8562 -1.9697  1.2535
19692TIP3    H280492   3.462   6.431   6.085  0.2312  1.6595 -0.9117
19693TIP3   OH280493   5.456   4.412   4.774  0.5080  0.3500  0.5767
19693TIP3    H180494   5.463   4.506   4.791  1.4600  0.0463  1.9784
19693TIP3    H280495   5.363   4.397   4.758  0.4042  1.5938 -0.0322
19694TIP3   OH280496   3.053   5.764   1.709 -0.3441  0.5418 -0.3393
19694TIP3    H180497   3.082   5.680   1.745 -0.6396  0.5790 -0.0133
19694TIP3    H280498   2.988   5.796   1.771  0.4137  1.4472 -0.0025
19695TIP3   OH280499   4.125   3.152  16.356 -0.4825 -0.0395 -0.2541
19695TIP3    H180500   4.210   3.165  16.397 -1.1928  1.6979  0.7414
19695TIP3    H280501   4.093   3.069  16.391  0.2805 -0.0899  0.3178
19696TIP3   OH280502   1.640   0.464  15.481  0.5755 -0.2753  0.1916
19696TIP3    H180503   1.709   0.483  15.417  0.1269 -1.5466 -0.6860
19696TIP3    H280504   1.564   0.513  15.450  0.8865  0.6232  0.8141
19697TIP3   OH280505   6.144   3.045   5.478  0.5416  0.1679  0.1645
19697TIP3    H180506   6.189   3.017   5.398  1.2703  0.9032  0.3166
19697TIP3    H280507   6.188   2.997   5.548 -0.7591 -1.2559  0.0424
19698TIP3   OH280508   6.675   2.954  14.028  0.1620 -0.2793  0.0705
19698TIP3    H180509   6.637   2.871  14.057  0.6151 -0.3740  0.4030
19698TIP3    H280510   6.734   2.979  14.099 -0.3001  0.5498  0.1709
19699TIP3   OH280511   2.958   0.749  16.470  0.3132 -0.2825  0.0800
19699TIP3    H180512   2.927   0.826  16.517 -0.5976 -0.8229  0.3764
19699TIP3    H280513   2.879   0.710  16.432  1.0099  0.0520 -1.7664
19700TIP3   OH280514   4.199   4.147   2.582  0.5729  0.3083 -0.1576
19700TIP3    H180515   4.277   4.172   2.534  0.4060 -0.0416 -0.6167
19700TIP3    H280516   4.181   4.221   2.640  1.2539  0.3797 -0.0359
19701TIP3   OH280517   5.231   3.473  15.754 -0.8705 -0.0441 -0.3005
19701TIP3    H180518   5.265   3.562  15.746  0.0871 -0.4744 -1.0148
19701TIP3    H280519   5.135   3.483  15.753 -0.8381  1.3149  3.0894
19702TIP3   OH280520   1.368   0.381  16.059  0.1109 -0.3982  0.7160
19702TIP3    H180521   1.370   0.303  16.115 -2.4065 -0.6872  0.4499
19702TIP3    H280522   1.276   0.390  16.033  0.2856  2.8321  0.9702
19703TIP3   OH280523   1.044   0.107   1.130  0.0320 -0.0631  0.4408
19703TIP3    H180524   1.124   0.156   1.111 -0.9492  1.0845 -0.8158
19703TIP3    H280525   1.075   0.020   1.156  1.6392 -0.0481 -1.3481
19704TIP3   OH280526   1.356   1.913   1.385 -0.2929  0.9707 -0.5422
19704TIP3    H180527   1.292   1.983   1.397 -0.6369  0.7599 -1.1591
19704TIP3    H280528   1.330   1.870   1.304 -0.4441 -0.2617  0.1491
19705TIP3   OH280529   1.813   5.765  13.948 -0.2138 -0.4786 -0.2766
19705TIP3    H180530   1.826   5.744  13.856  0.9160 -0.3940 -0.1402
19705TIP3    H280531   1.899   5.752  13.988 -0.4871  0.3789  0.5976
19706TIP3   OH280532   2.772   2.949  14.428 -0.4381  0.8907 -0.2156
19706TIP3    H180533   2.739   3.036  14.450 -0.0423  0.4511  2.2752
19706TIP3    H280534   2.724   2.925  14.349 -2.0642  2.5146  0.2369
19707TIP3   OH280535   1.429   5.407   6.565 -0.6503  0.2270 -0.8393
19707TIP3    H180536   1.455   5.394   6.656  0.5474 -1.4107 -1.3835
19707TIP3    H280537   1.484   5.479   6.534 -0.8017  0.5452 -0.3582
19708TIP3   OH280538   2.778   6.734  11.100  0.0642  1.0475  0.1492
19708TIP3    H180539   2.686   6.706  11.098  0.5003 -0.3193 -1.4100
19708TIP3    H280540   2.780   6.805  11.165 -1.8886  0.3841  0.9725
19709TIP3   OH280541   1.303   2.895   5.729 -0.3054  0.3937  0.1301
19709TIP3    H180542   1.247   2.855   5.664 -1.7440 -0.9195  2.1230
19709TIP3    H280543   1.244   2.922   5.799  1.0643  2.7550  0.4451
19710TIP3   OH280544   5.066   1.590  12.059 -0.1019 -0.5108  0.6708
19710TIP3    H180545   4.974   1.614  12.073 -0.2623 -0.5004 -0.3600
19710TIP3    H280546   5.116   1.665  12.092 -0.4930 -0.2387  0.6467
19711TIP3   OH280547   4.189   2.080  12.874 -0.4175 -0.2553 -0.3715
19711TIP3    H180548   4.249   2.134  12.824  0.2778 -0.8324 -0.1628
19711TIP3    H280549   4.193   2.115  12.963  0.1425 -0.7413 -0.2040
19712TIP3   OH280550   5.363   3.497  16.226  0.2597 -0.0526 -0.0127
19712TIP3    H180551   5.329   3.459  16.307 -0.8484 -0.3822 -0.6262
19712TIP3    H280552   5.330   3.439  16.157  0.2394  0.8770 -0.7897
19713TIP3   OH280553   3.818   0.779  11.294  0.1336  0.0169 -0.3767
19713TIP3    H180554   3.911   0.797  11.278  0.0963 -0.8151 -1.5509
19713TIP3    H280555   3.818   0.723  11.372  0.6989 -0.8500 -0.9841
19714TIP3   OH280556   3.866   3.716   5.402  0.2047  0.8256  0.4329
19714TIP3    H180557   3.793   3.656   5.416  0.7974  0.0649  0.2914
19714TIP3    H280558   3.864   3.734   5.308  1.3870 -0.7310  0.1063
19715TIP3   OH280559   1.518   0.662  16.671  0.3191 -0.2840 -0.0740
19715TIP3    H180560   1.504   0.648  16.764  1.3966 -0.0820  0.1235
19715TIP3    H280561   1.594   0.720  16.666  0.2608 -0.2731 -1.0764
19716TIP3   OH280562   4.094   2.220  11.638 -0.0943  0.0386 -0.1128
19716TIP3    H180563   4.101   2.316  11.635 -0.6252  0.0939  0.4502
19716TIP3    H280564   4.086   2.200  11.731  0.3300 -0.5774 -0.2094
19717TIP3   OH280565   4.502   5.745  15.212 -0.0259  0.1488  0.4935
19717TIP3    H180566   4.408   5.727  15.215  0.1170 -0.2893  3.2132
19717TIP3    H280567   4.509   5.821  15.154 -1.9888 -0.1551 -0.2069
19718TIP3   OH280568   0.195   0.412   6.636  0.2045  0.8136  0.3467
19718TIP3    H180569   0.284   0.419   6.670 -0.3041 -0.1811  1.9349
19718TIP3    H280570   0.193   0.474   6.562  2.5027  0.0832 -0.3905
19719TIP3   OH280571   1.210   4.558   0.056  0.2034  0.6331  0.0448
19719TIP3    H180572   1.220   4.468   0.087  3.7552  1.4072  1.4619
19719TIP3    H280573   1.219   4.552  -0.039 -0.3173 -0.5881  0.0669
19720TIP3   OH280574   1.851   3.088   2.629  0.1009 -0.4136 -1.0333
19720TIP3    H180575   1.788   3.022   2.600  1.7556 -1.4600 -2.3098
19720TIP3    H280576   1.842   3.159   2.565 -1.9985  0.8792  0.5905
19721TIP3   OH280577   4.476   4.083  12.927 -0.2905  0.0807 -0.3931
19721TIP3    H180578   4.561   4.078  12.972 -0.4503 -1.4515 -0.2178
19721TIP3    H280579   4.457   4.176  12.923 -0.0749  0.3027  2.4034
19722TIP3   OH280580   5.297   0.524   4.043 -0.2615 -0.2428 -0.2031
19722TIP3    H180581   5.230   0.580   4.082  0.9294  0.3729  1.0255
19722TIP3    H280582   5.379   0.573   4.054  0.7735 -2.1143  0.6902
19723TIP3   OH280583   1.572   3.566  11.478 -0.5076  0.0458  0.1637
19723TIP3    H180584   1.480   3.577  11.454 -0.3667  1.2053  0.1232
19723TIP3    H280585   1.576   3.590  11.570 -0.1180  0.7571 -0.0321
19724TIP3   OH280586   2.890   1.314   2.145  0.0555  0.0839 -0.4341
19724TIP3    H180587   2.873   1.306   2.239 -0.6965 -0.1922 -0.5950
19724TIP3    H280588   2.808   1.289   2.103  0.1901  0.8320 -1.1515
19725TIP3   OH280589   5.265   4.078  12.165 -0.5135 -0.4712  0.3475
19725TIP3    H180590   5.197   4.078  12.234 -0.5639  0.3262  0.3051
19725TIP3    H280591   5.216   4.065  12.084 -0.8251  1.7343  0.1396
19726TIP3   OH280592   2.172   2.790   6.537  0.1473  0.4602 -0.6499
19726TIP3    H180593   2.156   2.760   6.627  2.5063 -0.9366 -0.6454
19726TIP3    H280594   2.167   2.711   6.484 -0.1221  1.1127 -1.6202
19727TIP3   OH280595   0.928   3.742   5.184 -0.1417  0.0857  0.1660
19727TIP3    H180596   0.968   3.821   5.148  1.3840 -0.3038  0.9817
19727TIP3    H280597   0.837   3.767   5.201 -0.3129  0.9493 -1.8282
19728TIP3   OH280598   4.531   2.962  14.166 -0.5822 -0.1597 -0.5068
19728TIP3    H180599   4.533   2.996  14.076  0.0357 -0.2216 -0.5164
19728TIP3    H280600   4.498   2.873  14.157 -0.0027 -0.3535 -0.7333
19729TIP3   OH280601   4.496   1.012   4.735  0.2297  0.3336 -0.7172
19729TIP3    H180602   4.556   0.981   4.667  0.4217 -1.8818  0.4001
19729TIP3    H280603   4.431   1.064   4.688  2.1322  1.4824 -2.1536
19730TIP3   OH280604   2.465   0.753   4.495 -0.1459  0.0360  0.3171
19730TIP3    H180605   2.528   0.689   4.528 -1.1332 -1.9401 -1.4835
19730TIP3    H280606   2.510   0.796   4.422  0.1096  0.6094  0.8076
19731TIP3   OH280607   5.836   5.145  11.960  0.1828 -0.0298  0.2036
19731TIP3    H180608   5.876   5.138  12.047 -1.0650  1.2504  0.9048
19731TIP3    H280609   5.807   5.236  11.954 -3.3722 -1.0848  0.0867
19732TIP3   OH280610   5.505   2.057   1.121 -0.0957 -0.4444 -0.3711
19732TIP3    H180611   5.561   2.005   1.178  1.2590  0.4697 -0.8540
19732TIP3    H280612   5.431   1.999   1.100 -0.1510 -1.0944  1.5539
19733TIP3   OH280613   2.911   6.700  13.420 -0.1041  0.3437  0.1876
19733TIP3    H180614   2.908   6.713  13.515  0.2668  0.5744  0.1681
19733TIP3    H280615   2.866   6.776  13.384 -0.2314  0.2639  0.1788
19734TIP3   OH280616   1.071   5.896   4.358 -0.1228 -0.2247  0.2901
19734TIP3    H180617   1.149   5.915   4.306  0.7974 -0.2173  1.6396
19734TIP3    H280618   1.003   5.952   4.322  0.4272 -0.4041 -1.0576
19735TIP3   OH280619   0.443   6.306  13.590 -0.2732 -0.5081 -0.3940
19735TIP3    H180620   0.534   6.289  13.614  0.3163  0.1708 -2.0748
19735TIP3    H280621   0.439   6.400  13.575 -1.6240 -0.3096  1.1486
19736TIP3   OH280622   3.897   6.706  15.224 -0.1860  0.4717 -0.5652
19736TIP3    H180623   3.960   6.737  15.290  0.4632 -1.2406 -0.3320
19736TIP3    H280624   3.946   6.641  15.173 -1.7486 -0.8870 -0.3913
19737TIP3   OH280625   4.194   1.546   4.868 -0.4609 -0.2371  0.3709
19737TIP3    H180626   4.244   1.496   4.804 -1.0951 -0.0693 -0.2582
19737TIP3    H280627   4.181   1.631   4.828  1.3402  0.7316  1.7965
19738TIP3   OH280628   0.893   6.282  16.684 -0.2355  0.4804  0.6581
19738TIP3    H180629   0.894   6.216  16.615  1.7462  1.5365 -0.3777
19738TIP3    H280630   0.810   6.268  16.730 -0.9804 -1.0868 -1.1059
19739TIP3   OH280631   0.536   2.056  11.558 -0.5414  0.4870 -0.8018
19739TIP3    H180632   0.583   2.107  11.492 -0.9808  0.5172 -1.0929
19739TIP3    H280633   0.605   2.018  11.612 -0.1988  1.1757 -0.7424
19740TIP3   OH280634   3.172   1.032   5.894 -0.5241  0.0410  0.0848
19740TIP3    H180635   3.252   1.039   5.945 -1.3662  0.4309  1.3792
19740TIP3    H280636   3.182   0.951   5.844  1.2334  0.7541 -0.7792
19741TIP3   OH280637   3.137   5.536   1.820 -0.0457  0.6207 -0.3316
19741TIP3    H180638   3.197   5.473   1.861 -0.7894  0.3401  0.3372
19741TIP3    H280639   3.131   5.608   1.882 -0.0036  0.8900 -0.6358
19742TIP3   OH280640   2.869   4.960  15.175 -0.2906  0.4728  0.0602
19742TIP3    H180641   2.933   4.983  15.107 -1.2576  0.9642 -0.6941
19742TIP3    H280642   2.904   4.880  15.214  1.3604  1.3297  0.3972
19743TIP3   OH280643   2.836   0.489  12.860 -0.6394 -0.0441  0.2102
19743TIP3    H180644   2.787   0.526  12.935 -0.1632 -0.4685  0.7326
19743TIP3    H280645   2.910   0.549  12.849 -1.5851  0.9251 -0.9509
19744TIP3   OH280646   1.467   1.685  10.985  0.1844 -0.1722  0.7233
19744TIP3    H180647   1.477   1.780  10.977  0.6797 -0.3590 -1.1375
19744TIP3    H280648   1.375   1.669  10.965  0.2356 -0.1265  0.4388
19745TIP3   OH280649   5.009   3.078  15.899  0.2723 -0.1738 -0.0414
19745TIP3    H180650   5.053   3.025  15.965  0.4539 -0.2963 -0.2610
19745TIP3    H280651   4.941   3.126  15.948  0.6279 -0.0083  0.2908
19746TIP3   OH280652   3.103   3.800   5.644  0.3290 -0.0874  0.4444
19746TIP3    H180653   3.116   3.710   5.672  0.5477 -0.0119  0.5899
19746TIP3    H280654   3.169   3.850   5.692  1.2128 -0.0564 -0.7899
19747TIP3   OH280655   1.825   2.858  15.037 -0.0094  0.5587  0.1530
19747TIP3    H180656   1.771   2.781  15.054  0.1459  0.6938  1.2775
19747TIP3    H280657   1.788   2.896  14.957 -0.5766 -0.2322  0.0318
19748TIP3   OH280658   4.933   5.238   5.164  0.0676  0.0718 -0.0402
19748TIP3    H180659   4.846   5.215   5.129  0.4699  0.1273 -1.1049
19748TIP3    H280660   4.937   5.333   5.157  0.1784  0.0752  0.0767
19749TIP3   OH280661   6.674   1.726  14.976 -0.0310  0.2723 -0.2461
19749TIP3    H180662   6.642   1.671  14.905 -0.1028  0.5898 -0.4624
19749TIP3    H280663   6.599   1.778  15.002 -0.3203 -0.6880  0.8739
19750TIP3   OH280664   3.422   6.420   2.071 -0.4165 -0.4468 -0.4994
19750TIP3    H180665   3.411   6.476   1.994 -2.7832  1.0133  0.8261
19750TIP3    H280666   3.333   6.410   2.105  0.5429 -1.5288  1.7343
19751TIP3   OH280667   6.492   6.005  14.891 -0.2597  0.0792 -0.1883
19751TIP3    H180668   6.506   5.939  14.823 -2.2180  0.0694 -0.6157
19751TIP3    H280669   6.521   5.964  14.972 -1.4644 -1.3390 -0.4528
19752TIP3   OH280670   1.673   3.836   1.122 -0.4189 -0.0960  1.3752
19752TIP3    H180671   1.749   3.803   1.169  0.6285 -0.8442 -0.7687
19752TIP3    H280672   1.680   3.932   1.129  0.0395 -0.1867  2.1843
19753TIP3   OH280673   0.798   3.913  13.889  0.4244  0.3676 -0.4334
19753TIP3    H180674   0.774   3.820  13.889 -0.3058  0.5601 -0.7961
19753TIP3    H280675   0.720   3.958  13.920  0.7313  0.8839 -0.4045
19754TIP3   OH280676   4.789   6.517   0.947 -0.4537  0.4151  0.1974
19754TIP3    H180677   4.846   6.442   0.966 -0.5795 -0.5559 -2.8507
19754TIP3    H280678   4.727   6.519   1.019 -0.9017 -2.9402 -0.0069
19755TIP3   OH280679   3.578   4.867   5.686  0.1823 -0.3032  0.0864
19755TIP3    H180680   3.619   4.781   5.684 -0.8300 -0.7846 -0.3003
19755TIP3    H280681   3.485   4.850   5.704  0.5519  0.9380  3.5393
19756TIP3   OH280682   3.165   3.854   0.449  0.5088 -0.1516  0.0512
19756TIP3    H180683   3.191   3.937   0.409  1.4828 -0.7204 -0.5309
19756TIP3    H280684   3.179   3.789   0.379 -0.6630 -0.7426  0.3533
19757TIP3   OH280685   1.995   5.023   4.692 -0.3754  0.4683 -0.4571
19757TIP3    H180686   1.998   4.967   4.614  0.3944 -0.2433  0.0722
19757TIP3    H280687   1.973   5.110   4.658 -1.9802 -0.2241 -1.2574
19758TIP3   OH280688   0.965   4.995  10.551 -0.4850  0.2234 -0.2351
19758TIP3    H180689   0.938   4.943  10.475  1.1647  0.1059 -0.7756
19758TIP3    H280690   0.962   4.935  10.625 -2.9342  0.5520 -0.0145
19759TIP3   OH280691   4.669   5.006   5.917  0.0129 -0.6935 -0.2586
19759TIP3    H180692   4.625   4.940   5.971 -2.3046  0.1177 -1.0885
19759TIP3    H280693   4.679   5.081   5.975  3.2019 -1.9088  0.8715
19760TIP3   OH280694   4.759   1.983   5.130 -0.3934  0.7870 -0.1284
19760TIP3    H180695   4.743   2.044   5.058  0.3434  1.8200  0.5696
19760TIP3    H280696   4.823   2.027   5.185  2.1961 -1.7276 -0.9981
19761TIP3   OH280697   5.034   2.653   5.895 -0.3028 -0.7887 -0.5073
19761TIP3    H180698   5.031   2.558   5.909  0.1867 -0.7624 -0.2172
19761TIP3    H280699   5.124   2.670   5.868  0.2775 -0.0742  1.7895
19762TIP3   OH280700   0.019   0.113  16.782 -0.1818  0.2468 -0.4270
19762TIP3    H180701  -0.007   0.201  16.812  0.6631  0.0353  0.9817
19762TIP3    H280702  -0.048   0.055  16.818 -0.3837  0.2484 -0.8062
19763TIP3   OH280703   6.271   5.843   3.802 -0.2996  0.0271 -0.5358
19763TIP3    H180704   6.323   5.890   3.868  0.0580 -1.1651  0.0534
19763TIP3    H280705   6.195   5.810   3.851 -1.5065  1.5758 -1.3472
19764TIP3   OH280706   3.010   5.706  10.487 -0.0899 -0.0796  0.1819
19764TIP3    H180707   2.917   5.711  10.509 -0.3351 -2.0669 -0.3245
19764TIP3    H280708   3.019   5.762  10.409 -0.7352  0.6050  0.5938
19765TIP3   OH280709   2.234   0.035   4.448 -0.5301 -0.7686 -0.4764
19765TIP3    H180710   2.315   0.009   4.492 -0.2707  2.3755  1.0332
19765TIP3    H280711   2.262   0.062   4.361  0.1226  0.5769  0.1338
19766TIP3   OH280712   4.096   4.463   6.005  0.6064  0.3037 -0.2748
19766TIP3    H180713   4.035   4.518   5.957  0.5992  0.4434 -0.1075
19766TIP3    H280714   4.055   4.451   6.091  0.8524  0.4613 -0.1357
19767TIP3   OH280715   4.459   2.637   0.298 -0.7638  0.1380 -0.0732
19767TIP3    H180716   4.513   2.716   0.292  0.8207 -0.9725 -0.9032
19767TIP3    H280717   4.492   2.581   0.228 -0.8796 -1.8542  1.4462
19768TIP3   OH280718   4.445   5.546   3.549  0.5837 -0.1512  0.1490
19768TIP3    H180719   4.367   5.492   3.541  0.3553 -0.3342  3.0440
19768TIP3    H280720   4.516   5.483   3.565  0.6704  0.2306  1.3443
19769TIP3   OH280721   0.598   3.654   3.651  0.3350  0.2080  0.3529
19769TIP3    H180722   0.655   3.625   3.580  0.5554  1.3372  0.0537
19769TIP3    H280723   0.658   3.675   3.723  0.1381 -0.6102  0.7573
19770TIP3   OH280724   4.297   2.961  12.880  0.2633 -0.0366  0.0015
19770TIP3    H180725   4.308   2.988  12.972  1.3829  0.8046 -0.3738
19770TIP3    H280726   4.236   3.025  12.844 -2.9776 -2.3952  1.0393
19771TIP3   OH280727   0.995   2.303  10.799  0.0797  0.1353  0.4467
19771TIP3    H180728   0.994   2.360  10.722  0.6614 -0.2093  0.1849
19771TIP3    H280729   1.077   2.325  10.844  0.0096 -0.0624  0.6713
19772TIP3   OH280730   0.799   6.166   0.434 -0.6682 -0.2338 -0.5896
19772TIP3    H180731   0.853   6.166   0.514 -3.0466 -2.3526  1.0654
19772TIP3    H280732   0.747   6.246   0.441 -1.3386 -0.7473  0.3068
19773TIP3   OH280733   6.691   3.306  14.546  0.2151 -0.1325  0.3528
19773TIP3    H180734   6.754   3.243  14.511  0.8923  0.6846  0.0805
19773TIP3    H280735   6.655   3.264  14.624 -0.7466 -1.6509 -0.8829
19774TIP3   OH280736   3.837   2.871   2.754  0.0401 -0.1332 -0.2598
19774TIP3    H180737   3.871   2.914   2.832 -1.2859  1.8049 -0.7253
19774TIP3    H280738   3.911   2.870   2.693  1.2843 -2.2460  1.1863
19775TIP3   OH280739   5.207   6.176   2.199  0.6849 -0.4043 -0.7407
19775TIP3    H180740   5.175   6.088   2.220  1.9392 -1.3046 -2.3843
19775TIP3    H280741   5.203   6.180   2.103  0.0225  1.5951 -0.6397
19776TIP3   OH280742   5.993   1.352   1.422  0.3287  0.0801  0.0634
19776TIP3    H180743   5.901   1.379   1.431  0.4924  0.8966 -0.6440
19776TIP3    H280744   5.989   1.260   1.398 -0.2666 -0.3174  1.6052
19777TIP3   OH280745   2.589   0.329  16.359 -0.1195 -0.2051 -0.6145
19777TIP3    H180746   2.590   0.326  16.263  2.5079  1.1066 -0.6664
19777TIP3    H280747   2.654   0.265  16.386  1.5122  1.7220  0.1663
19778TIP3   OH280748   5.600   6.454  10.949 -0.4417 -0.5718  0.0233
19778TIP3    H180749   5.640   6.388  10.892 -1.0900  0.5890 -1.8000
19778TIP3    H280750   5.673   6.511  10.974  0.2890 -2.4193  2.3057
19779TIP3   OH280751   1.706   1.018  12.132 -0.0235  0.3649 -0.6296
19779TIP3    H180752   1.744   0.973  12.207  1.5749  1.7142 -0.6261
19779TIP3    H280753   1.703   1.110  12.157 -1.7952  0.5055 -1.2619
19780TIP3   OH280754   1.587   2.929  11.058 -0.2328 -0.3886 -0.4391
19780TIP3    H180755   1.626   2.959  11.140  2.0428  1.6500 -2.1852
19780TIP3    H280756   1.495   2.953  11.065 -0.0191 -0.0823  1.4588
19781TIP3   OH280757   2.499   2.470  14.664  0.5020 -0.3119 -0.1771
19781TIP3    H180758   2.586   2.448  14.698  0.3940  1.9894  1.7286
19781TIP3    H280759   2.446   2.487  14.742 -0.7356  1.6252 -1.4015
19782TIP3   OH280760   1.427   6.438   3.067  0.2767 -0.3070  0.2697
19782TIP3    H180761   1.448   6.385   2.990  0.8927 -1.6888  1.3882
19782TIP3    H280762   1.424   6.528   3.033  1.3593 -0.8075 -1.2046
19783TIP3   OH280763   1.602   6.433   2.451 -0.3290 -0.1747  0.1226
19783TIP3    H180764   1.613   6.412   2.544  0.1410  0.6169  0.2453
19783TIP3    H280765   1.664   6.504   2.435 -1.4040  0.6394 -0.4617
19784TIP3   OH280766   5.036   4.704  14.078 -0.4241  0.2565 -0.4651
19784TIP3    H180767   4.979   4.695  14.001 -0.4975 -0.6347 -0.3109
19784TIP3    H280768   5.057   4.797  14.081 -2.3271  0.6922 -0.1985
19785TIP3   OH280769   3.282   0.046  14.207 -0.5023  0.1251  0.0725
19785TIP3    H180770   3.359  -0.006  14.229  0.8230  2.1387  0.3509
19785TIP3    H280771   3.300   0.133  14.245 -2.3166  0.9884 -0.9769
19786TIP3   OH280772   5.191   6.028   5.783  0.6542  0.1012 -0.4839
19786TIP3    H180773   5.128   6.092   5.749  0.3700 -1.0723 -2.2357
19786TIP3    H280774   5.220   5.980   5.706  2.6234 -0.3436  0.5087
19787TIP3   OH280775   2.242   0.951  12.544  0.3945  0.2223 -0.3421
19787TIP3    H180776   2.158   0.941  12.499  0.1868  1.0685 -0.1652
19787TIP3    H280777   2.260   1.045  12.540  0.5284  0.2730  1.0428
19788TIP3   OH280778   0.783   2.824   4.157  0.4114 -0.0506  0.2427
19788TIP3    H180779   0.707   2.817   4.216  0.1694 -0.2860 -0.0976
19788TIP3    H280780   0.849   2.768   4.197  0.5992  0.5896  0.8381
19789TIP3   OH280781   1.470   0.742   3.507  0.2012 -0.1434 -0.0651
19789TIP3    H180782   1.528   0.718   3.579 -1.1557 -1.1995  0.6934
19789TIP3    H280783   1.391   0.774   3.550  0.0943  1.0336 -1.0976
19790TIP3   OH280784   2.958   2.339   5.728 -0.1307 -0.8766 -0.3014
19790TIP3    H180785   2.973   2.418   5.677  1.4826 -0.9300  0.0779
19790TIP3    H280786   2.879   2.358   5.779  0.9191  0.9290  0.6830
19791TIP3   OH280787   6.221   3.769   1.882 -0.2691 -0.1576  0.6031
19791TIP3    H180788   6.166   3.838   1.846 -1.3801 -0.7935  1.0542
19791TIP3    H280789   6.231   3.706   1.810  1.1070  0.6727  0.0527
19792TIP3   OH280790   4.100   2.902  17.113  0.1602  0.8017 -0.1949
19792TIP3    H180791   4.083   2.829  17.053  2.2771  1.3371 -1.5035
19792TIP3    H280792   4.113   2.978  17.056 -0.9333  1.9875  1.0973
19793TIP3   OH280793   2.973   4.580   0.373 -0.5117  0.7699  0.1853
19793TIP3    H180794   2.986   4.619   0.460  0.5181 -1.9647  1.3056
19793TIP3    H280795   3.046   4.520   0.362  1.0661  3.2175 -3.8970
19794TIP3   OH280796   3.140   2.492  13.137 -0.1596 -0.0527 -0.6635
19794TIP3    H180797   3.073   2.485  13.069 -0.0903  0.0482 -0.7404
19794TIP3    H280798   3.090   2.509  13.217 -0.2010  0.3785 -0.7798
19795TIP3   OH280799   6.071   3.805   0.612 -0.3603  0.1219 -0.5009
19795TIP3    H180800   5.981   3.791   0.582 -0.9028  1.2613  0.5304
19795TIP3    H280801   6.061   3.854   0.693  1.1586 -0.9792  0.3639
19796TIP3   OH280802   4.004   4.211   0.789 -0.6068  0.2242  0.2825
19796TIP3    H180803   3.970   4.224   0.701 -0.7163  0.1905  0.3193
19796TIP3    H280804   3.928   4.186   0.841 -0.1613 -1.9187 -0.0749
19797TIP3   OH280805   6.732   3.846  13.788  0.3685 -0.2073 -0.3701
19797TIP3    H180806   6.765   3.883  13.706 -0.3175 -0.1125 -0.6120
19797TIP3    H280807   6.648   3.890  13.802  0.7067  0.1301  0.6383
19798TIP3   OH280808   5.174   2.087   5.920  0.2309 -0.3583  0.4494
19798TIP3    H180809   5.128   2.121   5.996  0.6031  0.5371  0.2742
19798TIP3    H280810   5.236   2.024   5.956 -0.1693 -0.5491  0.8076
19799TIP3   OH280811   1.979   3.428   5.360  0.1150 -0.0091  0.0157
19799TIP3    H180812   2.041   3.448   5.290  0.2496  2.3246  0.7508
19799TIP3    H280813   2.034   3.402   5.434  0.1323  0.3387  0.1270
19800TIP3   OH280814   1.491   4.060   2.174 -0.1429 -0.8328  0.2828
19800TIP3    H180815   1.567   4.004   2.182 -1.6653 -3.1714 -1.0339
19800TIP3    H280816   1.416   4.000   2.181 -1.8256  1.1347 -0.3849
19801TIP3   OH280817   0.282   1.129  12.103 -0.3904  0.1584  0.1370
19801TIP3    H180818   0.338   1.202  12.129  0.0613 -0.3903  0.7510
19801TIP3    H280819   0.252   1.092  12.186 -3.8534  2.0659 -0.1677
19802TIP3   OH280820   2.671   4.708   0.937  0.4326  0.0640 -0.0039
19802TIP3    H180821   2.657   4.711   1.032  0.5525 -2.5366  0.1546
19802TIP3    H280822   2.760   4.675   0.927  1.1061  2.1252 -1.0503
19803TIP3   OH280823   0.251   2.109   5.949 -0.3018  0.0597 -0.1397
19803TIP3    H180824   0.300   2.181   5.987 -0.4193  0.4192 -0.6660
19803TIP3    H280825   0.169   2.106   5.998  0.5493 -1.0119  1.2336
19804TIP3   OH280826   3.767   2.580  12.483 -0.0448  0.1331  0.0483
19804TIP3    H180827   3.706   2.518  12.442  1.2720  0.7565 -2.9578
19804TIP3    H280828   3.853   2.553  12.451  0.8258  1.8675  0.8797
19805TIP3   OH280829   0.335   6.497  14.292 -0.3650 -0.3244 -0.1895
19805TIP3    H180830   0.244   6.522  14.276 -0.3402 -0.3538 -0.3737
19805TIP3    H280831   0.329   6.412  14.336 -0.4730  0.3881  1.1734
19806TIP3   OH280832   1.495   0.931  16.549  0.1742 -0.3289 -0.0429
19806TIP3    H180833   1.432   0.948  16.619 -0.5045 -1.8942 -0.2588
19806TIP3    H280834   1.539   1.015  16.535 -2.3258  0.9752 -0.3229
19807TIP3   OH280835   2.490   2.741  13.480 -0.4384  0.1773 -0.3132
19807TIP3    H180836   2.551   2.727  13.553  0.6105 -0.4625 -1.2871
19807TIP3    H280837   2.446   2.824  13.501 -3.2976 -2.0862  3.1920
19808TIP3   OH280838   4.560   4.134  14.753  0.6835 -0.1450  0.0542
19808TIP3    H180839   4.531   4.048  14.724 -0.4787  0.3357 -0.2258
19808TIP3    H280840   4.597   4.119  14.840  0.5230 -0.9309 -0.0144
19809TIP3   OH280841   5.451   6.750  14.071  0.0142  0.1322 -0.3919
19809TIP3    H180842   5.421   6.711  14.153  0.3512  1.5084  0.4061
19809TIP3    H280843   5.531   6.797  14.095  0.1463  0.5016 -1.5231
19810TIP3   OH280844   6.193   2.451  16.926 -0.3748 -0.7944 -0.1028
19810TIP3    H180845   6.267   2.493  16.970 -1.0026 -0.4238  0.6337
19810TIP3    H280846   6.122   2.457  16.990 -1.2847 -0.3381 -1.1330
19811TIP3   OH280847   3.825   6.010  12.937 -0.4381  0.5537  0.5747
19811TIP3    H180848   3.890   6.020  12.867 -1.2630 -2.4933 -0.7123
19811TIP3    H280849   3.876   5.988  13.015  0.1238 -2.1001 -0.4936
19812TIP3   OH280850   5.669   2.301   1.398  0.2583  0.2003  0.5510
19812TIP3    H180851   5.765   2.298   1.407  0.6041  3.0595 -1.5010
19812TIP3    H280852   5.655   2.324   1.306 -2.4799 -2.4767  0.2311
19813TIP3   OH280853   6.272   1.476  14.759 -0.0811  0.3566 -0.1362
19813TIP3    H180854   6.320   1.394  14.744  1.0906  0.7151  1.4881
19813TIP3    H280855   6.181   1.449  14.766  0.1327 -0.6322 -1.0282
19814TIP3   OH280856   0.677   4.730  11.621 -0.1769  0.0787  0.2826
19814TIP3    H180857   0.700   4.725  11.529 -0.7872 -2.9063  0.2447
19814TIP3    H280858   0.735   4.668  11.664  0.2161  1.5686  1.9449
19815TIP3   OH280859   0.429   6.365   2.233 -0.0143  0.0963  0.3347
19815TIP3    H180860   0.511   6.381   2.187 -1.1848  0.5661 -1.6677
19815TIP3    H280861   0.428   6.428   2.305  1.0964  0.4776  0.0205
19816TIP3   OH280862   6.234   3.201   1.609  0.1635  0.2616  0.3026
19816TIP3    H180863   6.317   3.204   1.561  0.0234  1.5487  0.1300
19816TIP3    H280864   6.183   3.134   1.563  0.7814  0.0847 -0.1341
19817TIP3   OH280865   5.612   6.686   0.836 -0.3982  1.0173 -0.7232
19817TIP3    H180866   5.522   6.710   0.860 -0.0286  2.3910 -0.6679
19817TIP3    H280867   5.604   6.599   0.798 -1.9605  1.7355 -2.0762
19818TIP3   OH280868   4.832   0.461   0.548 -0.6110 -0.4535  0.0257
19818TIP3    H180869   4.886   0.438   0.473  1.7329  0.3348  1.4045
19818TIP3    H280870   4.886   0.438   0.624 -2.3193  0.1309  1.4616
19819TIP3   OH280871   0.380   6.287  16.597  0.7163  0.1227 -0.1646
19819TIP3    H180872   0.347   6.315  16.682  0.5553  0.3811 -0.3122
19819TIP3    H280873   0.392   6.368  16.548  1.4649  0.0243 -0.1497
19820TIP3   OH280874   3.414   1.656  15.854 -0.1033 -0.4572  0.4096
19820TIP3    H180875   3.439   1.579  15.905 -0.2320 -0.0559  1.0901
19820TIP3    H280876   3.496   1.705  15.843  0.0981 -1.0112 -0.5759
19821TIP3   OH280877   5.966   3.742  16.515 -0.1466  0.0244  0.3870
19821TIP3    H180878   6.024   3.765  16.588  0.8140 -2.0223  0.3153
19821TIP3    H280879   5.931   3.656  16.540 -2.5042  0.8669  0.0333
19822TIP3   OH280880   5.066   4.470  16.130  0.0875 -0.1616 -0.2113
19822TIP3    H180881   5.032   4.473  16.219  2.8837  0.0993  0.8996
19822TIP3    H280882   5.022   4.395  16.090 -3.6860  1.7155  0.2750
19823TIP3   OH280883   2.465   4.647  12.670 -0.3122  0.5667  0.1481
19823TIP3    H180884   2.497   4.722  12.620 -0.1542  0.5051  0.1552
19823TIP3    H280885   2.372   4.662  12.681 -0.2335  0.8860  0.3698
19824TIP3   OH280886   6.187   3.229   4.305 -0.2064  0.0152 -0.0753
19824TIP3    H180887   6.277   3.209   4.279  0.2217  2.2488 -0.4552
19824TIP3    H280888   6.133   3.169   4.253  1.0859 -2.0174  0.8655
19825TIP3   OH280889   1.254   0.583   1.418 -0.1695 -0.1856  0.6595
19825TIP3    H180890   1.161   0.573   1.439  0.4502 -1.6551  2.8584
19825TIP3    H280891   1.300   0.544   1.492  2.2140  0.0510 -0.6388
19826TIP3   OH280892   3.651   0.348   2.192 -0.8022 -0.1810 -0.3991
19826TIP3    H180893   3.606   0.272   2.157  1.1570 -0.2775 -2.8748
19826TIP3    H280894   3.734   0.313   2.225  0.1913  0.8725 -1.7258
19827TIP3   OH280895   3.687   3.848   1.304  0.1388  0.3265  0.5440
19827TIP3    H180896   3.711   3.927   1.353  0.1123  0.9334 -0.3975
19827TIP3    H280897   3.604   3.820   1.343 -1.2989  2.3674 -0.8915
19828TIP3   OH280898   0.395   4.507  10.801  0.5104 -0.6035 -0.6315
19828TIP3    H180899   0.319   4.465  10.840  0.7581  0.6708  1.2922
19828TIP3    H280900   0.361   4.552  10.724 -0.5016 -0.8098 -0.3104
19829TIP3   OH280901   0.900   1.019  13.913 -0.2424  0.3517 -0.2878
19829TIP3    H180902   0.901   1.110  13.883 -1.1673  0.1148 -1.0732
19829TIP3    H280903   0.991   0.989  13.900 -0.1874  0.8306 -1.0885
19830TIP3   OH280904   0.265   2.041   1.903  0.3348  0.0554  0.3603
19830TIP3    H180905   0.309   1.957   1.887  1.7388  1.0139 -0.9248
19830TIP3    H280906   0.197   2.046   1.836  0.1405 -0.1176  0.5418
19831TIP3   OH280907   1.657   3.166   4.955  0.0823  0.1176  0.3958
19831TIP3    H180908   1.705   3.128   4.882 -1.0143 -0.2740 -0.1430
19831TIP3    H280909   1.724   3.199   5.014  0.9775  1.9013 -1.5443
19832TIP3   OH280910   1.201   3.726  12.816 -0.5612  0.4301 -0.5583
19832TIP3    H180911   1.245   3.747  12.733  0.2610  1.8241  0.2059
19832TIP3    H280912   1.237   3.790  12.878 -1.8897  0.0160  0.6447
19833TIP3   OH280913   2.646   6.407  16.744  0.1133  0.1666  0.1516
19833TIP3    H180914   2.669   6.435  16.832 -0.3698 -2.1346  1.0352
19833TIP3    H280915   2.706   6.335  16.725 -1.4869 -1.0450 -0.3737
19834TIP3   OH280916   5.668   5.184  15.873  0.2200 -0.1108  0.1981
19834TIP3    H180917   5.698   5.105  15.918 -0.2229 -2.0478 -2.7730
19834TIP3    H280918   5.573   5.179  15.877  0.1813 -0.1477 -0.6572
19835TIP3   OH280919   5.060   4.773   3.380 -0.2444  0.2274  0.3080
19835TIP3    H180920   5.010   4.853   3.361 -2.6041 -1.4505 -0.8683
19835TIP3    H280921   5.012   4.731   3.451  1.3906  0.1954  1.4101
19836TIP3   OH280922   0.024   3.203  12.446  0.0633  0.1629  0.2593
19836TIP3    H180923   0.047   3.238  12.532  0.3762 -0.0877  0.2789
19836TIP3    H280924  -0.034   3.129  12.464  0.3846 -0.0894  0.2718
19837TIP3   OH280925   2.906   2.942   3.532  0.0830 -1.0009 -0.3540
19837TIP3    H180926   2.911   2.855   3.493 -1.5590 -1.1902 -0.1832
19837TIP3    H280927   2.979   2.944   3.594  0.8346 -1.8289 -1.2040
19838TIP3   OH280928   0.565   5.281  13.095 -0.6557  0.0687 -0.6489
19838TIP3    H180929   0.604   5.222  13.160 -0.2801  0.5541 -0.4298
19838TIP3    H280930   0.494   5.230  13.057  0.3812 -0.9446 -1.2701
19839TIP3   OH280931   6.293   1.409  12.757 -0.0756 -0.3741  0.2026
19839TIP3    H180932   6.304   1.503  12.771  0.3227 -0.0686 -2.0103
19839TIP3    H280933   6.203   1.391  12.784 -0.6751  0.9463 -0.8647
19840TIP3   OH280934   6.656   3.975   4.258  0.2991 -0.3804  0.1918
19840TIP3    H180935   6.645   3.965   4.352  0.2703 -0.4284  0.1833
19840TIP3    H280936   6.689   4.064   4.247  1.8687 -0.9376  0.3632
19841TIP3   OH280937   3.845   5.735   0.833 -0.0382 -0.0850 -0.2053
19841TIP3    H180938   3.813   5.752   0.922  2.7922  1.4904  0.5385
19841TIP3    H280939   3.860   5.821   0.796 -2.0535 -0.7034 -2.6116
19842TIP3   OH280940   2.558   1.064   0.912  0.3593  0.4933  0.4953
19842TIP3    H180941   2.578   0.974   0.940 -1.4219  0.1673  0.7654
19842TIP3    H280942   2.492   1.053   0.844 -0.3724  1.6268  1.0143
19843TIP3   OH280943   6.680   3.515   1.750  0.5413 -0.7927  0.3497
19843TIP3    H180944   6.662   3.496   1.658  0.6648  3.3282 -0.6233
19843TIP3    H280945   6.765   3.560   1.748 -0.5341  1.3698  2.2048
19844TIP3   OH280946   6.451   0.233   2.579 -0.6958 -0.3972  1.1618
19844TIP3    H180947   6.369   0.261   2.620 -1.8919 -0.4626 -1.0830
19844TIP3    H280948   6.446   0.137   2.581 -0.9839 -0.4047  0.5034
19845TIP3   OH280949   5.575   1.515  16.255  0.3844  0.4109  0.2979
19845TIP3    H180950   5.500   1.467  16.290  0.8421 -0.3867  0.2091
19845TIP3    H280951   5.641   1.447  16.238  0.8641  1.0135 -0.2999
19846TIP3   OH280952   4.925   2.862  15.139  0.1248 -0.3394 -0.4564
19846TIP3    H180953   4.975   2.940  15.164 -1.5251  0.0947  1.6299
19846TIP3    H280954   4.946   2.798  15.206 -0.4071 -0.8834 -0.8079
19847TIP3   OH280955   5.123   0.817  14.618  0.4449  0.1670  0.1665
19847TIP3    H180956   5.081   0.750  14.564  1.9020 -0.1061 -0.6466
19847TIP3    H280957   5.192   0.771  14.665  0.6646  0.8590  0.5338
19848TIP3   OH280958   3.662   6.037   6.533 -0.1150 -0.0342  0.5841
19848TIP3    H180959   3.571   6.017   6.557  0.0931 -2.5442 -0.5247
19848TIP3    H280960   3.657   6.124   6.495 -2.1734 -0.3344  0.0622
19849TIP3   OH280961   0.528   5.721  12.424 -0.0440  0.2694 -0.3980
19849TIP3    H180962   0.433   5.716  12.419 -0.0742 -0.1623  0.6297
19849TIP3    H280963   0.556   5.735  12.333 -1.1111  0.9632 -0.6220
19850TIP3   OH280964   3.268   5.453   4.769 -0.1281 -0.4536  0.1764
19850TIP3    H180965   3.235   5.450   4.679  2.3862 -0.4436 -0.7994
19850TIP3    H280966   3.294   5.545   4.782  0.1705 -0.6034  0.6565
19851TIP3   OH280967   6.555   0.693  14.470 -0.1389  0.5111 -0.0678
19851TIP3    H180968   6.605   0.751  14.527 -1.5341 -0.2726  2.0033
19851TIP3    H280969   6.470   0.737  14.460 -1.4472 -1.4189  2.0503
19852TIP3   OH280970   4.004   5.895  16.991 -0.1427  0.2914 -0.0189
19852TIP3    H180971   3.982   5.986  17.010 -0.0954  0.3654 -0.3130
19852TIP3    H280972   4.087   5.900  16.944  1.1091 -0.0661  2.0809
19853TIP3   OH280973   0.371   2.640   5.763  0.4175 -0.4718 -0.4272
19853TIP3    H180974   0.295   2.643   5.821  1.7696  0.6202  1.3352
19853TIP3    H280975   0.426   2.571   5.800  0.4019 -1.1053 -1.5698
19854TIP3   OH280976   4.493   6.274   5.117 -0.1003 -0.1202 -0.8179
19854TIP3    H180977   4.472   6.240   5.203  0.0383  0.6689 -0.4689
19854TIP3    H280978   4.426   6.237   5.059 -0.0269 -0.8728 -0.4254
19855TIP3   OH280979   2.657   6.488   0.741  0.8448 -0.0157  0.3277
19855TIP3    H180980   2.660   6.445   0.827  1.4561 -0.2726  0.1835
19855TIP3    H280981   2.739   6.461   0.698  0.9725  0.8395  0.0179
19856TIP3   OH280982   0.336   0.931  11.908  0.4762  0.1795  0.3127
19856TIP3    H180983   0.336   1.017  11.949  2.0041 -0.1159  0.9865
19856TIP3    H280984   0.409   0.934  11.846  2.9553 -1.7552  2.9418
19857TIP3   OH280985   6.222   5.364  17.238 -0.1535 -0.1071  0.2391
19857TIP3    H180986   6.208   5.392  17.328 -1.0581  1.1107 -0.2689
19857TIP3    H280987   6.313   5.389  17.218 -0.5472  1.3310  0.2065
19858TIP3   OH280988   0.103   1.766  14.241  0.5014  0.0492 -0.2803
19858TIP3    H180989   0.109   1.712  14.162 -1.0743  0.3463 -0.6121
19858TIP3    H280990   0.184   1.817  14.240  1.0556 -0.8025 -1.0600
19859TIP3   OH280991   6.655   6.362  13.789  0.0503  0.5827  0.1441
19859TIP3    H180992   6.750   6.362  13.777  0.2382  2.0090  1.3239
19859TIP3    H280993   6.643   6.345  13.883 -0.8525  0.3028 -0.0191
19860TIP3   OH280994   5.501   1.870   0.751  0.7571  0.1874 -0.1522
19860TIP3    H180995   5.409   1.863   0.776  0.2470  0.4528 -1.8888
19860TIP3    H280996   5.548   1.875   0.834 -0.7935  0.0723  0.7515
19861TIP3   OH280997   4.912   2.845   2.205  0.2588 -0.2401 -0.0422
19861TIP3    H180998   4.840   2.820   2.147 -0.5326 -0.0006  0.8219
19861TIP3    H280999   4.989   2.849   2.148 -0.1821 -1.6421 -0.7654
19862TIP3   OH281000   2.038   2.531   4.272  0.3146 -0.1140  0.1044
19862TIP3    H181001   1.976   2.597   4.240 -0.4736  0.0508  1.9080
19862TIP3    H281002   2.010   2.450   4.230 -0.3847  0.1972 -0.0390
19863TIP3   OH281003   4.957   5.703  12.868 -0.0650  0.7805 -0.0625
19863TIP3    H181004   4.956   5.798  12.853  2.0752  0.9831  0.8247
19863TIP3    H281005   4.866   5.681  12.885 -0.3806  2.9776  1.3832
19864TIP3   OH281006   6.332   5.538  12.867  0.2509  0.5429  1.0385
19864TIP3    H181007   6.374   5.615  12.828 -0.1748  1.0847  1.6440
19864TIP3    H281008   6.239   5.557  12.864  0.0358 -0.6128 -0.2021
19865TIP3   OH281009   5.562   1.720   0.996  0.2935  0.2112 -0.4363
19865TIP3    H181010   5.563   1.650   0.931  0.9871  0.8775 -1.1562
19865TIP3    H281011   5.651   1.755   0.995  0.1645  0.5885  0.4802
19866TIP3   OH281012   3.918   2.986   5.968 -0.1164 -0.1596 -0.2975
19866TIP3    H181013   3.915   3.075   6.003 -0.3607 -0.8111  1.3832
19866TIP3    H281014   3.843   2.942   6.007 -0.8510 -0.7028 -2.2857
19867TIP3   OH281015   0.499   3.578   1.963 -0.4634 -0.4761 -0.7337
19867TIP3    H181016   0.453   3.511   1.914 -1.6669 -0.3490  0.2102
19867TIP3    H281017   0.545   3.629   1.896 -0.8218 -1.2601 -1.5844
19868TIP3   OH281018   6.479   3.428  12.073  0.4347  0.5297  0.2063
19868TIP3    H181019   6.544   3.382  12.019  1.9712  0.3467  2.1593
19868TIP3    H281020   6.473   3.376  12.153 -0.2210  1.9576  1.1058
19869TIP3   OH281021   4.184   5.397   6.008  0.3963 -0.3044  0.1292
19869TIP3    H181022   4.278   5.388   6.026  0.3369 -0.7423  0.2343
19869TIP3    H281023   4.179   5.448   5.927  0.7882 -2.1490 -1.0881
19870TIP3   OH281024   0.447   1.172  13.633  0.2021  0.1808 -0.7515
19870TIP3    H181025   0.474   1.239  13.570 -0.6210 -1.0624 -2.4556
19870TIP3    H281026   0.352   1.180  13.638 -0.0397 -1.7090 -1.9709
19871TIP3   OH281027   5.220   2.993   1.363 -0.0671 -0.4971 -1.2051
19871TIP3    H181028   5.278   3.040   1.422  1.1251 -0.0327 -2.7351
19871TIP3    H281029   5.132   3.022   1.388  0.5128  0.8354 -0.6685
19872TIP3   OH281030   2.523   1.481   2.161  0.3970  0.0302 -0.1955
19872TIP3    H181031   2.447   1.469   2.218  1.2992  0.4747  1.0945
19872TIP3    H281032   2.563   1.394   2.156  0.6639  0.1204  0.3414
19873TIP3   OH281033   3.803   2.889   6.243  0.2170 -0.1102 -0.6407
19873TIP3    H181034   3.817   2.974   6.284  1.4423 -0.6769  0.1437
19873TIP3    H281035   3.714   2.864   6.270  0.1844  0.5202 -0.1576
19874TIP3   OH281036   5.085   0.015   1.418 -0.1103  0.1397  0.5003
19874TIP3    H181037   5.125   0.093   1.380 -0.4756  0.0257 -0.1151
19874TIP3    H281038   4.991   0.028   1.407 -0.1635 -0.4870  0.2042
19875TIP3   OH281039   2.872   3.222  15.696  0.7568  0.2398 -0.0989
19875TIP3    H181040   2.893   3.139  15.654  1.0062 -0.1381  0.7515
19875TIP3    H281041   2.938   3.231  15.766 -1.6047 -0.7373  2.3242
19876TIP3   OH281042   6.446   3.183  13.050 -0.2373  0.3495  0.1720
19876TIP3    H181043   6.370   3.209  13.102  0.4993  0.4750  1.1995
19876TIP3    H281044   6.508   3.255  13.061  1.1721 -1.0704  1.6818
19877TIP3   OH281045   0.308   2.452   4.168  0.1928  0.0827  0.2785
19877TIP3    H181046   0.215   2.470   4.153 -0.2996 -2.5473  0.0477
19877TIP3    H281047   0.312   2.426   4.260 -0.1319 -4.4862 -0.8580
19878TIP3   OH281048   2.443   6.456  14.799 -0.0239 -0.2844 -0.3624
19878TIP3    H181049   2.459   6.549  14.811 -0.8914  0.0415 -1.7536
19878TIP3    H281050   2.349   6.448  14.787 -0.2172 -1.5684  1.7179
19879TIP3   OH281051   2.713   1.837   5.253  0.3091  0.2322  0.0958
19879TIP3    H181052   2.691   1.908   5.193 -0.3233  1.9508  2.3244
19879TIP3    H281053   2.636   1.779   5.250  0.0024  0.6578 -0.2272
19880TIP3   OH281054   4.041   6.591  10.648 -0.1384 -0.6325  0.3413
19880TIP3    H181055   4.066   6.589  10.741  2.6011 -1.7471 -0.3673
19880TIP3    H281056   4.063   6.680  10.619 -2.6569  0.3006  1.1339
19881TIP3   OH281057   5.351   1.701  11.873 -0.1039 -0.2953  0.2128
19881TIP3    H181058   5.389   1.618  11.845  0.9929 -0.1422  1.2326
19881TIP3    H281059   5.309   1.736  11.794  1.5606 -0.6483 -0.8541
19882TIP3   OH281060   5.663   1.678   2.533 -0.2605 -0.6016  0.2834
19882TIP3    H181061   5.594   1.662   2.597  0.2073  1.6501  1.3982
19882TIP3    H281062   5.654   1.771   2.511  0.4610 -1.0213 -1.8949
19883TIP3   OH281063   3.842   0.452  12.727 -0.1064 -0.2583  0.2002
19883TIP3    H181064   3.749   0.448  12.748 -0.6240 -0.0896 -1.9840
19883TIP3    H281065   3.875   0.365  12.750 -1.0575 -0.7390 -0.2342
19884TIP3   OH281066   0.197   3.515  13.761 -0.4129 -0.4382  0.2242
19884TIP3    H181067   0.142   3.562  13.823  0.4474 -0.0809  0.7241
19884TIP3    H281068   0.136   3.479  13.697 -1.3546 -1.1164  1.4795
19885TIP3   OH281069   3.275   5.436  13.787  0.1246  0.8614 -0.6057
19885TIP3    H181070   3.265   5.410  13.695 -0.7791  0.8975 -0.5236
19885TIP3    H281071   3.312   5.359  13.830 -2.1215 -0.1755 -0.4558
19886TIP3   OH281072   5.281   2.250  13.482 -0.1745  0.4304 -0.2307
19886TIP3    H181073   5.314   2.175  13.433 -1.2870 -0.9784  1.1133
19886TIP3    H281074   5.287   2.324  13.420  1.1467 -0.6971 -1.4904
19887TIP3   OH281075   5.296   0.516   1.687  0.2389  0.6040 -0.2088
19887TIP3    H181076   5.328   0.606   1.679  0.2630  0.5521 -0.7761
19887TIP3    H281077   5.201   0.522   1.678  0.4018  0.3607 -2.3490
19888TIP3   OH281078   1.482   3.296   2.735  0.0711 -0.1949 -0.2931
19888TIP3    H181079   1.388   3.308   2.749  0.3467  0.9619  0.7051
19888TIP3    H281080   1.505   3.218   2.787  0.1654  1.1785  1.7772
19889TIP3   OH281081   0.764   0.889   5.348 -0.1889  0.2083  0.5323
19889TIP3    H181082   0.857   0.865   5.342 -0.3509 -0.1518 -0.7498
19889TIP3    H281083   0.718   0.806   5.337 -0.6674  0.4541  0.6927
19890TIP3   OH281084   4.861   2.614   2.054 -0.4796  0.1722 -0.3012
19890TIP3    H181085   4.907   2.546   2.004 -0.1464  0.2091 -0.0524
19890TIP3    H281086   4.864   2.582   2.144  0.4653  0.9441 -0.0526
19891TIP3   OH281087   0.486   2.045   4.463 -0.6113  0.3837  0.2687
19891TIP3    H181088   0.440   1.978   4.514  1.4666 -2.1403 -1.0387
19891TIP3    H281089   0.560   2.071   4.518 -0.9823  1.0535  0.4552
19892TIP3   OH281090   0.167   3.484   2.501  0.0189 -0.3472 -0.4046
19892TIP3    H181091   0.080   3.445   2.501 -0.5893  0.9586 -0.9575
19892TIP3    H281092   0.221   3.424   2.552 -1.2144 -1.1369 -0.0122
19893TIP3   OH281093   0.580   4.680   4.365  0.1549  0.0263 -0.2843
19893TIP3    H181094   0.652   4.725   4.322 -0.1828  1.3875  0.5450
19893TIP3    H281095   0.504   4.695   4.308  0.2379 -0.2778 -0.4763
19894TIP3   OH281096   2.008   4.474  13.750 -0.8139 -0.4432  0.4834
19894TIP3    H181097   2.072   4.531  13.794 -1.4885 -0.2610  1.2493
19894TIP3    H281098   2.060   4.403  13.713 -0.0890  0.0761  0.4897
19895TIP3   OH281099   0.097   3.019  11.699  0.2173  0.3943  0.0074
19895TIP3    H181100   0.132   3.101  11.665  1.2601  0.5517  1.4110
19895TIP3    H281101   0.032   2.991  11.634  0.5706  1.8134 -0.9650
19896TIP3   OH281102   6.132   5.655   0.436  0.8855 -0.2335 -0.2081
19896TIP3    H181103   6.159   5.695   0.353  1.0192 -0.1832 -0.1403
19896TIP3    H281104   6.075   5.583   0.410  0.6478 -0.0010 -0.3317
19897TIP3   OH281105   4.957   5.325   4.317 -0.2011  0.4383  0.2445
19897TIP3    H181106   4.875   5.286   4.347  0.3745  0.7191  2.2699
19897TIP3    H281107   4.983   5.272   4.242 -2.1934  0.3051 -0.3856
19898TIP3   OH281108   1.500   6.283   5.531  0.3523 -0.2727 -0.2784
19898TIP3    H181109   1.410   6.294   5.503  0.1259  1.2120  0.9815
19898TIP3    H281110   1.547   6.258   5.451 -1.2465 -1.6219 -0.8305
19899TIP3   OH281111   1.486   3.758  15.088  0.4386 -0.1497 -0.1627
19899TIP3    H181112   1.566   3.771  15.038  1.0003  0.6221  0.9269
19899TIP3    H281113   1.514   3.720  15.171 -0.3783 -0.3964  0.0128
19900TIP3   OH281114   0.633   3.434  16.547 -0.6921 -0.0610 -0.3992
19900TIP3    H181115   0.606   3.524  16.528  0.4862 -0.0925 -2.3395
19900TIP3    H281116   0.720   3.426  16.507  0.7129 -1.0332  2.6863
19901TIP3   OH281117   3.041   2.353  16.177  0.1812  0.1259  0.1351
19901TIP3    H181118   3.081   2.306  16.104 -0.9785 -2.0993  0.8751
19901TIP3    H281119   2.947   2.339  16.166 -0.0382  0.2161  1.7329
19902TIP3   OH281120   4.275   2.381   5.756  0.6891 -0.5659 -0.0263
19902TIP3    H181121   4.346   2.402   5.695  1.5940 -1.6080  0.6449
19902TIP3    H281122   4.199   2.368   5.700  0.9882  0.6885 -0.7467
19903TIP3   OH281123   4.867   3.679  14.928 -0.2127 -0.1501 -0.2296
19903TIP3    H181124   4.842   3.613  14.863 -1.3522 -0.3074  0.3584
19903TIP3    H281125   4.863   3.762  14.880  0.7457 -0.4549 -0.8433
19904TIP3   OH281126   2.210   2.002  13.643  0.2366 -0.0843 -0.1037
19904TIP3    H181127   2.203   1.936  13.713  1.2795 -1.6743 -1.4514
19904TIP3    H281128   2.139   1.981  13.583  0.6631 -0.0831 -0.6139
19905TIP3   OH281129   4.252   5.148   2.762 -0.1966 -0.3507 -0.5518
19905TIP3    H181130   4.218   5.072   2.810 -1.4658 -0.2688 -1.3100
19905TIP3    H281131   4.202   5.222   2.796 -2.7918 -0.6072 -3.6420
19906TIP3   OH281132   5.833   5.742  16.829  0.3025  0.3336  0.0579
19906TIP3    H181133   5.818   5.820  16.883 -0.7621 -0.8594  1.5085
19906TIP3    H281134   5.762   5.682  16.853  2.0322 -1.7230  0.1344
19907TIP3   OH281135   3.577   5.068  14.049 -0.1099 -0.2106  0.2526
19907TIP3    H181136   3.535   5.070  14.135 -1.3121 -2.1012 -0.2589
19907TIP3    H281137   3.594   4.976  14.032  0.6336  0.1881 -1.2968
19908TIP3   OH281138   6.047   0.972   1.418 -0.3615 -0.6223  0.6650
19908TIP3    H181139   6.041   1.011   1.506 -0.4914  0.4185  0.2031
19908TIP3    H281140   6.139   0.981   1.394 -0.6912  0.8439 -0.0854
19909TIP3   OH281141   6.773   5.476   5.053  0.1723 -0.1582  0.1770
19909TIP3    H181142   6.782   5.570   5.037  1.3919 -0.0456  1.4182
19909TIP3    H281143   6.854   5.438   5.018 -0.4380 -0.7877 -0.5682
19910TIP3   OH281144   3.948   3.488   0.689  0.6898  0.0393  0.6419
19910TIP3    H181145   4.003   3.417   0.723  0.6842  0.3336  1.2779
19910TIP3    H281146   4.007   3.564   0.686  0.9098 -0.1793 -0.7900
19911TIP3   OH281147   2.181   0.772  14.099  0.0643  0.3172  0.4501
19911TIP3    H181148   2.237   0.782  14.023 -0.0600 -0.0066  0.3138
19911TIP3    H281149   2.172   0.860  14.135  0.0103  0.4917  0.0112
19912TIP3   OH281150   5.827   3.897  15.599  0.1400  0.2700 -0.2674
19912TIP3    H181151   5.839   3.844  15.520  2.7530  0.8395 -0.2887
19912TIP3    H281152   5.745   3.943  15.585 -1.1670 -2.2377 -1.1389
19913TIP3   OH281153   0.270   0.079   5.409 -0.1274  0.3891  0.2115
19913TIP3    H181154   0.251  -0.001   5.457  2.3361 -1.1773 -1.3421
19913TIP3    H281155   0.299   0.141   5.476  0.4695 -0.8280  1.0925
19914TIP3   OH281156   5.693   2.909  15.592  0.1768 -0.3382  0.1413
19914TIP3    H181157   5.679   2.815  15.604 -1.5124 -0.0039  1.0240
19914TIP3    H281158   5.616   2.938  15.543  0.0311  0.8197  1.0571
19915TIP3   OH281159   2.769   5.722  13.547 -0.0789  0.4546 -0.4462
19915TIP3    H181160   2.805   5.661  13.611  0.8244  2.1747  0.7291
19915TIP3    H281161   2.677   5.733  13.573  0.2668  1.0918  0.5385
19916TIP3   OH281162   2.104   1.896   4.843  0.2770  0.1764 -0.0461
19916TIP3    H181163   2.044   1.904   4.769 -1.1982 -0.7394  1.0194
19916TIP3    H281164   2.170   1.963   4.827 -0.9038  1.0744 -1.3563
19917TIP3   OH281165   4.469   1.696  12.660 -0.0187  0.1261  0.1094
19917TIP3    H181166   4.473   1.785  12.625  0.4425  0.0762  0.0286
19917TIP3    H281167   4.555   1.681  12.699 -0.0957 -0.2784  0.1343
19918TIP3   OH281168   0.981   0.076   4.873 -0.5406 -0.4099 -0.1350
19918TIP3    H181169   0.886   0.067   4.874 -0.6746  0.5863 -1.6747
19918TIP3    H281170   0.997   0.149   4.813  1.2566 -1.5739 -1.1148
19919TIP3   OH281171   4.791   2.518  16.751  0.2454  0.5918  0.1172
19919TIP3    H181172   4.738   2.591  16.719  1.2354  0.7625 -1.1890
19919TIP3    H281173   4.768   2.509  16.843  0.0533  2.4947  0.2618
19920TIP3   OH281174   1.407   3.172  12.638 -0.0717  0.0133  0.0119
19920TIP3    H181175   1.387   3.260  12.607 -0.0777 -0.0237 -0.0907
19920TIP3    H281176   1.418   3.121  12.558 -0.8615 -0.2601  0.0687
19921TIP3   OH281177   0.023   1.137   4.984  0.0305 -0.2238 -0.0376
19921TIP3    H181178   0.097   1.094   5.027 -0.9939 -1.3080  0.6619
19921TIP3    H281179  -0.051   1.122   5.043 -0.4083  2.2835  0.1097
19922TIP3   OH281180   2.070   2.176  14.594  0.2694  0.1736  0.3464
19922TIP3    H181181   2.156   2.202  14.627 -0.2175  1.4931  0.6060
19922TIP3    H281182   2.063   2.219  14.509  0.4919 -1.1916 -0.3740
19923TIP3   OH281183   2.429   5.936   2.329  0.2279 -0.4330  0.1202
19923TIP3    H181184   2.335   5.951   2.326  0.4216  0.9217  0.6511
19923TIP3    H281185   2.439   5.853   2.377 -0.6266  0.1436  1.3001
19924TIP3   OH281186   4.944   3.535   2.800  0.2719  0.3220  0.5132
19924TIP3    H181187   4.966   3.456   2.849 -1.3686 -0.1582  0.4874
19924TIP3    H281188   4.854   3.522   2.772 -0.2308  2.4794  1.0340
19925TIP3   OH281189   2.195   1.854  12.918  0.1306 -0.3013  0.0678
19925TIP3    H181190   2.189   1.946  12.893 -0.9646 -0.7153 -1.2564
19925TIP3    H281191   2.105   1.828  12.936  0.5955 -0.7614  1.7807
19926TIP3   OH281192   1.413   0.261   5.045 -0.2870  0.3862  0.3677
19926TIP3    H181193   1.500   0.241   5.010 -0.0573 -0.6088  1.4649
19926TIP3    H281194   1.400   0.354   5.027 -0.1334 -0.0508 -2.2223
19927TIP3   OH281195   4.610   3.938   6.697 -1.2486 -0.4349  0.1470
19927TIP3    H181196   4.664   3.859   6.684 -2.0551 -1.1251  0.9961
19927TIP3    H281197   4.575   3.929   6.785  0.2061  1.8348  0.9898
19928TIP3   OH281198   5.335   6.504   6.015  0.0884  0.3695  0.2795
19928TIP3    H181199   5.349   6.412   5.997  0.5174  0.8405 -1.8503
19928TIP3    H281200   5.248   6.507   6.056 -0.6150 -0.7922 -1.1156
19929TIP3   OH281201   1.617   5.828   0.913 -0.1298 -0.2739 -0.7061
19929TIP3    H181202   1.534   5.874   0.899 -0.0421  0.5073  1.2019
19929TIP3    H281203   1.683   5.886   0.876 -0.0574  0.9963  1.3507
19930TIP3   OH281204   5.185   2.962   5.060 -0.2817  0.0827  0.5105
19930TIP3    H181205   5.189   2.924   4.972 -1.0710  0.1962  0.4159
19930TIP3    H281206   5.092   2.960   5.082 -0.1659  0.6758  1.0666
19931TIP3   OH281207   2.947   6.711  10.781 -0.2469  0.0297 -0.4504
19931TIP3    H181208   2.924   6.618  10.784  3.7978 -1.0733 -0.4736
19931TIP3    H281209   2.918   6.740  10.694 -1.3155 -1.2785 -0.5366
19932TIP3   OH281210   3.534   3.861  10.606  0.2588 -0.0062  0.4915
19932TIP3    H181211   3.588   3.829  10.534 -1.0798 -0.5918 -0.2609
19932TIP3    H281212   3.452   3.888  10.565  0.4215  2.0002  1.4711
19933TIP3   OH281213   4.031   4.102  16.658 -0.4714 -0.3830 -0.3216
19933TIP3    H181214   4.065   4.186  16.627 -2.4668 -0.2593 -2.3405
19933TIP3    H281215   3.945   4.123  16.694 -1.5736 -1.7096 -2.0928
19934TIP3   OH281216   6.521   0.833   3.655  0.3650 -0.2988 -0.1056
19934TIP3    H181217   6.541   0.850   3.563  0.5713 -0.2270 -0.0470
19934TIP3    H281218   6.585   0.884   3.704 -0.9668  1.2174  0.0909
19935TIP3   OH281219   1.885   0.607   0.979 -0.0678  0.6843 -0.3700
19935TIP3    H181220   1.901   0.517   0.950 -0.6687  0.1329  0.9667
19935TIP3    H281221   1.952   0.659   0.935  0.6546 -0.5084 -0.6875
19936TIP3   OH281222   6.219   0.998   5.399  0.0508  0.2264  0.1777
19936TIP3    H181223   6.192   1.061   5.466 -0.0368 -2.0349  2.3537
19936TIP3    H281224   6.181   0.915   5.428  2.1942 -1.3148 -1.2910
19937TIP3   OH281225   3.747   4.677  10.658  0.0157 -0.1627 -0.0736
19937TIP3    H181226   3.759   4.772  10.662  1.8711 -0.4268  1.5210
19937TIP3    H281227   3.762   4.647  10.748 -4.0792 -1.6051  0.2200
19938TIP3   OH281228   3.819   0.935   1.334 -0.1075 -0.3454  0.1698
19938TIP3    H181229   3.737   0.984   1.331  0.3949  0.4405 -3.4046
19938TIP3    H281230   3.796   0.849   1.297  0.4374 -0.5315  0.2653
19939TIP3   OH281231   5.952   0.687   1.688  0.6979 -0.3018 -0.0775
19939TIP3    H181232   5.970   0.633   1.764  0.3421 -0.6921 -0.2664
19939TIP3    H281233   6.038   0.706   1.650  0.9839  1.0527  1.2076
19940TIP3   OH281234   0.188   1.763   4.796  0.8425 -0.1795 -0.2540
19940TIP3    H181235   0.227   1.849   4.780  0.8536 -0.6751 -3.2389
19940TIP3    H281236   0.251   1.701   4.758  0.4074 -1.4565  1.0554
19941TIP3   OH281237   2.316   1.264  12.549  0.6057  0.2315  0.2052
19941TIP3    H181238   2.351   1.343  12.590  0.9940  0.9376 -1.4183
19941TIP3    H281239   2.248   1.296  12.490 -0.5338 -0.8301  0.9307
19942TIP3   OH281240   0.920   0.600  12.076 -0.1029 -0.5141 -0.0200
19942TIP3    H181241   0.850   0.534  12.072 -0.1257 -0.5565  0.9272
19942TIP3    H281242   0.997   0.551  12.104  0.4928 -0.5980 -1.7525
19943TIP3   OH281243   1.381   6.645   3.760  0.1848 -0.3828  0.5873
19943TIP3    H181244   1.289   6.662   3.741 -0.2726 -1.9634  1.2867
19943TIP3    H281245   1.400   6.564   3.712  1.0901 -0.3129  0.8173
19944TIP3   OH281246   5.206   1.996   1.618  0.4497  0.6493  0.2796
19944TIP3    H181247   5.124   1.946   1.619 -0.1244  1.5211 -1.2451
19944TIP3    H281248   5.250   1.967   1.538  1.8251 -0.1085  1.2984
19945TIP3   OH281249   6.670   3.171   2.056 -0.1940  0.0602 -1.0652
19945TIP3    H181250   6.607   3.103   2.033 -1.0154  0.1641  0.8696
19945TIP3    H281251   6.705   3.144   2.141  0.9161  1.0376 -1.1988
19946TIP3   OH281252   4.227   5.671   0.125 -0.7569 -0.2234 -0.0079
19946TIP3    H181253   4.156   5.731   0.104 -1.5985 -1.2520 -0.1491
19946TIP3    H281254   4.221   5.657   0.219  0.0050  0.6062  0.1756
19947TIP3   OH281255   4.995   6.037   1.524  0.1248  0.2795  0.0727
19947TIP3    H181256   5.022   5.976   1.592  0.1764  0.2566  0.0322
19947TIP3    H281257   5.057   6.022   1.452  0.5289  0.8171  0.3024
19948TIP3   OH281258   1.650   5.867  13.192 -0.0750  0.0421 -0.4724
19948TIP3    H181259   1.670   5.773  13.195  0.2236  0.0660 -1.5532
19948TIP3    H281260   1.554   5.871  13.198 -0.3288 -0.5156 -3.6410
19949TIP3   OH281261   0.456   0.605  16.262  0.1557 -0.2519  0.5394
19949TIP3    H181262   0.513   0.682  16.265  1.9766 -1.5752  1.6007
19949TIP3    H281263   0.479   0.561  16.180 -0.0102 -0.2881  0.5127
19950TIP3   OH281264   2.123   6.456   3.940 -0.1145  0.2070  0.3245
19950TIP3    H181265   2.167   6.508   3.873 -0.3632  0.3937  0.3057
19950TIP3    H281266   2.036   6.439   3.904 -0.2561  0.3278  0.6118
19951TIP3   OH281267   6.563   4.349   4.272 -1.0248 -0.4537  0.3164
19951TIP3    H181268   6.558   4.382   4.362 -1.0919 -1.4599  0.6927
19951TIP3    H281269   6.647   4.303   4.268  0.3880  2.1295 -1.0363
19952TIP3   OH281270   2.829   6.029   1.091 -0.1939 -0.4012  0.1903
19952TIP3    H181271   2.860   6.070   1.172  2.2422 -1.4577 -0.1739
19952TIP3    H281272   2.874   5.945   1.088  0.3564 -0.0520 -2.6256
19953TIP3   OH281273   5.103   0.855   4.691  0.2017  0.3477  0.0980
19953TIP3    H181274   5.121   0.768   4.726  0.6186  1.1847  2.0660
19953TIP3    H281275   5.176   0.909   4.721  1.3989  0.8178 -3.4280
19954TIP3   OH281276   4.170   0.311  12.525 -0.1128 -0.3154 -0.0895
19954TIP3    H181277   4.208   0.366  12.593  0.6178 -2.3789  1.2271
19954TIP3    H281278   4.164   0.368  12.448  2.3358  1.0597  0.6870
19955TIP3   OH281279   6.579   5.473   2.093  0.0340  0.2498 -0.0435
19955TIP3    H181280   6.664   5.503   2.124  0.3565  1.2758 -1.8739
19955TIP3    H281281   6.599   5.398   2.037 -0.4554 -0.8271  1.1833
19956TIP3   OH281282   2.412   2.339  15.989  0.0023 -0.3676  0.7581
19956TIP3    H181283   2.378   2.359  15.902 -0.7478 -1.3940  0.8106
19956TIP3    H281284   2.484   2.278  15.973 -2.3924 -3.3263  1.0803
19957TIP3   OH281285   4.409   1.037  11.522  0.1918 -0.3283 -0.2280
19957TIP3    H181286   4.404   1.051  11.617 -0.2290 -0.7086 -0.1927
19957TIP3    H281287   4.503   1.036  11.503  0.2718  1.5016 -0.0770
19958TIP3   OH281288   6.043   5.173  14.308  0.7893 -0.1124  0.0268
19958TIP3    H181289   6.136   5.157  14.294  1.1571 -0.2751  2.3720
19958TIP3    H281290   6.028   5.147  14.400 -1.6291 -0.4246 -0.4132
19959TIP3   OH281291   3.419   5.173  11.525 -0.0408 -0.1845  0.1745
19959TIP3    H181292   3.506   5.164  11.566  0.0663  1.7620  0.4116
19959TIP3    H281293   3.363   5.115  11.577  0.8933 -0.6608  0.6807
19960TIP3   OH281294   2.505   1.520   1.213  0.5208 -0.3210 -0.3530
19960TIP3    H181295   2.471   1.515   1.303 -0.7625 -0.3192 -0.8230
19960TIP3    H281296   2.446   1.464   1.163  0.3918  0.7959 -1.4480
19961TIP3   OH281297   0.995   6.273   6.012 -0.2642 -0.1161 -0.1474
19961TIP3    H181298   0.955   6.219   5.944  0.1802 -0.0577 -0.4541
19961TIP3    H281299   1.007   6.214   6.086 -2.2838  0.2057  0.4765
19962TIP3   OH281300   6.413   5.369  13.706 -0.5908 -0.1026  0.4307
19962TIP3    H181301   6.336   5.377  13.649 -1.3781 -1.5675  1.2659
19962TIP3    H281302   6.412   5.278  13.735  0.4455  0.3400  1.8837
19963TIP3   OH281303   1.939   4.728  14.258 -0.8270 -0.3320 -0.0807
19963TIP3    H181304   1.952   4.798  14.322 -0.0591 -0.6522  0.1164
19963TIP3    H281305   1.866   4.676  14.294  0.1748 -1.0276  0.9980
19964TIP3   OH281306   4.193   3.361  12.537  0.4846  0.4988 -0.0357
19964TIP3    H181307   4.150   3.443  12.560  1.0482  1.0767 -1.0100
19964TIP3    H281308   4.266   3.387  12.480  1.8134 -0.5123  1.1702
19965TIP3   OH281309   1.455   4.878   3.517 -0.3180  0.2784  0.7484
19965TIP3    H181310   1.402   4.954   3.493 -1.8192 -1.5279 -2.0062
19965TIP3    H281311   1.392   4.816   3.555  0.2691 -0.8612 -0.0992
19966LIG     O181312   1.536   1.735  16.469 -0.5020 -0.1463 -0.3648
19966LIG     O281313   1.435   1.936  16.421  0.1067  0.7589 -0.1511
19966LIG     O381314   1.435   1.970  16.656 -0.0223  0.1772  0.6365
19966LIG     O481315   1.362   1.645  16.226  0.1854 -0.0594 -0.1623
19966LIG     O581316   1.211   1.561  16.449  0.5164 -0.0670 -0.4961
19966LIG     O681317   1.585   2.165  16.387  0.3842 -0.0158 -0.0968
19966LIG     O781318   1.292   2.202  16.398  0.1804  1.1414 -0.6029
19966LIG     O881319   1.178   2.234  16.659  0.1049 -0.2132 -0.0715
19966LIG     O981320   1.510   1.858  16.119 -0.0847 -0.1230  0.0922
19966LIG    O1081321   1.464   1.708  16.737  0.0066  0.4564 -0.1178
19966LIG    O1181322   1.108   1.904  16.767  0.2775  0.5642  0.0331
19966LIG     C181323   1.486   1.812  16.366 -0.1998  0.4954 -0.0104
19966LIG     C281324   1.347   1.744  16.330  0.1965 -0.1039  0.1386
19966LIG     C381325   1.306   1.669  16.462  0.1960 -0.4584  0.3323
19966LIG     C481326   1.441   1.633  16.512  0.0515  0.9840 -0.0603
19966LIG     C581327   1.499   2.002  16.533  0.0429  0.6445 -0.2490
19966LIG     C681328   1.516   2.149  16.510  0.0329 -0.8595 -0.4441
19966LIG     C781329   1.375   2.214  16.517 -0.0489  0.2291  0.4693
19966LIG     C881330   1.311   2.173  16.652  0.8502  0.6204 -0.0975
19966LIG     C981331   1.300   2.019  16.665 -0.0785 -0.6216  0.0262
19966LIG    C1081332   1.583   1.829  16.243 -0.4147 -0.1212 -0.0592
19966LIG    C1181333   1.455   1.595  16.658 -0.7740 -0.2331  0.0149
19966LIG    C1281334   1.234   1.959  16.794 -0.3985 -0.0263 -0.1802
19966LIG     H181335   1.271   1.815  16.295 -0.6803 -0.9333  0.3154
19966LIG     H281336   1.262   1.738  16.535 -1.5362 -0.2070 -0.9287
19966LIG     H381337   1.473   1.547  16.451  0.7703  2.5590 -1.9416
19966LIG     H481338   1.601   1.959  16.545 -0.2283 -0.3579 -1.4272
19966LIG     H581339   1.574   2.189  16.595 -0.6978 -1.4952  0.3564
19966LIG     H681340   1.391   2.324  16.521 -1.2649  0.6934 -3.9773
19966LIG     H781341   1.372   2.207  16.739  1.1524 -1.6659  0.6297
19966LIG     H881342   1.243   1.984  16.577  0.1101  0.3556 -0.4918
19966LIG     H981343   1.667   1.901  16.248 -1.4986  1.0688  1.9108
19966LIG    H1081344   1.637   1.735  16.222  0.0082  0.8909 -3.9780
19966LIG    H1181345   1.368   1.532  16.687 -0.7616 -0.6364 -0.8048
19966LIG    H1281346   1.548   1.536  16.671  0.3025  1.7455  1.4143
19966LIG    H1381347   1.303   1.883  16.837  0.1623  0.3793 -0.3431
19966LIG    H1481348   1.229   2.043  16.867  0.2431  0.7975 -1.0570
19966LIG    H1581349   1.381   1.695  16.147 -0.5410 -3.3062 -2.5349
19966LIG    H1681350   1.255   1.506  16.383  1.6487  1.6895 -1.2392
19966LIG    H1781351   1.667   2.116  16.398 -0.6211 -1.6538  0.2646
19966LIG    H1881352   1.295   2.108  16.376 -1.2784  0.8279  0.5053
19966LIG    H1981353   1.129   2.169  16.608  0.5500 -0.4096 -0.2516
19966LIG    H2081354   1.565   1.833  16.044 -1.2283 -0.0251 -0.7877
19966LIG    H2181355   1.440   1.780  16.678  0.3402  1.3031  0.7550
19966LIG    H2281356   1.108   1.812  16.797  2.2050 -0.4871 -2.9617
   6.78697   6.78697  17.23950
